Membrane in water
40344
    1TMC1    C1    1   1.003   2.552  11.627  0.1136  0.2380  0.9212
    1TMC1    C2    2   1.106   2.484  11.564 -0.4291  0.3221  0.9048
    1TMC1    C3    3   1.219   2.556  11.538 -0.7984  0.4906 -0.0350
    1TMC1    C4    4   1.023   2.681  11.662  0.0330 -0.8677  0.4463
    1TMC1    C5    5   1.132   2.748  11.620 -0.1283  0.2431 -0.2499
    1TMC1    C6    6   1.237   2.687  11.560 -0.1085 -0.1449  0.1999
    1TMC1     C    7   0.895   2.480  11.690 -0.9291  0.9324  0.6234
    1TMC1     O    8   0.796   2.542  11.718 -0.0406  0.5387  0.2263
    1TMC1     H    9   1.089   2.380  11.539  2.7361 -0.1581  0.7938
    1TMC1    H1   10   0.955   2.726  11.733 -0.2234 -1.1550  0.3867
    1TMC1    H2   11   1.327   2.742  11.537 -1.9176  2.7582 -0.0793
    1TMC1    C7   12   1.160   2.867  11.692  0.5133  0.1743  0.0141
    1TMC1    C8   13   1.317   2.471  11.475  0.1114 -0.4715  0.0672
    1TMC1    O1   14   1.273   2.909  11.699 -0.4810 -0.1939  0.2339
    1TMC1    O2   15   1.280   2.377  11.410 -0.0387  0.5027  0.2122
    1TMC1    O3   16   1.048   2.937  11.670 -0.1278 -0.2077  0.1094
    1TMC1    H3   17   0.962   2.891  11.678 -0.2873 -0.0513 -0.6479
    1TMC1    O5   18   1.431   2.532  11.452 -0.0305  0.6902 -0.1224
    1TMC1    H5   19   1.451   2.607  11.512 -1.0249  1.7975 -1.1832
    2MPD2     C   20   0.705   2.128  12.019  0.2017 -0.3023 -0.1023
    2MPD2    C1   21   0.649   2.244  11.973 -0.3456 -0.2085  0.1824
    2MPD2    C2   22   0.730   2.322  11.894  0.1484  0.1372  0.2136
    2MPD2    C3   23   0.858   2.290  11.851 -0.0564 -0.1944  0.0510
    2MPD2    C4   24   0.910   2.177  11.898  0.3328 -0.7190 -0.8968
    2MPD2    C5   25   0.832   2.098  11.979  0.2104 -0.0679 -0.3075
    2MPD2     H   26   0.676   2.404  11.850  1.5238  0.9532  0.0373
    2MPD2    H1   27   1.010   2.141  11.879  0.2093 -1.1003 -0.8407
    2MPD2    H2   28   0.665   2.053  12.085 -2.0675  0.4914 -0.5707
    2MPD2    H3   29   0.873   2.008  12.025 -0.1094  0.4783  1.0530
    2MPD2     N   30   0.934   2.362  11.750 -0.1977 -0.0995  0.5272
    2MPD2    H5   31   1.024   2.323  11.722 -1.1130 -1.2805 -0.8216
    2MPD2    N1   32   0.524   2.292  12.016  0.3709 -0.3796  0.2298
    2MPD2    H7   33   0.503   2.386  11.985 -0.8043 -0.4742  0.7560
    3TMC1    C1   34   0.018   4.534  10.274  0.2815 -0.7062  0.2921
    3TMC1    C2   35   0.003   4.465  10.160 -0.6327  0.0166 -0.1308
    3TMC1    C3   36   0.105   4.475  10.071  0.6789  0.2792  0.2143
    3TMC1    C4   37   0.121   4.623  10.292 -0.2983 -0.2341  0.3745
    3TMC1    C5   38   0.206   4.638  10.189 -0.5021 -0.4067  0.0269
    3TMC1    C6   39   0.206   4.565  10.079 -0.2258  0.7979 -0.0712
    3TMC1     C   40   4.641   4.557  10.365  0.1508  0.9737  0.4081
    3TMC1     O   41   4.634   4.667  10.419 -0.9229 -0.8383  0.0082
    3TMC1     H   42   4.667   4.389  10.151 -2.6526  1.9464  1.0186
    3TMC1    H1   43   0.148   4.669  10.386 -0.1753  2.4993 -0.9822
    3TMC1    H2   44   0.284   4.574  10.005 -2.4814  3.9666 -2.0746
    3TMC1    C7   45   0.327   4.715  10.216 -0.0759  0.4882  0.7682
    3TMC1    C8   46   0.135   4.373   9.978  1.0173 -0.1284  0.0964
    3TMC1    O1   47   0.431   4.698  10.151 -0.3095  0.1317 -0.1776
    3TMC1    O2   48   0.224   4.379   9.901 -0.4507 -0.0476  0.3417
    3TMC1    O3   49   0.280   0.095  10.261 -0.3053 -0.6142  0.1411
    3TMC1    H3   50   0.182   0.104  10.266 -0.0201  3.1718 -1.1235
    3TMC1    O5   51   0.080   4.258  10.027  0.4269  0.5988 -0.1361
    3TMC1    H5   52   0.003   4.258  10.087  0.1688  1.0873 -0.4605
    4MPD2     C   53   4.166   4.460  10.520 -0.0824 -0.2561  0.2135
    4MPD2    C1   54   4.235   4.580  10.525  0.3695  0.5769  0.1109
    4MPD2    C2   55   4.362   4.578  10.478 -0.3620  0.0729  0.2106
    4MPD2    C3   56   4.420   4.459  10.432  0.7802 -0.0542  0.6372
    4MPD2    C4   57   4.352   4.343  10.416 -0.3827  0.5363 -0.7076
    4MPD2    C5   58   4.219   4.348  10.458  0.3671  0.0160 -0.5491
    4MPD2     H   59   4.413   4.674  10.487 -0.4605  0.1179  0.2954
    4MPD2    H1   60   4.384   4.250  10.370  0.5486  0.7887 -0.5592
    4MPD2    H2   61   4.060   4.460  10.545  0.4775  2.7573  2.4693
    4MPD2    H3   62   4.159   4.261  10.437 -1.0093  0.7755  0.2903
    4MPD2     N   63   4.549   4.454  10.370 -0.3380  0.3935  0.0506
    4MPD2    H5   64   4.567   4.371  10.315 -1.8714  0.8744 -1.1700
    4MPD2    N1   65   4.176   4.702  10.565  0.3551  0.0640  0.0741
    4MPD2    H7   66   4.218   0.052  10.547  0.0304 -0.1005 -1.4745
    5TCq1    O1   67   1.173   0.640  12.254 -0.0448 -0.0165  0.2754
    5TCq1    C1   68   1.157   0.655  12.125 -0.5666  0.2773  0.0893
    5TCq1    O2   69   1.235   0.615  12.040 -0.4579 -0.0661  0.0919
    5TCq1    C2   70   1.070   0.768  12.107 -0.1068  0.2023 -0.2633
    5TCq1    C3   71   1.027   0.848  12.211 -0.0284 -0.2207  0.1823
    5TCq1    C4   72   0.974   0.969  12.179  0.2533 -0.3357  0.8264
    5TCq1    C5   73   0.953   1.006  12.047  0.7939  0.2930  0.2301
    5TCq1    C6   74   0.980   0.912  11.944  0.5186  0.0451  0.2997
    5TCq1    C7   75   1.038   0.793  11.979  0.4351 -0.0463  0.0971
    5TCq1    C8   76   0.910   0.920  11.813 -0.4917  0.4061 -0.3567
    5TCq1    O4   77   0.919   0.826  11.732 -0.4187  0.2880 -0.5110
    5TCq1    C9   78   0.919   1.060  12.281 -0.1572 -0.4907  0.1936
    5TCq1    O5   79   0.843   1.153  12.244 -0.1335 -0.8261  0.1121
    5TCq1    O6   80   0.960   1.026  12.394  0.5726  0.1386  0.4230
    5TCq1    H1   81   1.087   0.655  12.300  0.5098 -2.0479  2.0055
    5TCq1    H2   82   1.049   0.839  12.317 -1.3625 -0.6686  0.4293
    5TCq1    H3   83   0.900   1.100  12.038  1.5618  0.7068  0.0311
    5TCq1    H4   84   1.063   0.725  11.898  1.5261 -0.3460  0.6973
    6MPD2     C   85   0.712   1.216  11.728 -0.6161 -0.5408 -0.5813
    6MPD2    C1   86   0.761   1.087  11.712 -0.7865  0.0068  0.3554
    6MPD2    C2   87   0.731   1.028  11.591  0.9074 -0.5038  0.4835
    6MPD2    C3   88   0.649   1.090  11.496 -0.4879  0.2601  0.0394
    6MPD2    C4   89   0.590   1.208  11.521  0.5304  0.0173  0.4286
    6MPD2    C5   90   0.638   1.274  11.632  0.8175 -0.0632  0.4799
    6MPD2     H   91   0.784   0.938  11.563  0.1754 -0.0284 -2.4565
    6MPD2    H1   92   0.522   1.255  11.451  0.7290 -1.4886 -0.7780
    6MPD2    H2   93   0.737   1.268  11.819 -3.5886  0.6196 -0.4095
    6MPD2    H3   94   0.603   1.373  11.659 -2.9006 -0.6906 -1.8394
    6MPD2     N   95   0.601   1.005  11.394 -0.5540  1.3477 -0.4033
    6MPD2    H5   96   0.652   0.917  11.395 -0.7620  1.2347  0.2633
    6MPD2    N1   97   0.840   1.034  11.812  0.3326 -0.3983  0.6743
    6MPD2    H7   98   0.841   1.085  11.900 -0.1348  0.9140 -0.0741
    7TCq1    O1   99   3.087   0.378  13.812  0.9001  0.0260  0.5077
    7TCq1    C1  100   2.981   0.299  13.771  0.5162  0.6948 -0.3596
    7TCq1    O2  101   2.937   0.206  13.839  0.4821  0.1510  0.1126
    7TCq1    C2  102   2.980   0.291  13.627  0.3028  0.1516 -0.0899
    7TCq1    C3  103   2.988   0.399  13.544  0.7014  0.0830 -0.5404
    7TCq1    C4  104   2.984   0.372  13.407  0.0734  0.2011  0.1499
    7TCq1    C5  105   2.952   0.250  13.357 -0.3169  0.4628 -0.2249
    7TCq1    C6  106   2.953   0.146  13.452  0.0433 -0.2992 -0.4126
    7TCq1    C7  107   2.975   0.166  13.585 -0.2189 -0.3338 -0.3396
    7TCq1    C8  108   2.922   0.004  13.413 -0.4702 -0.1619  0.7382
    7TCq1    O4  109   2.883   4.664  13.499 -1.0426  0.7436 -0.0759
    7TCq1    C9  110   2.992   0.483  13.319  0.1133  0.0448 -0.6217
    7TCq1    O5  111   3.010   0.596  13.365  0.2582 -0.7245  0.1422
    7TCq1    O6  112   2.990   0.451  13.197  0.3734  0.1035  0.1625
    7TCq1    H1  113   3.132   0.403  13.728  1.4906  1.3183  1.2230
    7TCq1    H2  114   2.966   0.497  13.586 -0.0356 -0.3183  0.0053
    7TCq1    H3  115   2.942   0.236  13.250 -0.4156 -1.1839  0.0058
    7TCq1    H4  116   2.981   0.081  13.653  1.9712  0.5409  0.5551
    8MPD2     C  117   2.885   4.417  13.025  0.2458  0.5145  0.5960
    8MPD2    C1  118   2.835   4.414  13.147  0.2288 -0.8514  0.2327
    8MPD2    C2  119   2.858   4.513  13.238 -0.4075 -0.8200  0.0013
    8MPD2    C3  120   2.948   4.609  13.205  0.4949  0.3553  0.5568
    8MPD2    C4  121   3.001   4.611  13.084  0.3214 -0.0432 -0.4368
    8MPD2    C5  122   2.969   4.524  12.989  0.0890 -0.5949  0.0190
    8MPD2     H  123   2.806   4.520  13.333  1.4647 -0.3419  0.9938
    8MPD2    H1  124   3.057   4.698  13.049  0.1421 -0.6511 -2.2157
    8MPD2    H2  125   2.868   4.340  12.951 -1.7934  3.0415 -1.5712
    8MPD2    H3  126   3.013   4.531  12.890 -0.9674 -1.5341 -0.5378
    8MPD2     N  127   2.972   4.723  13.284 -0.0920 -0.4735 -0.6641
    8MPD2    H5  128   3.018   0.061  13.242 -1.2310  0.2296 -0.5828
    8MPD2    N1  129   2.742   4.310  13.170 -0.4217 -0.4664 -0.9459
    8MPD2    H7  130   2.735   4.229  13.110 -1.3294 -1.6208  0.6947
    9TMC1    C1  131   0.405   4.154  11.164  0.3096  0.4164 -0.3663
    9TMC1    C2  132   0.501   4.153  11.262 -0.3673 -0.3519  0.1103
    9TMC1    C3  133   0.563   4.268  11.301  0.4917  0.2481  0.8982
    9TMC1    C4  134   0.376   4.267  11.090  0.0042 -0.1919 -0.7722
    9TMC1    C5  135   0.450   4.378  11.124 -0.4592  0.1357 -0.1221
    9TMC1    C6  136   0.544   4.379  11.232  0.6453  0.4515 -0.3893
    9TMC1     C  137   0.319   4.041  11.145 -0.0121  0.0994 -0.0079
    9TMC1     O  138   0.242   4.039  11.048  0.2686 -0.5219  0.6821
    9TMC1     H  139   0.537   4.062  11.309  0.5391 -0.0384  0.0279
    9TMC1    H1  140   0.289   4.266  11.026 -1.0435  1.3868  0.6455
    9TMC1    H2  141   0.587   4.472  11.268 -0.4818  0.6912  0.3640
    9TMC1    C7  142   0.397   4.500  11.075  0.7472  0.5424  0.5011
    9TMC1    C8  143   0.659   4.256  11.409 -0.1550  0.0820 -0.3074
    9TMC1    O1  144   0.362   4.589  11.154 -0.1871 -0.0377  0.3987
    9TMC1    O2  145   0.752   4.332  11.420  0.1438 -0.3663  0.1086
    9TMC1    O3  146   0.354   4.483  10.955 -0.0531 -0.4881  0.5506
    9TMC1    H3  147   0.406   4.420  10.900 -0.8587 -2.0726  1.5785
    9TMC1    O5  148   0.594   4.199  11.513 -0.1158  0.4267 -0.1432
    9TMC1    H5  149   0.503   4.174  11.487 -0.1965  0.9595 -0.3700
   10MPD2     C  150   0.246   3.755  11.115  0.5748  0.1868  0.5193
   10MPD2    C1  151   0.288   3.810  11.231 -1.5672 -0.6103 -0.3684
   10MPD2    C2  152   0.283   3.735  11.354  0.6371 -0.5432  0.7151
   10MPD2    C3  153   0.245   3.602  11.351 -0.2737 -0.6771  0.6558
   10MPD2    C4  154   0.199   3.548  11.238 -0.3110  0.3289  0.5642
   10MPD2    C5  155   0.193   3.628  11.123  0.0844  0.0665  0.6672
   10MPD2     H  156   0.323   3.780  11.444  1.1976 -1.6856  1.0343
   10MPD2    H1  157   0.166   3.445  11.239  1.1295 -0.1551 -1.7447
   10MPD2    H2  158   0.237   3.802  11.018 -0.5127  2.0812  1.5436
   10MPD2    H3  159   0.153   3.578  11.035 -2.9478  1.7644  1.0704
   10MPD2     N  160   0.244   3.522  11.470 -0.0036 -0.2543 -0.1803
   10MPD2    H5  161   0.224   3.422  11.468 -0.2782 -0.1856 -0.6719
   10MPD2    N1  162   0.340   3.945  11.238  0.5129 -0.0183 -0.0312
   10MPD2    H7  163   0.390   3.971  11.322 -0.6141  1.0799  0.3027
   11TCq1    O1  164   0.713   3.795  14.476 -0.0641  0.2929  0.9167
   11TCq1    C1  165   0.632   3.828  14.374 -0.1375 -0.5667 -0.2249
   11TCq1    O2  166   0.655   3.790  14.259  0.1224 -0.9283  0.0567
   11TCq1    C2  167   0.498   3.827  14.426 -0.3323 -0.2157 -0.7067
   11TCq1    C3  168   0.479   3.864  14.557 -0.4264 -0.8610  0.2099
   11TCq1    C4  169   0.372   3.819  14.626  0.2613  0.5126 -0.9488
   11TCq1    C5  170   0.272   3.752  14.556 -0.0728  0.2378 -0.4184
   11TCq1    C6  171   0.284   3.732  14.418  1.3225  0.0902 -0.5974
   11TCq1    C7  172   0.403   3.760  14.358  0.0011 -0.4530 -0.3453
   11TCq1    C8  173   0.206   3.629  14.360  0.2046 -0.0597 -0.0402
   11TCq1    O4  174   0.097   3.613  14.412  0.1217 -0.2931  0.3609
   11TCq1    C9  175   0.362   3.840  14.768  0.5487 -1.0188 -0.1011
   11TCq1    O5  176   0.458   3.909  14.817 -0.7888 -0.2325 -0.0930
   11TCq1    O6  177   0.266   3.794  14.832  0.3256  0.6015  0.0696
   11TCq1    H1  178   0.692   3.833  14.564 -2.3533  0.5933  0.2473
   11TCq1    H2  179   0.549   3.934  14.601 -0.6328  0.3564 -1.4080
   11TCq1    H3  180   0.192   3.722  14.623  1.2890  0.9775  1.5142
   11TCq1    H4  181   0.428   3.744  14.253  1.0860 -1.6021  0.0920
   12MPD2     C  182   0.097   3.385  14.212  0.2829  0.0730  0.5282
   12MPD2    C1  183   0.221   3.444  14.189 -0.2264 -0.4060 -0.6942
   12MPD2    C2  184   0.310   3.390  14.099  0.3510  0.5340 -0.4850
   12MPD2    C3  185   0.265   3.285  14.017 -0.1141 -0.5518 -0.2255
   12MPD2    C4  186   0.139   3.225  14.044  0.0229 -0.0838 -0.0549
   12MPD2    C5  187   0.058   3.278  14.138  1.2430  0.1259  0.4270
   12MPD2     H  188   0.411   3.427  14.084  0.0968  2.6454  2.9651
   12MPD2    H1  189   0.105   3.137  13.990 -2.9134  0.6004  0.7028
   12MPD2    H2  190   0.014   3.420  14.271  1.9447  1.9258  1.7581
   12MPD2    H3  191   4.705   3.229  14.157  0.6617 -0.4592 -4.0056
   12MPD2     N  192   0.339   3.222  13.910  0.2890 -0.3443  0.0937
   12MPD2    H5  193   0.296   3.142  13.864 -0.2403 -0.7225  1.2501
   12MPD2    N1  194   0.270   3.559  14.264  0.5983 -0.1229 -0.6864
   12MPD2    H7  195   0.363   3.594  14.243  0.5259 -0.0950 -0.9723
   13TCq1    O1  196   0.312   4.123  10.529  0.0827 -0.4618  0.0141
   13TCq1    C1  197   0.285   4.057  10.413  0.0674  0.2969 -0.2156
   13TCq1    O2  198   0.325   4.094  10.305 -0.1250 -0.1946  0.1456
   13TCq1    C2  199   0.151   3.999  10.435 -0.1279 -0.2879 -0.3063
   13TCq1    C3  200   0.071   4.041  10.336 -0.2825  0.4114 -0.9359
   13TCq1    C4  201   4.672   4.025  10.352 -0.3703 -1.2756 -0.0949
   13TCq1    C5  202   4.626   3.949  10.454  0.2883 -1.3148 -0.9007
   13TCq1    C6  203   4.716   3.909  10.556 -0.5108  0.1794  0.0295
   13TCq1    C7  204   0.111   3.937  10.552  0.5121 -0.1046  0.4851
   13TCq1    C8  205   4.672   3.840  10.677  0.5117  0.5665  0.6606
   13TCq1    O4  206   0.022   3.809  10.750  0.0186 -0.3680 -0.0672
   13TCq1    C9  207   4.582   4.074  10.250  0.3249  0.1853 -0.2596
   13TCq1    O5  208   4.469   4.021  10.238  0.2594 -0.3843 -0.5097
   13TCq1    O6  209   4.614   4.181  10.194  0.4663  0.2476  0.1713
   13TCq1    H1  210   0.249   4.109  10.602 -0.3747  2.0030  0.1022
   13TCq1    H2  211   0.097   4.099  10.248  1.5596  0.5245 -0.3181
   13TCq1    H3  212   4.519   3.936  10.462  0.2369  0.3972  1.5100
   13TCq1    H4  213   0.183   3.913  10.628 -0.2334 -0.8004  0.9720
   14MPD2     C  214   4.346   3.709  10.773 -0.1672  0.7230  0.1919
   14MPD2    C1  215   4.474   3.758  10.787  0.1928  0.0841  0.0569
   14MPD2    C2  216   4.523   3.762  10.912 -0.2775 -0.1955  0.0894
   14MPD2    C3  217   4.464   3.707  11.015  0.1198 -0.4982  0.1726
   14MPD2    C4  218   4.337   3.655  11.003 -0.0602 -0.6144 -0.3552
   14MPD2    C5  219   4.274   3.659  10.882  0.4865 -0.6460 -0.5423
   14MPD2     H  220   4.622   3.800  10.931 -0.3899  0.8800 -1.4696
   14MPD2    H1  221   4.286   3.602  11.082 -0.6803 -0.0497 -0.3718
   14MPD2    H2  222   4.295   3.703  10.677  1.6991  2.0349 -0.8992
   14MPD2    H3  223   4.171   3.626  10.870  0.4923 -1.0600  0.5160
   14MPD2     N  224   4.539   3.705  11.141 -0.4975  0.9693 -0.3835
   14MPD2    H5  225   4.631   3.745  11.124  0.4535 -0.8882  0.4063
   14MPD2    N1  226   4.534   3.822  10.676 -0.2420 -0.6847 -0.5117
   14MPD2    H7  227   4.487   3.839  10.588 -0.1632 -0.3288 -0.4854
   15TCq1    O1  228   1.689   3.327   1.648  0.0411  0.1471  0.1311
   15TCq1    C1  229   1.702   3.331   1.511  0.0653  0.1552  0.1884
   15TCq1    O2  230   1.665   3.420   1.438 -0.0371  0.3157 -0.1496
   15TCq1    C2  231   1.812   3.243   1.483 -0.0779  0.0098  0.4153
   15TCq1    C3  232   1.924   3.245   1.565 -0.3554  0.0176  0.4368
   15TCq1    C4  233   2.015   3.144   1.541  1.1791  0.5411  0.2695
   15TCq1    C5  234   1.984   3.042   1.454  0.2304 -0.1704  0.2930
   15TCq1    C6  235   1.875   3.048   1.373  0.4118 -0.1412 -0.3404
   15TCq1    C7  236   1.783   3.149   1.388  0.5265 -0.6037  0.2170
   15TCq1    C8  237   1.838   2.927   1.312 -0.4740 -0.3691 -0.5382
   15TCq1    O4  238   1.905   2.825   1.331  0.1954 -0.0777  0.4807
   15TCq1    C9  239   2.140   3.135   1.606 -0.8059  0.2202 -0.0100
   15TCq1    O5  240   2.214   3.034   1.582  0.1688  0.0276  0.4049
   15TCq1    O6  241   2.171   3.229   1.686  0.0470 -0.0505 -0.6897
   15TCq1    H1  242   1.728   3.244   1.683  1.5394  0.4177 -0.8865
   15TCq1    H2  243   1.949   3.323   1.637 -0.3668 -0.4489  0.9423
   15TCq1    H3  244   2.054   2.962   1.431  1.8333  1.2621  0.1794
   15TCq1    H4  245   1.687   3.151   1.336  1.2843 -2.0109 -1.2160
   16MPD2     C  246   1.626   2.876   1.016 -0.1631 -0.6108 -0.3332
   16MPD2    C1  247   1.694   2.838   1.127 -0.2126  0.7452  0.5359
   16MPD2    C2  248   1.707   2.700   1.151  0.1316  0.5359 -0.5579
   16MPD2    C3  249   1.647   2.606   1.068 -0.1082  0.1750 -0.1968
   16MPD2    C4  250   1.587   2.653   0.954  0.1488 -1.0329  0.0666
   16MPD2    C5  251   1.577   2.788   0.926 -0.3190  0.0640  0.1333
   16MPD2     H  252   1.755   2.674   1.244  0.3258 -0.8149 -1.0311
   16MPD2    H1  253   1.542   2.583   0.884 -0.9093  0.4100 -0.6967
   16MPD2    H2  254   1.608   2.982   1.001 -2.7775 -1.0094 -0.1188
   16MPD2    H3  255   1.533   2.821   0.832  0.8160 -0.3784 -0.5609
   16MPD2     N  256   1.632   2.475   1.110 -0.3360  0.3681  0.7086
   16MPD2    H5  257   1.648   2.455   1.208  1.0882  2.7614  0.9695
   16MPD2    N1  258   1.754   2.940   1.207 -0.3710 -0.2822 -0.2835
   16MPD2    H7  259   1.730   3.038   1.195 -1.1876 -0.4837 -0.2781
   17TMC1    C1  260   4.539   2.244  11.417  0.2623 -0.2044 -1.0676
   17TMC1    C2  261   4.485   2.214  11.296 -0.1878 -0.0985  0.2591
   17TMC1    C3  262   4.348   2.218  11.283  0.2035  0.4519  0.1423
   17TMC1    C4  263   4.451   2.281  11.517  0.1154 -0.1205 -0.4342
   17TMC1    C5  264   4.311   2.278  11.500 -1.2045 -0.3690  0.5085
   17TMC1    C6  265   4.255   2.240  11.380  0.3273  0.6015 -0.3497
   17TMC1     C  266   4.679   2.247  11.441  0.0423  0.0588  0.4525
   17TMC1     O  267   4.709   2.224  11.556 -0.1317 -0.5588  0.6457
   17TMC1     H  268   4.553   2.194  11.214  0.1126 -1.0733  0.7509
   17TMC1    H1  269   4.497   2.260  11.613 -1.1232 -0.3176  0.1157
   17TMC1    H2  270   4.148   2.238  11.362  0.0387 -3.0681  1.8162
   17TMC1    C7  271   4.240   2.265  11.624 -0.2760  0.1690 -0.2823
   17TMC1    C8  272   4.292   2.204  11.158  0.6306 -0.1113  0.0919
   17TMC1    O1  273   4.155   2.175  11.629  0.0503  0.0405 -0.0070
   17TMC1    O2  274   4.187   2.142  11.148 -0.6763 -0.1785  0.1224
   17TMC1    O3  275   4.301   2.323  11.720 -0.1805 -0.0209 -0.3083
   17TMC1    H3  276   4.332   2.416  11.707 -2.6872  0.7571 -0.5730
   17TMC1    O5  277   4.340   2.308  11.087  0.5281  0.3975 -0.4261
   17TMC1    H5  278   4.419   2.348  11.128 -0.3118 -0.5491  2.0847
   18MPD2     C  279   0.233   2.234  11.423  0.3204 -0.3412 -0.3770
   18MPD2    C1  280   0.153   2.294  11.328  0.2945 -0.0425  0.3970
   18MPD2    C2  281   0.215   2.372  11.237  0.6673 -0.0986 -0.1974
   18MPD2    C3  282   0.354   2.388  11.252  0.5956  0.2887 -0.7754
   18MPD2    C4  283   0.432   2.317  11.339 -0.0366  0.1250 -0.3581
   18MPD2    C5  284   0.369   2.239  11.423 -0.0159 -0.0328  0.1781
   18MPD2     H  285   0.146   2.421  11.168 -0.9479 -0.3439  1.2302
   18MPD2    H1  286   0.538   2.338  11.357  0.1347 -0.5893 -0.5681
   18MPD2    H2  287   0.199   2.170  11.504  2.1830  0.2559  0.8835
   18MPD2    H3  288   0.428   2.198  11.504  0.5300  0.9585  0.2917
   18MPD2     N  289   0.418   2.480  11.166  0.4064  0.4511  0.3554
   18MPD2    H5  290   0.519   2.482  11.158  0.3074  1.6617 -0.6365
   18MPD2    N1  291   0.012   2.284  11.333 -0.9960 -0.2361 -0.0365
   18MPD2    H7  292   4.705   2.322  11.251 -1.3955 -0.3880  0.1257
   19TMC2    C1  293   1.647   3.821  13.924 -0.2655  0.3084  0.4616
   19TMC2    C2  294   1.585   3.918  13.848 -0.4213 -0.3730  0.4213
   19TMC2    C3  295   1.452   3.927  13.848  0.1271 -0.5434 -0.2811
   19TMC2    C4  296   1.577   3.745  14.015 -0.4834  0.7414  0.0135
   19TMC2    C5  297   1.438   3.762  14.023  1.1906 -0.4039 -0.7791
   19TMC2    C6  298   1.380   3.851  13.935 -0.4417 -0.0915 -0.0935
   19TMC2     C  299   1.790   3.825  13.931 -0.0604 -0.1965 -0.3564
   19TMC2     O  300   1.850   3.921  13.890  0.2746  0.4621  0.2703
   19TMC2     H  301   1.651   3.980  13.789  0.1821 -1.3151  0.1130
   19TMC2    H1  302   1.629   3.662  14.061 -0.6336  1.5547  1.6399
   19TMC2    H2  303   1.278   3.881  13.956 -0.7983 -0.5540 -1.1652
   19TMC2    C7  304   1.376   3.635  14.062  0.1652 -0.5959 -0.0887
   19TMC2    C8  305   1.388   4.028  13.762 -1.0323 -0.0584  0.5412
   19TMC2    O1  306   1.448   3.550  14.109 -0.3515  0.2649 -0.7837
   19TMC2    O2  307   1.420   4.148  13.760  0.0470 -0.1838 -0.3878
   19TMC2    O5  308   1.265   3.980  13.743 -0.2346  0.3054  0.0992
   19TMC2    H5  309   1.265   3.882  13.754 -1.5741  0.4124  1.0520
   20MPD2     C  310   2.059   3.808  14.066 -0.7068 -0.5549 -0.1025
   20MPD2    C1  311   1.968   3.707  14.056 -0.2799 -0.2547 -0.3354
   20MPD2    C2  312   2.000   3.590  14.113 -0.5463  0.2761 -0.1246
   20MPD2    C3  313   2.110   3.570  14.195 -0.8110  0.4656  0.1837
   20MPD2    C4  314   2.193   3.674  14.210  0.1199  0.6533 -0.2682
   20MPD2    C5  315   2.168   3.790  14.146 -0.6874  0.5279 -0.4298
   20MPD2     H  316   1.930   3.509  14.103  1.5740 -1.6234  0.5360
   20MPD2    H1  317   2.277   3.665  14.279 -2.0011  2.5436  2.5719
   20MPD2    H2  318   2.046   3.904  14.017  0.0926 -1.2399 -1.6565
   20MPD2    H3  319   2.240   3.871  14.156  1.3999 -1.2751 -0.9157
   20MPD2     N  320   2.138   3.447  14.266 -0.5108  0.6648 -0.0971
   20MPD2    H5  321   2.233   3.434  14.299 -1.7398 -0.6548  2.8918
   20MPD2    N1  322   1.844   3.720  13.990  0.3961 -0.5019  0.4161
   20MPD2    H7  323   1.795   3.631  13.988  0.7470 -0.6718 -0.3148
   21TMC2    C1  324   4.036   3.930  14.040  0.5530 -0.2252 -0.5077
   21TMC2    C2  325   4.086   3.810  13.992 -0.8072  0.6585  0.0243
   21TMC2    C3  326   4.010   3.700  13.996  0.1307 -0.4432 -0.8136
   21TMC2    C4  327   3.911   3.941  14.088 -0.2139  0.2541  0.6263
   21TMC2    C5  328   3.851   3.820  14.102  0.2340 -0.0894 -0.2534
   21TMC2    C6  329   3.896   3.698  14.070  0.8023 -0.0520 -0.5435
   21TMC2     C  330   4.124   4.007  14.123 -0.0098  0.0836 -0.4154
   21TMC2     O  331   4.086   4.039  14.235  0.1488 -0.0703 -0.4046
   21TMC2     H  332   4.191   3.799  13.968 -0.9582  0.0065 -0.3456
   21TMC2    H1  333   3.874   4.036  14.125  2.1665  0.1777  3.1480
   21TMC2    H2  334   3.850   3.603  14.099  1.0946  0.0958  0.3910
   21TMC2    C7  335   3.729   3.823  14.177 -0.2812  0.0738 -0.4241
   21TMC2    C8  336   4.097   3.583  14.016  0.7627 -0.1649  0.2950
   21TMC2    O1  337   3.700   3.729  14.250 -0.0299  0.0450 -0.2787
   21TMC2    O2  338   4.208   3.590  14.069 -0.1527 -0.1888  0.1050
   21TMC2    O5  339   4.024   3.476  13.987 -0.0493  0.1976 -0.6282
   21TMC2    H5  340   3.936   3.495  13.950 -0.2822  0.6041  0.1512
   22MPD2     C  341   4.596   4.104  14.277 -0.6298  0.2540 -0.1327
   22MPD2    C1  342   4.492   4.059  14.351  0.4089 -0.6832  0.9273
   22MPD2    C2  343   4.376   4.037  14.279  0.3213 -0.2525  0.0581
   22MPD2    C3  344   4.366   4.052  14.143 -0.2338  0.7828 -0.1283
   22MPD2    C4  345   4.475   4.084  14.075 -0.2937 -0.9526  0.4281
   22MPD2    C5  346   4.594   4.110  14.138  0.3825  0.7375  0.3577
   22MPD2     H  347   4.294   3.992  14.336 -1.3501  1.2042 -1.2213
   22MPD2    H1  348   4.478   4.085  13.966  0.1920 -1.2239  0.4388
   22MPD2    H2  349   4.686   4.146  14.320 -1.3902 -0.5720  2.2777
   22MPD2    H3  350   4.678   4.139  14.075 -0.3915  1.6936 -0.2413
   22MPD2     N  351   4.247   4.033  14.067  0.1023 -0.2353  0.2991
   22MPD2    H5  352   4.263   4.022  13.968  0.0294 -2.8466  0.5823
   22MPD2    N1  353   4.507   4.024  14.483  0.0361 -1.3340  0.6459
   22MPD2    H7  354   4.423   3.992  14.531  0.1859 -1.9356  0.5077
   23TMC2    C1  355   0.736   4.535  14.276  1.1602  0.1038  0.0148
   23TMC2    C2  356   0.857   4.583  14.233  0.0363 -0.2240 -0.8027
   23TMC2    C3  357   0.883   4.581  14.100  0.0258 -0.3314  0.3982
   23TMC2    C4  358   0.641   4.477  14.192  1.2227  0.2313 -0.3620
   23TMC2    C5  359   0.678   4.479  14.059 -0.2505  0.4210 -0.3671
   23TMC2    C6  360   0.791   4.537  14.012 -0.8643  0.4483  0.4153
   23TMC2     C  361   0.697   4.561  14.414 -0.4944  0.6337  0.3520
   23TMC2     O  362   0.781   4.621  14.484 -0.1225  0.1019  0.4669
   23TMC2     H  363   0.925   4.600  14.315 -0.1794 -0.2467 -0.6195
   23TMC2    H1  364   0.558   4.420  14.233  0.5020  1.9610  0.5736
   23TMC2    H2  365   0.811   4.539  13.905  0.0185 -0.7444  0.5552
   23TMC2    C7  366   0.601   4.407  13.950  0.8598 -0.7071  0.3992
   23TMC2    C8  367   1.017   4.618  14.063  0.2351  0.0107  0.5367
   23TMC2    O1  368   0.662   4.373  13.850  0.0417  0.5464  0.0992
   23TMC2    O2  369   1.099   4.645  14.149  0.6157 -0.1547  0.0940
   23TMC2    O5  370   1.034   4.633  13.925 -0.1064  0.6298  0.4315
   23TMC2    H5  371   0.954   4.613  13.872 -0.4208 -0.1922  1.2116
   24MPD2     C  372   0.361   4.640  14.774 -0.4089  0.3165  0.3266
   24MPD2    C1  373   0.495   4.605  14.791 -0.6877  0.0792 -0.5620
   24MPD2    C2  374   0.557   4.586  14.673  0.4771  0.3577  0.1646
   24MPD2    C3  375   0.493   4.593  14.551  1.0640 -0.2828 -0.3112
   24MPD2    C4  376   0.355   4.604  14.543 -0.4535  0.5259 -0.4059
   24MPD2    C5  377   0.295   4.635  14.656 -0.6588  0.1833 -0.2265
   24MPD2     H  378   0.662   4.556  14.670  0.7052  1.2960 -1.1447
   24MPD2    H1  379   0.299   4.584  14.452 -0.7194 -0.3305 -0.0574
   24MPD2    H2  380   0.299   4.654  14.861  1.8004 -0.4624  2.0298
   24MPD2    H3  381   0.187   4.645  14.649 -0.8339 -3.6763 -2.9108
   24MPD2     N  382   0.557   4.566  14.430 -0.2452 -0.4296  0.1404
   24MPD2    H5  383   0.500   4.560  14.346 -0.7346 -0.4237  0.4715
   24MPD2    N1  384   0.566   4.588  14.914  0.3771  0.3825 -0.3914
   24MPD2    H7  385   0.661   4.555  14.903  0.0022 -0.4349 -1.1275
   25TMC2    C1  386   0.115   1.854  11.819  0.1973  0.1995  0.1246
   25TMC2    C2  387   0.241   1.820  11.863  0.2172  0.5274 -0.0140
   25TMC2    C3  388   0.273   1.832  11.989 -0.5307 -0.2054 -0.2451
   25TMC2    C4  389   0.029   1.915  11.903  0.3424 -0.2597  0.1788
   25TMC2    C5  390   0.074   1.945  12.030 -0.0821 -0.0749  0.0705
   25TMC2    C6  391   0.191   1.895  12.073  0.0993 -0.6294 -0.5981
   25TMC2     C  392   0.119   1.902  11.686  0.6674  0.2892  0.1042
   25TMC2     O  393   0.226   1.927  11.637 -0.1501 -0.5387 -0.4921
   25TMC2     H  394   0.306   1.776  11.788  2.8857  2.2173  1.3160
   25TMC2    H1  395   4.675   1.956  11.869  0.7725  0.6272  0.0401
   25TMC2    H2  396   0.228   1.924  12.171  1.0037  1.5117 -1.5462
   25TMC2    C7  397   4.726   2.019  12.127 -0.4379 -0.2684 -0.0129
   25TMC2    C8  398   0.423   1.854  11.992 -0.3212  0.1063  0.2838
   25TMC2    O1  399   4.737   1.992  12.247  0.0874 -0.6032  0.2081
   25TMC2    O2  400   0.491   1.880  11.894 -0.2692  0.2257 -0.0052
   25TMC2    O5  401   0.457   1.816  12.119  0.3750 -0.5221  0.0191
   25TMC2    H5  402   0.382   1.790  12.177  0.0617 -1.1537 -0.6525
   26MPD2     C  403   4.660   1.922  11.209  0.7415  0.1983 -0.0525
   26MPD2    C1  404   4.554   1.873  11.285  0.1342 -0.5802  0.1390
   26MPD2    C2  405   4.590   1.843  11.416 -0.3241 -0.3304  0.5188
   26MPD2    C3  406   4.711   1.884  11.480 -0.2858  0.1062 -0.3902
   26MPD2    C4  407   0.064   1.936  11.392  0.7565  0.3343 -0.6776
   26MPD2    C5  408   0.038   1.959  11.260  0.1724 -0.5274  0.1202
   26MPD2     H  409   4.528   1.792  11.490 -0.6245  0.7029  0.9841
   26MPD2    H1  410   0.165   1.959  11.424  0.8111  1.6580 -1.7742
   26MPD2    H2  411   4.648   1.943  11.104  0.5632 -0.7760 -0.2299
   26MPD2    H3  412   0.108   2.006  11.192  2.3311 -1.2930  1.7940
   26MPD2     N  413   4.736   1.875  11.621 -0.1051  0.0906  0.0716
   26MPD2    H5  414   4.662   1.840  11.681  0.6019  0.8243  1.3531
   26MPD2    N1  415   4.440   1.818  11.221  0.0809  0.0257 -0.3537
   26MPD2    H7  416   4.429   1.837  11.122  1.5500  2.3654 -0.0696
   27TMC2    C1  417   3.508   3.995  11.595  0.0729  0.6974 -0.3718
   27TMC2    C2  418   3.626   3.929  11.608 -0.3270  0.4742  0.4611
   27TMC2    C3  419   3.728   4.003  11.655  0.3108 -0.0225 -0.0547
   27TMC2    C4  420   3.497   4.127  11.626  0.8387  0.3813 -0.3891
   27TMC2    C5  421   3.603   4.195  11.687 -0.3360  0.1203 -0.1926
   27TMC2    C6  422   3.721   4.132  11.691 -0.5677  0.7914 -0.0372
   27TMC2     C  423   3.392   3.913  11.603  1.1187  0.5175  1.1005
   27TMC2     O  424   3.406   3.797  11.562 -0.2324  0.3212 -0.6009
   27TMC2     H  425   3.623   3.820  11.612 -0.6907  0.3881 -1.8610
   27TMC2    H1  426   3.402   4.178  11.625  0.1345 -0.9022  0.2717
   27TMC2    H2  427   3.806   4.180  11.739  0.0002  0.8514 -1.1079
   27TMC2    C7  428   3.560   4.251  11.813  0.1066  0.7760 -0.5261
   27TMC2    C8  429   3.847   3.937  11.701  0.1029  0.3276  0.4862
   27TMC2    O1  430   3.448   4.219  11.842 -0.1563  0.5810 -0.3198
   27TMC2    O2  431   3.842   3.845  11.779  0.5152 -0.2310  0.2309
   27TMC2    O5  432   3.954   4.018  11.689 -0.3692 -0.2415  0.2767
   27TMC2    H5  433   3.935   4.086  11.621 -0.4337 -1.3500 -0.8171
   28MPD2     C  434   2.962   3.746  11.820  0.2362 -0.1967 -0.2921
   28MPD2    C1  435   2.982   3.882  11.862  0.4471  0.1543 -0.0424
   28MPD2    C2  436   3.094   3.952  11.816  0.5957  0.1916  0.5175
   28MPD2    C3  437   3.181   3.890  11.724 -0.1864 -0.2630 -0.4858
   28MPD2    C4  438   3.152   3.759  11.686 -0.8588 -0.1915  0.6569
   28MPD2    C5  439   3.042   3.690  11.727 -0.9360 -0.0451  0.2978
   28MPD2     H  440   3.109   4.052  11.855 -0.1917  0.2136  0.7647
   28MPD2    H1  441   3.216   3.699  11.622 -0.2575  2.4266 -1.1802
   28MPD2    H2  442   2.887   3.686  11.870  0.1074 -0.4156 -0.7521
   28MPD2    H3  443   3.035   3.587  11.693 -0.6005  0.6452 -1.7985
   28MPD2     N  444   3.289   3.968  11.678  0.2121 -0.2985 -0.9116
   28MPD2    H5  445   3.304   4.064  11.706 -2.0124 -0.1725 -0.2164
   28MPD2    N1  446   2.884   3.930  11.951  0.4558  0.1016  0.0064
   28MPD2    H7  447   2.811   3.869  11.988 -0.4145  0.6221 -0.8355
   29TMC2    C1  448   2.955   1.968  14.062 -0.3059  0.2964  0.3408
   29TMC2    C2  449   2.821   1.949  14.078 -0.0393 -0.0470  0.0552
   29TMC2    C3  450   2.748   2.034  14.161 -0.0145  0.0106  0.7310
   29TMC2    C4  451   3.028   2.075  14.120 -0.5748  0.3243  0.5562
   29TMC2    C5  452   2.946   2.158  14.190 -0.4798 -0.0954  0.2684
   29TMC2    C6  453   2.807   2.144  14.212  0.1184  0.2417 -0.1096
   29TMC2     C  454   3.025   1.854  14.016 -0.5596 -0.3156  0.2737
   29TMC2     O  455   2.958   1.753  13.997  1.0036 -0.0212  0.4316
   29TMC2     H  456   2.771   1.858  14.044 -1.3201  1.0902 -1.1019
   29TMC2    H1  457   3.136   2.087  14.114 -1.0728  2.5084 -4.1848
   29TMC2    H2  458   2.749   2.200  14.284  0.3042  1.3785 -0.8381
   29TMC2    C7  459   2.997   2.283  14.237 -0.4537  0.5608  0.1016
   29TMC2    C8  460   2.607   2.013  14.181 -0.3721 -0.6611 -0.4202
   29TMC2    O1  461   3.117   2.287  14.254 -0.3604  0.1529  1.1429
   29TMC2    O2  462   2.539   2.042  14.278  0.1224 -0.2641  0.0309
   29TMC2    O5  463   2.553   1.979  14.062 -0.0127 -0.1485 -0.3522
   29TMC2    H5  464   2.624   1.966  13.997  0.0573 -1.1978 -0.0683
   30MPD2     C  465   3.431   1.541  13.996  0.1434 -0.1725 -0.2879
   30MPD2    C1  466   3.301   1.511  14.024 -0.1217  0.2167 -0.4438
   30MPD2    C2  467   3.213   1.616  14.037  0.3777  0.2283  0.3348
   30MPD2    C3  468   3.249   1.747  14.016  0.4279 -0.5573  0.8629
   30MPD2    C4  469   3.381   1.771  14.002 -0.2685 -0.3878  0.0033
   30MPD2    C5  470   3.472   1.672  13.988  0.1429 -0.3295 -0.2161
   30MPD2     H  471   3.111   1.592  14.065  0.4232 -0.0984  0.2243
   30MPD2    H1  472   3.415   1.875  13.999 -0.4606 -0.2570  2.2867
   30MPD2    H2  473   3.504   1.465  13.974  1.5239  1.2049 -0.4876
   30MPD2    H3  474   3.579   1.690  13.984  0.9473 -5.0689  0.2960
   30MPD2     N  475   3.160   1.865  14.026 -0.5018  0.0167  0.4252
   30MPD2    H5  476   3.198   1.958  14.014  0.6682 -0.4032  0.8021
   30MPD2    N1  477   3.273   1.376  14.055  0.1497  0.0412  0.1146
   30MPD2    H7  478   3.353   1.314  14.051 -0.4989 -0.5826 -2.7112
   31TMC2    C1  479   0.337   0.608  15.302  0.4082 -0.0363 -0.3719
   31TMC2    C2  480   0.284   0.503  15.229 -0.1023  0.4405  0.0073
   31TMC2    C3  481   0.252   0.396  15.303  0.0483  0.1829 -0.6783
   31TMC2    C4  482   0.329   0.627  15.438  0.0033  0.2293 -0.9188
   31TMC2    C5  483   0.280   0.512  15.503  0.5023  0.6340 -0.2744
   31TMC2    C6  484   0.245   0.397  15.437 -1.0874  0.1125 -0.7040
   31TMC2     C  485   0.406   0.703  15.219  0.5035 -0.4486 -0.4683
   31TMC2     O  486   0.462   0.659  15.119  0.4862 -0.4715  0.4812
   31TMC2     H  487   0.281   0.500  15.121  0.2358  1.9785 -0.0472
   31TMC2    H1  488   0.389   0.701  15.489  0.4601  1.0700 -2.6816
   31TMC2    H2  489   0.218   0.309  15.493  0.9519 -1.3179 -1.9694
   31TMC2    C7  490   0.261   0.513  15.648 -0.0415  0.4937 -0.0571
   31TMC2    C8  491   0.213   0.276  15.225  0.2527 -0.0806  0.3004
   31TMC2    O1  492   0.257   0.401  15.699 -0.0620 -0.2556 -0.3721
   31TMC2    O2  493   0.119   0.264  15.150 -0.3006  0.0340 -0.3985
   31TMC2    O5  494   0.282   0.180  15.278  0.0844  0.0924  0.1506
   31TMC2    H5  495   0.359   0.219  15.325 -1.3087  0.2116  2.3108
   32MPD2     C  496   0.508   1.179  15.086 -0.6940  0.3364  0.0829
   32MPD2    C1  497   0.537   1.067  15.020  0.2960 -0.6263 -0.2648
   32MPD2    C2  498   0.493   0.954  15.083 -0.0304  0.1143  0.4531
   32MPD2    C3  499   0.434   0.947  15.208  0.2778  0.3738  0.3633
   32MPD2    C4  500   0.401   1.066  15.266 -0.2393 -0.4931  0.1755
   32MPD2    C5  501   0.449   1.181  15.205  0.4878  0.1762  0.3620
   32MPD2     H  502   0.518   0.862  15.032  0.1295  1.3991 -1.7626
   32MPD2    H1  503   0.347   1.083  15.358 -0.6672 -0.2465 -0.1242
   32MPD2    H2  504   0.538   1.274  15.045 -0.7262  1.0525  1.7342
   32MPD2    H3  505   0.440   1.268  15.269 -0.5744 -1.8044  2.8566
   32MPD2     N  506   0.387   0.825  15.273 -0.0738  0.1657 -0.1221
   32MPD2    H5  507   0.337   0.839  15.360 -0.1688  0.9225 -0.3065
   32MPD2    N1  508   0.617   1.067  14.902 -0.2493  0.7345  0.1583
   32MPD2    H7  509   0.667   1.153  14.880 -0.7393  0.4870 -1.9710
   33TMC2    C1  510   0.133   3.429  10.497  0.0432  0.5393  0.2028
   33TMC2    C2  511   0.017   3.364  10.490 -0.4729 -0.6775 -0.3531
   33TMC2    C3  512   4.658   3.410  10.407  0.1847  0.0590 -0.1580
   33TMC2    C4  513   0.156   3.548  10.426  0.8849  0.3668  0.2005
   33TMC2    C5  514   0.056   3.585  10.337 -0.2178  0.7246 -0.1395
   33TMC2    C6  515   4.676   3.514  10.322 -0.7490  0.2542 -0.6793
   33TMC2     C  516   0.225   3.359  10.580  0.3303  0.1167  0.4014
   33TMC2     O  517   0.201   3.259  10.646 -0.4680  0.4055  0.2894
   33TMC2     H  518   4.733   3.271  10.540  1.1183 -0.9285 -0.0246
   33TMC2    H1  519   0.236   3.618  10.443  0.0226  1.3996 -0.0296
   33TMC2    H2  520   4.592   3.547  10.261 -0.5558 -0.7755 -1.5096
   33TMC2    C7  521   0.082   3.700  10.257 -0.0227  0.0229 -0.8832
   33TMC2    C8  522   4.538   3.332  10.383 -0.1191  0.3699  0.1203
   33TMC2    O1  523   0.199   3.736  10.261 -0.1707 -0.2000  0.3087
   33TMC2    O2  524   4.496   3.243  10.457  0.4175 -0.0546  0.0936
   33TMC2    O5  525   4.548   3.312  10.252  0.3090  0.0942 -0.0979
   33TMC2    H5  526   4.544   3.395  10.200  1.1231 -0.4065 -0.9582
   34MPD2     C  527   0.702   3.303  10.797 -0.6485  0.1859 -1.3295
   34MPD2    C1  528   0.592   3.217  10.800  0.3499  0.7971 -0.8796
   34MPD2    C2  529   0.475   3.257  10.729 -0.2079  0.3303  0.2881
   34MPD2    C3  530   0.475   3.368  10.646  0.2308 -0.3477 -0.3491
   34MPD2    C4  531   0.580   3.448  10.657 -0.0310 -0.4681 -0.5304
   34MPD2    C5  532   0.692   3.420  10.731 -0.1736 -0.3196 -0.2454
   34MPD2     H  533   0.389   3.192  10.731  1.6279 -2.0649  1.4913
   34MPD2    H1  534   0.597   3.538  10.598  0.1275 -0.4419 -0.4453
   34MPD2    H2  535   0.790   3.298  10.859 -2.7259  0.6773  1.6458
   34MPD2    H3  536   0.774   3.491  10.733 -0.4681 -0.0038  0.8083
   34MPD2     N  537   0.357   3.407  10.567 -0.2389 -0.2774  0.2895
   34MPD2    H5  538   0.376   3.488  10.509 -0.4464  1.4997  2.7118
   34MPD2    N1  539   0.591   3.098  10.881 -0.6409 -0.3658  0.1652
   34MPD2    H7  540   0.684   3.072  10.914 -0.2981 -0.1439 -0.6162
   35TMC2    C1  541   0.940   4.135  11.739  0.0896 -0.2354  0.0325
   35TMC2    C2  542   0.813   4.184  11.767  0.2449 -0.0734 -0.6298
   35TMC2    C3  543   0.725   4.096  11.828  0.3744  0.1379 -0.3466
   35TMC2    C4  544   0.979   4.001  11.777 -1.1082  0.1102  0.2233
   35TMC2    C5  545   0.889   3.923  11.842  0.0217 -0.3877 -0.5252
   35TMC2    C6  546   0.763   3.977  11.875 -0.1997 -0.2042 -0.1518
   35TMC2     C  547   1.031   4.247  11.722  0.6872  1.0538 -0.6240
   35TMC2     O  548   0.984   4.358  11.726 -0.2062 -0.2344  0.5705
   35TMC2     H  549   0.771   4.276  11.730 -0.1078 -0.5748 -1.4718
   35TMC2    H1  550   1.076   3.955  11.767 -1.6220 -1.2378  1.3631
   35TMC2    H2  551   0.691   3.923  11.935 -0.5958  2.0363  1.4302
   35TMC2    C7  552   0.933   3.822  11.932  0.7788 -0.7904  0.6833
   35TMC2    C8  553   0.622   4.162  11.891  0.2882 -0.5269 -0.3410
   35TMC2    O1  554   1.049   3.836  11.965  0.2285  0.0995  0.0054
   35TMC2    O2  555   0.639   4.274  11.937 -0.5843 -0.0337 -0.6552
   35TMC2    O5  556   0.510   4.094  11.898 -0.5592 -0.4666  0.4086
   35TMC2    H5  557   0.510   4.012  11.844 -0.4615  0.2317 -0.6409
   36MPD2     C  558   1.491   4.460  11.670 -0.1414 -0.1742 -0.3659
   36MPD2    C1  559   1.508   4.323  11.690 -0.2946  0.5025 -0.4468
   36MPD2    C2  560   1.395   4.246  11.701 -0.4910 -0.4290 -0.4680
   36MPD2    C3  561   1.263   4.297  11.698 -0.2790 -0.0418 -0.3624
   36MPD2    C4  562   1.256   4.436  11.693 -0.2312  0.0502  0.3860
   36MPD2    C5  563   1.365   4.512  11.672 -0.1196  0.0916  0.2118
   36MPD2     H  564   1.398   4.138  11.700 -1.1477 -0.4708  1.9443
   36MPD2    H1  565   1.165   4.494  11.693  1.4408  2.6508  1.6608
   36MPD2    H2  566   1.576   4.527  11.665 -1.0104  1.1453  2.1719
   36MPD2    H3  567   1.352   4.620  11.668  0.0152  0.1897  2.1396
   36MPD2     N  568   1.156   4.204  11.707  0.6087 -0.2995 -0.3162
   36MPD2    H5  569   1.176   4.104  11.707  1.1030 -0.2086  1.8050
   36MPD2    N1  570   1.639   4.279  11.712 -0.5756 -0.6424 -0.0549
   36MPD2    H7  571   1.716   4.344  11.701 -1.4637 -0.0230 -2.5857
   37TMC2    C1  572   4.289   4.240  11.699  0.2386  0.0006 -0.4970
   37TMC2    C2  573   4.315   4.110  11.670 -0.4091 -0.1290 -0.1895
   37TMC2    C3  574   4.335   4.081  11.539 -0.2576  0.1241 -0.7304
   37TMC2    C4  575   4.290   4.335  11.594  0.9004 -0.0633 -0.1506
   37TMC2    C5  576   4.329   4.303  11.469  0.4638 -0.0072 -0.2171
   37TMC2    C6  577   4.339   4.171  11.431 -0.2692  0.7128 -0.0556
   37TMC2     C  578   4.210   4.265  11.821  0.3210  0.1811 -0.5486
   37TMC2     O  579   4.106   4.327  11.797 -0.1962 -0.1365  0.2158
   37TMC2     H  580   4.273   4.037  11.739 -1.0435  1.7818  1.4484
   37TMC2    H1  581   4.271   4.439  11.621  3.3480  0.5755 -0.8526
   37TMC2    H2  582   4.373   4.144  11.332  0.3308 -1.0370  0.6290
   37TMC2    C7  583   4.330   4.414  11.370  0.3896  0.1871  0.4772
   37TMC2    C8  584   4.320   3.948  11.497 -0.5554 -0.2920  0.3330
   37TMC2    O1  585   4.337   4.527  11.416  0.5670 -0.9623 -0.4952
   37TMC2    O2  586   4.288   3.909  11.383 -0.4573 -0.2317 -0.5036
   37TMC2    O5  587   4.384   3.870  11.588 -0.0976  0.3084  0.1219
   37TMC2    H5  588   4.414   3.916  11.670 -0.3951 -1.4951  1.2417
   38MPD2     C  589   4.004   4.098  12.258 -0.2266 -0.1967 -0.2987
   38MPD2    C1  590   4.134   4.073  12.264 -1.1603  1.1015 -0.0608
   38MPD2    C2  591   4.212   4.110  12.149  0.7128 -0.0084 -0.6145
   38MPD2    C3  592   4.156   4.163  12.036  0.1064  0.2494  0.8713
   38MPD2    C4  593   4.022   4.191  12.036 -0.1618 -0.6136  0.7813
   38MPD2    C5  594   3.945   4.146  12.146  0.7016  0.2681 -0.1116
   38MPD2     H  595   4.319   4.093  12.152  1.0536  2.1806 -0.0684
   38MPD2    H1  596   3.974   4.243  11.955 -0.9202  0.3099  1.8212
   38MPD2    H2  597   3.943   4.076  12.345 -0.1410 -1.9299 -0.6890
   38MPD2    H3  598   3.841   4.177  12.154  0.7525  0.1986  0.7468
   38MPD2     N  599   4.246   4.191  11.925  0.2568 -0.3156  0.3499
   38MPD2    H5  600   4.338   4.148  11.925  0.2644 -0.2878 -1.2779
   38MPD2    N1  601   4.203   4.025  12.375 -0.2985  0.2156  0.4612
   38MPD2    H7  602   4.303   4.013  12.368 -0.4850 -0.2559 -1.5330
   39TMC2    C1  603   2.741   1.193   1.113 -0.2452 -0.5430 -0.2648
   39TMC2    C2  604   2.754   1.126   1.000  0.5702  0.0441 -0.5638
   39TMC2    C3  605   2.867   1.150   0.922 -0.1526 -0.4009 -0.2778
   39TMC2    C4  606   2.823   1.310   1.128  0.2504  0.8653 -0.9421
   39TMC2    C5  607   2.922   1.331   1.040 -0.6282  0.7835  0.3854
   39TMC2    C6  608   2.959   1.240   0.949  0.2018 -0.2678 -0.2100
   39TMC2     C  609   2.622   1.188   1.192  0.0701  0.1983  0.9829
   39TMC2     O  610   2.525   1.139   1.135 -0.2589  1.1312 -0.1139
   39TMC2     H  611   2.695   1.036   0.985  0.9570  0.0001 -1.8281
   39TMC2    H1  612   2.803   1.392   1.195 -2.0316 -0.4493 -0.0150
   39TMC2    H2  613   3.044   1.257   0.883  0.5247  0.5187  0.4113
   39TMC2    C7  614   3.021   1.435   1.060 -0.0365  1.2109 -0.4615
   39TMC2    C8  615   2.895   1.051   0.820 -0.6211  0.5359 -0.1054
   39TMC2    O1  616   3.139   1.406   1.041  0.3684 -1.1044  0.2205
   39TMC2    O2  617   2.873   0.927   0.832  0.0743 -0.2356 -0.5044
   39TMC2    O5  618   2.979   1.110   0.729 -0.2234 -0.2426 -0.3664
   39TMC2    H5  619   2.964   1.206   0.715 -1.8021 -0.6219 -1.3156
   40MPD2     C  620   2.547   1.404   1.479  0.6116  0.2542 -0.3946
   40MPD2    C1  621   2.521   1.318   1.371 -0.1598  0.5287  0.7096
   40MPD2    C2  622   2.386   1.305   1.339 -0.0688  0.7152  0.4071
   40MPD2    C3  623   2.285   1.368   1.413 -0.3415 -0.5907 -0.2224
   40MPD2    C4  624   2.318   1.440   1.529  0.6179  0.0113 -0.0456
   40MPD2    C5  625   2.450   1.470   1.543  0.3608 -0.1526  0.2380
   40MPD2     H  626   2.345   1.234   1.268  1.5299  2.6688 -2.4408
   40MPD2    H1  627   2.251   1.497   1.592  0.9364 -1.6639  1.8314
   40MPD2    H2  628   2.650   1.428   1.502  0.8623 -0.6514 -0.5703
   40MPD2    H3  629   2.486   1.527   1.629  0.5058 -0.5820  0.4589
   40MPD2     N  630   2.149   1.359   1.383 -0.2656  0.2163  0.6930
   40MPD2    H5  631   2.085   1.408   1.445  0.3890  0.9453  0.7922
   40MPD2    N1  632   2.632   1.263   1.304 -0.4292  0.0359 -0.0661
   40MPD2    H7  633   2.719   1.298   1.343  0.2918 -2.4833  0.5745
   41TMC2    C1  634   2.070   4.654  13.262 -0.6177  0.2612 -0.3387
   41TMC2    C2  635   2.120   4.732  13.363  0.2264  0.0607 -0.0386
   41TMC2    C3  636   2.245   0.048  13.347  0.1570  0.0682 -0.0201
   41TMC2    C4  637   2.117   4.649  13.136 -0.4082 -0.2511 -0.2244
   41TMC2    C5  638   2.230   4.723  13.118 -0.2156 -0.1675 -0.6353
   41TMC2    C6  639   2.298   0.050  13.218 -0.1615 -0.5897 -0.0669
   41TMC2     C  640   1.948   4.582  13.281 -0.1220  0.3731 -0.0684
   41TMC2     O  641   1.891   4.527  13.188 -0.0059  0.0689 -0.6182
   41TMC2     H  642   2.067   0.017  13.455  1.2498  0.3345  0.4751
   41TMC2    H1  643   2.073   4.588  13.058  0.8075  0.2494 -1.2811
   41TMC2    H2  644   2.384   0.112  13.196  0.0947 -0.5714  0.9965
   41TMC2    C7  645   2.255   0.042  12.987 -0.5896  0.2584 -0.2099
   41TMC2    C8  646   2.284   0.152  13.437  0.1698  0.1546  0.4233
   41TMC2    O1  647   2.247   0.163  12.981 -0.1967 -0.3570  0.0662
   41TMC2    O2  648   2.205   0.215  13.504  0.8237 -0.5138 -0.1122
   41TMC2    O5  649   2.413   0.137  13.474  0.3933  0.2242  0.1830
   41TMC2    H5  650   2.453   0.068  13.416  0.8067 -1.5296  2.5487
   42MPD2     C  651   1.671   4.508  13.372  0.3325  0.1853  0.1515
   42MPD2    C1  652   1.771   4.553  13.458  0.6350  0.0442 -0.8178
   42MPD2    C2  653   1.740   4.564  13.593 -0.5962  0.1835 -0.1416
   42MPD2    C3  654   1.619   4.525  13.641 -0.8874  0.1346  0.7794
   42MPD2    C4  655   1.525   4.475  13.556 -0.5117 -0.0296  0.1435
   42MPD2    C5  656   1.550   4.481  13.419  0.2740  0.2825  0.5173
   42MPD2     H  657   1.820   4.586  13.662  0.2779  0.5931 -1.2863
   42MPD2    H1  658   1.423   4.458  13.589 -1.1261  3.2048 -0.0896
   42MPD2    H2  659   1.693   4.492  13.267  0.1247  0.0929  0.1236
   42MPD2    H3  660   1.466   4.449  13.357  0.1506  0.6250  0.5056
   42MPD2     N  661   1.587   4.539  13.777  0.1312 -0.1957  0.7420
   42MPD2    H5  662   1.488   4.520  13.792 -0.9316  3.1566 -1.8825
   42MPD2    N1  663   1.901   4.592  13.414 -0.0610  0.2009  0.6249
   42MPD2    H7  664   1.965   4.629  13.484 -0.5993  0.0342  1.2033
   43TMC2    C1  665   2.679   3.081   0.982 -0.0143 -0.1639  0.0648
   43TMC2    C2  666   2.567   3.022   0.931 -0.6332 -0.4343 -0.4848
   43TMC2    C3  667   2.527   2.902   0.985  0.1581 -0.4117 -0.0006
   43TMC2    C4  668   2.760   3.022   1.077  0.2505 -0.6025 -0.8873
   43TMC2    C5  669   2.726   2.895   1.127  0.8390  0.5137 -0.9230
   43TMC2    C6  670   2.611   2.836   1.080 -0.0119 -0.5790  0.1408
   43TMC2     C  671   2.762   3.152   0.895 -0.2468 -0.0504  0.1183
   43TMC2     O  672   2.840   3.244   0.926 -0.7288  0.1196  0.1557
   43TMC2     H  673   2.506   3.074   0.858  0.0838 -0.2923 -0.9855
   43TMC2    H1  674   2.850   3.074   1.107  0.0182 -1.3298  1.0795
   43TMC2    H2  675   2.576   2.737   1.107  1.3018 -0.9782  0.4031
   43TMC2    C7  676   2.830   2.813   1.192  0.4106 -0.3086  0.3988
   43TMC2    C8  677   2.398   2.844   0.954 -0.5392 -0.3186 -0.6148
   43TMC2    O1  678   2.855   2.696   1.157  0.4724  0.5333  0.1567
   43TMC2    O2  679   2.339   2.762   1.023  0.8673  0.0035 -0.1925
   43TMC2    O5  680   2.409   2.835   0.825 -0.0873  0.0790  0.5349
   43TMC2    H5  681   2.495   2.861   0.787  0.1938  0.5304  1.4891
   44MPD2     C  682   2.927   3.165   0.407  0.6903 -0.4143 -0.6519
   44MPD2    C1  683   2.884   3.038   0.432  0.2552 -0.2379 -0.3623
   44MPD2    C2  684   2.827   3.013   0.557  0.1030 -0.3514  0.3703
   44MPD2    C3  685   2.828   3.116   0.654 -0.9418  0.0588  0.3120
   44MPD2    C4  686   2.885   3.243   0.625  0.3199 -0.0165  0.1335
   44MPD2    C5  687   2.936   3.266   0.502  0.6859 -0.4594  0.3173
   44MPD2     H  688   2.772   2.921   0.566  0.4528 -0.5631  0.3374
   44MPD2    H1  689   2.881   3.325   0.696  1.0437 -0.2504  0.4372
   44MPD2    H2  690   2.963   3.197   0.310  0.8209  0.8927 -0.1725
   44MPD2    H3  691   2.966   3.369   0.483 -1.2066 -0.0300 -0.2756
   44MPD2     N  692   2.751   3.091   0.771  0.5579 -0.6564  0.5285
   44MPD2    H5  693   2.711   2.998   0.778  0.2616 -0.6896 -1.6557
   44MPD2    N1  694   2.899   2.933   0.339  0.0053  0.6083 -0.2808
   44MPD2    H7  695   2.856   2.849   0.376  1.1854  0.0992 -0.0608
   45TMC2    C1  696   3.360   0.317   9.626  0.4617  0.2884  0.1427
   45TMC2    C2  697   3.270   0.320   9.522 -0.3477 -0.2187 -0.2217
   45TMC2    C3  698   3.248   0.434   9.448  0.2312 -0.4732 -0.5307
   45TMC2    C4  699   3.439   0.425   9.645  0.0663 -0.5444 -1.0283
   45TMC2    C5  700   3.414   0.539   9.579 -0.4445 -0.1813 -0.0635
   45TMC2    C6  701   3.323   0.546   9.473 -0.6902  0.3579 -0.0411
   45TMC2     C  702   3.389   0.194   9.704  0.1896  0.4123 -0.1764
   45TMC2     O  703   3.480   0.206   9.785 -0.1680  0.2757  0.0959
   45TMC2     H  704   3.235   0.229   9.475  1.3145 -1.3876  0.8134
   45TMC2    H1  705   3.500   0.425   9.735 -0.5112 -2.7791 -0.6198
   45TMC2    H2  706   3.296   0.625   9.404  0.7472  2.0703  1.3567
   45TMC2    C7  707   3.486   0.654   9.623 -0.0777  0.5699  1.0118
   45TMC2    C8  708   3.155   0.430   9.339 -0.2706 -0.1217 -0.4499
   45TMC2    O1  709   3.581   0.627   9.701  0.5885 -0.0811 -0.0491
   45TMC2    O2  710   3.130   0.517   9.257  0.4751 -0.3590  0.0035
   45TMC2    O5  711   3.064   0.355   9.395  0.2778  1.0925 -0.2862
   45TMC2    H5  712   3.081   0.294   9.470 -2.4253  0.1708 -0.3962
   46MPD2     C  713   3.423   4.658   9.826  0.3946  0.1816 -0.1978
   46MPD2    C1  714   3.311   4.697   9.748 -0.3600 -0.0130 -0.1440
   46MPD2    C2  715   3.213   4.601   9.731  0.8308 -0.5023 -0.0448
   46MPD2    C3  716   3.215   4.477   9.796  0.9195 -0.4407 -0.7479
   46MPD2    C4  717   3.326   4.445   9.871  0.3730 -0.3883 -0.2695
   46MPD2    C5  718   3.429   4.533   9.874 -0.0391 -0.3606 -0.0165
   46MPD2     H  719   3.132   4.627   9.663  0.3795 -0.7912  0.3847
   46MPD2    H1  720   3.350   4.352   9.919  0.4699  0.9633  2.2721
   46MPD2    H2  721   3.500   4.727   9.859 -0.3519 -0.7464  3.5077
   46MPD2    H3  722   3.515   4.491   9.926 -0.6514 -0.1944  1.1525
   46MPD2     N  723   3.106   4.389   9.774 -0.3130 -0.1602 -0.1481
   46MPD2    H5  724   3.026   4.428   9.724 -0.4919 -1.3482 -0.7833
   46MPD2    N1  725   3.308   0.086   9.689  0.1170  0.6422  0.0740
   46MPD2    H7  726   3.229   0.116   9.631  0.1358  1.2426  0.3618
   47TMC2    C1  727   0.875   0.097   9.820 -0.0895 -0.6699  0.5009
   47TMC2    C2  728   0.863   0.133   9.952 -0.2298  0.8373  0.9656
   47TMC2    C3  729   0.765   0.077  10.024  0.4578  0.1463 -0.0225
   47TMC2    C4  730   0.794   0.006   9.764 -0.1067  0.5064  0.5359
   47TMC2    C5  731   0.698   4.683   9.842 -0.3179 -0.5046  0.8327
   47TMC2    C6  732   0.674   4.730   9.972 -0.6075  0.3700  0.3247
   47TMC2     C  733   0.974   0.164   9.735 -0.6618  0.3366 -0.1808
   47TMC2     O  734   1.004   0.279   9.762  0.6179  0.1531 -0.2291
   47TMC2     H  735   0.931   0.209   9.988 -0.2305  1.0405  0.5411
   47TMC2    H1  736   0.800   4.725   9.658 -1.5552  2.0061  0.1434
   47TMC2    H2  737   0.628   4.661  10.042 -2.1261  0.0330 -0.9980
   47TMC2    C7  738   0.590   4.607   9.770 -0.0918  0.0722 -0.0066
   47TMC2    C8  739   0.752   0.134  10.153 -0.1303 -0.0400 -0.1143
   47TMC2    O1  740   0.485   4.596   9.825  0.4737  1.2225 -0.1728
   47TMC2    O2  741   0.840   0.205  10.203 -0.1554 -0.0271 -0.0846
   47TMC2    O5  742   0.621   0.148  10.181 -0.7683  0.9088 -0.3168
   47TMC2    H5  743   0.574   0.092  10.116  1.9034 -3.8225  1.8857
   48MPD2     C  744   1.238   0.211   9.596 -0.6309 -0.6315  0.9515
   48MPD2    C1  745   1.149   0.102   9.576 -0.5688 -0.6388  0.4259
   48MPD2    C2  746   1.188   0.006   9.486 -0.7230 -0.4484  0.0043
   48MPD2    C3  747   1.307   0.014   9.417  0.1268 -0.3732  0.2932
   48MPD2    C4  748   1.399   0.109   9.455  0.1553  0.2842  0.1863
   48MPD2    C5  749   1.360   0.207   9.538 -1.1482  0.5504 -0.3062
   48MPD2     H  750   1.128   4.658   9.468 -1.6976  0.2306 -0.0918
   48MPD2    H1  751   1.495   0.111   9.406  0.3944 -1.8949  0.5507
   48MPD2    H2  752   1.215   0.283   9.674 -0.7883 -0.0246  0.3460
   48MPD2    H3  753   1.434   0.285   9.556  0.3184 -0.7044 -0.8420
   48MPD2     N  754   1.334   4.642   9.337 -0.2177 -0.0282  0.2012
   48MPD2    H5  755   1.262   4.571   9.343  0.7409 -0.7701  3.3098
   48MPD2    N1  756   1.029   0.080   9.645  0.0931  0.4557 -0.0739
   48MPD2    H7  757   0.992   4.726   9.646  1.1189  0.0594  1.8135
   49TMC2    C1  758   3.526   2.869   9.336 -0.7775 -0.0636  0.2414
   49TMC2    C2  759   3.476   2.811   9.224  0.3639 -0.5488  0.3559
   49TMC2    C3  760   3.412   2.695   9.243 -0.1724 -0.5870  0.2419
   49TMC2    C4  761   3.523   2.815   9.458 -0.4345  0.2620 -0.0024
   49TMC2    C5  762   3.471   2.687   9.476 -0.0848 -0.4680  0.0077
   49TMC2    C6  763   3.422   2.623   9.363 -0.7957 -0.0916 -0.1502
   49TMC2     C  764   3.623   2.980   9.314  0.4372  0.3414  0.6908
   49TMC2     O  765   3.603   3.050   9.214 -0.6054 -0.1245 -0.4881
   49TMC2     H  766   3.477   2.853   9.124 -2.1122 -1.0761  0.1152
   49TMC2    H1  767   3.543   2.876   9.545 -1.7201  1.8858 -0.8399
   49TMC2    H2  768   3.388   2.521   9.373 -0.1565 -0.3097 -0.1635
   49TMC2    C7  769   3.460   2.615   9.602 -0.0326  1.0469 -0.1953
   49TMC2    C8  770   3.368   2.631   9.123  0.4619  0.0199 -0.3471
   49TMC2    O1  771   3.407   2.508   9.594  0.5930  0.4087 -0.5026
   49TMC2    O2  772   3.376   2.691   9.017  0.2758 -0.1358  0.0795
   49TMC2    O5  773   3.257   2.549   9.154  0.4609  0.2845 -0.4474
   49TMC2    H5  774   3.246   2.510   9.244 -1.7974  0.3170 -0.7110
   50MPD2     C  775   3.837   3.190   9.328  0.8250 -0.4214 -0.1746
   50MPD2    C1  776   3.797   3.114   9.431 -0.1985  0.2985 -0.6544
   50MPD2    C2  777   3.877   3.129   9.548 -0.6638  0.0170 -0.2759
   50MPD2    C3  778   3.983   3.207   9.563 -0.9770  0.4198  0.0356
   50MPD2    C4  779   4.030   3.265   9.446 -0.5209 -0.5698 -0.0628
   50MPD2    C5  780   3.954   3.256   9.329  0.3840 -0.4469  0.5028
   50MPD2     H  781   3.850   3.060   9.627 -0.8692 -0.1960 -0.5325
   50MPD2    H1  782   4.126   3.316   9.439 -0.2485 -1.1235 -0.3308
   50MPD2    H2  783   3.784   3.190   9.233  2.0481  4.3561 -0.8431
   50MPD2    H3  784   3.996   3.299   9.239 -2.6984  1.6878  0.0864
   50MPD2     N  785   4.056   3.230   9.680  0.3274  0.5608 -0.1045
   50MPD2    H5  786   4.137   3.291   9.673  1.1025 -0.4197  0.2627
   50MPD2    N1  787   3.713   3.003   9.412  0.6997  0.3919  0.6312
   50MPD2    H7  788   3.712   2.932   9.484 -0.1146 -2.0386 -1.7568
   51TMC2    C1  789   4.285   1.213   1.317  0.2049  0.2718 -0.1871
   51TMC2    C2  790   4.146   1.222   1.310 -0.3210 -0.2923  0.2034
   51TMC2    C3  791   4.097   1.343   1.271  0.1669  0.6025  0.4648
   51TMC2    C4  792   4.366   1.325   1.320 -0.5581 -0.1730  0.2270
   51TMC2    C5  793   4.313   1.452   1.299  0.1254  0.1394  0.1480
   51TMC2    C6  794   4.179   1.454   1.268  0.1482 -0.0082  0.0237
   51TMC2     C  795   4.355   1.090   1.342  0.3805  0.2663 -1.0314
   51TMC2     O  796   4.471   1.098   1.307  0.1737 -0.4355  0.4680
   51TMC2     H  797   4.080   1.136   1.317 -3.0068  1.7135 -0.6460
   51TMC2    H1  798   4.475   1.320   1.324 -0.5066  0.8438  0.1575
   51TMC2    H2  799   4.128   1.548   1.252 -0.7568 -0.8908 -2.1734
   51TMC2    C7  800   4.399   1.555   1.251 -0.0652  0.1654  0.3548
   51TMC2    C8  801   3.955   1.348   1.229  0.2104 -0.5141 -0.0476
   51TMC2    O1  802   4.511   1.515   1.227  0.0837  0.3103  0.4711
   51TMC2    O2  803   3.869   1.270   1.266 -0.2202 -0.7616 -0.4500
   51TMC2    O5  804   3.966   1.402   1.110 -0.0834  0.3865  0.2889
   51TMC2    H5  805   4.050   1.449   1.091 -2.0252  2.9609 -1.9014
   52MPD2     C  806   4.375   0.593   1.453 -0.0744  0.2430 -0.5873
   52MPD2    C1  807   4.463   0.675   1.382  0.0274 -0.9331 -0.0249
   52MPD2    C2  808   4.431   0.807   1.371 -0.3488  0.0720 -0.0590
   52MPD2    C3  809   4.318   0.860   1.422 -0.0905  0.3006  0.4551
   52MPD2    C4  810   4.233   0.781   1.497  0.9379  0.2508 -0.1942
   52MPD2    C5  811   4.259   0.645   1.506 -0.2712 -0.4175 -0.5459
   52MPD2     H  812   4.504   0.873   1.327  2.2968 -2.3596  0.7116
   52MPD2    H1  813   4.142   0.806   1.550  0.3901  0.3736 -1.1929
   52MPD2    H2  814   4.398   0.487   1.459 -2.8227 -0.3641 -0.8598
   52MPD2    H3  815   4.182   0.575   1.535 -0.5854 -0.3605 -1.2369
   52MPD2     N  816   4.278   0.995   1.402  0.0518 -0.2706  0.3607
   52MPD2    H5  817   4.193   1.025   1.448 -0.9263 -2.7014  0.1439
   52MPD2    N1  818   4.586   0.627   1.322 -0.8894 -0.6021  0.0915
   52MPD2    H7  819   4.647   0.690   1.271  0.8750 -1.3413  1.2592
   53TMC2    C1  820   4.451   0.292  10.988 -0.0568 -0.7078 -0.8027
   53TMC2    C2  821   4.406   0.404  10.914 -0.4203 -0.5061 -1.2278
   53TMC2    C3  822   4.441   0.531  10.947  0.2311  0.4210  0.0098
   53TMC2    C4  823   4.544   0.312  11.083 -0.4177 -0.4624 -0.1208
   53TMC2    C5  824   4.589   0.439  11.105  0.2020  0.5199  0.3103
   53TMC2    C6  825   4.535   0.555  11.042 -0.7158 -0.6442 -0.0240
   53TMC2     C  826   4.417   0.164  10.940 -0.4398  0.1877 -0.3950
   53TMC2     O  827   4.393   0.153  10.822 -0.3747  0.3833 -0.3629
   53TMC2     H  828   4.326   0.414  10.842 -1.1112  2.3595 -0.0993
   53TMC2    H1  829   4.573   0.225  11.140  0.5660  1.8840  2.9626
   53TMC2    H2  830   4.582   0.652  11.054 -0.5273 -0.8488  0.8851
   53TMC2    C7  831   4.680   0.460  11.221  0.4451 -0.5072  0.2417
   53TMC2    C8  832   4.412   0.629  10.850 -0.3524  0.6190  0.8007
   53TMC2    O1  833   4.668   0.573  11.266  0.6808 -0.2218 -0.3122
   53TMC2    O2  834   4.368   0.605  10.735 -0.0693 -0.3684 -0.5640
   53TMC2    O5  835   4.455   0.750  10.889  0.2020 -0.7574 -0.1346
   53TMC2    H5  836   4.472   0.751  10.985  1.7656 -2.1845 -0.4021
   54MPD2     C  837   4.394   4.611  10.891  0.1962  0.2696 -0.0928
   54MPD2    C1  838   4.403   4.673  11.021 -0.0942  0.0575  0.0548
   54MPD2    C2  839   4.390   4.592  11.127 -0.4509  0.2527 -0.4813
   54MPD2    C3  840   4.361   4.457  11.122  0.2953 -0.0801  0.2708
   54MPD2    C4  841   4.362   4.397  10.998  0.3205  0.1307 -0.3977
   54MPD2    C5  842   4.375   4.470  10.884  0.2986 -0.6482  0.5430
   54MPD2     H  843   4.397   4.641  11.224 -4.1756  1.5584 -0.8684
   54MPD2    H1  844   4.335   4.293  10.980 -0.2660  0.5002 -1.6956
   54MPD2    H2  845   4.397   4.663  10.796 -2.7955 -1.8037 -1.3106
   54MPD2    H3  846   4.367   4.438  10.781  0.0757  5.7624 -1.4577
   54MPD2     N  847   4.335   4.373  11.239  0.3945 -0.8023  0.2582
   54MPD2    H5  848   4.315   4.276  11.221  1.7148 -1.4012  2.0769
   54MPD2    N1  849   4.418   0.067  11.040 -0.0897  0.0110  0.8477
   54MPD2    H7  850   4.425   0.104  11.134 -2.2865 -0.3125  1.1432
   55TMC2    C1  851   1.163   2.511  17.641 -0.0721 -0.2054 -0.0205
   55TMC2    C2  852   1.121   2.439  17.528 -0.1375 -0.5950  0.7943
   55TMC2    C3  853   1.097   2.306  17.538 -0.1725 -0.4709  1.0506
   55TMC2    C4  854   1.164   2.447   0.003 -0.0482  0.1030 -0.1512
   55TMC2    C5  855   1.146   2.309   0.007 -0.0197  0.4222 -0.3734
   55TMC2    C6  856   1.113   2.237  17.656  0.4504  0.3507  0.2720
   55TMC2     C  857   1.126   2.653  17.650 -0.2249  0.4182 -0.2019
   55TMC2     O  858   1.074   2.686  17.753  0.2866 -0.5670  0.5119
   55TMC2     H  859   1.131   2.481  17.429 -0.3144 -0.5190  0.8075
   55TMC2    H1  860   1.200   2.498   0.092  2.3657  0.1548 -1.1784
   55TMC2    H2  861   1.111   2.128  17.652  1.3492  0.3918 -1.2560
   55TMC2    C7  862   1.129   2.243   0.135 -0.8410 -0.0670 -0.0725
   55TMC2    C8  863   1.028   2.242  17.429 -0.1559  0.0427  0.4073
   55TMC2    O1  864   1.129   2.122   0.130 -0.1332 -0.4513 -0.4224
   55TMC2    O2  865   1.026   2.121  17.406  0.2506 -0.2463 -0.1851
   55TMC2    O5  866   0.912   2.311  17.414  0.3654  0.0403  0.4686
   55TMC2    H5  867   0.910   2.384  17.480 -0.6397  2.2021 -1.9675
   56MPD2     C  868   1.078   2.895  17.384  1.0669  0.0198  0.2512
   56MPD2    C1  869   1.097   2.852  17.517 -0.7278 -0.2782  1.0606
   56MPD2    C2  870   1.039   2.931  17.612 -0.3122  0.0710  0.2943
   56MPD2    C3  871   0.973   3.049  17.584 -0.8284 -0.0557  0.0688
   56MPD2    C4  872   0.988   3.101  17.458 -0.4855 -0.2698 -0.3347
   56MPD2    C5  873   1.034   3.020  17.357  0.2845 -0.2839  0.1558
   56MPD2     H  874   1.028   2.895  17.714  0.9681 -0.7257  0.1480
   56MPD2    H1  875   0.957   3.203  17.437 -0.5285 -0.3531 -0.6815
   56MPD2    H2  876   1.106   2.832  17.301 -1.2789 -0.9638  0.2158
   56MPD2    H3  877   1.025   3.055  17.254  1.5677  3.2682  1.2484
   56MPD2     N  878   0.910   3.118  17.686 -0.0611  0.0142  0.0669
   56MPD2    H5  879   0.896   3.071   0.014 -0.2103 -0.7088 -0.3450
   56MPD2    N1  880   1.141   2.718  17.538  0.4346  0.0243 -0.3977
   56MPD2    H7  881   1.182   2.671  17.458  2.6418  2.0594 -0.4881
   57TMC2    C1  882   0.433   3.613  13.077  1.0556 -0.4634 -0.3491
   57TMC2    C2  883   0.416   3.538  12.963  0.1699 -0.1772  0.6719
   57TMC2    C3  884   0.539   3.514  12.904 -0.1589 -0.3368 -0.0809
   57TMC2    C4  885   0.550   3.650  13.142  0.4987  0.5229 -0.1887
   57TMC2    C5  886   0.664   3.619  13.078 -0.1564  0.0244 -0.2460
   57TMC2    C6  887   0.659   3.553  12.958  0.1140 -0.0281  0.1371
   57TMC2     C  888   0.313   3.638  13.155 -0.5120  0.3470  0.3405
   57TMC2     O  889   0.296   3.750  13.207 -0.0481 -0.3499 -0.4608
   57TMC2     H  890   0.321   3.518  12.914  1.4568  1.0460 -2.3139
   57TMC2    H1  891   0.553   3.701  13.237  0.6109 -2.1323  1.2362
   57TMC2    H2  892   0.748   3.519  12.906  1.2895  0.9477  1.5273
   57TMC2    C7  893   0.796   3.637  13.137  0.4232 -0.0743 -0.3875
   57TMC2    C8  894   0.535   3.491  12.763  0.2555  0.6629  0.6722
   57TMC2    O1  895   0.829   3.752  13.166  0.4664 -0.7757 -0.2880
   57TMC2    O2  896   0.442   3.524  12.694  0.2046 -0.0724  0.4566
   57TMC2    O5  897   0.628   3.395  12.731  0.2538 -0.1591 -0.4984
   57TMC2    H5  898   0.679   3.354  12.804 -0.1118 -0.2679 -0.3038
   58MPD2     C  899   4.609   3.460  13.357  0.3637 -0.5563  0.7791
   58MPD2    C1  900   4.660   3.584  13.359  0.5094  0.8929 -0.1962
   58MPD2    C2  901   0.041   3.611  13.294 -0.6922 -0.6225  0.0396
   58MPD2    C3  902   0.109   3.511  13.225  0.1617  0.3196  0.0658
   58MPD2    C4  903   0.063   3.383  13.245  0.5186 -0.1967 -0.5466
   58MPD2    C5  904   4.687   3.356  13.311  0.2240 -0.4485  0.3831
   58MPD2     H  905   0.078   3.713  13.289  0.8986 -1.2515 -1.2692
   58MPD2    H1  906   0.109   3.293  13.206  0.1808 -0.2497 -0.8186
   58MPD2    H2  907   4.513   3.435  13.403 -0.1676 -0.5527 -0.3271
   58MPD2    H3  908   4.646   3.256  13.319 -0.8350 -0.1202 -0.9013
   58MPD2     N  909   0.236   3.526  13.156  0.3595 -0.6786  0.0295
   58MPD2    H5  910   0.277   3.448  13.106  1.0042  0.1394 -0.7076
   58MPD2    N1  911   4.585   3.696  13.410  0.4381  0.5132 -0.2865
   58MPD2    H7  912   4.627   3.789  13.408 -2.1431  1.6859  0.0162
   59TMC2    C1  913   2.669   3.462  12.321  0.4179  0.4489  0.6902
   59TMC2    C2  914   2.601   3.345  12.298 -0.4444 -0.3997  0.3468
   59TMC2    C3  915   2.522   3.325  12.194 -0.3200 -0.3567 -0.0599
   59TMC2    C4  916   2.655   3.567  12.234 -0.8018  0.6516 -0.6288
   59TMC2    C5  917   2.587   3.540  12.114  0.0984  0.2661  0.4592
   59TMC2    C6  918   2.511   3.429  12.103  0.4133  0.1184  0.0251
   59TMC2     C  919   2.710   3.486  12.457  0.2028  0.2871  0.8699
   59TMC2     O  920   2.660   3.408  12.542  0.1554  0.1737  0.7022
   59TMC2     H  921   2.637   3.259  12.353 -1.0684  0.8808  2.7268
   59TMC2    H1  922   2.712   3.657  12.251  0.6078 -0.4431  0.3858
   59TMC2    H2  923   2.450   3.413  12.015  1.1823  0.3723 -0.5566
   59TMC2    C7  924   2.609   3.640  12.011  0.5991  0.1454  0.2426
   59TMC2    C8  925   2.500   3.186  12.153 -0.5712  0.0433 -0.8728
   59TMC2    O1  926   2.708   3.712  12.009  0.1450  0.4600 -0.0986
   59TMC2    O2  927   2.474   3.094  12.221  0.1405 -0.0299 -0.0962
   59TMC2    O5  928   2.564   3.171  12.034  0.6392  0.8958 -0.1163
   59TMC2    H5  929   2.576   3.261  11.997  1.2240  0.7759 -0.2199
   60MPD2     C  930   2.720   3.646  12.692 -0.5223 -0.1581 -0.1469
   60MPD2    C1  931   2.820   3.653  12.596 -0.2736 -0.8142  0.1356
   60MPD2    C2  932   2.934   3.717  12.622 -0.3111 -0.2294  0.6737
   60MPD2    C3  933   2.957   3.775  12.744  0.3942 -0.3217 -0.1569
   60MPD2    C4  934   2.862   3.762  12.844 -0.3119  0.2084 -0.3876
   60MPD2    C5  935   2.751   3.693  12.818  0.1579 -0.0958  1.0138
   60MPD2     H  936   3.000   3.732  12.538 -0.3144  0.9676  0.8760
   60MPD2    H1  937   2.875   3.806  12.942  1.0462  0.2882 -0.5942
   60MPD2    H2  938   2.623   3.602  12.670 -1.4279  1.5251  0.5314
   60MPD2    H3  939   2.681   3.685  12.901 -0.2005 -1.1602  0.6179
   60MPD2     N  940   3.076   3.837  12.782  0.2564  0.4334  0.4159
   60MPD2    H5  941   3.086   3.864  12.879 -0.9051  0.7979  0.4360
   60MPD2    N1  942   2.797   3.598  12.470 -0.0333  0.6051 -0.3099
   60MPD2    H7  943   2.852   3.631  12.392 -0.3223  2.1695  0.1544
   61TMC2    C1  944   1.059   0.930  14.934 -0.3981  1.2453 -0.3442
   61TMC2    C2  945   0.947   0.883  15.006  0.1288 -0.0831  0.4735
   61TMC2    C3  946   0.926   0.937  15.130  0.1175 -0.0441  0.3578
   61TMC2    C4  947   1.138   1.035  14.973  0.0509 -0.0187  0.1113
   61TMC2    C5  948   1.098   1.095  15.093  0.0341  0.1425  0.2797
   61TMC2    C6  949   1.004   1.036  15.177 -0.1150 -0.0920 -0.0157
   61TMC2     C  950   1.107   0.844  14.828 -0.2669 -0.5827  0.1391
   61TMC2     O  951   1.020   0.779  14.774  0.9724 -0.2663 -0.2098
   61TMC2     H  952   0.879   0.815  14.955 -1.8180  0.6678  2.0840
   61TMC2    H1  953   1.205   1.086  14.905  0.9145 -2.1695 -0.6457
   61TMC2    H2  954   0.975   1.083  15.270 -1.7098 -0.8115 -0.1419
   61TMC2    C7  955   1.205   1.187  15.149 -0.1055 -0.1094 -0.4914
   61TMC2    C8  956   0.855   0.873  15.237 -0.0415  0.1851  0.1857
   61TMC2    O1  957   1.286   1.226  15.067  0.2495  0.1288 -0.3804
   61TMC2    O2  958   0.834   0.924  15.347 -0.3113  0.0441 -0.1448
   61TMC2    O5  959   0.837   0.742  15.196 -0.1645  0.8096 -0.1505
   61TMC2    H5  960   0.864   0.709  15.107 -1.1747  1.6496 -0.7758
   62MPD2     C  961   1.250   0.752  14.575  0.1908 -0.0603 -0.8219
   62MPD2    C1  962   1.308   0.787  14.695 -0.0605  0.4170 -0.5301
   62MPD2    C2  963   1.443   0.768  14.724  0.4518  0.1779 -0.1295
   62MPD2    C3  964   1.526   0.724  14.616  1.1667  0.2306  0.3406
   62MPD2    C4  965   1.467   0.697  14.495 -0.2774  0.2511  0.2687
   62MPD2    C5  966   1.331   0.703  14.480 -0.5968 -0.6753 -0.0570
   62MPD2     H  967   1.486   0.799  14.818  1.8591  1.9500 -1.3438
   62MPD2    H1  968   1.527   0.684  14.406 -0.1728  2.6369 -0.0055
   62MPD2    H2  969   1.144   0.774  14.567  0.3456  0.7763 -0.5465
   62MPD2    H3  970   1.285   0.692  14.382 -4.0283 -1.8983  1.6946
   62MPD2     N  971   1.663   0.705  14.618  0.4535 -1.0617 -0.1008
   62MPD2    H5  972   1.707   0.661  14.538 -0.2485  0.4044 -1.3200
   62MPD2    N1  973   1.243   0.842  14.806  0.9466  0.0427  0.3388
   62MPD2    H7  974   1.296   0.871  14.888  0.5455 -1.9853  1.2918
   63TMC2    C1  975   1.090   1.105  10.276  0.3000  0.2062  0.8187
   63TMC2    C2  976   1.144   1.228  10.300  0.3195 -0.3471 -0.8776
   63TMC2    C3  977   1.227   1.266  10.192  0.2349  0.1850 -0.4375
   63TMC2    C4  978   1.115   1.028  10.168  0.3988 -0.6652  0.1098
   63TMC2    C5  979   1.200   1.066  10.072  0.7248 -0.7545 -0.4818
   63TMC2    C6  980   1.251   1.185  10.081  0.8969 -0.1367  0.4331
   63TMC2     C  981   1.011   1.046  10.384  0.5106  0.5770  0.1281
   63TMC2     O  982   0.925   1.125  10.418  0.5558  0.0238  0.4875
   63TMC2     H  983   1.115   1.293  10.382 -0.1821 -0.1329 -1.2324
   63TMC2    H1  984   1.058   0.936  10.167 -1.6455  0.6037  1.0839
   63TMC2    H2  985   1.322   1.216  10.005  0.5240  0.7549  0.4444
   63TMC2    C7  986   1.230   0.992   9.960 -0.0785 -0.3638  0.3844
   63TMC2    C8  987   1.269   1.397  10.176  0.6562 -0.5639 -0.2617
   63TMC2    O1  988   1.263   1.045   9.853  0.0193  0.0840 -0.9332
   63TMC2    O2  989   1.283   1.466  10.076  0.4036 -0.6547 -0.1099
   63TMC2    O5  990   1.291   1.437  10.307  0.2387  0.7535  0.1953
   63TMC2    H5  991   1.288   1.363  10.371  0.5117  0.8941  0.3740
   64MPD2     C  992   0.832   0.661  10.646 -0.0872  0.0924  0.2316
   64MPD2    C1  993   0.941   0.620  10.578 -0.2727 -0.0463 -1.0670
   64MPD2    C2  994   1.015   0.702  10.501  0.0569  0.7971  0.3654
   64MPD2    C3  995   0.970   0.836  10.497  0.4512  0.1509  0.3031
   64MPD2    C4  996   0.872   0.883  10.574  0.2428  0.0489 -0.6961
   64MPD2    C5  997   0.813   0.795  10.664 -0.4652  0.0793 -0.5569
   64MPD2     H  998   1.101   0.660  10.451 -0.1998  0.1130  0.5004
   64MPD2    H1  999   0.831   0.983  10.562  0.5420  0.0572 -1.7252
   64MPD2    H2 1000   0.770   0.593  10.705  1.9828 -0.7075  1.4840
   64MPD2    H3 1001   0.745   0.832  10.740 -0.4592  0.3155 -0.6653
   64MPD2     N 1002   1.040   0.913  10.409 -0.3001 -0.4879 -0.5349
   64MPD2    H5 1003   1.115   0.865  10.361  1.4578  1.3138  0.3922
   64MPD2    N1 1004   0.979   0.480  10.562 -0.3111 -0.3278 -0.9216
   64MPD2    H7 1005   1.060   0.467  10.502  2.2803  2.3545  1.9847
   65TMC2    C1 1006   2.896   4.671  16.326  0.0944 -0.6955 -0.5188
   65TMC2    C2 1007   2.908   4.715  16.457  0.1421 -0.2544 -0.3358
   65TMC2    C3 1008   2.897   0.113  16.478 -0.0869 -0.3428 -0.5907
   65TMC2    C4 1009   2.874   0.008  16.215 -0.3539  0.3052  0.1393
   65TMC2    C5 1010   2.862   0.143  16.247 -0.2879 -0.0750  0.3438
   65TMC2    C6 1011   2.878   0.197  16.374 -0.1125 -0.0238 -0.0544
   65TMC2     C 1012   2.867   4.535  16.308  0.1059  0.6704  0.0743
   65TMC2     O 1013   2.928   4.450  16.376  0.1064 -0.0177  0.4860
   65TMC2     H 1014   2.905   4.647  16.541  0.4063 -0.3194 -0.3810
   65TMC2    H1 1015   2.884   4.715  16.113  0.1060 -0.8504  0.5742
   65TMC2    H2 1016   2.886   0.303  16.396 -0.2239 -0.3041  1.3147
   65TMC2    C7 1017   2.838   0.240  16.137  0.2304 -0.1301 -0.5597
   65TMC2    C8 1018   2.907   0.179  16.614 -0.2212  0.4519  0.4643
   65TMC2    O1 1019   2.859   0.203  16.021 -0.2629  0.2186 -0.5364
   65TMC2    O2 1020   2.906   0.300  16.617  0.0496 -0.2446  0.3061
   65TMC2    O5 1021   2.986   0.102  16.680 -0.7022  0.0229  0.0022
   65TMC2    H5 1022   3.008   0.023  16.627 -1.0445 -0.3068  0.3604
   66MPD2     C 1023   2.761   4.263  16.215 -0.2716  0.7256  0.1234
   66MPD2    C1 1024   2.717   4.388  16.163 -0.3652  0.3160 -0.3691
   66MPD2    C2 1025   2.624   4.389  16.064 -0.6675  0.6070 -0.1114
   66MPD2    C3 1026   2.561   4.273  16.025 -0.9929 -0.0249  0.4933
   66MPD2    C4 1027   2.589   4.162  16.093 -0.2531  0.3036  0.0966
   66MPD2    C5 1028   2.694   4.150  16.179  0.6848  0.6340 -0.0189
   66MPD2     H 1029   2.597   4.482  16.014 -0.9356 -0.8168 -2.6311
   66MPD2    H1 1030   2.544   4.069  16.059  0.5747  0.9632 -2.7921
   66MPD2    H2 1031   2.817   4.255  16.308 -1.1537  1.9208  0.7614
   66MPD2    H3 1032   2.700   4.056  16.233  1.4038  1.0906  0.6915
   66MPD2     N 1033   2.450   4.269  15.935  0.5890 -0.0522  0.1258
   66MPD2    H5 1034   2.391   4.186  15.942  1.7223 -0.7577  1.3211
   66MPD2    N1 1035   2.769   4.516  16.208  0.6149  0.2638 -0.1739
   66MPD2    H7 1036   2.734   4.599  16.161  1.0058 -0.1029 -1.1136
   67TMC2    C1 1037   1.934   3.563  14.553  0.1229 -0.1648  0.4782
   67TMC2    C2 1038   1.909   3.464  14.647  0.2872  0.5247  0.2263
   67TMC2    C3 1039   2.016   3.427  14.733 -0.3769 -0.4206  0.5198
   67TMC2    C4 1040   2.063   3.612  14.529 -0.5420  0.1605 -0.3613
   67TMC2    C5 1041   2.156   3.580  14.621 -0.7081 -0.6544  0.1004
   67TMC2    C6 1042   2.133   3.492  14.720  0.0201  0.6329 -0.5456
   67TMC2     C 1043   1.819   3.622  14.487  0.3239 -0.4126 -0.1239
   67TMC2     O 1044   1.710   3.567  14.495  0.5603 -0.0076 -0.1316
   67TMC2     H 1045   1.808   3.434  14.671  0.5002 -0.1224  0.3255
   67TMC2    H1 1046   2.097   3.697  14.472 -1.7080 -0.4824 -2.0380
   67TMC2    H2 1047   2.219   3.484  14.786 -1.2588 -1.8564  0.8174
   67TMC2    C7 1048   2.286   3.648  14.611 -0.0873 -0.8399 -0.1614
   67TMC2    C8 1049   1.977   3.399  14.869  0.8541 -0.0108 -0.4065
   67TMC2    O1 1050   2.355   3.629  14.508  0.0626  0.1243 -0.0019
   67TMC2    O2 1051   2.011   3.464  14.967  0.3279 -0.7041  0.0570
   67TMC2    O5 1052   1.977   3.263  14.870 -0.3736 -0.9655 -0.3645
   67TMC2    H5 1053   1.944   3.226  14.786  4.1576 -0.8484 -2.2144
   68MPD2     C 1054   1.630   3.829  14.364 -0.8989  0.8357 -0.2311
   68MPD2    C1 1055   1.769   3.833  14.359  0.3016 -0.3515 -0.0596
   68MPD2    C2 1056   1.828   3.935  14.292  0.3326  0.7949  0.6956
   68MPD2    C3 1057   1.750   4.026  14.224 -0.2024  0.6372  0.5050
   68MPD2    C4 1058   1.613   4.007  14.204 -0.3811 -0.0280 -0.1059
   68MPD2    C5 1059   1.557   3.915  14.285 -0.0348 -0.1555 -0.3386
   68MPD2     H 1060   1.936   3.935  14.284  0.1858 -0.6717 -1.0939
   68MPD2    H1 1061   1.547   4.070  14.145  1.6312  1.9892 -0.1998
   68MPD2    H2 1062   1.578   3.759  14.428  0.5446  0.5532  0.6273
   68MPD2    H3 1063   1.451   3.894  14.283  0.0792 -0.6194 -2.2418
   68MPD2     N 1064   1.805   4.127  14.144  0.3292  0.4022  0.6261
   68MPD2    H5 1065   1.745   4.162  14.070 -0.2757  1.9779  1.8657
   68MPD2    N1 1066   1.858   3.752  14.438  0.3315 -0.4885  0.2864
   68MPD2    H7 1067   1.955   3.780  14.450  0.8365 -1.6816 -1.0677
   69TMC2    C1 1068   0.589   0.897  12.388  0.0469  0.3981  0.2939
   69TMC2    C2 1069   0.546   1.002  12.312 -0.6185 -0.3245 -0.0742
   69TMC2    C3 1070   0.569   0.997  12.175  0.2378 -0.1384  0.4004
   69TMC2    C4 1071   0.663   0.792  12.331  0.5186  0.9201  0.7178
   69TMC2    C5 1072   0.671   0.795  12.192  0.3057  0.1626 -0.0387
   69TMC2    C6 1073   0.619   0.888  12.110 -0.2847  0.4839 -0.1289
   69TMC2     C 1074   0.506   0.862  12.505 -0.1689 -0.4826 -0.0227
   69TMC2     O 1075   0.389   0.889  12.489  0.4990 -0.3939 -0.2965
   69TMC2     H 1076   0.508   1.089  12.363  0.5597  0.3492 -0.3469
   69TMC2    H1 1077   0.695   0.718  12.402  0.2131  1.2469  1.1958
   69TMC2    H2 1078   0.637   0.883  12.004  0.6075  2.1011 -0.0478
   69TMC2    C7 1079   0.723   0.677  12.124 -0.2301 -0.3161 -0.4253
   69TMC2    C8 1080   0.536   1.115  12.095  0.4322  0.2455  0.3889
   69TMC2    O1 1081   0.752   0.694  12.004 -0.2102 -0.0367 -0.0620
   69TMC2    O2 1082   0.459   1.106  12.003  0.3850 -0.7340  0.1412
   69TMC2    O5 1083   0.653   1.175  12.077 -0.0933 -0.0278 -0.2281
   69TMC2    H5 1084   0.712   1.159  12.153  0.3241 -0.2496 -0.5982
   70MPD2     C 1085   0.605   0.727  12.825  0.0914  0.2062  0.5177
   70MPD2    C1 1086   0.524   0.746  12.719 -0.1567  0.0526 -0.3937
   70MPD2    C2 1087   0.413   0.664  12.696  0.8727  0.5719  0.4770
   70MPD2    C3 1088   0.379   0.569  12.786 -0.1222 -0.0393  0.3684
   70MPD2    C4 1089   0.466   0.549  12.892  0.0595  0.2774 -0.2389
   70MPD2    C5 1090   0.574   0.632  12.912 -0.2350 -0.1140  0.1287
   70MPD2     H 1091   0.369   0.663  12.597  2.8690 -1.2447 -0.3974
   70MPD2    H1 1092   0.455   0.469  12.964  1.1690  0.1195 -0.2541
   70MPD2    H2 1093   0.702   0.774  12.838  0.9410 -0.7036 -2.4539
   70MPD2    H3 1094   0.643   0.599  12.990  1.2086  2.4962 -0.0481
   70MPD2     N 1095   0.272   0.475  12.768  0.4117 -1.0746 -0.4197
   70MPD2    H5 1096   0.249   0.410  12.843  0.9106  0.5846  1.1580
   70MPD2    N1 1097   0.581   0.815  12.607  0.1336 -0.4438  0.1275
   70MPD2    H7 1098   0.679   0.843  12.613 -0.0158  0.1001  0.0291
   71TMC2    C1 1099   1.787   0.437   1.251 -0.3498 -0.0986 -0.2422
   71TMC2    C2 1100   1.879   0.341   1.246 -0.4903 -0.0487 -0.1927
   71TMC2    C3 1101   1.894   0.252   1.349 -0.2826  0.2978  0.3247
   71TMC2    C4 1102   1.711   0.454   1.364 -0.9406 -0.0539  0.4046
   71TMC2    C5 1103   1.732   0.377   1.475 -0.2171 -0.8251 -0.3113
   71TMC2    C6 1104   1.814   0.265   1.465  0.0332  0.1398  0.4320
   71TMC2     C 1105   1.801   0.547   1.157 -0.8090  0.0335  0.3811
   71TMC2     O 1106   1.708   0.628   1.149  0.0042  0.7439  0.6562
   71TMC2     H 1107   1.924   0.303   1.155 -0.3228  0.7596 -0.4435
   71TMC2    H1 1108   1.651   0.544   1.370 -0.0202  0.4748  1.7027
   71TMC2    H2 1109   1.799   0.183   1.534  0.7674 -0.9780 -0.7433
   71TMC2    C7 1110   1.621   0.356   1.568  0.0769 -0.9402  1.0403
   71TMC2    C8 1111   1.961   0.120   1.320  0.2878  0.3118  0.0196
   71TMC2    O1 1112   1.629   0.272   1.659 -0.1297 -0.2232 -0.5582
   71TMC2    O2 1113   1.984   0.069   1.208 -0.0805  0.2272 -0.1157
   71TMC2    O5 1114   2.021   0.083   1.435  0.5747  0.5406 -0.2598
   71TMC2    H5 1115   2.007   0.146   1.509  2.3353  0.1584  0.3930
   72MPD2     C 1116   2.071   0.943   1.005  0.5769  0.2686 -0.2172
   72MPD2    C1 1117   1.948   0.901   0.967  0.0613  1.0176  0.3160
   72MPD2    C2 1118   1.917   0.771   1.002  0.6889 -0.1427  0.4224
   72MPD2    C3 1119   1.992   0.681   1.073 -0.5521  0.1065  0.2013
   72MPD2    C4 1120   2.119   0.716   1.098 -0.2058  0.4366  0.1130
   72MPD2    C5 1121   2.150   0.853   1.064  0.3385 -0.9638  0.1303
   72MPD2     H 1122   1.817   0.734   0.986  0.1745  0.8944  1.2435
   72MPD2    H1 1123   2.185   0.656   1.160 -0.7919  0.7612  1.0598
   72MPD2    H2 1124   2.102   1.046   0.999  0.9583  0.1661  0.0400
   72MPD2    H3 1125   2.237   0.901   1.108 -0.5257  0.5771  0.1321
   72MPD2     N 1126   1.935   0.564   1.127 -0.2962  0.0689 -0.8382
   72MPD2    H5 1127   1.995   0.493   1.169 -0.7154 -1.0722 -2.1748
   72MPD2    N1 1128   1.865   0.978   0.887 -0.1426 -0.1824 -0.1455
   72MPD2    H7 1129   1.777   0.937   0.858  0.0892  0.3241 -1.5487
   73TMC2    C1 1130   2.146   2.862  13.759  0.3109  0.1168  0.6158
   73TMC2    C2 1131   2.069   2.822  13.858  0.0677  0.1291  0.2138
   73TMC2    C3 1132   2.100   2.704  13.918 -0.3213 -0.2980 -0.1700
   73TMC2    C4 1133   2.249   2.783  13.717 -0.2875 -0.1605 -0.4316
   73TMC2    C5 1134   2.287   2.672  13.783 -0.1509  0.3069 -0.2189
   73TMC2    C6 1135   2.213   2.632  13.895 -0.6450  0.4093  0.1839
   73TMC2     C 1136   2.196   2.994  13.781  0.4568  0.4604  0.3811
   73TMC2     O 1137   2.317   2.995  13.788 -0.7456  0.5716 -0.3134
   73TMC2     H 1138   1.991   2.885  13.899 -1.3873 -2.5117  1.4814
   73TMC2    H1 1139   2.308   2.832  13.641 -0.8157 -2.8497 -2.5829
   73TMC2    H2 1140   2.240   2.547  13.957  2.5521  0.3732 -1.3016
   73TMC2    C7 1141   2.429   2.655  13.800 -0.5422 -0.7366 -0.2938
   73TMC2    C8 1142   2.009   2.660  14.025  0.0684  0.2070  0.2113
   73TMC2    O1 1143   2.482   2.546  13.827  0.2026 -0.2815 -0.0434
   73TMC2    O2 1144   1.936   2.733  14.093 -0.1454  0.2328 -0.6766
   73TMC2    O5 1145   2.025   2.534  14.037  0.0099 -0.5613  0.1744
   73TMC2    H5 1146   2.051   2.508  13.946 -0.4927 -0.6557  0.0591
   74MPD2     C 1147   2.219   3.497  13.804  0.2584  0.0174 -0.1046
   74MPD2    C1 1148   2.313   3.397  13.837 -0.5371  0.1331 -0.8340
   74MPD2    C2 1149   2.273   3.266  13.846 -0.0154 -0.7400 -0.6474
   74MPD2    C3 1150   2.145   3.232  13.811 -0.2966  0.0298  0.6078
   74MPD2    C4 1151   2.051   3.329  13.801  0.9974 -0.3737  0.3777
   74MPD2    C5 1152   2.088   3.458  13.798  0.0440  0.3258  0.0686
   74MPD2     H 1153   2.346   3.187  13.856  0.2953 -0.2033  1.2750
   74MPD2    H1 1154   1.944   3.313  13.804  0.5246  2.8116  0.7117
   74MPD2    H2 1155   2.245   3.601  13.795 -1.5017  0.2753 -2.0592
   74MPD2    H3 1156   2.007   3.530  13.791  0.4383  0.4092 -3.6997
   74MPD2     N 1157   2.106   3.100  13.795  0.5437  0.5683 -0.0086
   74MPD2    H5 1158   2.016   3.094  13.749  0.4815 -2.9747  0.5683
   74MPD2    N1 1159   2.451   3.432  13.829 -0.4320  0.5658  0.3905
   74MPD2    H7 1160   2.482   3.523  13.796 -1.6283 -0.0721 -2.4560
   75TMC2    C1 1161   1.956   4.278  14.051 -0.3433 -0.2054 -0.4358
   75TMC2    C2 1162   2.014   4.389  14.097  0.4685 -0.1514 -0.4901
   75TMC2    C3 1163   2.043   4.482  13.999  0.5087 -0.0573  1.5815
   75TMC2    C4 1164   1.928   4.248  13.918  0.0082  0.6011 -0.1215
   75TMC2    C5 1165   1.960   4.345  13.823  0.5858  0.0132 -0.1280
   75TMC2    C6 1166   2.005   4.469  13.861  0.1071 -0.1789  0.0978
   75TMC2     C 1167   1.933   4.176  14.150 -0.5148 -0.6450  0.1589
   75TMC2     O 1168   2.025   4.156  14.230  0.4705  0.0615 -0.0477
   75TMC2     H 1169   2.025   4.404  14.204 -0.7829  2.0421 -0.6698
   75TMC2    H1 1170   1.883   4.155  13.887  0.4097 -0.1859  1.6770
   75TMC2    H2 1171   2.021   4.543  13.783  1.3700 -2.0561 -1.4034
   75TMC2    C7 1172   1.979   4.299  13.685  0.1349 -0.0786 -0.1903
   75TMC2    C8 1173   2.088   4.614  14.046 -0.6340 -0.2863  0.2332
   75TMC2    O1 1174   1.918   4.195  13.657  0.1979 -0.6492  0.1657
   75TMC2    O2 1175   2.153   4.616  14.150  0.4363 -0.0195  0.3399
   75TMC2    O5 1176   2.019   4.710  13.986 -0.2825  0.6488 -0.1641
   75TMC2    H5 1177   1.943   4.671  13.938  0.1069 -0.4168  0.0907
   76TMC2    C1 1178   1.398   4.224  12.155  0.9417 -0.0142  0.5177
   76TMC2    C2 1179   1.276   4.175  12.191  0.2903  0.6524  0.3012
   76TMC2    C3 1180   1.254   4.042  12.179  0.4377  0.6977  0.5423
   76TMC2    C4 1181   1.497   4.145  12.115 -0.0775  0.5297  0.8215
   76TMC2    C5 1182   1.478   4.012  12.108 -0.0524  0.1205 -0.1938
   76TMC2    C6 1183   1.359   3.956  12.142 -0.2950 -0.6908 -0.0692
   76TMC2     C 1184   1.408   4.358  12.086 -0.2226  0.6098  0.0307
   76TMC2     O 1185   1.304   4.414  12.058 -0.1286 -0.4310  0.2033
   76TMC2     H 1186   1.212   4.245  12.245 -2.3535  0.1093 -2.1423
   76TMC2    H1 1187   1.589   4.179  12.068 -0.2546 -0.3963 -0.1896
   76TMC2    H2 1188   1.346   3.848  12.144  0.6676 -0.8114 -0.5848
   76TMC2    C7 1189   1.585   3.912  12.094  0.1292 -0.5673  0.2375
   76TMC2    C8 1190   1.142   3.997  12.258 -0.1767  1.1273 -0.1741
   76TMC2    O1 1191   1.560   3.795  12.080 -0.2071 -0.0687  0.1940
   76TMC2    O2 1192   1.084   4.091  12.310 -0.3352 -0.6949 -0.0004
   76TMC2    O5 1193   1.187   3.890  12.330  0.4003  0.0008 -0.3410
   76TMC2    H5 1194   1.214   3.814  12.273 -1.8913 -0.4664 -0.7831
   77MPD2     C 1195   1.686   0.016  11.916  0.3306 -0.8440 -0.0810
   77MPD2    C1 1196   1.553   4.722  11.903  0.0537  0.1877  0.0846
   77MPD2    C2 1197   1.498   4.612  11.964 -0.3365  0.0728 -0.1558
   77MPD2    C3 1198   1.583   4.527  12.035  0.2964  0.0052 -0.1470
   77MPD2    C4 1199   1.714   4.564  12.053  0.6748 -0.0683 -0.5702
   77MPD2    C5 1200   1.767   4.674  11.990 -0.4001  0.0527  0.0195
   77MPD2     H 1201   1.391   4.596  11.971  0.0187 -2.2474  0.2229
   77MPD2    H1 1202   1.777   4.496  12.108 -0.8407 -0.1451  1.0597
   77MPD2    H2 1203   1.737   0.089  11.855 -2.3776 -0.5353 -1.9993
   77MPD2    H3 1204   1.872   4.693  12.007 -1.0098  1.5594  2.1230
   77MPD2     N 1205   1.533   4.416  12.101 -0.0999 -0.0424  0.2037
   77MPD2    H5 1206   1.597   4.365  12.161  2.3654  1.7592 -0.8565
   77MPD2    N1 1207   1.461   0.065  11.837 -0.4369 -0.4606  0.4322
   77MPD2    H7 1208   1.361   0.053  11.853 -0.5450  0.7922  0.7309
   78TMC2    C1 1209   2.279   4.542   0.352  0.3048  0.4683 -0.0112
   78TMC2    C2 1210   2.336   4.446   0.273  0.0322 -0.0141 -0.1171
   78TMC2    C3 1211   2.475   4.431   0.268 -0.1576  0.6825  0.3294
   78TMC2    C4 1212   2.363   4.594   0.448 -0.6068  0.4025  0.4397
   78TMC2    C5 1213   2.498   4.576   0.444 -0.4480 -0.1493  0.9155
   78TMC2    C6 1214   2.557   4.498   0.352 -0.6584  0.8384  0.6542
   78TMC2     C 1215   2.143   4.562   0.339 -0.2039  0.4203 -0.3632
   78TMC2     O 1216   2.104   4.512   0.231 -0.0569 -0.2814  0.0429
   78TMC2     H 1217   2.276   4.374   0.218 -0.5871 -2.0857  3.2828
   78TMC2    H1 1218   2.320   4.673   0.509  0.8055  0.8938  0.7902
   78TMC2    H2 1219   2.664   4.483   0.362 -0.9126 -1.1482  0.3319
   78TMC2    C7 1220   2.585   4.642   0.544 -0.6813 -0.3890 -0.4956
   78TMC2    C8 1221   2.519   4.300   0.237  0.1769  0.1684 -0.2452
   78TMC2    O1 1222   2.693   4.657   0.490  0.2613  0.7152 -0.4028
   78TMC2    O2 1223   2.468   4.195   0.278  0.1987  0.2262  0.2246
   78TMC2    O5 1224   2.644   4.321   0.181  0.0319  0.5566 -0.6922
   78TMC2    H5 1225   2.658   4.415   0.156  0.4236  1.1166  1.5806
   79MPD1     C 1226   1.708   0.078   0.438  0.0710 -0.6603  0.0900
   79MPD1    C1 1227   1.748   0.018   0.325  0.3976 -0.2612  0.6928
   79MPD1    C2 1228   1.868   4.694   0.329 -0.5377  0.0832 -0.1200
   79MPD1    C3 1229   1.955   4.708   0.433  0.1656  0.3543  0.5558
   79MPD1    C4 1230   1.919   0.048   0.544 -0.1209  0.2995 -0.1858
   79MPD1    C5 1231   1.793   0.100   0.545  0.2516  1.0254  0.0480
   79MPD1     H 1232   1.895   4.627   0.248  0.5213 -0.5565  0.7707
   79MPD1    H1 1233   2.000   0.075   0.610 -0.4134 -0.4287  0.4732
   79MPD1    H2 1234   1.603   0.105   0.448  0.3893  0.2315  1.0125
   79MPD1    H3 1235   1.760   0.145   0.637 -1.5463  1.4473 -0.8045
   79MPD1     N 1236   2.086   4.650   0.435  0.0448  0.0841 -0.5013
   79MPD1    H5 1237   2.141   4.657   0.520  1.4267 -1.0820 -1.2877
   79MPD1    N1 1238   1.657   0.001   0.215  0.4883  0.1451  0.1840
   79MPD1    H6 1239   1.704   4.734   0.125  0.7320 -0.7270  0.3883
   79MPD1    H7 1240   1.580   0.067   0.207  1.6189  1.2237 -1.6445
   80TMC2    C1 1241   0.377   4.000  12.227 -0.3251  0.5668  1.1850
   80TMC2    C2 1242   0.505   3.961  12.264  0.1770  0.2341 -0.1202
   80TMC2    C3 1243   0.529   3.823  12.248  0.5195  0.1478  0.4600
   80TMC2    C4 1244   0.285   3.924  12.167  0.1531  1.1045  0.0201
   80TMC2    C5 1245   0.314   3.786  12.162 -0.5081 -0.7520 -0.3805
   80TMC2    C6 1246   0.437   3.739  12.198 -0.2850 -0.4871 -0.2846
   80TMC2     C 1247   0.332   4.121  12.291 -0.0773 -0.3275 -0.3793
   80TMC2     O 1248   0.399   4.223  12.274  0.6759  0.2072  0.1104
   80TMC2     H 1249   0.565   4.033  12.318 -1.6846  1.6923  0.0124
   80TMC2    H1 1250   0.187   3.964  12.142 -0.5981 -1.8858 -1.7694
   80TMC2    H2 1251   0.458   3.632  12.202 -0.0439 -0.3984  1.1311
   80TMC2    C7 1252   0.204   3.695  12.147  0.2213 -0.7042 -0.4554
   80TMC2    C8 1253   0.659   3.765  12.282 -0.0623  0.7407  0.1410
   80TMC2    O1 1254   0.101   3.744  12.100  0.0981 -0.8459 -0.2883
   80TMC2    O2 1255   0.657   3.642  12.298  0.0822 -0.6786 -0.2079
   80TMC2    O5 1256   0.704   3.853  12.377  1.0666 -0.0412 -0.2363
   80TMC2    H5 1257   0.716   3.939  12.330  4.4073  0.3987  1.4887
   81MPD2     C 1258   0.148   4.335  12.423 -0.5185  0.5796 -0.3791
   81MPD2    C1 1259   0.129   4.199  12.421 -0.4642  0.0302  0.4927
   81MPD2    C2 1260   0.025   4.147  12.496  0.1872 -0.0449 -0.0457
   81MPD2    C3 1261   4.683   4.227  12.571  0.4836  1.2479 -0.3952
   81MPD2    C4 1262   4.699   4.364  12.573  0.3782 -0.2627  0.7163
   81MPD2    C5 1263   0.059   4.419  12.491  0.1191 -0.2065  0.8076
   81MPD2     H 1264   0.011   4.040  12.498  0.0115 -0.0101  0.4777
   81MPD2    H1 1265   4.634   4.427  12.633  0.5999 -0.3933  1.0926
   81MPD2    H2 1266   0.215   4.385  12.354  0.6515  0.0667  0.3740
   81MPD2    H3 1267   0.062   4.527  12.490 -1.5505 -0.1672  0.7702
   81MPD2     N 1268   4.571   4.175  12.640  0.4969 -0.6083  0.0473
   81MPD2    H5 1269   4.498   4.235  12.674  0.0655 -0.9637 -0.2540
   81MPD2    N1 1270   0.211   4.103  12.352  0.4304 -0.3542 -0.1147
   81MPD2    H7 1271   0.184   4.007  12.371  3.4108 -0.9458  1.0238
   82TMC2    C1 1272   2.433   3.763  11.022 -0.2790  0.6518  0.0096
   82TMC2    C2 1273   2.431   3.832  11.138  0.0680  0.2738  0.1767
   82TMC2    C3 1274   2.479   3.766  11.245  0.3483 -0.1733  0.0164
   82TMC2    C4 1275   2.490   3.640  11.009 -0.3845 -0.9934 -0.3399
   82TMC2    C5 1276   2.535   3.573  11.121 -0.5691  0.2993 -0.1683
   82TMC2    C6 1277   2.535   3.639  11.242  0.1199  0.3698 -0.0517
   82TMC2     C 1278   2.387   3.828  10.907  0.1255  0.4132  0.1535
   82TMC2     O 1279   2.295   3.904  10.917  0.3745 -0.0458 -0.1001
   82TMC2     H 1280   2.383   3.928  11.127 -1.4268 -0.3713  0.9192
   82TMC2    H1 1281   2.491   3.590  10.913  2.7302 -0.7511 -0.4242
   82TMC2    H2 1282   2.577   3.592  11.330  0.1691  1.7193  0.6508
   82TMC2    C7 1283   2.608   3.446  11.114  0.2612  1.1951  0.2460
   82TMC2    C8 1284   2.432   3.788  11.379  0.1941 -0.0981  0.1478
   82TMC2    O1 1285   2.672   3.420  11.216  0.0500  0.3663  0.2996
   82TMC2    O2 1286   2.387   3.695  11.445 -0.1040  0.0519  0.2839
   82TMC2    O5 1287   2.375   3.908  11.373 -0.1789  0.9276 -0.0986
   82TMC2    H5 1288   2.434   3.962  11.316  0.9840  0.5927  0.7863
   83MPD2     C 1289   2.413   3.942  10.416  0.3766  0.4175 -0.3044
   83MPD2    C1 1290   2.307   3.952  10.497  1.0989 -0.2682 -0.5202
   83MPD2    C2 1291   2.326   3.909  10.632  0.1117 -0.3288  0.2398
   83MPD2    C3 1292   2.447   3.859  10.679 -0.2819  0.3617  0.0778
   83MPD2    C4 1293   2.555   3.850  10.583 -0.5731 -0.5460  0.0318
   83MPD2    C5 1294   2.536   3.891  10.453  0.6732 -0.7720  0.0923
   83MPD2     H 1295   2.236   3.917  10.693  1.5334  0.1211  2.2760
   83MPD2    H1 1296   2.648   3.810  10.620 -0.4350 -0.5199 -0.2852
   83MPD2    H2 1297   2.411   3.970  10.311  0.7287 -0.7743 -0.6296
   83MPD2    H3 1298   2.616   3.903  10.381  0.1320  1.1610 -0.1874
   83MPD2     N 1299   2.478   3.817  10.810 -0.4727  0.5120  0.5548
   83MPD2    H5 1300   2.565   3.768  10.825  0.4820  1.2203 -2.6117
   83MPD2    N1 1301   2.187   4.014  10.452 -0.6070  0.5234  0.0849
   83MPD2    H7 1302   2.188   4.026  10.351 -3.5839 -2.7638 -0.3323
   84TMC2    C1 1303   4.076   3.291  10.149  0.0976 -0.1892 -0.4277
   84TMC2    C2 1304   4.196   3.357  10.134 -0.4884 -0.2774  0.3556
   84TMC2    C3 1305   4.265   3.358  10.013 -0.3484  0.7362 -0.2370
   84TMC2    C4 1306   4.015   3.239  10.036  0.1677  0.1491 -0.6637
   84TMC2    C5 1307   4.084   3.241   9.920 -0.8439 -0.2905  0.2147
   84TMC2    C6 1308   4.206   3.301   9.905  0.0679 -0.2406  0.5456
   84TMC2     C 1309   4.038   3.265  10.286  0.0955 -0.8468  0.1298
   84TMC2     O 1310   4.101   3.316  10.374 -0.2673  0.8125  0.0352
   84TMC2     H 1311   4.249   3.397  10.219 -0.0056  1.3190 -0.7180
   84TMC2    H1 1312   3.928   3.174  10.042  1.0585 -0.7376  3.1128
   84TMC2    H2 1313   4.258   3.299   9.810  0.4014 -1.4936  0.7532
   84TMC2    C7 1314   4.026   3.175   9.803  0.0601  0.0692  1.0968
   84TMC2    C8 1315   4.380   3.453  10.000  0.1543 -1.1809  0.2389
   84TMC2    O1 1316   3.949   3.084   9.833  0.3445 -0.2282  0.2684
   84TMC2    O2 1317   4.464   3.486  10.087 -0.2927  0.3468  0.2516
   84TMC2    O5 1318   4.336   3.537   9.906 -0.1308  0.3411  0.5805
   84TMC2    H5 1319   4.251   3.511   9.865 -0.3177  0.4563  0.8983
   85TMC2    C1 1320   4.330   1.101  16.191  0.5589 -0.0715 -0.2420
   85TMC2    C2 1321   4.223   1.079  16.105 -0.9500  0.4599 -0.9836
   85TMC2    C3 1322   4.238   1.107  15.972  0.2714 -0.2021  0.3046
   85TMC2    C4 1323   4.441   1.170  16.160 -0.1483 -0.2619 -0.5217
   85TMC2    C5 1324   4.443   1.212  16.028 -0.5491  0.4507 -1.1546
   85TMC2    C6 1325   4.350   1.174  15.931 -0.3335 -0.1234 -0.0477
   85TMC2     C 1326   4.342   1.019  16.310 -0.6341 -0.2347 -0.0706
   85TMC2     O 1327   4.399   1.064  16.407  0.0849 -0.2399 -0.2212
   85TMC2     H 1328   4.135   1.018  16.122 -0.0852 -0.6296 -0.4098
   85TMC2    H1 1329   4.517   1.183  16.237  0.8035 -1.4448 -1.2542
   85TMC2    H2 1330   4.363   1.197  15.826 -1.7748 -0.7572 -0.3669
   85TMC2    C7 1331   4.558   1.278  15.986 -0.1579  0.5463  0.0734
   85TMC2    C8 1332   4.121   1.105  15.884  0.4627  0.2045 -0.0317
   85TMC2    O1 1333   4.574   1.285  15.864  0.0839 -0.4178 -0.4347
   85TMC2    O2 1334   4.005   1.103  15.924  0.0976  0.2083  0.0693
   85TMC2    O5 1335   4.165   1.066  15.766  0.9459 -0.2043  0.2722
   85TMC2    H5 1336   4.263   1.068  15.761  0.8715 -0.2664 -1.3934
   86MPD2     C 1337   4.286   0.593  16.597  0.4496 -0.5091  0.7624
   86MPD2    C1 1338   4.276   0.559  16.460  0.0551 -0.1458  0.0427
   86MPD2    C2 1339   4.281   0.657  16.366  0.1999 -0.7658  0.5023
   86MPD2    C3 1340   4.294   0.792  16.400  0.3924  0.7086 -0.4574
   86MPD2    C4 1341   4.280   0.823  16.535  0.2568  0.6294 -0.2610
   86MPD2    C5 1342   4.293   0.722  16.629 -0.2303 -0.3419  0.2618
   86MPD2     H 1343   4.270   0.633  16.261 -0.3206  0.8711  0.1899
   86MPD2    H1 1344   4.264   0.926  16.566  1.1744  0.8337 -0.4551
   86MPD2    H2 1345   4.292   0.525  16.682 -0.3419 -0.6096  0.7416
   86MPD2    H3 1346   4.289   0.756  16.732  0.6376  0.2815  0.0849
   86MPD2     N 1347   4.292   0.895  16.297 -0.0976  1.0454 -1.2490
   86MPD2    H5 1348   4.301   0.858  16.203  1.0078 -0.5546 -0.5169
   86MPD2    N1 1349   4.264   0.422  16.410 -0.3630  0.0966 -0.6645
   86MPD2    H7 1350   4.258   0.412  16.309  1.2589  1.4264 -0.8791
   87TMC2    C1 1351   2.256   4.246   1.274 -0.6523  0.3796 -0.1324
   87TMC2    C2 1352   2.320   4.213   1.397 -0.5390  0.3183  0.3017
   87TMC2    C3 1353   2.259   4.254   1.514 -0.5112 -0.2415  0.2553
   87TMC2    C4 1354   2.139   4.317   1.276 -0.0083  0.0680  0.4149
   87TMC2    C5 1355   2.086   4.353   1.400 -0.1730  1.0025  0.5498
   87TMC2    C6 1356   2.141   4.317   1.518 -0.3321 -0.2022 -0.3161
   87TMC2     C 1357   2.297   4.172   1.157 -0.4860 -0.6257 -0.3407
   87TMC2     O 1358   2.328   4.058   1.174  0.3683  0.5083 -0.4113
   87TMC2     H 1359   2.412   4.157   1.397  0.1543  1.4541  0.4028
   87TMC2    H1 1360   2.079   4.334   1.187  0.2352  1.5688  0.5299
   87TMC2    H2 1361   2.104   4.368   1.606 -0.2693 -0.4937 -0.1221
   87TMC2    C7 1362   1.972   4.433   1.396 -0.0744  0.0018  0.3676
   87TMC2    C8 1363   2.350   4.258   1.629 -0.1255  0.2079 -0.3712
   87TMC2    O1 1364   1.957   4.508   1.302 -0.7943 -0.0255 -0.0959
   87TMC2    O2 1365   2.469   4.227   1.623  0.1692 -0.6287 -0.4157
   87TMC2    O5 1366   2.267   4.215   1.723 -0.0720 -0.1486  0.2655
   87TMC2    H5 1367   2.173   4.235   1.707  0.2354  1.8052  0.9239
   88MPD2     C 1368   1.701   4.429   1.653 -0.3634 -0.2076  0.1266
   88MPD2    C1 1369   1.762   4.476   1.532 -0.5490  0.1875 -0.1205
   88MPD2    C2 1370   1.703   4.575   1.460 -0.0940 -0.4005  0.2282
   88MPD2    C3 1371   1.579   4.630   1.503 -0.1151 -0.0851  0.6732
   88MPD2    C4 1372   1.518   4.569   1.609  0.0605  0.5293 -0.4786
   88MPD2    C5 1373   1.577   4.474   1.686 -0.1170  0.7720 -0.2649
   88MPD2     H 1374   1.744   4.604   1.364  0.6173 -0.8274  0.4076
   88MPD2    H1 1375   1.420   4.605   1.636  0.9770  3.4567 -1.0796
   88MPD2    H2 1376   1.727   4.341   1.710  0.5359  0.4258  0.6969
   88MPD2    H3 1377   1.515   4.440   1.768 -0.2580 -1.1317 -1.1565
   88MPD2     N 1378   1.497   4.719   1.425  0.2274  0.1434 -0.6554
   88MPD2    H5 1379   1.401   4.735   1.451  0.2507  2.1588 -1.7623
   88MPD2    N1 1380   1.894   4.417   1.508  0.2239 -0.3141 -0.1121
   88MPD2    H7 1381   1.917   4.358   1.587 -0.2830  0.4024  0.5716
   89TMC2    C1 1382   2.832   2.191   1.322  0.2959  0.2591  0.0425
   89TMC2    C2 1383   2.835   2.288   1.409  0.1430 -0.6876  0.1136
   89TMC2    C3 1384   2.778   2.404   1.365  0.3147  0.2238  0.6985
   89TMC2    C4 1385   2.776   2.197   1.200  0.0603 -0.4502  0.1640
   89TMC2    C5 1386   2.728   2.318   1.160 -0.3481 -0.1186 -0.0460
   89TMC2    C6 1387   2.733   2.427   1.240  0.2777 -0.5242  0.0685
   89TMC2     C 1388   2.946   2.104   1.335  0.3609  0.1744  0.1891
   89TMC2     O 1389   3.030   2.134   1.422  0.2529 -0.8073 -0.8751
   89TMC2     H 1390   2.886   2.291   1.505  0.3095 -0.4820  0.0190
   89TMC2    H1 1391   2.803   2.135   1.116  0.3082 -0.1442  0.0148
   89TMC2    H2 1392   2.681   2.520   1.221 -1.9293 -2.1137 -1.7734
   89TMC2    C7 1393   2.758   2.334   1.015  0.1367  0.1894 -0.0658
   89TMC2    C8 1394   2.809   2.524   1.436 -1.1980 -0.3065 -0.1329
   89TMC2    O1 1395   2.739   2.238   0.938 -0.0636 -0.2414  0.0350
   89TMC2    O2 1396   2.903   2.526   1.518 -0.3879  0.9408 -0.5176
   89TMC2    O5 1397   2.690   2.586   1.455  0.4292 -0.5561 -0.1929
   89TMC2    H5 1398   2.622   2.555   1.392  2.2548 -0.9058 -1.9901
   90MPD2     C 1399   3.161   1.652   1.219  0.2215  0.1043 -0.1092
   90MPD2    C1 1400   3.035   1.663   1.165 -0.4324  0.8810  0.0085
   90MPD2    C2 1401   2.961   1.773   1.192 -0.4542 -0.3264  0.2436
   90MPD2    C3 1402   3.011   1.880   1.259 -0.2454  0.3004 -0.8674
   90MPD2    C4 1403   3.144   1.881   1.292  0.4324  0.2408 -0.5471
   90MPD2    C5 1404   3.215   1.764   1.274 -0.1479  0.0949  0.0022
   90MPD2     H 1405   2.857   1.764   1.164 -0.6405 -2.7755  1.6840
   90MPD2    H1 1406   3.200   1.957   1.345  1.5101 -1.1666  0.3377
   90MPD2    H2 1407   3.212   1.556   1.220 -0.7177 -0.4297 -2.1466
   90MPD2    H3 1408   3.318   1.762   1.308 -1.0503 -1.3268  2.6435
   90MPD2     N 1409   2.921   1.987   1.268 -0.4057 -0.5072  0.1663
   90MPD2    H5 1410   2.830   1.979   1.224  0.0035  4.4602 -1.6210
   90MPD2    N1 1411   2.966   1.553   1.103  0.6016 -0.0578  0.4271
   90MPD2    H7 1412   2.865   1.557   1.091  0.9787  1.9462 -1.8996
   91TMC2    C1 1413   4.528   1.787  16.169  0.2735 -0.2737 -0.9005
   91TMC2    C2 1414   4.628   1.767  16.267  0.0544  0.2447 -0.0357
   91TMC2    C3 1415   4.589   1.782  16.402  0.6043  0.6192 -0.4043
   91TMC2    C4 1416   4.398   1.805  16.193  0.0350 -0.2949  0.7448
   91TMC2    C5 1417   4.366   1.802  16.327 -0.0440 -0.1322 -0.3025
   91TMC2    C6 1418   4.461   1.790  16.430  0.3942  0.0800 -0.3830
   91TMC2     C 1419   4.559   1.775  16.028  0.0382 -0.4613  0.9219
   91TMC2     O 1420   4.465   1.785  15.950 -0.5759 -1.0360  0.3487
   91TMC2     H 1421   4.730   1.742  16.240 -0.0382 -0.3649  0.1842
   91TMC2    H1 1422   4.322   1.821  16.118 -0.5373  0.5010  1.4985
   91TMC2    H2 1423   4.428   1.766  16.530 -0.0838 -0.6947 -0.7218
   91TMC2    C7 1424   4.233   1.819  16.378 -0.9065  0.6474 -0.5341
   91TMC2    C8 1425   4.673   1.775  16.519  0.0029 -0.1339  0.3231
   91TMC2    O1 1426   4.222   1.848  16.494  0.1816  0.3022  0.1178
   91TMC2    O2 1427   4.631   1.716  16.615 -0.0205 -0.2045  0.0957
   91TMC2    O5 1428   0.055   1.753  16.465  0.2328  0.1820  0.4554
   91TMC2    H5 1429   0.085   1.818  16.398  0.0958  0.4759  0.6760
   92MPD2     C 1430   4.676   1.834  15.770  0.2222 -0.2648 -0.1966
   92MPD2    C1 1431   0.009   1.807  15.883  0.0739 -0.9618  0.8184
   92MPD2    C2 1432   0.151   1.798  15.878 -0.3133 -0.6998 -0.6917
   92MPD2    C3 1433   0.217   1.837  15.763 -0.4047 -0.0611 -0.8068
   92MPD2    C4 1434   0.144   1.859  15.651 -0.3669  0.0362  0.1129
   92MPD2    C5 1435   0.008   1.857  15.653  0.4737 -0.5566  0.7176
   92MPD2     H 1436   0.211   1.773  15.965  0.1668 -1.2321 -1.1762
   92MPD2    H1 1437   0.188   1.886  15.556 -1.6117  2.1199  0.1172
   92MPD2    H2 1438   4.570   1.844  15.754  0.5984 -1.1433 -3.2379
   92MPD2    H3 1439   4.703   1.905  15.568 -0.4259  1.2300  2.2034
   92MPD2     N 1440   0.358   1.828  15.774 -0.5024  0.4810  0.4741
   92MPD2    H5 1441   0.394   1.804  15.865  2.0756 -1.6537 -1.1170
   92MPD2    N1 1442   4.694   1.790  16.008  0.0911 -0.0902 -0.1740
   92MPD2    H7 1443   0.014   1.782  16.088 -0.1840  0.3960  0.0823
   93TMC2    C1 1444   2.260   1.986  13.914 -0.0761 -0.0447  0.6042
   93TMC2    C2 1445   2.223   2.055  14.024 -0.0413  0.1689 -0.0122
   93TMC2    C3 1446   2.283   2.176  14.036  0.1008  0.4057  0.5834
   93TMC2    C4 1447   2.337   2.043  13.819 -0.7386 -0.4886  0.2453
   93TMC2    C5 1448   2.397   2.169  13.832  0.5024 -0.2153 -0.7303
   93TMC2    C6 1449   2.362   2.236  13.946 -0.3846  0.5466  0.4480
   93TMC2     C 1450   2.199   1.859  13.881  0.0737 -0.1686 -0.2161
   93TMC2     O 1451   2.263   1.775  13.814 -0.0410 -0.8264 -0.7511
   93TMC2     H 1452   2.165   2.006  14.101 -0.2198 -0.4914 -0.5644
   93TMC2    H1 1453   2.359   1.990  13.727  0.2649  0.7680 -0.2377
   93TMC2    H2 1454   2.386   2.341  13.943  1.5495  0.0962  0.0529
   93TMC2    C7 1455   2.534   2.186  13.779 -0.1847  0.1223 -0.0989
   93TMC2    C8 1456   2.259   2.234  14.164  0.2034 -0.6186  0.3884
   93TMC2    O1 1457   2.571   2.091  13.706 -0.6249  0.4558  0.1174
   93TMC2    O2 1458   2.345   2.306  14.214  0.1310  0.1497  0.3908
   93TMC2    O5 1459   2.131   2.261  14.160  0.1501 -0.1810  0.6484
   93TMC2    H5 1460   2.087   2.213  14.087  1.8085 -1.0939  0.2560
   94MPD2     C 1461   2.050   1.613  13.930  0.0358  0.2188 -0.2239
   94MPD2    C1 1462   2.002   1.740  13.961 -0.2766  0.3447 -0.4033
   94MPD2    C2 1463   1.872   1.754  14.006  0.1964 -0.7024 -0.1313
   94MPD2    C3 1464   1.796   1.643  14.026 -0.1682  0.5079  0.4129
   94MPD2    C4 1465   1.840   1.518  13.995  0.3579 -0.1314 -1.0308
   94MPD2    C5 1466   1.964   1.504  13.945  0.1064 -0.0874  0.0532
   94MPD2     H 1467   1.832   1.851  14.034  2.0739  0.1107 -0.2448
   94MPD2    H1 1468   1.792   1.422  14.007 -1.1367  1.1657  3.1820
   94MPD2    H2 1469   2.150   1.598  13.889  0.1606 -1.6096  0.7804
   94MPD2    H3 1470   1.999   1.409  13.907 -2.2109 -1.3064  0.9561
   94MPD2     N 1471   1.659   1.651  14.050 -0.3225  0.2801  0.0267
   94MPD2    H5 1472   1.597   1.575  14.026  0.8074 -0.3955 -0.7236
   94MPD2    N1 1473   2.072   1.860  13.934 -0.2422  0.0897 -1.1141
   94MPD2    H7 1474   2.031   1.948  13.963 -0.8381 -0.7681  0.6000
   95TMC2    C1 1475   1.587   3.964  16.436  0.0754  0.0821  0.9221
   95TMC2    C2 1476   1.490   3.864  16.442  0.1976  0.0033 -0.2345
   95TMC2    C3 1477   1.443   3.827  16.563  0.0676 -0.8604 -0.0805
   95TMC2    C4 1478   1.641   4.016  16.555  0.3733  0.0489 -0.5750
   95TMC2    C5 1479   1.590   3.975  16.673 -0.5721 -0.0799  0.3441
   95TMC2    C6 1480   1.487   3.888  16.680  0.1677 -0.3267  0.0225
   95TMC2     C 1481   1.656   3.989  16.310  0.2355 -0.0684 -1.1207
   95TMC2     O 1482   1.724   4.089  16.301  0.5632  0.2849  0.5664
   95TMC2     H 1483   1.430   3.840  16.355  1.3863  1.4468 -1.4498
   95TMC2    H1 1484   1.719   4.091  16.546 -0.3903  0.9489  0.2235
   95TMC2    H2 1485   1.447   3.850  16.773  1.8678 -0.8033  0.5604
   95TMC2    C7 1486   1.631   4.030  16.799 -0.5834 -0.0967 -0.0302
   95TMC2    C8 1487   1.328   3.742  16.581 -0.5125  0.0813 -0.0930
   95TMC2    O1 1488   1.548   4.021  16.890  0.3592  0.0003 -0.2179
   95TMC2    O2 1489   1.271   3.731  16.689  0.4575  0.4458  0.6167
   95TMC2    O5 1490   1.344   3.635  16.505 -0.0946 -0.1088 -0.7059
   95TMC2    H5 1491   1.414   3.645  16.437  0.5897  0.9872  0.1440
   96MPD2     C 1492   1.761   3.884  15.830  0.6931  0.6600  0.8726
   96MPD2    C1 1493   1.811   3.980  15.911 -0.4771  0.1087  0.0009
   96MPD2    C2 1494   1.767   3.985  16.047 -0.8216 -0.3783  0.0806
   96MPD2    C3 1495   1.672   3.893  16.089  1.0085 -0.0517 -0.9628
   96MPD2    C4 1496   1.616   3.803  16.004  0.4155 -0.6721 -0.3497
   96MPD2    C5 1497   1.667   3.798  15.882  0.0053 -0.1640 -0.0767
   96MPD2     H 1498   1.824   4.044  16.118  1.1462  1.0789 -2.7453
   96MPD2    H1 1499   1.546   3.728  16.039  0.3972 -0.4212  0.1646
   96MPD2    H2 1500   1.802   3.870  15.731  1.0044  0.7921  0.9839
   96MPD2    H3 1501   1.637   3.719  15.815  0.4944  1.4793 -2.2549
   96MPD2     N 1502   1.631   3.892  16.223 -0.6321 -0.0306 -0.3763
   96MPD2    H5 1503   1.572   3.813  16.246  0.2649 -0.4163  0.5788
   96MPD2    N1 1504   1.902   4.075  15.853 -0.1099  0.4942  0.3928
   96MPD2    H7 1505   1.934   4.069  15.757  0.1049  2.2291  0.3622
   97TMC2    C1 1506   4.191   1.751  17.665  0.0742  0.4928  0.3206
   97TMC2    C2 1507   4.281   1.693  17.587 -0.7545 -0.4455  0.3046
   97TMC2    C3 1508   4.391   1.766  17.557 -0.2926 -0.5188  0.2265
   97TMC2    C4 1509   4.205   1.868  17.725 -0.3147  0.0530 -0.0660
   97TMC2    C5 1510   4.318   1.943  17.693  0.2363  0.0755  0.4377
   97TMC2    C6 1511   4.405   1.894  17.600 -0.2729 -0.2411  0.3572
   97TMC2     C 1512   4.072   1.674  17.688  0.0712 -0.3726 -0.3360
   97TMC2     O 1513   3.999   1.713   0.020  0.0106  0.3482  0.0141
   97TMC2     H 1514   4.283   1.590  17.554  1.8537 -0.7539  1.4116
   97TMC2    H1 1515   4.135   1.907   0.037  0.1123 -1.4132  1.1318
   97TMC2    H2 1516   4.491   1.957  17.579 -0.4812 -0.0965 -0.0494
   97TMC2    C7 1517   4.349   2.060   0.017  0.3159 -0.3102 -0.0373
   97TMC2    C8 1518   4.506   1.698  17.527 -0.3719  0.0550  0.1520
   97TMC2    O1 1519   4.456   2.115  17.754  0.4715  0.0666  0.2459
   97TMC2    O2 1520   4.529   1.597  17.579 -0.4220 -0.1624 -0.3553
   97TMC2    O5 1521   4.587   1.770  17.446  0.5812  0.0648 -0.1100
   97TMC2    H5 1522   4.555   1.860  17.424  0.9130  0.4083  0.8186
   98MPD2     C 1523   3.712   1.332  17.526 -0.0829  0.0608 -0.5096
   98MPD2    C1 1524   3.727   1.396  17.649 -0.9719 -0.5709  0.5667
   98MPD2    C2 1525   3.836   1.481  17.672  0.7225  0.2598 -0.5903
   98MPD2    C3 1526   3.932   1.499  17.576 -0.4284  0.1367 -0.2953
   98MPD2    C4 1527   3.917   1.427  17.453 -1.2891  0.0910  0.3677
   98MPD2    C5 1528   3.805   1.349  17.428 -0.4610 -0.0485 -0.4612
   98MPD2     H 1529   3.861   1.531   0.005  3.5122  0.9376 -1.7098
   98MPD2    H1 1530   3.987   1.433  17.371 -0.6014  0.3744  0.9853
   98MPD2    H2 1531   3.624   1.269  17.513  0.7095 -0.9178 -1.1458
   98MPD2    H3 1532   3.793   1.290  17.339  0.3570 -0.6759 -0.1599
   98MPD2     N 1533   4.044   1.588  17.581 -0.4766  0.0995  0.7216
   98MPD2    H5 1534   4.121   1.572  17.517  0.1140  0.3021  1.3812
   98MPD2    N1 1535   3.625   1.372  17.747  0.7500  0.3152 -0.1515
   98MPD2    H7 1536   3.552   1.307  17.718  1.5551  0.0990 -1.6820
   99TMC2    C1 1537   3.379   3.245   1.623  0.8996  0.2559 -0.5775
   99TMC2    C2 1538   3.502   3.301   1.623 -0.2320 -0.4747  0.6114
   99TMC2    C3 1539   3.513   3.434   1.660  0.4793 -0.1406  0.8089
   99TMC2    C4 1540   3.267   3.324   1.656  0.1035  0.6487 -0.1698
   99TMC2    C5 1541   3.278   3.456   1.689  0.7060  0.0018 -0.4154
   99TMC2    C6 1542   3.404   3.508   1.709  0.3134  0.7625  0.1933
   99TMC2     C 1543   3.378   3.121   1.555 -0.0655  0.6534 -0.3129
   99TMC2     O 1544   3.474   3.047   1.571 -0.2091 -0.3847  0.0626
   99TMC2     H 1545   3.593   3.249   1.595  0.2268 -0.1748  1.5287
   99TMC2    H1 1546   3.172   3.274   1.668  2.0981 -2.9324  0.6591
   99TMC2    H2 1547   3.420   3.611   1.736 -0.4883  0.8805  0.2360
   99TMC2    C7 1548   3.161   3.535   1.737  0.5225 -0.3679  0.2587
   99TMC2    C8 1549   3.626   3.510   1.611 -0.1769 -0.0823 -0.2500
   99TMC2    O1 1550   3.174   3.601   1.838 -0.2664 -0.5925  0.4251
   99TMC2    O2 1551   3.636   3.622   1.660 -0.1902 -0.0339 -0.2231
   99TMC2    O5 1552   3.635   3.498   1.476  0.5547  0.3458  0.1144
   99TMC2    H5 1553   3.564   3.443   1.436  0.5939  0.3979 -0.0259
  100MPD2     C 1554   3.272   2.852   1.453 -0.1164  0.2907 -0.6204
  100MPD2    C1 1555   3.203   2.968   1.460  0.1913  0.5068  0.5915
  100MPD2    C2 1556   3.082   2.976   1.400  0.6918  0.7695 -0.2698
  100MPD2    C3 1557   3.017   2.871   1.341  0.5957  0.3431 -0.5841
  100MPD2    C4 1558   3.084   2.751   1.338 -0.0003  0.3724  1.2260
  100MPD2    C5 1559   3.210   2.746   1.388  0.4429  0.1674  0.6833
  100MPD2     H 1560   3.034   3.073   1.411 -0.6529 -0.2003  2.5257
  100MPD2    H1 1561   3.037   2.659   1.303 -0.8382  1.3911 -0.3052
  100MPD2    H2 1562   3.374   2.840   1.487 -0.0678 -1.6657 -1.4537
  100MPD2    H3 1563   3.263   2.657   1.359  0.2875  0.4244 -0.3704
  100MPD2     N 1564   2.894   2.893   1.286  0.1310  0.0118 -0.2882
  100MPD2    H5 1565   2.861   2.989   1.286 -1.7431 -0.6309 -0.2722
  100MPD2    N1 1566   3.250   3.087   1.521  0.1856 -0.1547  0.7472
  100MPD2    H7 1567   3.189   3.168   1.527 -1.3359 -1.3167  0.9882
  101TMC2    C1 1568   3.830   0.107  12.488  0.8541  0.1654  0.1714
  101TMC2    C2 1569   3.736   0.208  12.487 -0.5282  0.3660  0.4376
  101TMC2    C3 1570   3.784   0.321  12.434 -0.3990  0.2740  0.5235
  101TMC2    C4 1571   3.961   0.117  12.463  0.6845  0.3122 -0.3936
  101TMC2    C5 1572   4.002   0.237  12.409  0.2372  0.1590  0.2718
  101TMC2    C6 1573   3.918   0.346  12.393 -0.2441  0.1453 -0.1870
  101TMC2     C 1574   3.779   4.729  12.543  0.5014 -0.3366  0.7810
  101TMC2     O 1575   3.687   0.001  12.621  0.5312  0.5228  0.2465
  101TMC2     H 1576   3.631   0.184  12.498  0.4816 -3.3395  1.6502
  101TMC2    H1 1577   4.031   0.044  12.502 -0.0236 -0.3747 -0.4007
  101TMC2    H2 1578   3.949   0.440  12.349  1.6565  0.5731  2.0384
  101TMC2    C7 1579   4.145   0.262  12.373  0.2782 -0.3081 -0.0696
  101TMC2    C8 1580   3.698   0.443  12.421 -0.5046 -0.3348 -0.3094
  101TMC2    O1 1581   4.169   0.371  12.318  0.6845 -0.5358  0.4731
  101TMC2    O2 1582   3.711   0.533  12.339  0.4148 -0.5668  0.2023
  101TMC2    O5 1583   3.597   0.429  12.517 -0.2988 -0.6245 -0.2277
  101TMC2    H5 1584   3.621   0.375  12.596 -0.6023 -0.0506  0.2540
  102MPD2     C 1585   3.948   4.408  12.509 -0.0602 -0.3166  0.7990
  102MPD2    C1 1586   3.849   4.492  12.550  0.5480  0.0686 -0.1206
  102MPD2    C2 1587   3.749   4.447  12.639 -0.2862  0.4560  0.6656
  102MPD2    C3 1588   3.744   4.310  12.670  0.2116 -0.0727  0.4138
  102MPD2    C4 1589   3.846   4.229  12.626 -0.1645 -0.4719 -0.9635
  102MPD2    C5 1590   3.945   4.278  12.551  0.8068 -0.5030  0.6960
  102MPD2     H 1591   3.673   4.516  12.675 -0.6029 -1.1399  3.0904
  102MPD2    H1 1592   3.854   4.126  12.659 -1.6593 -0.5978 -0.9905
  102MPD2    H2 1593   4.028   4.438  12.442 -0.3581  0.3622  0.7474
  102MPD2    H3 1594   4.036   4.225  12.528  0.0513 -2.1355  1.4441
  102MPD2     N 1595   3.637   4.257  12.746 -0.0120  0.0835 -0.2685
  102MPD2    H5 1596   3.572   4.322  12.789 -2.4597 -1.4698 -1.6209
  102MPD2    N1 1597   3.854   4.623  12.499  0.1767  0.1121  0.3745
  102MPD2    H7 1598   3.932   4.649  12.440 -1.2187  1.6895 -0.7684
  103TMC2    C1 1599   2.305   4.220  12.187 -0.0139  0.2900 -0.0871
  103TMC2    C2 1600   2.376   4.200  12.075 -0.0145  0.6208 -0.4437
  103TMC2    C3 1601   2.478   4.287  12.052  0.3395  0.0246 -0.1492
  103TMC2    C4 1602   2.324   4.330  12.266  0.1935  0.1104  0.1875
  103TMC2    C5 1603   2.410   4.421  12.230  0.3886 -0.3626  0.3470
  103TMC2    C6 1604   2.500   4.404  12.123  0.4119 -1.0248  0.3220
  103TMC2     C 1605   2.182   4.145  12.212 -0.2071  0.1699 -0.4703
  103TMC2     O 1606   2.099   4.193  12.293 -0.5107 -0.4117  0.0317
  103TMC2     H 1607   2.368   4.112  12.013  0.8245  1.2357 -1.4129
  103TMC2    H1 1608   2.258   4.345  12.350 -0.1855  1.4822 -0.3390
  103TMC2    H2 1609   2.575   4.477  12.099 -2.1609  0.9123 -1.7450
  103TMC2    C7 1610   2.422   4.548  12.303  0.0677  0.2576 -0.2584
  103TMC2    C8 1611   2.528   4.281  11.921 -0.7009 -0.1081 -0.4390
  103TMC2    O1 1612   2.505   4.628  12.260  0.7707 -0.1469  0.4940
  103TMC2    O2 1613   2.459   4.247  11.829  0.0380  0.0547 -0.2436
  103TMC2    O5 1614   2.665   4.275  11.921  0.0718 -0.0816 -0.0822
  103TMC2    H5 1615   2.707   4.330  11.990  1.0455 -2.1198  0.9558
  104MPD2     C 1616   2.089   3.805  12.098  0.7172 -0.1032  0.4148
  104MPD2    C1 1617   2.072   3.935  12.146  0.1956 -0.0270  0.2215
  104MPD2    C2 1618   1.947   3.987  12.147  0.4153  0.0010  0.4571
  104MPD2    C3 1619   1.837   3.906  12.117 -0.7694  0.5191 -0.0061
  104MPD2    C4 1620   1.858   3.782  12.065  0.3130 -0.8353 -0.9533
  104MPD2    C5 1621   1.986   3.726  12.059 -0.0590 -0.2275 -0.0946
  104MPD2     H 1622   1.923   4.086  12.185  0.8775  0.4858 -0.5124
  104MPD2    H1 1623   1.780   3.715  12.033 -1.7667  0.4483  1.4472
  104MPD2    H2 1624   2.190   3.765  12.089  1.2789  1.3191  0.3592
  104MPD2    H3 1625   1.994   3.625  12.022 -0.2690 -0.0980 -0.4976
  104MPD2     N 1626   1.708   3.967  12.118  0.3617  0.1302  0.1481
  104MPD2    H5 1627   1.711   4.066  12.142  1.9519 -0.1568  1.1407
  104MPD2    N1 1628   2.181   4.022  12.161 -0.5447 -0.1027 -0.4963
  104MPD2    H7 1629   2.265   3.982  12.121 -0.4477  0.5789 -0.9720
  105TMC2    C1 1630   2.601   3.499   0.577 -0.5033 -0.4307  0.5114
  105TMC2    C2 1631   2.576   3.430   0.698  0.5141  0.5463 -0.4775
  105TMC2    C3 1632   2.571   3.514   0.810 -0.2594  0.6928  0.5347
  105TMC2    C4 1633   2.623   3.634   0.568 -0.7566  0.3405  0.0818
  105TMC2    C5 1634   2.618   3.712   0.680  0.4133 -0.1756 -0.6684
  105TMC2    C6 1635   2.598   3.648   0.803  0.1710  0.2555  0.3810
  105TMC2     C 1636   2.606   3.413   0.458  0.6429 -0.0186  0.3263
  105TMC2     O 1637   2.540   3.309   0.466  0.5863 -0.0252  0.1346
  105TMC2     H 1638   2.584   3.323   0.717  1.8637  0.7981  0.3860
  105TMC2    H1 1639   2.636   3.682   0.472 -0.9946 -1.8590 -1.0354
  105TMC2    H2 1640   2.587   3.706   0.894 -1.3728  0.5571  0.0119
  105TMC2    C7 1641   2.611   3.858   0.657 -0.3976  0.6897 -0.4078
  105TMC2    C8 1642   2.589   3.458   0.941  0.0911 -0.4969 -1.2283
  105TMC2    O1 1643   2.661   3.908   0.554  0.1802  0.3305 -0.2637
  105TMC2    O2 1644   2.634   3.533   1.024  0.2750 -0.6981  0.1219
  105TMC2    O5 1645   2.487   3.372   0.952  0.2342  0.1744  0.4274
  105TMC2    H5 1646   2.443   3.342   0.870 -0.8535 -1.4908  1.6082
  106MPD2     C 1647   2.774   3.272  17.760  0.7080 -0.1241 -0.2973
  106MPD2    C1 1648   2.811   3.409   0.017 -0.1890 -0.9278 -0.2127
  106MPD2    C2 1649   2.772   3.476   0.134  0.1390 -0.2715  0.1507
  106MPD2    C3 1650   2.697   3.411   0.232  0.5094 -0.5302 -0.0088
  106MPD2    C4 1651   2.644   3.288   0.196 -0.2328 -0.5700 -0.2031
  106MPD2    C5 1652   2.690   3.215   0.093  0.9594 -0.6757  0.8464
  106MPD2     H 1653   2.808   3.576   0.156  0.6155 -0.6275  0.9876
  106MPD2    H1 1654   2.572   3.241   0.261 -0.0189 -1.3330 -0.5216
  106MPD2    H2 1655   2.797   3.215  17.671  0.4395 -0.6034 -0.0588
  106MPD2    H3 1656   2.630   3.126   0.074 -1.7138  1.1958  0.4529
  106MPD2     N 1657   2.676   3.469   0.354  0.9562 -0.1489 -0.4878
  106MPD2    H5 1658   2.715   3.561   0.371  0.3653 -0.5104  2.9787
  106MPD2    N1 1659   2.852   3.492  17.669 -0.0180  0.4752 -0.1756
  106MPD2    H7 1660   2.849   3.593  17.682 -0.5843  0.5511 -0.9547
  107TMC2    C1 1661   3.901   3.251  11.236 -1.1204 -1.3371  0.2633
  107TMC2    C2 1662   3.931   3.381  11.206  0.5651  0.0476  0.1080
  107TMC2    C3 1663   3.925   3.421  11.078  0.2736 -0.5488 -0.0239
  107TMC2    C4 1664   3.849   3.176  11.139 -0.3750 -0.6944 -0.2586
  107TMC2    C5 1665   3.851   3.215  11.008 -0.3524 -0.0970 -0.4599
  107TMC2    C6 1666   3.882   3.343  10.976 -0.1781 -0.4846  0.5503
  107TMC2     C 1667   3.900   3.207  11.373 -0.5275 -0.7753 -0.4300
  107TMC2     O 1668   3.800   3.156  11.416  0.2186 -0.1106 -0.5244
  107TMC2     H 1669   3.970   3.455  11.275 -1.3458  1.4996 -0.3723
  107TMC2    H1 1670   3.814   3.078  11.168  1.7143 -0.9670  1.2983
  107TMC2    H2 1671   3.901   3.383  10.877  1.5473 -1.6154  0.4170
  107TMC2    C7 1672   3.809   3.122  10.895  0.5590  0.1052 -0.1054
  107TMC2    C8 1673   3.920   3.559  11.045 -0.9183 -0.2871  0.6735
  107TMC2    O1 1674   3.756   3.016  10.921 -0.0667 -0.4451  0.0872
  107TMC2    O2 1675   3.949   3.606  10.934  0.5605 -0.2519  0.0717
  107TMC2    O5 1676   3.867   3.624  11.142 -0.0566  0.4382 -0.0831
  107TMC2    H5 1677   3.845   3.564  11.216  2.0812  0.2909  0.4232
  108MPD2     C 1678   4.162   3.201  11.623 -0.3151  1.0507 -0.5863
  108MPD2    C1 1679   4.034   3.216  11.582  0.4607 -0.3571 -0.3502
  108MPD2    C2 1680   3.933   3.206  11.674 -0.8419  0.5733 -0.3453
  108MPD2    C3 1681   3.958   3.175  11.803 -0.1764  0.3327 -0.1563
  108MPD2    C4 1682   4.084   3.148  11.842  0.9665 -0.4939  0.0203
  108MPD2    C5 1683   4.193   3.161  11.752 -0.3265 -0.6250  0.0136
  108MPD2     H 1684   3.829   3.226  11.648 -0.6933 -0.7912 -1.9544
  108MPD2    H1 1685   4.113   3.116  11.942  1.0403 -1.3837 -0.2806
  108MPD2    H2 1686   4.243   3.198  11.551  1.5119 -1.6550  1.5782
  108MPD2    H3 1687   4.297   3.151  11.780  0.0345  3.5129  0.1498
  108MPD2     N 1688   3.862   3.168  11.907  0.3999 -0.0145  0.3044
  108MPD2    H5 1689   3.893   3.142  12.000  0.0449 -1.2328  0.0887
  108MPD2    N1 1690   4.017   3.232  11.441  0.0426 -0.4662 -0.1002
  108MPD2    H7 1691   4.092   3.267  11.382 -0.4884  0.0333 -0.4718
  109TMC2    C1 1692   3.677   0.274  17.745 -0.6098 -0.6313 -0.1649
  109TMC2    C2 1693   3.740   0.311  17.629 -0.3314  0.4107  0.0581
  109TMC2    C3 1694   3.698   0.420  17.563 -0.5751 -0.8203 -0.5917
  109TMC2    C4 1695   3.571   0.345   0.038 -0.7832 -0.1558  0.1392
  109TMC2    C5 1696   3.529   0.452  17.719 -0.1414  0.2920  0.1910
  109TMC2    C6 1697   3.591   0.493  17.607  0.0583 -0.5325 -0.9440
  109TMC2     C 1698   3.683   0.131   0.006 -0.4980 -0.6371 -0.7385
  109TMC2     O 1699   3.704   0.056  17.672 -0.1826 -0.1598  0.2944
  109TMC2     H 1700   3.824   0.247  17.605 -0.4659  0.4746 -0.5687
  109TMC2    H1 1701   3.524   0.313   0.130 -1.6814 -0.1555 -0.3158
  109TMC2    H2 1702   3.555   0.583  17.558  2.0754  0.9107  0.2563
  109TMC2    C7 1703   3.445   0.548   0.030 -0.3046  0.2878 -0.5234
  109TMC2    C8 1704   3.750   0.447  17.430 -0.1121  0.5983 -0.0356
  109TMC2    O1 1705   3.393   0.641  17.729  0.2736 -0.3677  0.0173
  109TMC2    O2 1706   3.685   0.507  17.343  0.6571 -0.2036  0.8747
  109TMC2    O5 1707   3.884   0.442  17.444 -0.2547 -0.3240  0.5112
  109TMC2    H5 1708   3.921   0.434  17.534  2.0116 -2.1047 -0.5781
  110MPD2     C 1709   3.447   4.506   0.284 -0.0247 -0.0182 -0.2488
  110MPD2    C1 1710   3.489   4.599   0.368  0.0940 -0.3025  0.4726
  110MPD2    C2 1711   3.567   4.703   0.319  0.3580 -0.5718  0.5786
  110MPD2    C3 1712   3.600   4.712   0.186  0.5790 -0.5744  0.5111
  110MPD2    C4 1713   3.557   4.613   0.099  0.3153  0.6808  0.5799
  110MPD2    C5 1714   3.489   4.501   0.146  0.2005  0.5145 -0.6680
  110MPD2     H 1715   3.598   0.046   0.380 -0.3469 -1.2999  1.9416
  110MPD2    H1 1716   3.565   4.628  17.753  0.5436 -1.3701  0.3201
  110MPD2    H2 1717   3.396   4.424   0.334  0.1915 -0.0615 -0.0979
  110MPD2    H3 1718   3.468   4.426   0.071 -0.5958  0.1640 -0.0962
  110MPD2     N 1719   3.643   0.095   0.133  0.1950  0.2336 -0.3258
  110MPD2    H5 1720   3.657   0.179   0.187  2.7317 -0.1668 -0.3800
  110MPD2    N1 1721   3.438   4.586   0.497  0.8008  0.0576  0.8782
  110MPD2    H7 1722   3.377   4.513   0.530  0.2906 -1.0021 -2.3922
  111TMC2    C1 1723   3.801   0.870  11.705 -0.2310 -0.3261 -0.3507
  111TMC2    C2 1724   3.716   0.889  11.810  0.0851  0.8318  0.9017
  111TMC2    C3 1725   3.766   0.977  11.911  0.2562 -0.1206 -0.2277
  111TMC2    C4 1726   3.930   0.918  11.694 -0.0594 -0.2611 -0.6636
  111TMC2    C5 1727   3.975   1.004  11.794 -0.1851  0.7540  0.7725
  111TMC2    C6 1728   3.896   1.024  11.902 -0.5453 -0.0668 -0.6194
  111TMC2     C 1729   3.756   0.780  11.592 -0.2814 -0.0730 -0.0749
  111TMC2     O 1730   3.809   0.790  11.484 -0.8912  0.4803  0.4475
  111TMC2     H 1731   3.619   0.842  11.822 -0.0681  0.4147 -2.0997
  111TMC2    H1 1732   3.974   0.909  11.596 -0.3928 -1.8373 -0.6696
  111TMC2    H2 1733   3.943   1.086  11.978 -0.3773 -0.6680 -0.2326
  111TMC2    C7 1734   4.114   1.002  11.813  0.0304 -0.0094 -1.2779
  111TMC2    C8 1735   3.693   1.002  12.037  0.7027 -0.2728  0.3418
  111TMC2    O1 1736   4.148   0.947  11.916 -0.5294 -0.2639  0.1202
  111TMC2    O2 1737   3.744   1.076  12.124 -0.0829  0.0839 -0.9838
  111TMC2    O5 1738   3.637   0.885  12.078  0.6009  0.6136  0.6220
  111TMC2    H5 1739   3.632   0.815  12.010  1.8376  0.2014  0.9577
  112MPD2     C 1740   3.443   0.431  11.383  0.2039  0.2762  0.4937
  112MPD2    C1 1741   3.510   0.532  11.322  0.2937  0.6426  0.1150
  112MPD2    C2 1742   3.588   0.619  11.400 -0.3037  0.2005  0.1602
  112MPD2    C3 1743   3.589   0.604  11.538 -0.2858  0.9840  0.2241
  112MPD2    C4 1744   3.516   0.508  11.595  0.1133  0.0432 -0.3049
  112MPD2    C5 1745   3.444   0.417  11.522  0.0977  0.3480  0.3844
  112MPD2     H 1746   3.627   0.711  11.357  1.3969 -0.3782  0.4964
  112MPD2    H1 1747   3.526   0.506  11.703  0.0778  1.1804 -0.2864
  112MPD2    H2 1748   3.376   0.368  11.326 -0.2745  0.2147  1.1215
  112MPD2    H3 1749   3.376   0.351  11.575  0.0502 -0.4143 -0.6298
  112MPD2     N 1750   3.654   0.696  11.625 -0.1898  0.6841  0.0231
  112MPD2    H5 1751   3.631   0.689  11.724 -2.9685 -1.9593 -0.7876
  112MPD2    N1 1752   3.492   0.564  11.183  0.8014  0.1362 -0.0742
  112MPD2    H7 1753   3.561   0.623  11.138  0.8526 -0.2014 -0.4408
  113TMC2    C1 1754   1.288   3.340   0.964 -0.0092  0.1669  0.0183
  113TMC2    C2 1755   1.171   3.366   1.046 -0.1499 -0.0927  0.2851
  113TMC2    C3 1756   1.070   3.271   1.037 -1.0112  0.3558  0.6334
  113TMC2    C4 1757   1.291   3.233   0.879  0.3808  0.5262  0.4110
  113TMC2    C5 1758   1.194   3.139   0.891 -0.3389 -0.1418  0.3334
  113TMC2    C6 1759   1.084   3.152   0.970  0.2385  0.6963 -0.0323
  113TMC2     C 1760   1.402   3.432   0.989  0.1921 -0.1870 -1.1796
  113TMC2     O 1761   1.396   3.500   1.090  0.0421 -0.0425 -0.3324
  113TMC2     H 1762   1.167   3.445   1.119 -0.0945 -1.3312  1.6393
  113TMC2    H1 1763   1.377   3.201   0.820  1.6038  3.2066  0.7547
  113TMC2    H2 1764   0.998   3.086   0.968 -1.3825  2.8342 -0.7189
  113TMC2    C7 1765   1.209   3.015   0.819 -0.3653 -0.7825 -0.8616
  113TMC2    C8 1766   0.949   3.298   1.113  0.2737  0.5484 -0.4716
  113TMC2    O1 1767   1.278   3.023   0.712 -0.5375  0.0299 -0.1163
  113TMC2    O2 1768   0.871   3.212   1.156 -0.0371 -0.0194  0.3793
  113TMC2    O5 1769   0.913   3.430   1.088 -0.3223 -0.4391 -0.1969
  113TMC2    H5 1770   0.984   3.452   1.024 -1.3848  1.4964 -0.7176
  114MPD2     C 1771   1.826   3.677   0.842 -0.1638  0.7345 -0.1189
  114MPD2    C1 1772   1.777   3.668   0.973 -0.0243  0.2411 -0.8541
  114MPD2    C2 1773   1.659   3.596   0.988 -0.8757 -0.1961  0.4595
  114MPD2    C3 1774   1.599   3.525   0.880  0.1537  0.5459  0.1819
  114MPD2    C4 1775   1.639   3.554   0.751 -0.7591 -0.6420 -0.9613
  114MPD2    C5 1776   1.757   3.622   0.733 -0.6700  0.0246 -0.3608
  114MPD2     H 1777   1.606   3.589   1.082  0.9035 -2.5775  1.2894
  114MPD2    H1 1778   1.590   3.508   0.666  1.1763 -1.8735 -1.4021
  114MPD2    H2 1779   1.913   3.740   0.822  1.7068 -2.1880 -1.1373
  114MPD2    H3 1780   1.800   3.631   0.634 -0.4908 -0.7479 -0.3504
  114MPD2     N 1781   1.481   3.440   0.884 -0.1151  0.5338  0.1984
  114MPD2    H5 1782   1.443   3.401   0.799  1.6024  0.8341 -0.7212
  114MPD2    N1 1783   1.835   3.732   1.085 -0.9304 -0.0650 -0.4856
  114MPD2    H7 1784   1.786   3.727   1.173  1.6227  0.2882  0.9514
  115TMC2    C1 1785   2.299   0.903   0.265  0.8786 -0.3124  0.5439
  115TMC2    C2 1786   2.427   0.902   0.305 -0.4811  0.1216 -0.0101
  115TMC2    C3 1787   2.502   1.016   0.306 -0.4254 -0.4178 -0.0643
  115TMC2    C4 1788   2.239   1.020   0.211 -0.1834 -0.3334 -0.3760
  115TMC2    C5 1789   2.317   1.134   0.224 -0.1713  0.2505 -0.0025
  115TMC2    C6 1790   2.445   1.132   0.268  0.1034  0.2773  0.0097
  115TMC2     C 1791   2.251   0.772   0.229  0.1188  0.4884 -0.0599
  115TMC2     O 1792   2.326   0.680   0.209 -0.0478 -0.1594 -0.4590
  115TMC2     H 1793   2.472   0.817   0.355 -0.1264  0.6268  0.5243
  115TMC2    H1 1794   2.143   1.021   0.162 -0.1650  0.2065 -0.4051
  115TMC2    H2 1795   2.492   1.230   0.272  0.4934  0.0324  1.5402
  115TMC2    C7 1796   2.243   1.253   0.179 -0.7095 -0.0552  0.2483
  115TMC2    C8 1797   2.636   1.018   0.369 -0.4506 -0.2256 -0.4769
  115TMC2    O1 1798   2.125   1.243   0.145  0.2723 -0.3732 -0.1659
  115TMC2    O2 1799   2.689   1.113   0.424  0.0408  0.4952 -0.1277
  115TMC2    O5 1800   2.703   0.904   0.339  0.1345  0.5242  0.2631
  115TMC2    H5 1801   2.662   0.844   0.274 -2.5815  1.4757  1.0981
  116MPD2     C 1802   1.933   0.541  17.662  0.3130 -0.2598 -0.0600
  116MPD2    C1 1803   2.069   0.525  17.693 -0.1566 -0.8367 -0.3462
  116MPD2    C2 1804   2.126   0.592   0.035 -0.5034  0.0230 -0.5347
  116MPD2    C3 1805   2.054   0.688   0.104 -0.1188 -0.9665  0.0579
  116MPD2    C4 1806   1.921   0.704   0.083  0.2902 -0.5994 -0.1109
  116MPD2    C5 1807   1.861   0.623  17.747 -0.6529  0.0806  0.5754
  116MPD2     H 1808   2.235   0.590   0.041 -0.7553 -3.0032  2.4234
  116MPD2    H1 1809   1.860   0.774   0.138 -2.9151 -2.9350 -0.6207
  116MPD2    H2 1810   1.884   0.468  17.598 -0.4605 -0.6432  0.9763
  116MPD2    H3 1811   1.753   0.617  17.740 -0.6500  0.7541  0.0344
  116MPD2     N 1812   2.121   0.778   0.198 -0.0638 -0.0992 -0.0364
  116MPD2    H5 1813   2.071   0.858   0.234  0.5200  0.9906 -1.6315
  116MPD2    N1 1814   2.144   0.437  17.610  0.4828  0.1879  0.3307
  116MPD2    H7 1815   2.086   0.404  17.534 -0.2557  3.2124 -0.3896
  117TMC2    C1 1816   1.384   2.759  13.980 -0.4407  0.5917  0.1554
  117TMC2    C2 1817   1.478   2.705  14.067  0.0632  0.4490 -0.2089
  117TMC2    C3 1818   1.528   2.793  14.160  0.3138 -0.0340 -0.2163
  117TMC2    C4 1819   1.317   2.880  13.999 -1.2121  0.5591 -0.5361
  117TMC2    C5 1820   1.360   2.958  14.105  0.0461 -0.6308 -0.2442
  117TMC2    C6 1821   1.470   2.919  14.179  1.2057 -0.2906 -0.6391
  117TMC2     C 1822   1.328   2.666  13.887 -0.9089 -0.1137  0.7649
  117TMC2     O 1823   1.361   2.549  13.904  0.4531 -0.2884  0.3912
  117TMC2     H 1824   1.527   2.612  14.038 -0.1292  0.0695  0.6659
  117TMC2    H1 1825   1.244   2.926  13.934 -0.9405 -1.3180 -2.1614
  117TMC2    H2 1826   1.506   2.987  14.255 -0.3387  0.1912 -0.3390
  117TMC2    C7 1827   1.323   3.102  14.116 -0.1000  0.3602  0.1227
  117TMC2    C8 1828   1.600   2.742  14.274 -0.0033 -0.6043 -0.1706
  117TMC2    O1 1829   1.392   3.180  14.179 -0.0630  0.2090  0.4603
  117TMC2    O2 1830   1.612   2.813  14.375  0.1257 -0.1017 -0.3062
  117TMC2    O5 1831   1.625   2.607  14.263 -0.1077  0.6714 -0.0894
  117TMC2    H5 1832   1.656   2.580  14.174  2.9902  0.3860  1.0927
  118MPD2     C 1833   1.019   3.280  13.974  0.9455 -0.0158  0.4058
  118MPD2    C1 1834   1.146   3.265  14.030  0.2538 -0.5925  0.2683
  118MPD2    C2 1835   1.212   3.380  14.072 -0.3946 -0.1555  0.9042
  118MPD2    C3 1836   1.172   3.497  14.018 -0.0409 -0.1884 -0.2718
  118MPD2    C4 1837   1.055   3.506  13.951 -0.5644  0.7038  0.0633
  118MPD2    C5 1838   0.968   3.402  13.945  0.3802  0.3603 -0.0687
  118MPD2     H 1839   1.303   3.374  14.130  0.4823 -0.9631 -0.5521
  118MPD2    H1 1840   1.016   3.596  13.904  2.3017  1.2512 -1.2216
  118MPD2    H2 1841   0.960   3.197  13.937  1.5563 -0.8284  1.2609
  118MPD2    H3 1842   0.880   3.420  13.885  1.5860  1.3803 -1.5354
  118MPD2     N 1843   1.244   3.624  14.022 -0.1304  0.2748  0.6687
  118MPD2    H5 1844   1.206   3.697  13.963  0.9935 -0.0202 -0.4501
  118MPD2    N1 1845   1.200   3.132  14.052 -0.1610 -0.2893  0.2171
  118MPD2    H7 1846   1.135   3.057  14.028  0.3366 -1.0852  1.3650
  119TMC2    C1 1847   4.218   3.490  13.131 -0.3007 -0.9903 -0.4821
  119TMC2    C2 1848   4.293   3.381  13.159  0.1955  0.0003 -0.3226
  119TMC2    C3 1849   4.244   3.278  13.227  0.1591 -0.0384  0.3490
  119TMC2    C4 1850   4.084   3.487  13.169  0.0166 -0.4135  0.7656
  119TMC2    C5 1851   4.038   3.381  13.242  0.3864 -0.7113 -0.0351
  119TMC2    C6 1852   4.116   3.277  13.276  0.3357 -0.4042 -0.1680
  119TMC2     C 1853   4.269   3.620  13.095  0.0643  0.1475  0.6029
  119TMC2     O 1854   4.186   3.705  13.075 -0.1020  0.0712 -0.4706
  119TMC2     H 1855   4.395   3.373  13.124 -0.5911 -1.2524 -2.3078
  119TMC2    H1 1856   4.018   3.573  13.167  0.9651  0.2962  0.3043
  119TMC2    H2 1857   4.076   3.180  13.304 -2.5813  0.6829 -0.5696
  119TMC2    C7 1858   3.911   3.405  13.308 -1.2630 -0.5682  0.1971
  119TMC2    C8 1859   4.325   3.156  13.256  0.0491  0.2249  0.0383
  119TMC2    O1 1860   3.840   3.489  13.262 -0.1263  0.5784 -0.0118
  119TMC2    O2 1861   4.421   3.121  13.184 -0.4784 -0.1369  0.4166
  119TMC2    O5 1862   4.283   3.107  13.374  0.2027  0.5441  0.2509
  119TMC2    H5 1863   4.214   3.163  13.414 -1.0113  0.3488 -1.5875
  120MPD2     C 1864   4.640   3.978  13.117  0.1143 -0.4641  0.2639
  120MPD2    C1 1865   4.506   3.986  13.147  0.0732  0.7511 -0.0867
  120MPD2    C2 1866   4.422   3.881  13.121  0.2130  0.3526  0.0764
  120MPD2    C3 1867   4.478   3.758  13.074  0.3052 -0.4827 -0.6996
  120MPD2    C4 1868   4.610   3.747  13.050 -0.5624  0.4235  0.0767
  120MPD2    C5 1869   4.690   3.857  13.068  0.4400  0.5040  0.2843
  120MPD2     H 1870   4.318   3.888  13.150  0.4619 -0.5137  1.2219
  120MPD2    H1 1871   4.661   3.655  13.025  1.6253  1.4103  0.8556
  120MPD2    H2 1872   4.706   4.064  13.118 -1.5130  0.8190 -1.5561
  120MPD2    H3 1873   0.048   3.830  13.034  0.6458 -1.3901  2.3533
  120MPD2     N 1874   4.404   3.633  13.073 -0.4102  0.4984  0.2956
  120MPD2    H5 1875   4.456   3.546  13.065  1.0339  1.3482  0.4124
  120MPD2    N1 1876   4.467   4.105  13.216  0.6495  0.3222 -0.2145
  120MPD2    H7 1877   4.510   4.191  13.186  1.0354  0.3873  0.5283
  121TMC2    C1 1878   0.796   0.355  14.356  0.2005 -0.4424  0.3917
  121TMC2    C2 1879   0.783   0.292  14.474  0.1627 -0.7284 -0.3582
  121TMC2    C3 1880   0.667   0.228  14.504 -0.2480  0.0713  0.0072
  121TMC2    C4 1881   0.692   0.360  14.264 -0.0531 -0.4719  0.0856
  121TMC2    C5 1882   0.576   0.303  14.305  0.3525 -0.1504 -0.0810
  121TMC2    C6 1883   0.560   0.238  14.420 -0.0841  0.8703  0.3082
  121TMC2     C 1884   0.930   0.400  14.320 -0.1284 -0.9530  0.3537
  121TMC2     O 1885   1.025   0.376  14.390 -0.1139 -0.5445  0.0452
  121TMC2     H 1886   0.870   0.290  14.539 -0.2104  1.0630  0.1821
  121TMC2    H1 1887   0.704   0.421  14.176 -1.8392 -1.7836 -1.0470
  121TMC2    H2 1888   0.459   0.211  14.446 -1.1859  0.6398 -4.2670
  121TMC2    C7 1889   0.464   0.304  14.215  0.0846  0.6794 -0.1284
  121TMC2    C8 1890   0.623   0.189  14.636 -0.2268  0.3989 -0.2610
  121TMC2    O1 1891   0.413   0.192  14.211  0.1726  0.0553 -0.5384
  121TMC2    O2 1892   0.500   0.187  14.664  0.3214  0.4200 -0.0780
  121TMC2    O5 1893   0.730   0.189  14.719  0.4119 -0.1889  0.4388
  121TMC2    H5 1894   0.812   0.162  14.672  1.1477  1.6531  0.6461
  122MPD2     C 1895   1.173   0.519  14.199 -0.1578  0.0111 -0.1287
  122MPD2    C1 1896   1.055   0.500  14.128  1.4147 -0.0021 -0.1598
  122MPD2    C2 1897   1.043   0.553  13.999 -0.2723  0.3260  0.4748
  122MPD2    C3 1898   1.155   0.608  13.938 -0.3451  0.1853  0.1666
  122MPD2    C4 1899   1.276   0.603  14.003  0.2847  0.3203  0.1440
  122MPD2    C5 1900   1.284   0.561  14.133 -0.6446 -0.0524  0.1179
  122MPD2     H 1901   0.952   0.542  13.942  0.3748 -1.4592 -0.2028
  122MPD2    H1 1902   1.369   0.649  13.972  0.4702  0.0829  0.3521
  122MPD2    H2 1903   1.191   0.504  14.304 -1.6115 -0.7617  0.0161
  122MPD2    H3 1904   1.377   0.572  14.188  1.2320 -3.0045 -2.4861
  122MPD2     N 1905   1.148   0.679  13.815  0.9583  0.9935 -0.0419
  122MPD2    H5 1906   1.238   0.713  13.782  1.7512  0.3799  1.4588
  122MPD2    N1 1907   0.938   0.442  14.190 -0.1348  0.9792  0.0018
  122MPD2    H7 1908   0.862   0.428  14.124  0.0104  0.4416 -0.0454
  123TMC2    C1 1909   4.033   3.669  10.291  0.4452 -0.0794  0.3401
  123TMC2    C2 1910   4.144   3.701  10.357  0.0378  0.5194  0.2078
  123TMC2    C3 1911   4.252   3.747  10.282  0.3328  0.6542  0.0925
  123TMC2    C4 1912   4.024   3.682  10.156  0.0612 -0.2436 -0.7228
  123TMC2    C5 1913   4.133   3.739  10.089  0.8299  0.4137 -0.1631
  123TMC2    C6 1914   4.251   3.766  10.144  0.6065 -0.2929  0.5723
  123TMC2     C 1915   3.923   3.606  10.358  0.2767 -0.9219  0.1273
  123TMC2     O 1916   3.943   3.589  10.476  0.0456  0.1856  0.1853
  123TMC2     H 1917   4.152   3.694  10.465  0.3917  0.0619  0.1493
  123TMC2    H1 1918   3.929   3.679  10.104 -0.2866 -1.4233 -0.0105
  123TMC2    H2 1919   4.333   3.805  10.086 -0.5651  0.4420 -0.5777
  123TMC2    C7 1920   4.113   3.747   9.949 -0.7273 -0.7349  0.1202
  123TMC2    C8 1921   4.375   3.706  10.347  0.0564  0.4203 -0.0547
  123TMC2    O1 1922   4.031   3.663   9.910  0.1862  0.0754 -0.3421
  123TMC2    O2 1923   4.386   3.609  10.420  0.1575 -0.1170  0.0553
  123TMC2    O5 1924   4.470   3.770  10.274 -0.1421 -0.0388  0.3581
  123TMC2    H5 1925   4.443   3.861  10.251 -0.8207 -0.7078 -1.5572
  124MPD2     C 1926   3.532   3.272  10.358 -0.0834 -0.6123  0.3061
  124MPD2    C1 1927   3.545   3.321  10.231 -0.4224  0.0531  0.2930
  124MPD2    C2 1928   3.642   3.410  10.205  0.1033 -0.0245  0.1595
  124MPD2    C3 1929   3.718   3.465  10.309  0.4921  0.5420 -0.4606
  124MPD2    C4 1930   3.696   3.419  10.440 -0.4813 -0.8972 -0.0176
  124MPD2    C5 1931   3.599   3.327  10.463 -0.2677 -0.9475 -0.3948
  124MPD2     H 1932   3.662   3.437  10.102 -2.8732 -0.0352 -0.4148
  124MPD2    H1 1933   3.760   3.445  10.523  0.8517  0.8818 -1.5918
  124MPD2    H2 1934   3.461   3.193  10.381 -2.3647  0.9352 -1.4014
  124MPD2    H3 1935   3.593   3.281  10.561 -0.2126  0.1611  0.1248
  124MPD2     N 1936   3.829   3.542  10.272 -0.4912 -0.0137  0.5573
  124MPD2    H5 1937   3.845   3.558  10.173 -1.1773  1.4765  0.6799
  124MPD2    N1 1938   3.450   3.282  10.137  0.5730  0.0703  0.7889
  124MPD2    H7 1939   3.388   3.208  10.170 -0.9726  0.4635 -1.2096
  125TMC2    C1 1940   4.516   4.253   9.435  0.5282 -0.7600 -0.7123
  125TMC2    C2 1941   4.476   4.312   9.552 -0.7516  0.3543 -0.2412
  125TMC2    C3 1942   4.576   4.318   9.654 -0.6997 -0.5796 -0.1273
  125TMC2    C4 1943   4.641   4.209   9.403  0.0958 -0.4776 -0.1634
  125TMC2    C5 1944   4.733   4.234   9.498  0.5840 -0.3853 -0.0069
  125TMC2    C6 1945   4.699   4.267   9.625  0.2108 -0.3540  0.0947
  125TMC2     C 1946   4.435   4.280   9.314 -0.2940 -0.1106 -0.2929
  125TMC2     O 1947   4.455   4.225   9.210 -0.2677 -0.0048 -0.1414
  125TMC2     H 1948   4.371   4.322   9.581 -0.0714  1.0577  2.0086
  125TMC2    H1 1949   4.660   4.186   9.298  1.5353  0.3748 -0.0866
  125TMC2    H2 1950   0.035   4.273   9.701  0.3610  0.7853 -0.1553
  125TMC2    C7 1951   0.127   4.253   9.448 -0.0096  0.7458 -0.3451
  125TMC2    C8 1952   4.529   4.327   9.788  0.3687 -0.3528 -0.2430
  125TMC2    O1 1953   0.155   4.195   9.343  0.5073  0.0799  0.4410
  125TMC2    O2 1954   4.543   4.236   9.869 -0.1088  0.0777 -0.2771
  125TMC2    O5 1955   4.429   4.416   9.802 -0.4687  0.5359  0.7234
  125TMC2    H5 1956   4.423   4.477   9.725 -0.2620 -0.9624 -0.4819
  126MPD1     C 1957   4.058   4.538   9.077  0.5741 -0.4281  0.1417
  126MPD1    C1 1958   4.074   4.594   9.199 -0.0609 -0.3884 -0.6772
  126MPD1    C2 1959   4.165   4.529   9.280  0.2400  1.8114  0.6138
  126MPD1    C3 1960   4.242   4.419   9.236 -0.5338 -0.0997 -0.7728
  126MPD1    C4 1961   4.216   4.361   9.115  0.1445 -0.3423  0.1203
  126MPD1    C5 1962   4.125   4.426   9.035  0.3803 -0.1422  0.0529
  126MPD1     H 1963   4.177   4.556   9.384 -1.6644  1.2855  0.9710
  126MPD1    H1 1964   4.267   4.272   9.080 -0.4271  0.1025 -1.8990
  126MPD1    H2 1965   3.983   4.578   9.011  3.7182  2.1786 -1.8191
  126MPD1    H3 1966   4.086   4.375   8.947  2.6911 -0.8293 -0.5671
  126MPD1     N 1967   4.342   4.377   9.334  0.2912  0.7351 -0.0484
  126MPD1    H5 1968   4.347   4.430   9.421  1.9048  0.9173 -0.2539
  126MPD1    N1 1969   4.023   4.724   9.235 -0.7562 -0.5111  0.5198
  126MPD1    H6 1970   3.932   0.007   9.195 -1.9568 -2.3606  2.1186
  126MPD1    H7 1971   4.007   4.739   9.335 -1.0351 -1.6122  0.6443
  127TMC2    C1 1972   0.634   4.184   9.678 -0.4612 -0.2534 -0.4087
  127TMC2    C2 1973   0.658   4.246   9.796  0.1524 -0.0789  0.9544
  127TMC2    C3 1974   0.567   4.244   9.893 -0.4895  0.3644  0.3415
  127TMC2    C4 1975   0.517   4.117   9.660 -0.6062 -0.8736  0.4422
  127TMC2    C5 1976   0.429   4.115   9.767 -0.3826 -0.8725 -0.6090
  127TMC2    C6 1977   0.448   4.174   9.888  0.0079 -0.5170 -0.3998
  127TMC2     C 1978   0.752   4.183   9.587  0.3320  0.2247 -0.8168
  127TMC2     O 1979   0.860   4.231   9.618 -0.7221  0.5320 -0.0598
  127TMC2     H 1980   0.743   4.310   9.816  0.7661 -0.7842  0.6239
  127TMC2    H1 1981   0.484   4.074   9.566  1.7930 -2.6835  0.4394
  127TMC2    H2 1982   0.379   4.178   9.971  1.6526  0.5777  0.9328
  127TMC2    C7 1983   0.301   4.052   9.751 -0.4259 -0.6734  0.0260
  127TMC2    C8 1984   0.600   4.309  10.020  0.3974  0.1262 -0.4838
  127TMC2    O1 1985   0.242   4.069   9.644  0.0570  0.9145  0.6714
  127TMC2    O2 1986   0.712   4.348  10.039 -0.1485 -0.2263 -0.3309
  127TMC2    O5 1987   0.488   4.370  10.054 -0.2439 -0.0543  0.1189
  127TMC2    H5 1988   0.406   4.351  10.003  0.0628  0.9455 -0.7500
  128MPD2     C 1989   0.753   4.041   9.247  0.4242 -0.0294  0.3761
  128MPD2    C1 1990   0.802   4.115   9.352 -0.7508  0.2918  0.2941
  128MPD2    C2 1991   0.927   4.178   9.336  0.1671 -0.3746 -0.1545
  128MPD2    C3 1992   1.007   4.151   9.230  0.0136  0.1986  0.1814
  128MPD2    C4 1993   0.957   4.076   9.128  0.2722  0.4686 -0.2442
  128MPD2    C5 1994   0.833   4.013   9.140  0.0779 -0.0692 -0.4182
  128MPD2     H 1995   0.964   4.244   9.415 -1.9904  1.0024 -0.2925
  128MPD2    H1 1996   1.011   4.059   9.035  0.2863  2.2644 -0.5802
  128MPD2    H2 1997   0.657   3.990   9.251 -1.3172  3.2671  0.0447
  128MPD2    H3 1998   0.791   3.958   9.057 -1.7158 -0.8248  0.9688
  128MPD2     N 1999   1.139   4.209   9.239 -0.1617 -0.1946 -0.1180
  128MPD2    H5 2000   1.160   4.264   9.322  1.4648 -1.3415  0.2267
  128MPD2    N1 2001   0.713   4.130   9.462  0.5344  0.0530 -0.4151
  128MPD2    H7 2002   0.618   4.096   9.452  1.0717 -1.5863 -0.0192
  129TMC2    C1 2003   0.159   4.318   1.709 -0.1885  0.5173  0.2416
  129TMC2    C2 2004   0.115   4.401   1.804  0.0108 -0.3649 -0.6626
  129TMC2    C3 2005   0.016   4.362   1.888  0.2432 -0.3572 -0.8455
  129TMC2    C4 2006   0.122   4.184   1.707  0.2828 -0.9780 -0.2874
  129TMC2    C5 2007   0.021   4.151   1.794  0.3429 -0.9579 -0.2573
  129TMC2    C6 2008   4.701   4.239   1.880 -0.2911  0.0546  0.0932
  129TMC2     C 2009   0.264   4.370   1.624 -0.5887  0.1978 -0.7116
  129TMC2     O 2010   0.344   4.290   1.577  0.5167 -0.2244  0.2331
  129TMC2     H 2011   0.155   4.500   1.825 -0.0837 -0.6453  0.7781
  129TMC2    H1 2012   0.151   4.121   1.623 -0.3613 -1.1687 -0.3634
  129TMC2    H2 2013   4.621   4.215   1.949 -0.7400  0.8900 -0.1279
  129TMC2    C7 2014   4.666   4.065   1.735  0.1831  0.0330  0.6270
  129TMC2    C8 2015   4.713   4.461   1.980 -0.3149 -0.4014 -0.3124
  129TMC2    O1 2016   4.549   4.090   1.761 -0.2889  0.7731 -0.1785
  129TMC2    O2 2017   4.687   4.438   2.098 -0.0798  0.2713 -0.5336
  129TMC2    O5 2018   4.633   4.542   1.903  0.4566 -0.3209 -0.0793
  129TMC2    H5 2019   4.659   4.536   1.808  0.7735 -1.4214  0.0702
  130MPD2     C 2020   0.447   4.544   1.457 -0.0970  0.5036  0.7757
  130MPD2    C1 2021   0.323   4.580   1.501  0.5954  0.2050 -0.8873
  130MPD2    C2 2022   0.263   4.700   1.451 -0.3114 -0.0320 -0.2848
  130MPD2    C3 2023   0.331   0.042   1.366 -0.1785 -0.5173  0.1736
  130MPD2    C4 2024   0.461   0.008   1.330  0.5590  0.9310 -0.9780
  130MPD2    C5 2025   0.516   4.630   1.377  0.1313  0.5482  0.3901
  130MPD2     H 2026   0.157   4.718   1.470 -0.3812 -1.0549  0.2829
  130MPD2    H1 2027   0.527   0.071   1.271  0.0061  1.5182 -0.9790
  130MPD2    H2 2028   0.503   4.463   1.502  1.2343  0.5835 -0.7290
  130MPD2    H3 2029   0.617   4.608   1.344  1.2068  0.5926  3.5976
  130MPD2     N 2030   0.267   0.164   1.325 -0.3415  0.8292 -0.2783
  130MPD2    H5 2031   0.182   0.180   1.378 -2.2587 -1.2631 -2.7272
  130MPD2    N1 2032   0.236   4.497   1.578  0.6091 -0.0470 -0.0864
  130MPD2    H7 2033   0.148   4.529   1.617 -0.0344 -1.1397 -0.6408
  131TMC2    C1 2034   3.398   4.171   9.617 -0.0472 -0.1427 -0.1128
  131TMC2    C2 2035   3.514   4.190   9.686 -0.5392  0.3643  0.7167
  131TMC2    C3 2036   3.577   4.311   9.684 -0.2078 -0.3025 -0.6711
  131TMC2    C4 2037   3.349   4.272   9.536  0.2552  0.2461  0.2755
  131TMC2    C5 2038   3.419   4.394   9.532 -0.0820 -0.2020  0.0195
  131TMC2    C6 2039   3.540   4.409   9.599  0.4592 -0.2347  0.0447
  131TMC2     C 2040   3.317   4.053   9.658  0.1469 -0.4807 -0.1125
  131TMC2     O 2041   3.370   3.975   9.740  0.0352 -0.1562 -0.3066
  131TMC2     H 2042   3.539   4.125   9.769  0.4234 -1.0320 -0.6737
  131TMC2    H1 2043   3.265   4.256   9.469 -0.1704  1.1695  0.5746
  131TMC2    H2 2044   3.577   4.510   9.612  3.9984 -1.5174 -0.1744
  131TMC2    C7 2045   3.382   4.487   9.432 -0.8017 -0.4693  0.0667
  131TMC2    C8 2046   3.711   4.324   9.740 -0.7567 -0.9871 -0.2637
  131TMC2    O1 2047   3.279   4.467   9.370  0.4445  0.3506  0.3481
  131TMC2    O2 2048   3.792   4.411   9.701 -0.3367  0.1718  0.0078
  131TMC2    O5 2049   3.689   4.295   9.874  0.1097 -0.5026 -0.0456
  131TMC2    H5 2050   3.616   4.234   9.899 -0.6754  0.0455 -0.9918
  132MPD2     C 2051   3.027   3.904   9.477  0.9805  0.3236 -0.2996
  132MPD2    C1 2052   3.145   3.914   9.556  0.3831  0.6899 -0.5303
  132MPD2    C2 2053   3.188   3.791   9.614 -0.7848  0.0387 -0.2501
  132MPD2    C3 2054   3.116   3.670   9.599  0.0916  0.3851 -0.1525
  132MPD2    C4 2055   2.993   3.675   9.531  0.2741  0.6662 -0.5196
  132MPD2    C5 2056   2.956   3.790   9.460  0.3986 -0.3341 -0.1224
  132MPD2     H 2057   3.283   3.777   9.665 -0.5133  1.2580 -0.4154
  132MPD2    H1 2058   2.935   3.585   9.516 -0.4626  1.3242 -1.6403
  132MPD2    H2 2059   2.983   3.992   9.431  2.2408  2.0141  1.7283
  132MPD2    H3 2060   2.871   3.784   9.393 -1.0562  1.5665  1.5495
  132MPD2     N 2061   3.148   3.563   9.685 -0.5983  0.1354 -0.6008
  132MPD2    H5 2062   3.213   3.582   9.760 -2.9976  0.0821  1.4914
  132MPD2    N1 2063   3.212   4.036   9.572 -0.0535 -0.2012  0.4358
  132MPD2    H7 2064   3.185   4.119   9.521 -0.1367 -0.3449  0.2437
  133TMC2    C1 2065   2.247   3.356   9.710 -0.6599  0.7448 -0.3775
  133TMC2    C2 2066   2.155   3.397   9.620 -0.6438  0.8242  0.2338
  133TMC2    C3 2067   2.083   3.301   9.556 -0.1057  0.1016 -0.4294
  133TMC2    C4 2068   2.269   3.222   9.731  0.2505  0.9337 -0.0114
  133TMC2    C5 2069   2.182   3.133   9.678  0.0482 -0.3878 -0.0561
  133TMC2    C6 2070   2.094   3.162   9.576  0.1654 -0.5717 -0.6659
  133TMC2     C 2071   2.347   3.454   9.746 -0.1803 -0.3367 -0.1643
  133TMC2     O 2072   2.363   3.556   9.678  0.0358  0.0303  0.0964
  133TMC2     H 2073   2.142   3.502   9.596 -2.5620  0.7709  1.1014
  133TMC2    H1 2074   2.352   3.192   9.793 -0.3661  0.1839  0.4446
  133TMC2    H2 2075   2.037   3.091   9.517 -0.0530  1.0688 -2.4684
  133TMC2    C7 2076   2.214   2.994   9.716  0.4208  0.0948 -0.1422
  133TMC2    C8 2077   2.006   3.348   9.435 -0.3832 -0.8147 -0.1467
  133TMC2    O1 2078   2.328   2.965   9.745  0.7256 -0.4891  0.2847
  133TMC2    O2 2079   1.951   3.457   9.450 -0.3024 -0.0299 -0.1446
  133TMC2    O5 2080   2.069   3.310   9.323 -0.5166  0.6524 -0.0887
  133TMC2    H5 2081   2.144   3.248   9.339 -1.2106  0.4245  2.1496
  134MPD2     C 2082   2.633   3.400   9.982  0.1056  0.7979  0.7219
  134MPD2    C1 2083   2.557   3.466   9.887  0.7067  0.4642  0.4609
  134MPD2    C2 2084   2.612   3.583   9.835 -0.0849 -0.4540 -0.1430
  134MPD2    C3 2085   2.729   3.641   9.883  0.1907 -0.2088  0.0322
  134MPD2    C4 2086   2.792   3.582   9.988 -0.1827 -0.9128  0.9132
  134MPD2    C5 2087   2.743   3.460  10.034  0.1550 -0.4334  0.1875
  134MPD2     H 2088   2.555   3.643   9.765  0.1852 -0.0623 -0.0280
  134MPD2    H1 2089   2.877   3.621  10.042 -0.1118 -0.5802  0.5629
  134MPD2    H2 2090   2.612   3.298  10.012  0.1808  0.4668 -0.3417
  134MPD2    H3 2091   2.804   3.417  10.112 -0.0006  1.8287  1.5448
  134MPD2     N 2092   2.768   3.773   9.833  0.2173 -0.0038  0.3318
  134MPD2    H5 2093   2.717   3.802   9.751  1.8701 -1.8463 -1.3790
  134MPD2    N1 2094   2.433   3.405   9.842 -0.5809  0.2399 -0.5723
  134MPD2    H7 2095   2.402   3.326   9.898  2.0475  2.6001  4.1892
  135TMC2    C1 2096   0.459   0.753   9.629 -0.3456 -0.4046  0.9633
  135TMC2    C2 2097   0.392   0.648   9.567 -0.1993  0.6331  0.2187
  135TMC2    C3 2098   0.303   0.580   9.648 -0.2879 -0.6347  0.3409
  135TMC2    C4 2099   0.431   0.797   9.753  0.5975  0.4353 -0.2185
  135TMC2    C5 2100   0.334   0.736   9.819  0.1582 -0.6778  0.0108
  135TMC2    C6 2101   0.271   0.625   9.772  0.7336 -0.1793  0.2467
  135TMC2     C 2102   0.571   0.814   9.549  0.5383 -0.1694 -0.7695
  135TMC2     O 2103   0.626   0.912   9.597  0.1600 -0.6064 -0.0851
  135TMC2     H 2104   0.432   0.595   9.481 -0.6808 -0.7207  0.8298
  135TMC2    H1 2105   0.472   0.892   9.784 -0.0712  0.5208  0.4008
  135TMC2    H2 2106   0.201   0.566   9.829 -0.3569  0.4254 -0.4646
  135TMC2    C7 2107   0.278   0.816   9.918  0.2850  0.7551 -0.2617
  135TMC2    C8 2108   0.203   0.503   9.580  0.2011 -0.2594  0.5949
  135TMC2    O1 2109   0.283   0.938   9.895 -0.3006  0.0184  0.2661
  135TMC2    O2 2110   0.153   0.403   9.635  0.5356  0.3286  0.2628
  135TMC2    O5 2111   0.212   0.533   9.448 -0.1855  0.1258 -0.1942
  135TMC2    H5 2112   0.216   0.629   9.429 -1.9528 -0.0235 -1.3439
  136MPD2     C 2113   0.788   0.899   9.359 -0.1495  0.3621 -0.6970
  136MPD2    C1 2114   0.732   0.773   9.369 -0.5788  0.1585 -0.1246
  136MPD2    C2 2115   0.783   0.669   9.304 -0.3623 -0.3535  0.3843
  136MPD2    C3 2116   0.894   0.690   9.223 -0.2264 -0.5442 -0.2794
  136MPD2    C4 2117   0.950   0.814   9.207 -0.1715 -0.3427 -0.2058
  136MPD2    C5 2118   0.882   0.922   9.263  0.0037  0.1152 -0.2050
  136MPD2     H 2119   0.730   0.575   9.315 -1.6772  0.4106  0.6058
  136MPD2    H1 2120   1.046   0.828   9.158 -0.4102  1.0037 -0.2894
  136MPD2    H2 2121   0.743   0.983   9.410 -2.1280  0.2440 -2.2635
  136MPD2    H3 2122   0.914   1.025   9.255 -1.0420  0.5154  0.8871
  136MPD2     N 2123   0.977   0.590   9.169 -0.4348  1.0805  0.0240
  136MPD2    H5 2124   1.067   0.619   9.130  0.1241  0.2731  0.7199
  136MPD2    N1 2125   0.614   0.746   9.439 -0.2497  0.5575 -0.2645
  136MPD2    H7 2126   0.565   0.659   9.421 -0.5336  0.8519 -0.9020
  137TMC2    C1 2127   4.703   0.283   8.816 -0.0356 -0.2360 -0.2622
  137TMC2    C2 2128   0.002   0.259   8.687 -0.0456 -0.2686 -0.2538
  137TMC2    C3 2129   4.698   0.343   8.587  0.1652  0.1944 -0.0919
  137TMC2    C4 2130   4.627   0.396   8.841  0.2156 -0.2333  0.8272
  137TMC2    C5 2131   4.572   0.463   8.738 -0.7453  0.2487  0.3317
  137TMC2    C6 2132   4.607   0.444   8.612 -0.2735 -0.0361  0.2024
  137TMC2     C 2133   0.037   0.231   8.931  0.7165  0.3667 -0.1031
  137TMC2     O 2134   0.005   0.273   9.041 -1.1547  0.3569 -0.0135
  137TMC2     H 2135   0.066   0.174   8.665  0.1213  0.0653 -1.0537
  137TMC2    H1 2136   4.612   0.425   8.944 -1.4839  1.2884  0.1491
  137TMC2    H2 2137   4.574   0.505   8.528  0.2155 -0.6274 -0.4196
  137TMC2    C7 2138   4.496   0.574   8.767  0.9578  0.1515 -0.9795
  137TMC2    C8 2139   4.726   0.312   8.449 -0.5023 -0.5721 -0.1545
  137TMC2    O1 2140   4.495   0.672   8.688  0.0716  0.2505  0.4550
  137TMC2    O2 2141   0.012   0.196   8.415  0.3490 -0.7176 -0.0968
  137TMC2    O5 2142   0.069   0.412   8.428  0.4814 -0.2315 -0.2846
  137TMC2    H5 2143   0.056   0.492   8.485 -0.9166 -1.0439  0.5478
  138MPD2     C 2144   0.301   4.704   8.952  0.0981  0.3375 -0.3315
  138MPD2    C1 2145   0.209   0.063   8.985 -0.0407  0.7126 -0.2630
  138MPD2    C2 2146   0.185   0.071   9.123 -0.5710 -0.3074  0.4907
  138MPD2    C3 2147   0.260   0.004   9.222  0.0674  0.6121 -0.1025
  138MPD2    C4 2148   0.356   4.659   9.181  0.3916  0.1444  0.6741
  138MPD2    C5 2149   0.380   4.643   9.045 -0.3933 -0.0094  0.4549
  138MPD2     H 2150   0.096   0.122   9.159 -1.0337 -0.7200 -0.0701
  138MPD2    H1 2151   0.422   4.603   9.247 -0.2710 -0.3754  0.8961
  138MPD2    H2 2152   0.313   4.670   8.850 -0.0795 -1.8820  0.3958
  138MPD2    H3 2153   0.454   4.571   9.010 -0.9574 -0.9418  1.1519
  138MPD2     N 2154   0.242   0.039   9.361  0.1308 -0.2488  0.0813
  138MPD2    H5 2155   0.167   0.101   9.390  1.7391  2.5123 -1.7253
  138MPD2    N1 2156   0.130   0.137   8.890 -0.2179  0.2167 -0.0386
  138MPD2    H7 2157   0.145   0.133   8.790  0.3344 -3.0980  0.1866
  139TMC2    C1 2158   1.275   3.243  13.687  0.2576  0.5966  0.1779
  139TMC2    C2 2159   1.330   3.367  13.727  0.1180 -0.3185  0.6880
  139TMC2    C3 2160   1.267   3.485  13.675  0.2658  0.8362 -0.0845
  139TMC2    C4 2161   1.149   3.234  13.640  0.2852  0.1335  0.7716
  139TMC2    C5 2162   1.083   3.350  13.625 -0.8884  0.1848 -0.0214
  139TMC2    C6 2163   1.135   3.476  13.633 -0.2402  0.6285 -0.4741
  139TMC2     C 2164   1.340   3.116  13.714  0.1331  0.3387 -0.9824
  139TMC2     O 2165   1.289   3.008  13.684  1.1343  0.0616  0.4798
  139TMC2     H 2166   1.422   3.378  13.783  1.6941  1.0219 -2.1366
  139TMC2    H1 2167   1.107   3.134  13.640 -0.0730  0.2898  2.0968
  139TMC2    H2 2168   1.076   3.566  13.629  0.3196  1.0489  0.6959
  139TMC2    C7 2169   0.938   3.338  13.606  0.0146 -0.4380  0.4821
  139TMC2    C8 2170   1.324   3.617  13.694 -0.0442  0.0236 -0.2932
  139TMC2    O1 2171   0.880   3.429  13.660 -0.7183  0.5997  0.3990
  139TMC2    O2 2172   1.265   3.726  13.683  0.0501 -0.4989  0.3032
  139TMC2    O5 2173   1.456   3.615  13.696  0.0790  0.6365 -0.3639
  139TMC2    H5 2174   1.493   3.524  13.702 -1.3738  0.1139  0.9093
  140MPD2     C 2175   1.653   3.059  13.897  0.0863 -0.1487  0.2713
  140MPD2    C1 2176   1.552   3.030  13.809  0.0945  0.0140 -0.1556
  140MPD2    C2 2177   1.560   2.910  13.733  0.3013 -0.4191 -0.0820
  140MPD2    C3 2178   1.659   2.817  13.756 -0.6711  0.0262 -0.3739
  140MPD2    C4 2179   1.746   2.844  13.859  0.5225 -0.3358  0.7527
  140MPD2    C5 2180   1.743   2.966  13.930  0.7189 -0.4010 -0.6696
  140MPD2     H 2181   1.485   2.894  13.656 -0.6005  0.6065  0.5834
  140MPD2    H1 2182   1.823   2.769  13.876 -0.7295 -1.7873  0.0387
  140MPD2    H2 2183   1.657   3.153  13.951  2.2953 -0.1697  0.1518
  140MPD2    H3 2184   1.814   2.978  14.011 -0.5761 -0.9194  0.5425
  140MPD2     N 2185   1.653   2.695  13.677  0.2346 -0.0221 -0.5464
  140MPD2    H5 2186   1.577   2.680  13.611 -0.6038  2.2933 -0.0903
  140MPD2    N1 2187   1.457   3.132  13.781  0.2410  0.4539 -0.0475
  140MPD2    H7 2188   1.479   3.225  13.815 -2.1524  0.5525  1.2042
  141TMC2    C1 2189   1.604   4.567  14.014  0.3268  0.3334  0.1295
  141TMC2    C2 2190   1.504   4.482  14.032  0.5861 -0.1934 -0.2839
  141TMC2    C3 2191   1.491   4.427  14.156  0.5420 -0.2036 -0.1128
  141TMC2    C4 2192   1.681   4.613  14.120 -0.9988  1.1397  0.0902
  141TMC2    C5 2193   1.649   4.564  14.242 -0.4359  0.6137  0.2686
  141TMC2    C6 2194   1.564   4.461  14.267 -0.1244  0.1107 -0.0985
  141TMC2     C 2195   1.669   4.581  13.884 -0.4777 -0.0925 -0.4995
  141TMC2     O 2196   1.771   4.647  13.882  0.4086  0.0012  0.5564
  141TMC2     H 2197   1.438   4.445  13.954 -1.9940  0.4973  1.5539
  141TMC2    H1 2198   1.759   4.687  14.113  1.5756 -1.7586 -2.0685
  141TMC2    H2 2199   1.545   4.420  14.365 -2.2385  0.9251 -0.1575
  141TMC2    C7 2200   1.760   4.574  14.339 -0.1599 -0.0749  0.5041
  141TMC2    C8 2201   1.365   4.357  14.174 -0.2317  0.1144 -0.7577
  141TMC2    O1 2202   1.822   4.468  14.361  0.9457 -0.5746 -0.3230
  141TMC2    O2 2203   1.276   4.347  14.090 -0.8402  0.3396 -0.0557
  141TMC2    O5 2204   1.393   4.261  14.263  0.1874 -0.3192  0.5763
  141TMC2    H5 2205   1.472   4.272  14.320  1.9840 -0.1640 -1.9780
  142TMC2    C1 2206   3.587   3.495   9.464 -0.0004 -0.0981  0.1260
  142TMC2    C2 2207   3.508   3.609   9.433  0.8244 -0.0287  0.0933
  142TMC2    C3 2208   3.574   3.722   9.398 -0.0751  0.2699 -0.0656
  142TMC2    C4 2209   3.725   3.509   9.475 -0.0638 -0.7829 -0.1466
  142TMC2    C5 2210   3.781   3.623   9.430 -0.4627  0.6406 -0.0970
  142TMC2    C6 2211   3.711   3.735   9.398 -0.1400  0.2177 -0.4887
  142TMC2     C 2212   3.519   3.383   9.523 -0.2791 -0.2188  0.7803
  142TMC2     O 2213   3.411   3.354   9.468  0.0740  0.2774  0.4558
  142TMC2     H 2214   3.402   3.614   9.456  0.3543 -1.7707 -1.7681
  142TMC2    H1 2215   3.789   3.427   9.505  0.5684  0.3212  1.4789
  142TMC2    H2 2216   3.755   3.828   9.365 -0.9000  0.8860  0.3781
  142TMC2    C7 2217   3.921   3.641   9.462  0.6259 -1.1348 -0.0496
  142TMC2    C8 2218   3.509   3.842   9.356 -0.8286 -0.6019 -0.0939
  142TMC2    O1 2219   3.974   3.560   9.538 -0.1193  0.1499  0.7264
  142TMC2    O2 2220   3.566   3.954   9.352 -0.2377 -0.0299  0.2382
  142TMC2    O5 2221   3.403   3.811   9.277 -0.2242  0.7625 -0.1515
  142TMC2    H5 2222   3.373   3.717   9.269  0.8560  0.5178 -1.4749
  143MPD2     C 2223   3.479   2.988   9.851  0.0662  0.2832  0.1389
  143MPD2    C1 2224   3.388   3.042   9.757 -0.1178 -0.4873 -0.3022
  143MPD2    C2 2225   3.424   3.149   9.679  0.4412 -0.7682 -0.2620
  143MPD2    C3 2226   3.543   3.208   9.700 -0.8883  0.3148 -0.2313
  143MPD2    C4 2227   3.623   3.169   9.803  0.1934 -0.0212  0.1490
  143MPD2    C5 2228   3.585   3.064   9.879 -0.0193  0.6533  0.6178
  143MPD2     H 2229   3.357   3.185   9.602 -0.8096  1.2528  1.7428
  143MPD2    H1 2230   3.717   3.222   9.819 -0.4801  1.9101 -2.3193
  143MPD2    H2 2231   3.460   2.894   9.903 -2.0877  0.4622 -0.3086
  143MPD2    H3 2232   3.640   3.018   9.960  2.6576 -1.7481 -2.5514
  143MPD2     N 2233   3.592   3.314   9.623  0.3040  0.0856 -0.0903
  143MPD2    H5 2234   3.687   3.342   9.646  0.4118 -1.3401  1.1207
  143MPD2    N1 2235   3.284   2.956   9.728  0.8944 -0.3405 -0.5676
  143MPD2    H7 2236   3.255   2.883   9.793  2.3284 -1.3914 -1.1110
  144TMC2    C1 2237   1.927   2.344   0.861 -0.6673  1.2176 -0.6310
  144TMC2    C2 2238   2.048   2.295   0.899  0.6720 -0.0508 -0.0733
  144TMC2    C3 2239   2.143   2.379   0.930 -0.6681 -1.0790 -0.2454
  144TMC2    C4 2240   1.908   2.478   0.859 -0.5693  0.0225  0.3643
  144TMC2    C5 2241   2.001   2.562   0.912  0.2853  0.1561  0.4857
  144TMC2    C6 2242   2.126   2.516   0.940 -0.6811  0.0948  0.1901
  144TMC2     C 2243   1.857   2.261   0.766  0.2153 -0.0098 -0.3649
  144TMC2     O 2244   1.895   2.145   0.745  0.4302 -0.4498  0.7145
  144TMC2     H 2245   2.067   2.189   0.908  0.6969 -0.1083 -0.7634
  144TMC2    H1 2246   1.820   2.530   0.825  0.7514  2.0499  0.0723
  144TMC2    H2 2247   2.210   2.577   0.968 -1.1610 -0.3601  2.6731
  144TMC2    C7 2248   1.991   2.692   0.857  0.1562  0.3462 -0.0550
  144TMC2    C8 2249   2.280   2.330   0.915 -0.9412 -0.1409 -0.2926
  144TMC2    O1 2250   1.927   2.712   0.755 -0.4308 -0.3675 -0.3851
  144TMC2    O2 2251   2.306   2.230   0.848  0.0130  0.5133  0.1144
  144TMC2    O5 2252   2.351   2.375   1.022  0.2436 -0.5346  0.0716
  144TMC2    H5 2253   2.286   2.396   1.093  0.6131 -0.8300  0.5039
  145MPD2     C 2254   1.466   2.192   0.441  0.3122 -0.8126 -0.0667
  145MPD2    C1 2255   1.576   2.106   0.454 -0.7696 -0.4424 -0.3226
  145MPD2    C2 2256   1.675   2.155   0.539  0.5970 -0.4864  0.4894
  145MPD2    C3 2257   1.658   2.269   0.616 -0.2989 -0.1198 -0.0606
  145MPD2    C4 2258   1.550   2.344   0.601  0.4331  0.1299 -0.4610
  145MPD2    C5 2259   1.460   2.304   0.509 -0.1386 -0.2469 -0.0711
  145MPD2     H 2260   1.768   2.102   0.554  0.8472 -0.0423  0.4930
  145MPD2    H1 2261   1.526   2.440   0.644  1.2814  0.6520 -1.1493
  145MPD2    H2 2262   1.381   2.179   0.375 -0.5062  1.5266  0.5451
  145MPD2    H3 2263   1.372   2.366   0.495 -0.3406 -0.6348 -0.5186
  145MPD2     N 2264   1.752   2.324   0.702  0.1543  0.3034 -0.2397
  145MPD2    H5 2265   1.725   2.412   0.745 -1.0999 -0.5381  0.6792
  145MPD2    N1 2266   1.588   1.977   0.391  0.2478  0.3427  0.0915
  145MPD2    H7 2267   1.674   1.926   0.409  0.3418 -0.2122 -1.9301
  146TMC2    C1 2268   3.207   0.981  12.753 -0.0378 -0.3248  0.4113
  146TMC2    C2 2269   3.105   0.943  12.674 -0.1978  0.1452 -0.0499
  146TMC2    C3 2270   3.129   0.919  12.540 -0.0586 -0.3892 -0.0393
  146TMC2    C4 2271   3.335   0.992  12.704  0.4695  0.2154 -0.2246
  146TMC2    C5 2272   3.353   0.984  12.568  0.5836 -0.4399 -0.1318
  146TMC2    C6 2273   3.251   0.946  12.486 -0.4985 -0.7170 -0.3092
  146TMC2     C 2274   3.178   0.992  12.896 -0.8198 -1.0348 -0.4739
  146TMC2     O 2275   3.064   1.012  12.931  0.1493 -0.3101  0.5247
  146TMC2     H 2276   3.005   0.930  12.711 -1.1781  3.6532 -1.4700
  146TMC2    H1 2277   3.420   1.020  12.766  1.2896  0.3301 -1.4105
  146TMC2    H2 2278   3.275   0.930  12.381 -0.0830  1.8440 -0.6008
  146TMC2    C7 2279   3.484   0.970  12.509  0.3557 -1.1320 -0.4024
  146TMC2    C8 2280   3.044   0.832  12.458 -0.2791  0.5532 -0.1907
  146TMC2    O1 2281   3.495   0.988  12.388  0.4892 -0.3695 -0.3042
  146TMC2    O2 2282   3.092   0.745  12.385  0.2658  0.0798 -0.1799
  146TMC2    O5 2283   2.933   0.896  12.433  0.2564 -0.0793 -0.2073
  146TMC2    H5 2284   2.911   0.969  12.495 -0.5688  0.3857 -1.0419
  147MPD2     C 2285   3.967   0.772  12.519 -0.3279  0.0040  0.6176
  147MPD2    C1 2286   3.898   0.741  12.641 -0.0179 -0.0787  0.7473
  147MPD2    C2 2287   3.777   0.799  12.667 -0.2157 -0.8528  0.1053
  147MPD2    C3 2288   3.699   0.866  12.571 -0.2961  0.1799  0.3735
  147MPD2    C4 2289   3.763   0.892  12.450 -0.2457 -0.5761 -0.0370
  147MPD2    C5 2290   3.892   0.848  12.423 -0.2928 -0.7810 -0.0372
  147MPD2     H 2291   3.724   0.768  12.756 -2.1239 -1.4962 -1.2591
  147MPD2    H1 2292   3.703   0.930  12.368 -0.0265  3.2747  1.5994
  147MPD2    H2 2293   4.070   0.745  12.499  0.0037  0.4226  1.7518
  147MPD2    H3 2294   3.925   0.876  12.324 -0.8795  1.4484  0.4003
  147MPD2     N 2295   3.569   0.910  12.601 -0.2434  0.0195  0.4996
  147MPD2    H5 2296   3.534   0.884  12.693 -0.7757  2.4447  0.9657
  147MPD2    N1 2297   3.965   0.658  12.735  0.1489  0.6723 -0.0027
  147MPD2    H7 2298   4.055   0.620  12.709  0.0643  1.5402 -1.5064
  148TMC2    C1 2299   3.979   4.467  10.057  0.3584 -0.7108  0.3414
  148TMC2    C2 2300   4.020   4.495   9.928  0.1620 -0.1740 -0.3698
  148TMC2    C3 2301   4.067   4.402   9.844 -0.6444 -0.5732 -0.3155
  148TMC2    C4 2302   3.963   4.331  10.092 -0.6052  0.4980  0.0668
  148TMC2    C5 2303   3.990   4.234   9.991  0.7647 -0.1992  0.4025
  148TMC2    C6 2304   4.041   4.265   9.861  0.1375  0.0887  0.1605
  148TMC2     C 2305   3.935   4.564  10.153  0.1777 -0.3297  0.1278
  148TMC2     O 2306   3.959   4.680  10.126  0.0614 -0.1464  0.0188
  148TMC2     H 2307   4.017   4.598   9.894 -0.7825  0.0954  0.5223
  148TMC2    H1 2308   3.945   4.304  10.195 -0.2618  0.4230  0.1062
  148TMC2    H2 2309   4.084   4.183   9.804  1.1414  0.4478  0.4053
  148TMC2    C7 2310   3.925   4.110  10.017 -0.0871  0.0707 -0.1142
  148TMC2    C8 2311   4.098   4.449   9.714 -0.3286  0.7721  0.0143
  148TMC2    O1 2312   3.882   4.094  10.132 -0.6555  0.6666 -0.0652
  148TMC2    O2 2313   4.132   4.567   9.702  0.7637  0.5494 -0.1385
  148TMC2    O5 2314   4.125   4.347   9.629  0.2587 -0.3715  0.4808
  148TMC2    H5 2315   4.058   4.275   9.629 -1.2823  1.0684  0.5510
  149MPD2     C 2316   3.767   4.725  10.338 -0.3741  0.1408  0.0056
  149MPD2    C1 2317   3.748   4.587  10.315  0.2934 -0.4092 -0.4992
  149MPD2    C2 2318   3.645   4.519  10.377  0.6660 -0.2457 -0.3640
  149MPD2    C3 2319   3.555   4.592  10.459 -0.2902 -0.3187 -0.4670
  149MPD2    C4 2320   3.582   4.720  10.495  0.4580 -0.1869  0.3814
  149MPD2    C5 2321   3.691   0.041  10.440 -0.1919  0.0530 -0.3170
  149MPD2     H 2322   3.619   4.417  10.353  1.2465 -0.1774 -1.2751
  149MPD2    H1 2323   3.509   0.038  10.549  0.8887  1.1032 -0.4255
  149MPD2    H2 2324   3.846   0.040  10.288 -0.7621  0.3962 -0.3292
  149MPD2    H3 2325   3.710   0.142  10.475 -0.1533  0.2816 -1.0107
  149MPD2     N 2326   3.432   4.530  10.511  0.6982  0.0754 -0.0546
  149MPD2    H5 2327   3.364   4.601  10.537  1.9439  0.7885  1.2526
  149MPD2    N1 2328   3.828   4.511  10.225  0.2699  0.4311 -1.1180
  149MPD2    H7 2329   3.807   4.412  10.221 -0.1343  0.4843 -0.0470
  150TMC2    C1 2330   0.931   3.502  12.544  0.3337  0.1825 -0.1009
  150TMC2    C2 2331   0.846   3.603  12.586 -0.1236  0.1360 -0.1515
  150TMC2    C3 2332   0.907   3.718  12.627  0.2052  0.1960 -0.4696
  150TMC2    C4 2333   1.066   3.518  12.532  0.9530  0.0670  0.6559
  150TMC2    C5 2334   1.116   3.642  12.578  0.5208 -0.7236 -0.5198
  150TMC2    C6 2335   1.038   3.744  12.625  0.6786  0.0615  0.0962
  150TMC2     C 2336   0.875   3.380  12.492  0.3222 -0.0894  0.6281
  150TMC2     O 2337   0.943   3.282  12.499  0.0412 -0.1201 -0.3830
  150TMC2     H 2338   0.738   3.595  12.587  0.0123 -1.7777 -0.9508
  150TMC2    H1 2339   1.126   3.441  12.483 -0.7761 -1.4784  0.9686
  150TMC2    H2 2340   1.082   3.840  12.650  0.3794  1.2296 -3.7277
  150TMC2    C7 2341   1.260   3.664  12.577 -0.3990  0.2981 -0.6161
  150TMC2    C8 2342   0.832   3.795  12.717  0.4819 -0.0013  0.0965
  150TMC2    O1 2343   1.290   3.775  12.606  0.1705 -0.2069 -0.0304
  150TMC2    O2 2344   0.714   3.820  12.703  0.1528 -0.1222 -0.3012
  150TMC2    O5 2345   0.889   3.754  12.831  0.3731  0.7997 -0.0914
  150TMC2    H5 2346   0.972   3.703  12.823 -0.0296 -0.0470  1.1620
  151MPD2     C 2347   0.529   3.111  12.228 -0.1062  0.2753  0.4958
  151MPD2    C1 2348   0.514   3.239  12.185 -0.9066 -0.1309 -0.0654
  151MPD2    C2 2349   0.589   3.334  12.245  0.2555 -0.4479 -0.2544
  151MPD2    C3 2350   0.682   3.304  12.350  0.2440  0.7664  0.3258
  151MPD2    C4 2351   0.693   3.173  12.390  0.6337  0.1505  0.8158
  151MPD2    C5 2352   0.608   3.084  12.332 -0.1090  0.2745 -0.3339
  151MPD2     H 2353   0.584   3.437  12.213  2.5670 -0.2797 -0.0998
  151MPD2    H1 2354   0.761   3.132  12.464  1.9543  2.6433  0.9737
  151MPD2    H2 2355   0.479   3.030  12.175  1.4728  0.3476 -1.1005
  151MPD2    H3 2356   0.611   2.982  12.370 -2.1882  0.3596  0.0860
  151MPD2     N 2357   0.766   3.406  12.408  0.3386  0.3343  0.2713
  151MPD2    H5 2358   0.740   3.502  12.385  0.4827  0.3934  0.3560
  151MPD2    N1 2359   0.426   3.260  12.079 -0.1986  0.2443  0.2087
  151MPD2    H7 2360   0.367   3.187  12.042 -1.1026  1.0384  0.0731
  152TMC2    C1 2361   1.013   3.208  12.894  0.5261  0.4259 -0.5852
  152TMC2    C2 2362   1.105   3.113  12.939  0.3689 -0.6742 -0.1196
  152TMC2    C3 2363   1.229   3.159  12.967 -0.4094 -0.2928  0.3777
  152TMC2    C4 2364   1.048   3.339  12.878 -0.2159 -0.3116  0.2176
  152TMC2    C5 2365   1.173   3.382  12.911  1.0998  0.5470  0.3627
  152TMC2    C6 2366   1.270   3.288  12.954  0.1083  0.1951 -0.0299
  152TMC2     C 2367   0.874   3.177  12.897  0.4237 -0.8454  0.0916
  152TMC2     O 2368   0.806   3.261  12.842  0.1339  0.2490 -0.4436
  152TMC2     H 2369   1.087   3.006  12.945  1.3152 -0.7495  1.2525
  152TMC2    H1 2370   0.973   3.416  12.890  0.4286  0.6030 -1.5493
  152TMC2    H2 2371   1.377   3.306  12.952  0.3966 -1.5575 -0.1335
  152TMC2    C7 2372   1.199   3.528  12.906  0.5472  0.2227 -0.3194
  152TMC2    C8 2373   1.307   3.061  13.038 -0.7245 -0.2630 -0.2017
  152TMC2    O1 2374   1.107   3.599  12.882 -0.6701 -0.7159 -0.3606
  152TMC2    O2 2375   1.279   2.942  13.055 -0.0101 -0.0457  0.0840
  152TMC2    O5 2376   1.388   3.127  13.118  0.3760 -0.0107 -0.4942
  152TMC2    H5 2377   1.415   3.217  13.090  0.3031 -0.3839 -1.7791
  153MPD2     C 2378   0.714   2.897  13.071  0.2446  0.0997 -0.4536
  153MPD2    C1 2379   0.718   3.004  12.988 -0.7090 -0.2325  0.6642
  153MPD2    C2 2380   0.606   3.034  12.912 -1.0722  0.7739  0.6501
  153MPD2    C3 2381   0.487   2.961  12.919  0.3888  0.6615 -0.6870
  153MPD2    C4 2382   0.491   2.855  13.009  0.7806  0.6129 -0.1549
  153MPD2    C5 2383   0.599   2.818  13.084 -0.3132  0.0675  0.4781
  153MPD2     H 2384   0.601   3.127  12.858  2.6134  0.6265  0.0615
  153MPD2    H1 2385   0.408   2.786  13.017 -1.2266  2.6970 -2.6962
  153MPD2    H2 2386   0.805   2.870  13.123 -0.1033  0.3687  0.2885
  153MPD2    H3 2387   0.608   2.730  13.146  1.5901 -1.2275 -1.6422
  153MPD2     N 2388   0.372   2.986  12.845 -0.8720  0.1005 -0.4562
  153MPD2    H5 2389   0.382   3.070  12.790  1.7232  0.2463  0.2205
  153MPD2    N1 2390   0.847   3.069  12.985 -0.1710  0.0661 -1.0187
  153MPD2    H7 2391   0.917   3.047  13.055 -0.3276 -2.3761 -1.6319
  154TMC2    C1 2392   1.142   4.256   0.326 -0.0359 -0.2135 -0.9753
  154TMC2    C2 2393   1.095   4.380   0.359 -0.2681  0.5611 -0.2665
  154TMC2    C3 2394   1.111   4.482   0.281  0.8238  0.7691  0.1880
  154TMC2    C4 2395   1.186   4.238   0.196 -0.2051 -0.8321  0.1110
  154TMC2    C5 2396   1.178   4.340   0.108 -0.1298 -0.3182  0.3463
  154TMC2    C6 2397   1.162   4.474   0.154 -0.2902  0.3640  0.4000
  154TMC2     C 2398   1.105   4.145   0.411 -0.3404 -0.0562 -0.9723
  154TMC2     O 2399   1.017   4.171   0.491 -0.2628  0.2780 -0.4477
  154TMC2     H 2400   1.055   4.392   0.459 -0.9768 -1.0963 -0.3413
  154TMC2    H1 2401   1.185   4.135   0.162 -0.5663 -1.1340  1.0427
  154TMC2    H2 2402   1.185   4.558   0.091  0.8517 -0.9602 -0.9391
  154TMC2    C7 2403   1.201   4.319  17.731 -0.7470  0.1911 -0.9250
  154TMC2    C8 2404   1.096   4.609   0.352 -0.4374  1.1737 -0.2229
  154TMC2    O1 2405   1.242   4.208  17.694 -0.6058 -0.1502  0.1700
  154TMC2    O2 2406   1.118   4.619   0.472  0.8788  0.1701 -0.0881
  154TMC2    O5 2407   1.044   4.707   0.277 -0.3940 -0.3592  0.1942
  154TMC2    H5 2408   1.016   4.656   0.198  2.3834 -1.1926 -0.2405
  155MPD2     C 2409   1.234   3.792   0.445  0.2370  0.2371  0.3761
  155MPD2    C1 2410   1.184   3.917   0.477  0.0556 -0.3799  0.2546
  155MPD2    C2 2411   1.128   3.925   0.605 -0.2006  0.1974 -0.3951
  155MPD2    C3 2412   1.122   3.815   0.691 -0.1890  0.3098 -0.9300
  155MPD2    C4 2413   1.182   3.700   0.650  0.0675  0.5033  0.5078
  155MPD2    C5 2414   1.232   3.686   0.524 -0.0080 -0.0071 -0.2288
  155MPD2     H 2415   1.084   4.020   0.633  0.0352 -0.1619  1.1958
  155MPD2    H1 2416   1.186   3.604   0.700 -1.2296  0.1092 -0.1594
  155MPD2    H2 2417   1.267   3.771   0.344 -1.4569  0.8744 -0.3115
  155MPD2    H3 2418   1.276   3.596   0.483  0.5965  0.1635  0.0483
  155MPD2     N 2419   1.054   3.826   0.813  0.1876  0.0104  0.1331
  155MPD2    H5 2420   1.031   3.921   0.839 -0.3119  0.2574 -1.2004
  155MPD2    N1 2421   1.180   4.031   0.390  0.2203  0.2374 -0.9205
  155MPD2    H7 2422   1.234   4.023   0.305 -0.3047 -1.8257 -1.0572
  156TMC2    C1 2423   0.986   1.380  11.663  0.7243 -0.2564  0.1455
  156TMC2    C2 2424   0.984   1.277  11.572  0.2805  0.1353  0.2373
  156TMC2    C3 2425   0.945   1.303  11.444  0.5593  0.3802  0.8817
  156TMC2    C4 2426   0.940   1.509  11.637  0.2176 -1.0103  0.1803
  156TMC2    C5 2427   0.901   1.534  11.504  0.1190 -0.2270  1.3380
  156TMC2    C6 2428   0.912   1.435  11.408  0.0312 -0.8653 -0.3852
  156TMC2     C 2429   1.004   1.357  11.812 -0.2244 -0.4460  0.0913
  156TMC2     O 2430   0.933   1.426  11.888 -0.2796  0.3968  0.5375
  156TMC2     H 2431   1.005   1.176  11.608 -2.2088 -0.9577 -1.4040
  156TMC2    H1 2432   0.937   1.580  11.719  0.9993 -0.7045 -0.0505
  156TMC2    H2 2433   0.890   1.456  11.304 -0.0642 -1.8820 -0.5753
  156TMC2    C7 2434   0.881   1.664  11.457 -0.0898  0.1900 -0.0918
  156TMC2    C8 2435   0.988   1.209  11.354  0.0967  0.6129  0.2069
  156TMC2    O1 2436   0.919   1.678  11.341  0.0860 -0.6818  0.1587
  156TMC2    O2 2437   0.989   1.092  11.387 -0.1420  0.0446 -0.2526
  156TMC2    O5 2438   1.012   1.262  11.227  0.1190  0.7853  0.5793
  156TMC2    H5 2439   1.021   1.358  11.206 -0.1824  0.2512 -1.9855
  157MPD2     C 2440   1.248   1.132  11.983  0.7616 -0.6999 -0.2537
  157MPD2    C1 2441   1.155   1.239  11.973 -0.2229 -0.0426 -0.8500
  157MPD2    C2 2442   1.133   1.314  12.082 -0.0785  0.4891  0.4320
  157MPD2    C3 2443   1.202   1.291  12.201 -0.5041 -0.0812  0.2223
  157MPD2    C4 2444   1.270   1.177  12.215 -0.7219  0.6538 -0.0350
  157MPD2    C5 2445   1.297   1.103  12.102  0.2677  0.8095 -0.7631
  157MPD2     H 2446   1.067   1.400  12.081 -1.0306 -0.2358  1.9826
  157MPD2    H1 2447   1.326   1.151  12.304  0.0455  1.3433 -0.3177
  157MPD2    H2 2448   1.251   1.060  11.901  0.1472 -1.6958  0.5974
  157MPD2    H3 2449   1.359   1.013  12.106 -1.0382  0.0129  1.5525
  157MPD2     N 2450   1.198   1.383  12.306  0.0309 -0.2886 -0.5347
  157MPD2    H5 2451   1.143   1.468  12.297 -1.7814 -1.6289 -1.8034
  157MPD2    N1 2452   1.094   1.253  11.846  0.0553 -0.2966  0.3792
  157MPD2    H7 2453   1.142   1.199  11.775  2.5979  3.9175 -1.1039
  158TMC2    C1 2454   0.693   4.567  13.119  0.2117  0.1960  0.2145
  158TMC2    C2 2455   0.693   4.679  13.044  0.6638  0.6249  0.0373
  158TMC2    C3 2456   0.569   4.727  13.014  0.0157  0.1544 -0.6313
  158TMC2    C4 2457   0.577   4.504  13.164  0.5867 -0.0492 -0.2687
  158TMC2    C5 2458   0.455   4.549  13.125  0.2740 -0.5003 -0.3042
  158TMC2    C6 2459   0.452   4.667  13.051  0.4294 -0.7558 -0.1185
  158TMC2     C 2460   0.817   4.530  13.186  0.7849  0.1389  0.5918
  158TMC2     O 2461   0.918   4.593  13.153  0.2193 -0.5461 -0.0732
  158TMC2     H 2462   0.784   4.729  13.014  0.0302  0.5067 -2.1126
  158TMC2    H1 2463   0.589   4.404  13.204  1.0926 -0.3607 -1.2014
  158TMC2    H2 2464   0.357   4.718  13.040  0.5546 -0.1738  1.6010
  158TMC2    C7 2465   0.327   4.510  13.184 -0.1895 -0.6500 -0.4414
  158TMC2    C8 2466   0.567   0.092  12.919 -0.4557  0.4480  0.1117
  158TMC2    O1 2467   0.238   4.596  13.175  0.0461 -0.1062  0.1372
  158TMC2    O2 2468   0.652   0.103  12.836  0.5409 -0.7485 -0.1577
  158TMC2    O5 2469   0.544   0.192  13.000 -0.1598  0.2159  0.3301
  158TMC2    H5 2470   0.496   0.171  13.083  1.0719 -1.6624  0.5569
  159MPD2     C 2471   1.078   4.305  13.572 -0.0103  0.0879 -0.7358
  159MPD2    C1 2472   0.945   4.272  13.577  0.2267  0.1100 -0.5097
  159MPD2    C2 2473   0.861   4.332  13.491  0.0158  0.5093  0.3111
  159MPD2    C3 2474   0.900   4.411  13.383  0.5521 -0.1789 -0.3176
  159MPD2    C4 2475   1.032   4.452  13.378  0.5979  0.6031  0.3045
  159MPD2    C5 2476   1.118   4.393  13.468 -0.6964  0.0080  1.4197
  159MPD2     H 2477   0.754   4.318  13.497  0.7516 -4.2909  1.7672
  159MPD2    H1 2478   1.072   4.522  13.305 -0.8389  0.8910 -0.2083
  159MPD2    H2 2479   1.156   4.272  13.641 -0.9620  2.2881  1.3855
  159MPD2    H3 2480   1.220   4.428  13.472  0.0190 -1.6613 -1.9649
  159MPD2     N 2481   0.796   4.453  13.296  0.2365 -0.4390 -0.0739
  159MPD2    H5 2482   0.703   4.418  13.318  0.1715  0.3320  0.8585
  159MPD2    N1 2483   0.894   4.196  13.685  0.1463 -1.0082  0.4936
  159MPD2    H7 2484   0.954   4.154  13.755  1.4387 -0.7740 -0.4758
  160TMC2    C1 2485   0.897   2.552   1.278 -0.8358 -0.3890  0.0044
  160TMC2    C2 2486   0.959   2.492   1.386 -0.1715  0.0495  0.6009
  160TMC2    C3 2487   1.047   2.566   1.457  0.0271  0.8102  0.0559
  160TMC2    C4 2488   0.928   2.675   1.231  0.0502  0.2620  0.1027
  160TMC2    C5 2489   1.021   2.738   1.304  0.5250 -0.5157 -0.2733
  160TMC2    C6 2490   1.085   2.688   1.418  0.7480 -0.0271 -0.5439
  160TMC2     C 2491   0.761   2.500   1.254 -0.3895 -0.4473 -0.3672
  160TMC2     O 2492   0.738   2.389   1.300 -0.3331  0.3136 -0.1370
  160TMC2     H 2493   0.936   2.390   1.415  1.9536 -0.8558 -0.8335
  160TMC2    H1 2494   0.891   2.720   1.139  0.0186  1.8299  0.8809
  160TMC2    H2 2495   1.183   2.724   1.447  1.1623 -0.3192 -1.5808
  160TMC2    C7 2496   1.083   2.855   1.247 -0.4613 -0.1398  0.3220
  160TMC2    C8 2497   1.146   2.483   1.523 -0.3921  1.1084 -0.1924
  160TMC2    O1 2498   1.088   2.868   1.129 -0.0597  0.2061 -0.0334
  160TMC2    O2 2499   1.169   2.370   1.491  0.4987 -0.0178 -0.5144
  160TMC2    O5 2500   1.196   2.544   1.634 -0.3446  0.4271  0.0629
  160TMC2    H5 2501   1.134   2.615   1.663  1.2531  0.5488  3.1192
  161MPD2     C 2502   0.470   2.481   1.212  0.3968 -0.1533  0.1663
  161MPD2    C1 2503   0.542   2.603   1.206 -0.3483 -0.3756  0.3084
  161MPD2    C2 2504   0.479   2.722   1.177 -0.2644  0.3472 -0.2466
  161MPD2    C3 2505   0.354   2.726   1.123  0.0412  0.2669 -0.2573
  161MPD2    C4 2506   0.289   2.602   1.133 -0.6277  0.0601 -0.5875
  161MPD2    C5 2507   0.334   2.484   1.183 -0.2966  0.4867 -0.0340
  161MPD2     H 2508   0.542   2.810   1.162  0.1491  0.0025 -0.5415
  161MPD2    H1 2509   0.190   2.596   1.089 -0.0005  0.8931 -2.1070
  161MPD2    H2 2510   0.515   2.384   1.229 -0.0732  0.2317  3.6393
  161MPD2    H3 2511   0.279   2.391   1.171 -1.2871  1.0535  0.2080
  161MPD2     N 2512   0.282   2.839   1.077  0.3330  0.6784  0.1401
  161MPD2    H5 2513   0.186   2.823   1.046  0.1940 -0.4121  1.1449
  161MPD2    N1 2514   0.683   2.607   1.227  0.1012 -0.5597  0.3596
  161MPD2    H7 2515   0.723   2.701   1.225 -0.9388 -0.0822  2.1549
  162TMC2    C1 2516   3.718   4.660   1.394 -0.9454  0.1597  0.8715
  162TMC2    C2 2517   3.748   0.029   1.473 -0.6037 -0.3592  0.6560
  162TMC2    C3 2518   3.673   0.037   1.585  0.1562  0.5042 -1.0482
  162TMC2    C4 2519   3.627   4.567   1.433 -0.3656  0.1959 -0.2011
  162TMC2    C5 2520   3.571   4.574   1.560  0.7865 -0.6504  0.8086
  162TMC2    C6 2521   3.584   4.685   1.642  0.5017 -0.5445  0.3372
  162TMC2     C 2522   3.760   4.654   1.258  0.6138  0.1721 -0.0872
  162TMC2     O 2523   3.694   4.577   1.192 -0.0085  0.1954  0.1567
  162TMC2     H 2524   3.799   0.115   1.432 -1.9240 -0.5186 -1.3228
  162TMC2    H1 2525   3.600   4.481   1.372  1.2571 -1.3935  1.3348
  162TMC2    H2 2526   3.526   4.706   1.731 -1.3816  1.7870 -1.4372
  162TMC2    C7 2527   3.515   4.451   1.623 -0.1496 -0.3324  0.5992
  162TMC2    C8 2528   3.696   0.152   1.663  0.5756  0.0629  0.4164
  162TMC2    O1 2529   3.428   4.472   1.706  0.0217  0.0404 -0.4023
  162TMC2    O2 2530   3.804   0.203   1.684 -0.5691  0.9056  0.3447
  162TMC2    O5 2531   3.575   0.209   1.689  0.0301 -0.6232 -0.6528
  162TMC2    H5 2532   3.504   0.154   1.650 -1.1207  0.5532 -0.2095
  163MPD2     C 2533   4.092   4.733   0.874  0.1967  0.6347  0.3449
  163MPD2    C1 2534   3.972   4.672   0.874 -0.2069  0.2939 -0.3364
  163MPD2    C2 2535   3.899   4.677   0.992 -0.2410 -0.8744 -0.0088
  163MPD2    C3 2536   3.948   4.730   1.110  0.1037 -0.3767 -0.0742
  163MPD2    C4 2537   4.066   0.061   1.104 -0.1562 -0.3031 -0.6346
  163MPD2    C5 2538   4.136   0.060   0.986 -0.0114 -0.1264  0.5370
  163MPD2     H 2539   3.799   4.635   0.997 -1.1780  0.9233 -3.7318
  163MPD2    H1 2540   4.114   0.101   1.193  1.1476 -0.4576 -1.2815
  163MPD2    H2 2541   4.161   0.003   0.791 -0.4307 -0.0954 -0.2631
  163MPD2    H3 2542   4.228   0.116   0.981  0.2550 -0.5403  0.7578
  163MPD2     N 2543   3.872   4.720   1.232 -0.1303  0.6211 -0.4286
  163MPD2    H5 2544   3.918   0.016   1.315 -1.5191 -0.9779  1.0588
  163MPD2    N1 2545   3.938   4.602   0.760 -0.4139  0.6789  0.0595
  163MPD2    H7 2546   4.011   4.612   0.690 -0.3556  1.8899  0.2965
  164TMC2    C1 2547   3.997   0.099  10.620 -0.6848 -0.0435 -0.8172
  164TMC2    C2 2548   4.016   0.182  10.515 -0.0678  0.3926  0.0564
  164TMC2    C3 2549   3.955   0.305  10.524 -0.0538  0.8673  0.7421
  164TMC2    C4 2550   3.933   0.136  10.735  0.4888 -0.1267 -0.2115
  164TMC2    C5 2551   3.881   0.252  10.741  0.1907 -0.8220 -1.0054
  164TMC2    C6 2552   3.893   0.347  10.639  0.4098 -0.3325  0.4335
  164TMC2     C 2553   4.049   4.704  10.619  0.4627  0.4216  0.3996
  164TMC2     O 2554   3.991   4.619  10.685 -0.4375 -0.4445  0.0631
  164TMC2     H 2555   4.050   0.150  10.417  0.0786 -0.5025  0.4020
  164TMC2    H1 2556   3.925   0.064  10.816 -1.3495  1.0260  0.6123
  164TMC2    H2 2557   3.836   0.439  10.643  1.2519  0.2483 -0.7037
  164TMC2    C7 2558   3.762   0.262  10.814  0.1863 -0.0891  0.6738
  164TMC2    C8 2559   3.918   0.366  10.398 -0.4511 -0.3695  0.9857
  164TMC2    O1 2560   3.669   0.321  10.759 -0.3973 -0.6371 -0.4627
  164TMC2    O2 2561   3.926   0.314  10.289  0.6169  0.0476  0.4768
  164TMC2    O5 2562   3.956   0.492  10.424  0.2160  0.0336  0.2117
  164TMC2    H5 2563   3.995   0.512  10.512 -0.8704  0.5090  0.5845
  165TMC2    C1 2564   0.136   1.857   0.881  0.6765 -0.6742 -0.8920
  165TMC2    C2 2565   0.106   1.816   0.752 -0.5438 -0.4056 -0.0308
  165TMC2    C3 2566   0.205   1.786   0.668 -0.6309 -0.2660  0.1743
  165TMC2    C4 2567   0.266   1.847   0.928 -0.0384 -0.3162  0.1236
  165TMC2    C5 2568   0.370   1.807   0.843 -0.0035 -0.3014  0.3814
  165TMC2    C6 2569   0.333   1.776   0.711 -0.5542  0.0238 -0.0600
  165TMC2     C 2570   0.036   1.851   0.982  0.2677  0.1064 -0.2072
  165TMC2     O 2571   0.053   1.762   1.066 -0.0797 -0.4438 -0.1640
  165TMC2     H 2572   0.003   1.834   0.721 -1.0559  0.9837  2.3771
  165TMC2    H1 2573   0.287   1.885   1.027  0.5693  1.2175 -0.6008
  165TMC2    H2 2574   0.408   1.763   0.634 -0.3246 -0.6215  0.2765
  165TMC2    C7 2575   0.502   1.852   0.876  0.3765  0.9357 -0.5214
  165TMC2    C8 2576   0.183   1.740   0.530 -0.2579  0.1874  0.4475
  165TMC2    O1 2577   0.515   1.958   0.940 -0.5821  0.2483 -0.2985
  165TMC2    O2 2578   0.266   1.731   0.440 -0.4154  0.0434  0.4004
  165TMC2    O5 2579   0.070   1.663   0.534 -0.5577  0.0831 -0.0442
  165TMC2    H5 2580   0.024   1.649   0.619 -0.4068 -1.0775 -0.1400
  166MPD2     C 2581   4.311   1.907   1.175 -0.5534 -0.1870  0.1348
  166MPD2    C1 2582   4.383   1.790   1.166  0.4811 -0.0948 -0.4278
  166MPD2    C2 2583   4.493   1.787   1.084 -0.4032  0.5139  0.5999
  166MPD2    C3 2584   4.534   1.896   1.007 -0.5159 -0.9133 -0.4793
  166MPD2    C4 2585   4.458   2.012   1.013 -0.1378 -0.5882 -0.4778
  166MPD2    C5 2586   4.348   2.016   1.097  0.1503  0.6493 -0.1734
  166MPD2     H 2587   4.559   1.701   1.091  0.9051  1.5121  0.3530
  166MPD2    H1 2588   4.493   2.102   0.963 -1.0949 -0.4985 -0.9821
  166MPD2    H2 2589   4.230   1.921   1.245 -1.3597  0.6251 -0.9567
  166MPD2    H3 2590   4.288   2.106   1.093  0.5307  0.8953 -0.2865
  166MPD2     N 2591   4.659   1.910   0.946  0.1756  0.2597 -0.1379
  166MPD2    H5 2592   4.654   1.989   0.883  4.0929  2.2862  2.1124
  166MPD2    N1 2593   4.332   1.673   1.233  0.0619  0.1782  0.0801
  166MPD2    H7 2594   4.242   1.696   1.273 -0.9191  0.3267 -2.1955
  167TMC2    C1 2595   3.263   4.199  12.459 -0.2595 -0.4572 -0.0570
  167TMC2    C2 2596   3.189   4.232  12.567 -0.0740 -0.5594 -0.5247
  167TMC2    C3 2597   3.071   4.173  12.581 -0.0931  0.3143 -0.0848
  167TMC2    C4 2598   3.224   4.111  12.361  1.0386 -0.0238 -0.0910
  167TMC2    C5 2599   3.103   4.042  12.384  0.3060  0.1695  0.4184
  167TMC2    C6 2600   3.030   4.080  12.493 -0.3263 -0.4075  0.4723
  167TMC2     C 2601   3.382   4.281  12.430 -0.1283 -0.2839  0.2521
  167TMC2     O 2602   3.424   4.356  12.523  0.2317  0.5731 -0.4817
  167TMC2     H 2603   3.228   4.302  12.640 -1.9553  1.0458 -1.0772
  167TMC2    H1 2604   3.292   4.070  12.288 -1.1234 -2.0012 -0.9967
  167TMC2    H2 2605   2.929   4.041  12.505  0.4173 -2.0523  1.4384
  167TMC2    C7 2606   3.060   3.917  12.315  0.6539  0.3073  0.8789
  167TMC2    C8 2607   2.972   4.211  12.687  1.4565 -0.4696  0.1441
  167TMC2    O1 2608   2.952   3.869  12.348  0.7849 -0.0612 -0.5146
  167TMC2    O2 2609   2.901   4.125  12.741 -0.0481  0.2638  0.3047
  167TMC2    O5 2610   3.034   4.308  12.758 -0.3993  0.5831  0.8317
  167TMC2    H5 2611   3.074   4.380  12.703  0.6909 -1.8692 -1.5868
  168MPD2     C 2612   3.629   4.417  12.299  0.6850  0.4874  0.1239
  168MPD2    C1 2613   3.534   4.344  12.234 -0.7796 -0.0849 -0.0085
  168MPD2    C2 2614   3.545   4.307  12.105 -0.0457 -1.1535 -0.4537
  168MPD2    C3 2615   3.647   4.355  12.025  1.0704 -0.6805 -0.6064
  168MPD2    C4 2616   3.745   4.437  12.091 -0.3503 -0.2639  0.3705
  168MPD2    C5 2617   3.736   4.467  12.226 -0.8047 -1.0105  0.5146
  168MPD2     H 2618   3.463   4.253  12.059 -1.3461  1.5255 -1.2831
  168MPD2    H1 2619   3.821   4.476  12.025 -0.4447  0.6663  0.8090
  168MPD2    H2 2620   3.617   4.448  12.402 -1.9577 -1.8256  0.5236
  168MPD2    H3 2621   3.817   4.525  12.271 -0.5017  0.6476 -2.1993
  168MPD2     N 2622   3.660   4.312  11.891  0.0701 -0.4564  0.3028
  168MPD2    H5 2623   3.747   4.338  11.847 -1.2731  1.4987 -1.1885
  168MPD2    N1 2624   3.421   4.282  12.297  0.2308  0.7627  0.0860
  168MPD2    H7 2625   3.349   4.236  12.242 -0.2958 -0.4820  1.8110
  169MPD1     C 2626   4.288   3.778   9.165 -0.4649 -1.0713  0.0312
  169MPD1    C1 2627   4.395   3.864   9.184  1.3884  0.9292  0.4182
  169MPD1    C2 2628   4.491   3.831   9.282  0.5450  0.1524 -0.2120
  169MPD1    C3 2629   4.476   3.718   9.362  0.5508 -0.2173  0.1149
  169MPD1    C4 2630   4.368   3.632   9.329  0.0111 -0.0086 -0.3110
  169MPD1    C5 2631   4.277   3.657   9.233 -0.1631 -0.1334 -0.1627
  169MPD1     H 2632   4.574   3.900   9.297  0.3518  0.2541  0.3746
  169MPD1    H1 2633   4.359   3.535   9.376  1.8974  0.4082  0.8915
  169MPD1    H2 2634   4.209   3.804   9.095 -0.1753  1.8533  0.7608
  169MPD1    H3 2635   4.193   3.595   9.205 -0.8303 -0.4196  2.4369
  169MPD1     N 2636   4.582   3.680   9.450 -0.2344  0.0630  0.4289
  169MPD1    H5 2637   4.669   3.732   9.452  0.2543 -0.6709 -1.8175
  169MPD1    N1 2638   4.412   3.967   9.093 -0.8762  0.1091 -0.1902
  169MPD1    H6 2639   4.326   3.984   9.041 -0.8828  2.1269  0.5018
  169MPD1    H7 2640   4.445   4.052   9.138 -0.6385  0.2074 -0.5483
  170MPD1     C 2641   4.184   1.447  12.652  0.2240  0.3711 -0.2971
  170MPD1    C1 2642   4.288   1.386  12.709 -0.3028  0.1314  0.1025
  170MPD1    C2 2643   4.323   1.443  12.832  0.0442  0.2012 -0.6764
  170MPD1    C3 2644   4.258   1.546  12.894 -0.3510 -0.1949  0.2226
  170MPD1    C4 2645   4.149   1.600  12.822 -0.0561  0.1683  0.4418
  170MPD1    C5 2646   4.100   1.549  12.710  0.4686 -0.1533  0.4355
  170MPD1     H 2647   4.411   1.403  12.881 -1.3233 -0.9744  0.8438
  170MPD1    H1 2648   4.090   1.679  12.867 -0.1850  1.4794 -2.0268
  170MPD1    H2 2649   4.164   1.416  12.550 -1.6536  0.5656  0.0180
  170MPD1    H3 2650   4.009   1.583  12.662 -0.0151 -1.1585  0.6408
  170MPD1     N 2651   4.314   1.595  13.015 -0.1959 -1.0086  0.6030
  170MPD1    H5 2652   4.388   1.544  13.063  0.8710 -0.0732 -0.0489
  170MPD1    N1 2653   4.374   1.295  12.641  0.0143 -0.0078  0.3683
  170MPD1    H6 2654   4.425   1.231  12.701 -2.8248 -2.6897 -0.0423
  170MPD1    H7 2655   4.337   1.236  12.567  0.4470  0.3125 -0.1019
  171MPD1     C 2656   2.298   3.053  15.557  0.6311 -0.0609 -0.1715
  171MPD1    C1 2657   2.381   3.061  15.668  0.4151  0.1915 -0.6773
  171MPD1    C2 2658   2.487   2.968  15.687 -0.3721 -0.2715  0.4597
  171MPD1    C3 2659   2.526   2.892  15.578 -0.9323 -0.2783 -0.1218
  171MPD1    C4 2660   2.446   2.887  15.468 -0.5147  0.1522  0.0069
  171MPD1    C5 2661   2.329   2.967  15.460  0.4769  0.3551 -0.3196
  171MPD1     H 2662   2.534   2.967  15.785 -1.9183  0.7606  1.2144
  171MPD1    H1 2663   2.474   2.819  15.389  0.4664  0.1153  0.3934
  171MPD1    H2 2664   2.209   3.115  15.554  0.8544  0.4595  3.6333
  171MPD1    H3 2665   2.266   2.969  15.372 -0.4027 -2.2871  0.2714
  171MPD1     N 2666   2.647   2.819  15.577  0.3798  0.3923 -0.0585
  171MPD1    H5 2667   2.674   2.774  15.490  0.5409  0.7047 -0.1712
  171MPD1    N1 2668   2.349   3.141  15.776 -0.7085  0.7943  0.0614
  171MPD1    H6 2669   2.300   3.226  15.749  2.7914  3.3305  1.7250
  171MPD1    H7 2670   2.432   3.153  15.834 -0.6882  1.8531 -0.1926
  172MPD1     C 2671   2.049   0.939   0.520 -0.1662  0.2625 -0.1372
  172MPD1    C1 2672   1.960   1.003   0.433 -0.2776 -0.0901 -0.2373
  172MPD1    C2 2673   1.969   1.140   0.435  0.3148  0.1140 -0.1581
  172MPD1    C3 2674   2.052   1.213   0.518  0.6644  0.2881  0.1537
  172MPD1    C4 2675   2.141   1.145   0.598  0.2650 -0.4508 -0.2122
  172MPD1    C5 2676   2.135   1.010   0.596  0.2493  0.6262  0.6620
  172MPD1     H 2677   1.908   1.190   0.361  0.2566  0.9159  0.4379
  172MPD1    H1 2678   2.213   1.195   0.661 -0.6708 -1.5961  1.7913
  172MPD1    H2 2679   2.040   0.831   0.532 -0.0201  0.3885  1.0989
  172MPD1    H3 2680   2.192   0.951   0.666  1.3760 -0.3182 -1.0367
  172MPD1     N 2681   2.048   1.352   0.517 -0.3522  0.1686  0.6994
  172MPD1    H5 2682   2.105   1.390   0.593  0.5304 -1.5973  0.9299
  172MPD1    N1 2683   1.889   0.935   0.336 -0.4687  0.0197 -0.0259
  172MPD1    H6 2684   1.807   0.988   0.307 -0.9706 -0.9459 -0.3753
  172MPD1    H7 2685   1.849   0.847   0.369 -1.1856 -0.0158 -1.0156
  173MPD1     C 2686   3.760   2.087  13.576  0.3848 -0.1818 -0.0377
  173MPD1    C1 2687   3.785   1.964  13.632 -0.1798 -0.1322  0.2600
  173MPD1    C2 2688   3.769   1.958  13.768  1.2147  0.5599  0.3240
  173MPD1    C3 2689   3.717   2.056  13.848 -0.2187  0.3319 -0.2757
  173MPD1    C4 2690   3.681   2.177  13.789 -0.8067  0.2835  0.1273
  173MPD1    C5 2691   3.703   2.189  13.655  0.0282 -0.1891  0.2582
  173MPD1     H 2692   3.786   1.858  13.807 -2.0669 -0.6305 -1.2387
  173MPD1    H1 2693   3.647   2.261  13.848 -0.9079 -1.7322  2.9662
  173MPD1    H2 2694   3.790   2.102  13.473 -2.0552 -2.1131 -1.0211
  173MPD1    H3 2695   3.657   2.275  13.608  0.7222 -0.3965 -0.7831
  173MPD1     N 2696   3.701   2.020  13.985  0.0689  0.2099  0.5350
  173MPD1    H5 2697   3.730   1.927  14.014  0.6259 -0.2288 -1.4644
  173MPD1    N1 2698   3.845   1.861  13.562 -0.1027  0.3849  0.1717
  173MPD1    H6 2699   3.848   1.863  13.461  2.0184  1.0078  0.2375
  173MPD1    H7 2700   3.831   1.770  13.605  2.0782 -0.3740 -0.7406
  174MPD1     C 2701   3.558   1.204  14.501 -0.4768 -0.0897  0.1801
  174MPD1    C1 2702   3.572   1.253  14.370 -0.4593  0.0351  0.7301
  174MPD1    C2 2703   3.596   1.388  14.349 -0.1052  0.3209  0.8059
  174MPD1    C3 2704   3.602   1.478  14.454 -0.0103 -0.0852  0.2152
  174MPD1    C4 2705   3.566   1.431  14.573  0.1885  0.0057  0.4936
  174MPD1    C5 2706   3.549   1.297  14.602  0.4799 -0.0672  0.3220
  174MPD1     H 2707   3.622   1.423  14.250  0.0883  1.1039  1.1325
  174MPD1    H1 2708   3.534   1.488  14.660 -1.1058 -2.1512  1.4358
  174MPD1    H2 2709   3.556   1.097  14.518 -0.5488 -0.0674  0.3085
  174MPD1    H3 2710   3.526   1.271  14.704  2.1776 -3.0058 -0.0431
  174MPD1     N 2711   3.613   1.623  14.436  0.7563 -0.1046  0.1344
  174MPD1    H5 2712   3.586   1.683  14.513 -2.0447  0.8255 -1.5663
  174MPD1    N1 2713   3.615   1.169  14.264 -0.6308 -0.3701 -1.0133
  174MPD1    H6 2714   3.568   1.079  14.271 -1.2852 -0.1673 -2.7390
  174MPD1    H7 2715   3.588   1.197  14.170 -0.7423  0.6215 -0.6790
  175MPD1     C 2716   1.742   3.053  15.481 -0.0467  0.1241 -0.4994
  175MPD1    C1 2717   1.816   2.937  15.509  0.5972 -0.3171  0.2560
  175MPD1    C2 2718   1.790   2.867  15.622 -0.0393  0.2627 -0.5203
  175MPD1    C3 2719   1.686   2.901  15.711  1.1165 -0.2505  0.0434
  175MPD1    C4 2720   1.599   3.009  15.674  0.8618 -0.3695  0.2191
  175MPD1    C5 2721   1.629   3.082  15.559 -0.4558  0.4030  0.3068
  175MPD1     H 2722   1.853   2.781  15.639  0.0239 -0.0670 -2.4670
  175MPD1    H1 2723   1.524   3.040  15.745  0.8541  2.4825 -1.0458
  175MPD1    H2 2724   1.772   3.129  15.410 -1.1438  1.0950  0.0706
  175MPD1    H3 2725   1.576   3.175  15.544  0.2578  0.8748  0.7159
  175MPD1     N 2726   1.657   2.823  15.824  0.2551  0.1641  0.0252
  175MPD1    H5 2727   1.592   2.873  15.884 -0.2801 -1.3142  0.6709
  175MPD1    N1 2728   1.933   2.928  15.431 -0.5259  0.0712  0.1665
  175MPD1    H6 2729   1.908   2.960  15.337  1.0595 -0.6698 -0.5079
  175MPD1    H7 2730   1.979   2.837  15.429  0.1648  0.5069 -3.4021
  176MPD1     C 2731   3.736   0.204  16.252  0.9420  0.5309 -0.3183
  176MPD1    C1 2732   3.628   0.296  16.266  0.5346  0.3849 -0.8616
  176MPD1    C2 2733   3.601   0.329  16.397 -0.3424 -0.1986  0.1706
  176MPD1    C3 2734   3.671   0.265  16.504 -0.0317  0.0552  0.0305
  176MPD1    C4 2735   3.758   0.164  16.485  0.2846  0.2354  0.6219
  176MPD1    C5 2736   3.793   0.133  16.354  0.0382 -0.5928 -0.1426
  176MPD1     H 2737   3.537   0.413  16.420  1.2092  1.6745 -2.4134
  176MPD1    H1 2738   3.811   0.108  16.560  0.9267  1.0030  0.7400
  176MPD1    H2 2739   3.761   0.161  16.156  0.3581  0.5385 -0.4749
  176MPD1    H3 2740   3.873   0.062  16.340  0.8737 -0.3624  3.4293
  176MPD1     N 2741   3.641   0.313  16.636  0.1160  0.0744  0.3237
  176MPD1    H5 2742   3.591   0.401  16.641  0.9105  0.5830 -0.7808
  176MPD1    N1 2743   3.576   0.355  16.153  0.0478 -0.3247 -0.0414
  176MPD1    H6 2744   3.577   0.293  16.073 -0.2348 -0.9401  0.4316
  176MPD1    H7 2745   3.477   0.376  16.162 -0.2947 -1.8771 -0.2190
  177MPD1     C 2746   1.908   4.124   8.564 -0.0622 -0.0318 -0.2202
  177MPD1    C1 2747   1.793   4.052   8.573  0.5133  0.1429  0.1285
  177MPD1    C2 2748   1.710   4.093   8.674  0.0368 -0.7196  0.4845
  177MPD1    C3 2749   1.756   4.173   8.781  0.1117  0.2414 -0.1882
  177MPD1    C4 2750   1.875   4.240   8.774  0.3229 -0.4098  0.1569
  177MPD1    C5 2751   1.955   4.209   8.666  0.0759  0.0737  0.4063
  177MPD1     H 2752   1.604   4.073   8.677 -0.1904  0.2346 -1.5156
  177MPD1    H1 2753   1.916   4.304   8.851 -1.6206 -1.2648  1.9312
  177MPD1    H2 2754   1.984   4.108   8.487  1.0225  1.2162  0.5814
  177MPD1    H3 2755   2.059   4.240   8.660  0.5381 -1.4480  0.5389
  177MPD1     N 2756   1.661   4.209   8.883 -0.2463  0.0210 -0.7409
  177MPD1    H5 2757   1.566   4.177   8.866 -0.2541 -0.6076  0.4939
  177MPD1    N1 2758   1.753   3.980   8.457 -0.0321  0.9709 -0.3594
  177MPD1    H6 2759   1.832   3.947   8.403 -0.0817 -0.1222  0.2583
  177MPD1    H7 2760   1.690   3.903   8.479  0.9813 -0.0664 -1.1040
  178MPD1     C 2761   3.793   1.013   0.241  0.3175 -0.3226  0.0008
  178MPD1    C1 2762   3.741   0.898   0.179  0.5718 -0.2658  0.0030
  178MPD1    C2 2763   3.791   0.867   0.059 -0.3956  0.4625  0.3247
  178MPD1    C3 2764   3.880   0.954  17.747 -0.1378  0.9598  0.8937
  178MPD1    C4 2765   3.914   1.081   0.040  0.2403  0.4443  0.2884
  178MPD1    C5 2766   3.861   1.108   0.167  0.7765 -0.9859  0.1767
  178MPD1     H 2767   3.765   0.771   0.017  1.0338 -0.3749  1.3646
  178MPD1    H1 2768   3.970   1.158  17.749  1.3383 -0.0161  0.8022
  178MPD1    H2 2769   3.768   1.033   0.345  0.6739  0.6254 -0.0910
  178MPD1    H3 2770   3.887   1.198   0.221 -0.6574 -0.4114 -0.1091
  178MPD1     N 2771   3.935   0.923  17.628  0.5047 -0.1487  0.1097
  178MPD1    H5 2772   3.999   0.989  17.586 -0.9337  0.4668 -1.1258
  178MPD1    N1 2773   3.685   0.799   0.261  0.2941  0.2017 -0.8823
  178MPD1    H6 2774   3.628   0.736   0.204 -0.3901  0.3508 -0.3691
  178MPD1    H7 2775   3.623   0.843   0.329  0.5892  0.0984 -0.5496
  179MPD1     C 2776   4.015   3.296  14.903  0.5889  0.2027  0.7165
  179MPD1    C1 2777   4.078   3.391  14.979 -0.4447  0.9358  0.1615
  179MPD1    C2 2778   4.003   3.442  15.085 -0.3373 -1.0469  1.0061
  179MPD1    C3 2779   3.869   3.411  15.118  0.1199  0.4014 -0.2096
  179MPD1    C4 2780   3.804   3.332  15.025  0.4407 -0.2171 -0.3570
  179MPD1    C5 2781   3.879   3.267  14.928  0.2391 -0.3840 -0.4969
  179MPD1     H 2782   4.051   3.521  15.142 -0.8416  1.1710 -1.6653
  179MPD1    H1 2783   3.708   3.287  15.046  0.1708  0.2866 -0.5167
  179MPD1    H2 2784   4.072   3.247  14.826 -1.0329 -2.6425  1.3103
  179MPD1    H3 2785   3.839   3.190  14.864 -1.1558 -1.0048  1.1307
  179MPD1     N 2786   3.805   3.451  15.239 -0.3966  0.0646  0.0503
  179MPD1    H5 2787   3.706   3.434  15.251 -0.4246  0.1360 -0.0677
  179MPD1    N1 2788   4.201   3.447  14.940  0.3611 -0.0814 -0.9843
  179MPD1    H6 2789   4.224   3.516  15.010  0.3077  1.7764 -2.7892
  179MPD1    H7 2790   4.281   3.384  14.930  0.7411  0.1296  0.7466
  180MPD1     C 2791   3.204   4.295  15.313  0.0251  0.1872  0.2444
  180MPD1    C1 2792   3.108   4.270  15.208  0.1581 -0.3222  0.3131
  180MPD1    C2 2793   3.159   4.234  15.092  0.2282 -0.3221 -0.3720
  180MPD1    C3 2794   3.298   4.224  15.067  0.2972 -0.2218 -0.4434
  180MPD1    C4 2795   3.384   4.261  15.168  0.1297  0.6628 -0.1380
  180MPD1    C5 2796   3.339   4.290  15.293  0.5869  0.1856  0.0300
  180MPD1     H 2797   3.092   4.200  15.014 -2.2356  0.0742  1.5815
  180MPD1    H1 2798   3.490   4.273  15.151 -0.0377  0.4987 -1.3216
  180MPD1    H2 2799   3.173   4.332  15.410 -0.5044  1.4103 -0.3911
  180MPD1    H3 2800   3.391   4.326  15.381  2.7827  2.3554 -2.1503
  180MPD1     N 2801   3.347   4.195  14.931  0.0081  0.0055  0.4638
  180MPD1    H5 2802   3.279   4.195  14.856 -0.9540 -0.1006  1.3370
  180MPD1    N1 2803   2.967   4.272  15.225 -0.0819 -0.0871 -0.0379
  180MPD1    H6 2804   2.942   4.337  15.299  0.3679  1.0362 -0.8700
  180MPD1    H7 2805   2.918   4.295  15.139  2.6494  0.8679 -1.3302
  181MPD1     C 2806   0.705   1.765  10.298  0.3413  0.2545 -0.0441
  181MPD1    C1 2807   0.740   1.826  10.414 -0.3614  0.0868  0.5101
  181MPD1    C2 2808   0.792   1.954  10.416  0.3062  0.1120 -0.0837
  181MPD1    C3 2809   0.826   2.016  10.299 -0.0449 -0.3899  0.1390
  181MPD1    C4 2810   0.801   1.951  10.173  0.4983  0.5043  0.4519
  181MPD1    C5 2811   0.741   1.831  10.177  0.4570  0.6618 -0.4537
  181MPD1     H 2812   0.813   2.007  10.508 -2.5346  1.0117  0.0380
  181MPD1    H1 2813   0.824   1.998  10.077 -0.1523  1.5211  0.7883
  181MPD1    H2 2814   0.656   1.669  10.290  2.3765 -0.5684 -2.5889
  181MPD1    H3 2815   0.718   1.779  10.085  1.2023 -3.1844  1.5357
  181MPD1     N 2816   0.885   2.148  10.296 -0.3598 -0.1618  0.2459
  181MPD1    H5 2817   0.910   2.187  10.205 -1.2501  2.0587  0.9359
  181MPD1    N1 2818   0.688   1.779  10.531  0.0114  0.2995  0.0816
  181MPD1    H6 2819   0.727   1.826  10.612  0.0988 -1.3621  1.0016
  181MPD1    H7 2820   0.692   1.677  10.538  0.9021  0.2525 -1.1469
  182MPD1     C 2821   1.614   1.425   1.782  0.3019  0.2041  0.4672
  182MPD1    C1 2822   1.581   1.562   1.747  0.3444  0.0896 -0.1826
  182MPD1    C2 2823   1.476   1.575   1.656 -0.5739 -0.4639 -0.7413
  182MPD1    C3 2824   1.424   1.467   1.585  0.1785 -0.2519  0.6702
  182MPD1    C4 2825   1.473   1.340   1.613  0.2469  0.9595  0.1955
  182MPD1    C5 2826   1.566   1.319   1.716  0.7015 -0.2077 -0.3296
  182MPD1     H 2827   1.445   1.675   1.627  1.0739 -0.4218 -2.3172
  182MPD1    H1 2828   1.438   1.250   1.562  0.9236  0.7753  0.0635
  182MPD1    H2 2829   1.671   1.397   1.870  1.9646  1.7265 -0.1066
  182MPD1    H3 2830   1.594   1.218   1.741 -0.0958 -0.2363  0.4427
  182MPD1     N 2831   1.323   1.488   1.487 -0.4958  0.5278 -0.3651
  182MPD1    H5 2832   1.291   1.404   1.441 -1.8835 -0.9608  3.3431
  182MPD1    N1 2833   1.624   1.663   1.827 -0.6861  0.0117  0.0402
  182MPD1    H6 2834   1.650   1.746   1.773 -2.8183  0.8231  0.2668
  182MPD1    H7 2835   1.709   1.626   1.868  0.0863  0.7669 -0.8521
  183MPD1     C 2836   1.602   1.689   8.606  0.5775 -0.4801  0.1262
  183MPD1    C1 2837   1.702   1.751   8.672 -0.2447  0.8563 -0.0120
  183MPD1    C2 2838   1.669   1.834   8.781 -0.1303 -0.5157  0.0963
  183MPD1    C3 2839   1.533   1.860   8.810  0.5036  0.3553  0.1958
  183MPD1    C4 2840   1.434   1.794   8.740 -0.0259  0.1079  1.1759
  183MPD1    C5 2841   1.471   1.703   8.641  0.0911  0.1692  0.1258
  183MPD1     H 2842   1.747   1.882   8.839 -0.9256 -0.0314  0.7634
  183MPD1    H1 2843   1.328   1.807   8.757  0.0522  1.7691  0.3622
  183MPD1    H2 2844   1.612   1.616   8.527  1.8230  0.0950 -0.2469
  183MPD1    H3 2845   1.390   1.654   8.588 -0.2480 -0.0732  0.8697
  183MPD1     N 2846   1.494   1.937   8.925 -0.1234  0.2204 -0.2686
  183MPD1    H5 2847   1.566   1.972   8.988  0.4687 -0.3514 -0.6279
  183MPD1    N1 2848   1.840   1.731   8.654  0.6235 -0.2119 -0.2946
  183MPD1    H6 2849   1.865   1.749   8.557  3.7072 -2.8265  0.0416
  183MPD1    H7 2850   1.884   1.807   8.706  0.4646  0.5312 -1.2456
  184MPD1     C 2851   1.585   4.074   9.397  0.0746  0.0532  0.0599
  184MPD1    C1 2852   1.464   4.114   9.446  0.7445  0.2098 -0.6973
  184MPD1    C2 2853   1.457   4.230   9.514 -1.0048  0.0714 -0.6488
  184MPD1    C3 2854   1.568   4.306   9.525 -0.2393  0.2024  0.1755
  184MPD1    C4 2855   1.686   4.264   9.470 -0.1773  1.3886  0.2390
  184MPD1    C5 2856   1.695   4.147   9.409  0.1328 -0.0851 -0.4216
  184MPD1     H 2857   1.369   4.242   9.577 -2.3084 -0.6131 -2.3601
  184MPD1    H1 2858   1.781   4.315   9.481  0.4331  0.3182 -0.1264
  184MPD1    H2 2859   1.595   3.977   9.349  2.2609  1.1896 -1.7923
  184MPD1    H3 2860   1.785   4.107   9.366  1.0514  2.6446 -1.0390
  184MPD1     N 2861   1.582   4.417   9.597 -0.1914  0.8362  0.7505
  184MPD1    H5 2862   1.673   4.463   9.594 -1.0592  2.6447  2.8841
  184MPD1    N1 2863   1.357   4.026   9.435  1.2372 -0.0203  0.6456
  184MPD1    H6 2864   1.262   4.057   9.451  0.9252 -1.2056  1.1320
  184MPD1    H7 2865   1.366   3.944   9.375  1.4180 -0.2910  1.0375
  185MPD1     C 2866   2.285   0.126   9.501  0.7048 -0.8653  0.7516
  185MPD1    C1 2867   2.226   0.217   9.589  0.5193  0.5695  0.6965
  185MPD1    C2 2868   2.106   0.185   9.638  0.2599  0.4473  0.0265
  185MPD1    C3 2869   2.049   0.057   9.624  0.8461  0.1961 -0.3481
  185MPD1    C4 2870   2.118   4.711   9.542 -0.2574 -0.4807 -0.4710
  185MPD1    C5 2871   2.234   0.000   9.490  0.6718  0.2698  0.1245
  185MPD1     H 2872   2.062   0.253   9.710  0.1070 -2.3881  2.6056
  185MPD1    H1 2873   2.074   4.612   9.540  2.7779 -1.8770  1.5769
  185MPD1    H2 2874   2.380   0.146   9.453  0.7196 -1.8735  0.3644
  185MPD1    H3 2875   2.298   4.664   9.448  0.2920 -1.0230  1.9121
  185MPD1     N 2876   1.925   0.012   9.678  0.0089 -0.6993  0.7267
  185MPD1    H5 2877   1.894   4.659   9.658  2.1819 -1.2576  0.0235
  185MPD1    N1 2878   2.274   0.347   9.602 -0.1074 -0.3690  0.2975
  185MPD1    H6 2879   2.238   0.397   9.683 -3.0697 -2.1701  0.0638
  185MPD1    H7 2880   2.375   0.361   9.599 -0.2198  0.5059  0.7862
  186MPD1     C 2881   0.122   3.684  15.758 -0.5684 -0.1066 -0.1050
  186MPD1    C1 2882   0.103   3.601  15.867  0.3418  0.3808  0.4704
  186MPD1    C2 2883   0.050   3.652  15.979  0.2244  0.3951  0.0443
  186MPD1    C3 2884   0.004   3.781  15.986 -0.1010  0.3658 -0.1434
  186MPD1    C4 2885   0.025   3.864  15.879  0.2945 -0.3395 -0.3323
  186MPD1    C5 2886   0.089   3.818  15.767 -0.3747  0.2582 -0.5972
  186MPD1     H 2887   0.046   3.588  16.067 -0.7415 -0.3542 -0.5450
  186MPD1    H1 2888   0.006   3.971  15.881  3.0900  0.1733  0.0613
  186MPD1    H2 2889   0.185   3.662  15.673  0.3400  0.3267  0.4569
  186MPD1    H3 2890   0.110   3.887  15.686  1.3407  0.2584 -0.1548
  186MPD1     N 2891   4.705   3.842  16.106  0.9611  0.2282  0.2800
  186MPD1    H5 2892   4.690   3.941  16.118  0.0543 -0.1206  2.0457
  186MPD1    N1 2893   0.155   3.469  15.866 -0.2888 -0.0791  0.2257
  186MPD1    H6 2894   0.144   3.403  15.943 -0.8764  0.2522  0.4305
  186MPD1    H7 2895   0.163   3.425  15.775  2.6279 -0.0120  0.4512
  187MPD1     C 2896   3.267   1.849   0.444  0.0618  0.8397  0.7977
  187MPD1    C1 2897   3.178   1.797   0.356 -0.1650  0.1727 -0.4487
  187MPD1    C2 2898   3.220   1.768   0.230 -0.3975  1.0039  1.1196
  187MPD1    C3 2899   3.355   1.770   0.196 -1.0893  0.1171  0.0842
  187MPD1    C4 2900   3.451   1.807   0.283  0.2283  0.1733  0.3556
  187MPD1    C5 2901   3.401   1.842   0.411  0.2920 -0.3316  0.2280
  187MPD1     H 2902   3.147   1.739   0.155 -0.4997  3.2693  0.3348
  187MPD1    H1 2903   3.559   1.804   0.269  0.4343  1.6306  1.5724
  187MPD1    H2 2904   3.242   1.891   0.541 -1.8825  0.8828  0.2760
  187MPD1    H3 2905   3.474   1.866   0.487  0.4360  0.4658 -0.1587
  187MPD1     N 2906   3.394   1.735   0.066 -0.2651 -0.1484  1.0873
  187MPD1    H5 2907   3.489   1.758   0.039 -0.0147 -0.3611  1.7950
  187MPD1    N1 2908   3.039   1.787   0.384 -0.2879 -0.4592 -0.3781
  187MPD1    H6 2909   2.996   1.707   0.338  0.5618 -1.2884  0.2676
  187MPD1    H7 2910   3.029   1.783   0.486  1.0450 -2.5091 -0.3129
  188MPD1     C 2911   3.642   1.585  10.507  0.4540  0.8099 -0.1671
  188MPD1    C1 2912   3.675   1.474  10.581 -0.1215 -0.1074 -0.2343
  188MPD1    C2 2913   3.657   1.348  10.521  0.6976  0.2559 -0.6497
  188MPD1    C3 2914   3.629   1.329  10.386  0.2697 -0.0511 -0.2529
  188MPD1    C4 2915   3.629   1.443  10.311 -0.1140 -0.3146  0.2098
  188MPD1    C5 2916   3.619   1.565  10.372  0.1061 -0.5366  0.2681
  188MPD1     H 2917   3.657   1.261  10.585  1.7999 -0.9088 -2.2145
  188MPD1    H1 2918   3.614   1.446  10.203  2.9871 -1.4400 -0.2732
  188MPD1    H2 2919   3.663   1.685  10.543 -2.1415  1.4108 -0.3254
  188MPD1    H3 2920   3.614   1.652  10.308  0.6419 -1.6773 -1.3378
  188MPD1     N 2921   3.605   1.204  10.337  0.2809  0.7930  0.0134
  188MPD1    H5 2922   3.620   1.128  10.404 -0.0865  0.0513 -0.7427
  188MPD1    N1 2923   3.695   1.498  10.720 -0.1959  0.2764 -0.2733
  188MPD1    H6 2924   3.755   1.426  10.758  0.6300 -0.0488 -2.1724
  188MPD1    H7 2925   3.738   1.589  10.734  1.9626 -0.6613 -0.8520
  189MPD1     C 2926   0.629   2.077   0.604 -0.3664  0.3617 -0.4113
  189MPD1    C1 2927   0.566   2.039   0.490 -0.0661  0.3468 -0.7544
  189MPD1    C2 2928   0.494   2.133   0.416 -0.1933  0.2422  0.8720
  189MPD1    C3 2929   0.483   2.263   0.466 -0.2164 -0.3361 -0.7145
  189MPD1    C4 2930   0.551   2.299   0.583 -0.5009  0.6019 -0.1396
  189MPD1    C5 2931   0.627   2.209   0.646 -0.9679  0.2292 -0.1539
  189MPD1     H 2932   0.440   2.114   0.324 -1.5429  1.7689  1.3458
  189MPD1    H1 2933   0.541   2.399   0.625  1.2132  0.7249 -0.0162
  189MPD1    H2 2934   0.709   2.013   0.641 -0.9410  0.5424  1.1484
  189MPD1    H3 2935   0.696   2.227   0.728 -0.3897  2.4926 -1.1432
  189MPD1     N 2936   0.396   2.347   0.392  0.1845 -0.3845  0.3571
  189MPD1    H5 2937   0.334   2.307   0.323  2.7979 -0.6569 -1.8289
  189MPD1    N1 2938   0.604   1.917   0.428  0.3721 -0.1590  0.7998
  189MPD1    H6 2939   0.523   1.878   0.379  0.0455  0.3723  0.9127
  189MPD1    H7 2940   0.633   1.840   0.487  2.4597  0.7997  0.9991
  190MPD1     C 2941   3.426   4.589  15.576  0.3265  0.4490 -0.0474
  190MPD1    C1 2942   3.552   4.587  15.513  0.3120  0.2470 -0.3399
  190MPD1    C2 2943   3.645   4.682  15.555 -0.0820  0.1614 -0.8125
  190MPD1    C3 2944   3.618   0.033  15.653 -0.3479 -0.0487 -0.3922
  190MPD1    C4 2945   3.495   0.032  15.716  0.1398  0.2134 -0.1726
  190MPD1    C5 2946   3.396   4.687  15.670  0.4544 -0.6529 -0.1468
  190MPD1     H 2947   3.747   4.685  15.519 -0.3125 -0.7979 -1.5577
  190MPD1    H1 2948   3.470   0.101  15.796 -2.2844  1.1927 -1.7868
  190MPD1    H2 2949   3.348   4.522  15.542 -1.3106  1.9139  0.7495
  190MPD1    H3 2950   3.299   4.698  15.717  1.7070  1.6964  1.8630
  190MPD1     N 2951   3.710   0.127  15.685  0.2719 -0.6513  0.7285
  190MPD1    H5 2952   3.789   0.136  15.621 -1.7169 -0.0917 -1.6851
  190MPD1    N1 2953   3.584   4.503  15.404 -0.1950  0.1181  0.0053
  190MPD1    H6 2954   3.538   4.415  15.382 -3.2899  1.2894  1.7014
  190MPD1    H7 2955   3.685   4.499  15.393 -0.3282  0.3000 -1.2062
  191MPD1     C 2956   3.140   2.703  12.920  0.3235 -0.0483  0.2463
  191MPD1    C1 2957   3.141   2.565  12.922 -0.1319  0.1216  0.5347
  191MPD1    C2 2958   3.225   2.497  12.834  0.0061  0.2816  0.3459
  191MPD1    C3 2959   3.324   2.560  12.761 -0.1212 -0.2882 -0.0081
  191MPD1    C4 2960   3.317   2.696  12.760  0.4383 -0.0154  0.1537
  191MPD1    C5 2961   3.231   2.766  12.839 -0.1984  0.0142 -0.1637
  191MPD1     H 2962   3.210   2.389  12.831  2.1677 -0.0118  0.4934
  191MPD1    H1 2963   3.380   2.751  12.691  2.4112 -1.3795  0.8639
  191MPD1    H2 2964   3.071   2.764  12.978 -2.8546 -0.8789 -2.6927
  191MPD1    H3 2965   3.241   2.874  12.844 -0.3059  0.1397 -3.1603
  191MPD1     N 2966   3.400   2.480  12.679  0.0449  0.4967 -0.2047
  191MPD1    H5 2967   3.365   2.385  12.669 -3.7042  1.8714 -0.0925
  191MPD1    N1 2968   3.038   2.498  12.989 -0.3108  0.1900 -0.4263
  191MPD1    H6 2969   3.086   2.415  13.023 -1.6101 -1.0833 -1.6854
  191MPD1    H7 2970   3.001   2.552  13.068 -1.3196 -0.5574 -0.3924
  192MPD1     C 2971   3.071   1.910  11.967  0.2514  0.4282  0.2369
  192MPD1    C1 2972   3.061   1.928  12.098 -0.5816 -0.3313 -0.3766
  192MPD1    C2 2973   3.160   2.006  12.158 -0.5913  0.0040 -0.1095
  192MPD1    C3 2974   3.248   2.077  12.081  0.6590  0.6416  0.4577
  192MPD1    C4 2975   3.248   2.057  11.946  0.3908  0.8443  0.1160
  192MPD1    C5 2976   3.161   1.968  11.894 -0.5581  0.2618  0.0168
  192MPD1     H 2977   3.154   2.008  12.266  0.6403 -1.3289 -0.0114
  192MPD1    H1 2978   3.320   2.109  11.884  2.2669 -0.6358  1.0690
  192MPD1    H2 2979   3.013   1.830  11.921  1.5148  0.7001 -1.7960
  192MPD1    H3 2980   3.160   1.945  11.788 -0.3463 -0.7666  0.2384
  192MPD1     N 2981   3.350   2.163  12.135  0.1385 -0.1544  0.1689
  192MPD1    H5 2982   3.399   2.218  12.066 -0.0664 -0.7982 -0.4888
  192MPD1    N1 2983   2.976   1.847  12.170  0.3743 -0.3400 -0.1787
  192MPD1    H6 2984   2.896   1.815  12.115 -1.7127  0.3331  2.4863
  192MPD1    H7 2985   2.942   1.895  12.252  3.8047  0.5573  0.7256
  193MPD1     C 2986   2.771   2.720  16.117 -0.1243 -0.0310  0.1950
  193MPD1    C1 2987   2.762   2.851  16.162 -0.2263  0.4688  0.5633
  193MPD1    C2 2988   2.792   2.882  16.291  0.1300 -0.0879 -0.2131
  193MPD1    C3 2989   2.831   2.776  16.375  0.5303  0.0698  0.1483
  193MPD1    C4 2990   2.817   2.649  16.327 -0.2440  0.5373 -0.1584
  193MPD1    C5 2991   2.791   2.621  16.204 -0.2924 -0.3764 -0.2855
  193MPD1     H 2992   2.792   2.985  16.326  0.8261 -0.3682  0.6322
  193MPD1    H1 2993   2.834   2.570  16.399 -2.5237  0.0972 -0.1104
  193MPD1    H2 2994   2.760   2.678  16.017  0.3027  0.4843 -0.0712
  193MPD1    H3 2995   2.775   2.522  16.165 -1.3198 -0.5860  0.6641
  193MPD1     N 2996   2.876   2.789  16.506  0.0403  0.4698 -0.1303
  193MPD1    H5 2997   2.888   2.697  16.547 -1.0205  0.8549  1.0437
  193MPD1    N1 2998   2.760   2.949  16.067 -0.5433  0.5886 -0.2846
  193MPD1    H6 2999   2.708   2.915  15.986  0.6078 -2.0760  0.1104
  193MPD1    H7 3000   2.724   3.042  16.090  1.5348  1.0630  1.0012
  194MPD1     C 3001   0.593   4.554  17.351 -0.3786 -0.5697 -0.4946
  194MPD1    C1 3002   0.548   4.510  17.477  0.0530  0.3008  0.4050
  194MPD1    C2 3003   0.570   4.377  17.510 -0.5307 -0.3485  0.2334
  194MPD1    C3 3004   0.619   4.281  17.420  0.1132  0.1018 -0.5266
  194MPD1    C4 3005   0.652   4.332  17.294 -0.2232  0.3992  0.1314
  194MPD1    C5 3006   0.648   4.462  17.268 -0.6013 -0.7143 -0.0216
  194MPD1     H 3007   0.541   4.341  17.609 -0.9552 -1.1842 -0.1896
  194MPD1    H1 3008   0.699   4.272  17.216  1.1645 -0.5247  1.6814
  194MPD1    H2 3009   0.587   4.659  17.323  0.6051 -0.3059  0.2757
  194MPD1    H3 3010   0.675   4.504  17.172 -1.5187  0.3252  0.1845
  194MPD1     N 3011   0.626   4.145  17.445 -0.1488  0.4322 -0.5720
  194MPD1    H5 3012   0.658   4.090  17.366  2.2438  0.9822  0.0041
  194MPD1    N1 3013   0.519   4.610  17.574 -0.3234  0.3063 -0.1684
  194MPD1    H6 3014   0.465   4.577  17.654  2.1169 -0.6228  1.1078
  194MPD1    H7 3015   0.489   4.698  17.532  1.7664  0.6855 -0.8746
  195MPD1     C 3016   3.058   1.180  17.529 -0.3925  0.0908  0.5365
  195MPD1    C1 3017   3.092   1.175  17.661 -0.4532  0.7650  0.2109
  195MPD1    C2 3018   3.082   1.062  17.730  0.3713  0.0758 -0.2780
  195MPD1    C3 3019   3.041   0.944  17.666  0.2102 -0.0271  0.6436
  195MPD1    C4 3020   2.991   0.959  17.539  0.5439 -0.6732 -0.3358
  195MPD1    C5 3021   3.012   1.069  17.466 -0.1910 -0.1204  0.5532
  195MPD1     H 3022   3.134   1.060   0.064  2.6343 -2.1269 -1.5607
  195MPD1    H1 3023   2.941   0.870  17.502  0.9970 -0.4593 -1.4452
  195MPD1    H2 3024   3.076   1.266  17.465  1.0631  0.2108  1.1113
  195MPD1    H3 3025   2.979   1.071  17.363  0.3552 -1.2076  0.3514
  195MPD1     N 3026   3.051   0.821  17.737 -0.1814  0.5238  0.7442
  195MPD1    H5 3027   3.059   0.733  17.688  2.2221  0.4629  1.2569
  195MPD1    N1 3028   3.157   1.288  17.728  0.4350 -0.7324  0.2327
  195MPD1    H6 3029   3.138   1.282   0.067 -1.5847  2.6858  0.0864
  195MPD1    H7 3030   3.119   1.381  17.707 -1.0350 -1.5437 -0.6875
  196MPD1     C 3031   1.401   0.622   0.292  0.6477 -0.3892 -0.5591
  196MPD1    C1 3032   1.481   0.711   0.227 -0.3547  0.5552  1.2971
  196MPD1    C2 3033   1.540   0.807   0.306  0.8044 -0.1104  0.2670
  196MPD1    C3 3034   1.513   0.827   0.439  0.0603 -0.0689 -0.0800
  196MPD1    C4 3035   1.435   0.737   0.502 -0.0888  0.2444 -0.5860
  196MPD1    C5 3036   1.373   0.642   0.422  0.4034 -0.0795 -0.1918
  196MPD1     H 3037   1.606   0.882   0.263 -0.1075  2.0984  2.7495
  196MPD1    H1 3038   1.406   0.748   0.605  2.7207 -0.5274  0.2986
  196MPD1    H2 3039   1.369   0.531   0.244 -1.5409  1.8431 -3.3934
  196MPD1    H3 3040   1.307   0.569   0.467  1.0605  0.1766  1.2062
  196MPD1     N 3041   1.580   0.930   0.516  0.2103  0.1102  0.3421
  196MPD1    H5 3042   1.575   0.918   0.617  1.1623  1.2527  0.5210
  196MPD1    N1 3043   1.503   0.697   0.088 -0.1628 -0.0107 -0.1631
  196MPD1    H6 3044   1.511   0.785   0.037 -2.3980 -0.2785 -0.9416
  196MPD1    H7 3045   1.429   0.649   0.037 -0.0030  0.5144 -0.8902
  197MPD1     C 3046   0.981   3.930  17.515  0.6209 -0.2197 -0.0041
  197MPD1    C1 3047   1.053   4.037  17.479  0.3580 -0.2274  0.4146
  197MPD1    C2 3048   1.179   4.012  17.429  0.0951 -0.5826  0.3664
  197MPD1    C3 3049   1.229   3.889  17.401 -0.7464 -0.2939  0.3103
  197MPD1    C4 3050   1.154   3.780  17.433  0.2550 -0.1756 -0.4994
  197MPD1    C5 3051   1.032   3.803  17.485  0.0793 -0.8121  0.1522
  197MPD1     H 3052   1.224   4.103  17.392  2.3977 -1.1006  1.8786
  197MPD1    H1 3053   1.183   3.681  17.398  2.8600  0.5110 -0.2871
  197MPD1    H2 3054   0.889   3.942  17.572 -0.0808 -0.3987 -1.1052
  197MPD1    H3 3055   0.971   3.719  17.518 -3.3468  1.7117  0.2047
  197MPD1     N 3056   1.358   3.869  17.336  0.0061  0.3691  0.1089
  197MPD1    H5 3057   1.380   3.771  17.320  1.5906  0.8583 -0.7277
  197MPD1    N1 3058   0.999   4.166  17.485 -0.0419  0.0633  0.1261
  197MPD1    H6 3059   0.933   4.167  17.563  0.9138 -0.0511  0.9406
  197MPD1    H7 3060   1.077   4.227  17.508 -0.9806  1.2030  0.2663
  198MPD1     C 3061   2.924   1.731  15.370 -0.0122 -0.5624  0.1559
  198MPD1    C1 3062   3.034   1.648  15.352  0.1582 -0.3230  0.6379
  198MPD1    C2 3063   3.149   1.691  15.407  0.0444 -0.1111  0.5760
  198MPD1    C3 3064   3.154   1.790  15.503 -0.1732 -0.0804 -0.2996
  198MPD1    C4 3065   3.037   1.861  15.532  0.2190  0.1251 -0.6586
  198MPD1    C5 3066   2.922   1.835  15.460  0.2555 -0.2645 -0.1171
  198MPD1     H 3067   3.246   1.662  15.367 -0.5686 -0.1815 -0.8662
  198MPD1    H1 3068   3.036   1.938  15.608  2.1103 -1.2456  0.7469
  198MPD1    H2 3069   2.826   1.732  15.323 -0.7717  0.3936  1.7724
  198MPD1    H3 3070   2.835   1.898  15.476  1.4871  0.7048  2.7931
  198MPD1     N 3071   3.274   1.810  15.565 -0.4033 -0.2158 -0.3193
  198MPD1    H5 3072   3.350   1.751  15.534  0.1850  0.3599  0.0168
  198MPD1    N1 3073   3.028   1.542  15.262  0.2936  0.2932  0.3313
  198MPD1    H6 3074   2.936   1.500  15.246 -1.2463  2.4188  3.6286
  198MPD1    H7 3075   3.093   1.467  15.283 -1.5671 -1.4457 -0.0414
  199MPD1     C 3076   1.300   3.771  10.129 -0.1544  0.2314 -0.0654
  199MPD1    C1 3077   1.210   3.792  10.236  0.3602  0.4010 -0.0402
  199MPD1    C2 3078   1.166   3.680  10.294  0.7999 -0.5837  0.1469
  199MPD1    C3 3079   1.174   3.553  10.234  0.5132  0.5220  0.2208
  199MPD1    C4 3080   1.264   3.533  10.131  0.0894 -0.5739  0.2402
  199MPD1    C5 3081   1.331   3.646  10.077  0.3856  0.7824  0.4721
  199MPD1     H 3082   1.116   3.704  10.387  0.3182 -0.6214 -0.1016
  199MPD1    H1 3083   1.282   3.437  10.083 -0.6541 -1.3395  1.4911
  199MPD1    H2 3084   1.337   3.854  10.071 -1.5566  0.9121 -0.0041
  199MPD1    H3 3085   1.409   3.625  10.005 -2.2153 -3.3508 -1.1468
  199MPD1     N 3086   1.086   3.449  10.271  0.0641 -0.3444 -1.1184
  199MPD1    H5 3087   1.083   3.365  10.213 -1.0877 -2.4326  1.9757
  199MPD1    N1 3088   1.215   3.910  10.313 -0.8698  0.2778  0.1871
  199MPD1    H6 3089   1.134   3.917  10.375 -2.7989  0.0950 -2.2817
  199MPD1    H7 3090   1.211   3.993  10.254 -0.4310  1.5529  1.9777
  200MPD1     C 3091   0.094   2.977  15.905 -0.3872  0.0125 -0.5458
  200MPD1    C1 3092   0.196   2.912  15.842  0.4982 -0.6323 -0.5038
  200MPD1    C2 3093   0.251   2.969  15.729 -0.5912 -0.1061  0.1177
  200MPD1    C3 3094   0.206   3.085  15.673 -0.0188 -0.0246 -0.3310
  200MPD1    C4 3095   0.083   3.137  15.717  0.7861 -0.6420 -0.1078
  200MPD1    C5 3096   0.035   3.083  15.837  0.0710  0.6037 -0.0954
  200MPD1     H 3097   0.327   2.912  15.676  2.0772  1.4752  2.2333
  200MPD1    H1 3098   0.035   3.228  15.683  1.0555  0.2091  1.7951
  200MPD1    H2 3099   0.048   2.946  15.998  3.0633 -1.9048  0.4839
  200MPD1    H3 3100   4.674   3.112  15.861 -0.2608  0.4077 -1.2609
  200MPD1     N 3101   0.290   3.149  15.582 -0.3508  0.7093  0.8467
  200MPD1    H5 3102   0.373   3.100  15.551 -1.9896 -0.7152 -1.2777
  200MPD1    N1 3103   0.260   2.810  15.910 -0.3797  0.5136 -0.2704
  200MPD1    H6 3104   0.191   2.755  15.960  0.7458  1.9743  2.8837
  200MPD1    H7 3105   0.317   2.745  15.856  2.8707  0.7717  2.8508
  201MPD1     C 3106   2.358   1.655  12.736  0.1416 -0.4081  0.7724
  201MPD1    C1 3107   2.432   1.547  12.694  0.6206  0.3254  0.2835
  201MPD1    C2 3108   2.485   1.469  12.796 -0.0864  0.3063  0.0868
  201MPD1    C3 3109   2.456   1.491  12.928 -0.1461 -0.1569 -0.3233
  201MPD1    C4 3110   2.375   1.596  12.961  0.1373 -0.1718 -0.2347
  201MPD1    C5 3111   2.323   1.677  12.867 -0.8031 -0.0349 -0.2138
  201MPD1     H 3112   2.544   1.383  12.765 -0.6527 -0.4161  1.0316
  201MPD1    H1 3113   2.344   1.600  13.064  0.1339 -1.9528 -0.1652
  201MPD1    H2 3114   2.336   1.727  12.658 -0.0448 -1.1912  0.1022
  201MPD1    H3 3115   2.258   1.757  12.901 -1.1299  0.1555 -1.2891
  201MPD1     N 3116   2.506   1.394  13.025 -0.3868 -0.0310 -0.3454
  201MPD1    H5 3117   2.570   1.320  12.997  0.1730  0.5442 -0.5833
  201MPD1    N1 3118   2.477   1.538  12.563 -0.4127  0.3077 -0.4156
  201MPD1    H6 3119   2.502   1.443  12.534  1.6766  0.7522 -0.0943
  201MPD1    H7 3120   2.414   1.582  12.496 -1.0262  0.0227 -0.0307
  202MPD1     C 3121   1.721   0.672   8.823  0.0151 -0.5734 -0.0736
  202MPD1    C1 3122   1.784   0.792   8.807 -0.1039 -0.2567  0.2717
  202MPD1    C2 3123   1.782   0.862   8.930  0.1920 -0.0818  0.2873
  202MPD1    C3 3124   1.755   0.805   9.056  0.4543 -0.3102 -0.1635
  202MPD1    C4 3125   1.711   0.672   9.065 -0.3391  0.1700  0.4989
  202MPD1    C5 3126   1.684   0.614   8.947  0.2974 -0.0368 -0.4213
  202MPD1     H 3127   1.821   0.962   8.918  0.5399  0.0989  2.9385
  202MPD1    H1 3128   1.687   0.618   9.156  0.1797 -0.4892  0.2486
  202MPD1    H2 3129   1.695   0.615   8.734  0.2557  1.8081 -1.6614
  202MPD1    H3 3130   1.648   0.512   8.939  2.1319 -0.6955 -0.1831
  202MPD1     N 3131   1.762   0.876   9.180  0.3022  0.9462  0.7151
  202MPD1    H5 3132   1.730   0.823   9.261  2.0112  0.8213  1.3181
  202MPD1    N1 3133   1.788   0.857   8.680 -0.3622 -0.5226 -0.7151
  202MPD1    H6 3134   1.870   0.917   8.686  1.0708 -2.7666  1.8971
  202MPD1    H7 3135   1.786   0.803   8.594 -0.6709 -3.1256  0.9322
  203MPD1     C 3136   1.337   2.024  12.469 -0.4084 -0.2415  0.2310
  203MPD1    C1 3137   1.406   1.953  12.374 -0.1473  0.3099  0.6624
  203MPD1    C2 3138   1.483   1.841  12.418 -0.0574  0.1936  0.6180
  203MPD1    C3 3139   1.492   1.798  12.551 -0.1848 -0.0641  0.5567
  203MPD1    C4 3140   1.437   1.886  12.641 -0.5928 -0.3529 -0.1229
  203MPD1    C5 3141   1.363   1.992  12.600  0.0118 -0.5866  0.5188
  203MPD1     H 3142   1.528   1.785  12.336  0.5162  1.7747 -0.1490
  203MPD1    H1 3143   1.442   1.881  12.749  1.1071  0.1170 -0.1726
  203MPD1    H2 3144   1.280   2.112  12.443 -1.1271 -0.5716  0.6822
  203MPD1    H3 3145   1.319   2.051  12.680 -1.0892  2.3345 -2.2460
  203MPD1     N 3146   1.539   1.662  12.587 -0.5323 -0.1928  0.0030
  203MPD1    H5 3147   1.561   1.610  12.503 -0.2935  1.8374 -1.1704
  203MPD1    N1 3148   1.380   1.976  12.241 -0.3540 -0.3492  0.2333
  203MPD1    H6 3149   1.453   1.947  12.177 -0.8580 -0.2149 -0.3961
  203MPD1    H7 3150   1.370   2.075  12.220 -2.5841 -0.8304 -1.0042
  204MPD1     C 3151   0.212   3.391  17.461  0.5597  0.5407  0.1626
  204MPD1    C1 3152   0.337   3.425  17.400 -0.2023 -0.5657 -0.5978
  204MPD1    C2 3153   0.430   3.330  17.412 -0.2977 -0.0169 -0.7737
  204MPD1    C3 3154   0.421   3.222  17.499 -0.4360  0.0416  0.4554
  204MPD1    C4 3155   0.314   3.209  17.588  0.3208 -0.3728 -0.9417
  204MPD1    C5 3156   0.210   3.295  17.563  0.8836 -0.2646 -0.3210
  204MPD1     H 3157   0.522   3.344  17.356  0.7295 -1.4086  0.5635
  204MPD1    H1 3158   0.308   3.135  17.668  2.4696 -0.3988 -0.7945
  204MPD1    H2 3159   0.123   3.450  17.447  0.5763  1.0568  2.3235
  204MPD1    H3 3160   0.120   3.278  17.621 -0.6863 -1.7678 -3.1898
  204MPD1     N 3161   0.532   3.136  17.511 -0.4517 -0.2404  0.3111
  204MPD1    H5 3162   0.621   3.146  17.462 -0.1808 -1.4678  0.5486
  204MPD1    N1 3163   0.335   3.499  17.282 -0.0257  0.2795  0.1992
  204MPD1    H6 3164   0.424   3.540  17.254  0.5515 -0.8211  0.4419
  204MPD1    H7 3165   0.268   3.575  17.270 -0.9948 -0.4648  0.9292
  205MPD1     C 3166   1.158   1.718  17.058  0.3948 -0.3821  0.1478
  205MPD1    C1 3167   1.188   1.631  17.161  0.2543 -0.2617  0.0037
  205MPD1    C2 3168   1.102   1.636  17.270  0.3784  0.0249 -0.2504
  205MPD1    C3 3169   1.005   1.734  17.284  0.2836  0.3399  0.1559
  205MPD1    C4 3170   0.975   1.819  17.175  0.1096  0.1062 -0.3117
  205MPD1    C5 3171   1.055   1.808  17.062  1.0255  0.4942 -0.5377
  205MPD1     H 3172   1.110   1.559  17.346 -0.4448  2.1643  1.9939
  205MPD1    H1 3173   0.899   1.896  17.182 -0.3422 -0.2924 -0.9120
  205MPD1    H2 3174   1.202   1.703  16.960 -0.5803 -1.5750 -0.1054
  205MPD1    H3 3175   1.047   1.881  16.982  0.4971  1.1338  0.0997
  205MPD1     N 3176   0.927   1.760  17.396 -0.5583 -0.0655  0.0048
  205MPD1    H5 3177   0.870   1.844  17.398 -0.9265 -0.3121 -0.2278
  205MPD1    N1 3178   1.269   1.522  17.139  0.3827  0.0500  0.9059
  205MPD1    H6 3179   1.313   1.472  17.216 -1.0407 -1.3500  0.8097
  205MPD1    H7 3180   1.337   1.536  17.065 -0.3224  0.1278  0.2791
  206MPD1     C 3181   0.049   0.457  17.161 -0.2975  0.5482  0.0491
  206MPD1    C1 3182   0.164   0.381  17.130 -0.3636 -0.0421 -0.1879
  206MPD1    C2 3183   0.172   0.341  16.999  0.8018  0.8137 -0.4974
  206MPD1    C3 3184   0.092   0.391  16.899 -0.7272  0.0225  1.0898
  206MPD1    C4 3185   4.717   0.466  16.923  0.2313  0.4366 -0.6836
  206MPD1    C5 3186   4.702   0.493  17.061 -0.0869  0.1926  0.6067
  206MPD1     H 3187   0.253   0.274  16.970 -0.4370 -0.6891 -0.4533
  206MPD1    H1 3188   4.651   0.506  16.847 -0.2628 -0.9579 -0.9689
  206MPD1    H2 3189   0.033   0.490  17.263 -1.0561 -0.3921  0.2352
  206MPD1    H3 3190   4.615   0.551  17.090 -1.1609 -0.8079 -0.6600
  206MPD1     N 3191   0.128   0.360  16.767  0.4466 -0.4221 -0.2092
  206MPD1    H5 3192   0.104   0.431  16.698  0.2693  1.3240  1.6308
  206MPD1    N1 3193   0.240   0.329  17.233  0.5087 -0.8321 -0.2143
  206MPD1    H6 3194   0.250   0.396  17.309 -0.9863 -0.0686 -0.6756
  206MPD1    H7 3195   0.325   0.291  17.191  2.0487  1.9954  0.3538
  207MPD1     C 3196   2.610   2.766   8.971  0.5089 -0.8424 -0.2629
  207MPD1    C1 3197   2.691   2.651   8.989 -0.2965 -0.1130 -0.4331
  207MPD1    C2 3198   2.777   2.654   9.093 -0.1243  0.4916  0.3204
  207MPD1    C3 3199   2.797   2.767   9.172 -0.1878  0.0547  0.2526
  207MPD1    C4 3200   2.717   2.874   9.153  0.3553  0.6382 -0.6492
  207MPD1    C5 3201   2.631   2.870   9.049 -0.2311  0.0604 -0.4568
  207MPD1     H 3202   2.840   2.567   9.109 -1.5044 -0.6854 -0.6154
  207MPD1    H1 3203   2.713   2.961   9.218 -1.3602  0.7028 -0.8379
  207MPD1    H2 3204   2.523   2.776   8.907  0.5235 -0.4681 -0.2264
  207MPD1    H3 3205   2.557   2.948   9.040 -0.2865 -0.1783 -2.0307
  207MPD1     N 3206   2.892   2.769   9.283 -0.3443 -0.6934 -0.2436
  207MPD1    H5 3207   2.899   2.860   9.328 -0.9402  0.8423 -3.2131
  207MPD1    N1 3208   2.662   2.533   8.922  0.1677  0.1442  0.3695
  207MPD1    H6 3209   2.743   2.475   8.902 -0.5388 -1.3732  1.8374
  207MPD1    H7 3210   2.609   2.547   8.837  2.6747  0.4402 -1.1306
  208MPD1     C 3211   0.101   0.329   0.698  0.3256  0.0971 -0.3134
  208MPD1    C1 3212   0.083   0.412   0.592 -0.3285 -0.3562 -0.1664
  208MPD1    C2 3213   0.188   0.505   0.565  0.2005  0.4222  0.7070
  208MPD1    C3 3214   0.307   0.502   0.639 -0.7924 -0.4405 -0.0429
  208MPD1    C4 3215   0.325   0.407   0.736  1.1684 -0.5888 -0.0966
  208MPD1    C5 3216   0.212   0.336   0.778 -0.3529 -0.6449 -0.3955
  208MPD1     H 3217   0.171   0.576   0.486  0.6450 -1.5888 -1.2079
  208MPD1    H1 3218   0.408   0.404   0.806  1.0494 -1.2664  0.0175
  208MPD1    H2 3219   0.027   0.252   0.716  0.7578 -0.6704 -1.8730
  208MPD1    H3 3220   0.221   0.268   0.862  2.4689  1.0886  0.7187
  208MPD1     N 3221   0.394   0.605   0.620  0.2996  0.6648 -0.2905
  208MPD1    H5 3222   0.353   0.684   0.572 -0.5689 -0.2992 -1.1255
  208MPD1    N1 3223   4.694   0.440   0.551 -0.3928 -0.0534  0.2079
  208MPD1    H6 3224   4.658   0.347   0.530 -0.0780 -0.6652  2.4271
  208MPD1    H7 3225   4.694   0.487   0.460  1.6904  1.2119  0.8726
  209MPD1     C 3226   3.140   1.761  11.105  0.5245 -0.1866  0.5687
  209MPD1    C1 3227   3.254   1.834  11.096 -0.3797  0.4253  0.0586
  209MPD1    C2 3228   3.281   1.896  10.973 -0.0727 -0.1379  0.0803
  209MPD1    C3 3229   3.193   1.914  10.871  0.6125  0.1444 -0.0893
  209MPD1    C4 3230   3.074   1.844  10.883 -0.2143  0.0733 -0.4331
  209MPD1    C5 3231   3.056   1.767  10.994 -0.0601  0.3403  0.6035
  209MPD1     H 3232   3.384   1.931  10.971 -0.6072  1.4503  0.6896
  209MPD1    H1 3233   2.993   1.855  10.812  0.0282 -2.2352 -1.0644
  209MPD1    H2 3234   3.115   1.715  11.200 -0.9610  1.6985  1.1137
  209MPD1    H3 3235   2.963   1.712  11.004  0.8101 -1.1834  0.3714
  209MPD1     N 3236   3.227   1.989  10.756 -0.1445 -0.0335  0.2664
  209MPD1    H5 3237   3.324   2.013  10.740 -0.1377  0.2081  0.6734
  209MPD1    N1 3238   3.343   1.823  11.197 -0.1469 -0.2127 -0.4421
  209MPD1    H6 3239   3.407   1.902  11.188 -0.1481 -0.3806 -2.0502
  209MPD1    H7 3240   3.303   1.832  11.290  0.0143 -0.6426 -0.3316
  210MPD1     C 3241   3.919   2.561  10.397 -0.5590  0.5734  0.2518
  210MPD1    C1 3242   3.841   2.581  10.507  0.5350 -0.0057  0.1729
  210MPD1    C2 3243   3.727   2.505  10.517  0.0607 -0.4530 -0.5886
  210MPD1    C3 3244   3.696   2.421  10.407 -0.0432  0.3505 -0.0135
  210MPD1    C4 3245   3.767   2.416  10.290 -0.3032  0.6669  0.0603
  210MPD1    C5 3246   3.887   2.487  10.287 -0.0835  0.3225  0.6122
  210MPD1     H 3247   3.658   2.519  10.599  1.2373 -0.2275  0.3712
  210MPD1    H1 3248   3.742   2.347  10.209 -0.0548 -2.5974  2.7758
  210MPD1    H2 3249   4.017   2.608  10.390 -0.8223  0.8193 -1.7708
  210MPD1    H3 3250   3.964   2.485  10.211  1.8457  2.2140  2.5057
  210MPD1     N 3251   3.591   2.331  10.420 -0.1323  0.1194 -0.2884
  210MPD1    H5 3252   3.571   2.272  10.340 -2.0504 -0.9275  0.9541
  210MPD1    N1 3253   3.888   2.668  10.609 -0.3854 -0.0583  0.5299
  210MPD1    H6 3254   3.949   2.746  10.585 -2.2262  0.4575 -2.5256
  210MPD1    H7 3255   3.820   2.701  10.678 -2.7883  1.4623 -2.5155
  211MPD1     C 3256   1.034   1.575  15.107  0.0497 -0.8264 -0.5476
  211MPD1    C1 3257   0.963   1.695  15.089  0.5100 -0.4912 -0.6806
  211MPD1    C2 3258   0.889   1.745  15.196  0.3548 -0.7395 -0.5274
  211MPD1    C3 3259   0.915   1.700  15.324  0.0607  0.5987  0.3853
  211MPD1    C4 3260   0.998   1.589  15.334  0.1559  0.1356  0.6243
  211MPD1    C5 3261   1.056   1.526  15.227 -0.5181 -0.8299  0.4867
  211MPD1     H 3262   0.815   1.822  15.179  0.5687  0.0281  2.0460
  211MPD1    H1 3263   1.028   1.545  15.428  0.4801 -3.4432 -1.1330
  211MPD1    H2 3264   1.080   1.532  15.019  2.8018 -0.0494  0.5137
  211MPD1    H3 3265   1.113   1.441  15.262 -0.5747 -0.6370  1.0496
  211MPD1     N 3266   0.866   1.766  15.426  0.2553  0.0018  0.0365
  211MPD1    H5 3267   0.804   1.844  15.408  1.2407  0.3640 -1.8204
  211MPD1    N1 3268   0.946   1.750  14.961  0.0620 -0.4543  0.5585
  211MPD1    H6 3269   1.034   1.732  14.913  0.5731  0.4002  1.1792
  211MPD1    H7 3270   0.923   1.849  14.967  1.6680  0.0396 -1.1742
  212MPD1     C 3271   0.729   0.101  16.718  0.3678  0.0850 -0.1895
  212MPD1    C1 3272   0.791   4.718  16.743 -0.3048  0.3456  0.3065
  212MPD1    C2 3273   0.727   4.629  16.832 -0.3841 -0.5179  0.3738
  212MPD1    C3 3274   0.595   4.650  16.859  0.1764  0.3317  0.9050
  212MPD1    C4 3275   0.532   0.025  16.828 -0.3238 -0.1573  0.4298
  212MPD1    C5 3276   0.598   0.122  16.756  0.6103 -0.2313 -0.1664
  212MPD1     H 3277   0.790   4.547  16.863  2.7238  1.8296  0.3001
  212MPD1    H1 3278   0.428   0.041  16.855  0.0557 -0.6031  2.1402
  212MPD1    H2 3279   0.783   0.182  16.670  0.7888  1.1932  2.1565
  212MPD1    H3 3280   0.560   0.222  16.741  0.8236  0.0294  1.0613
  212MPD1     N 3281   0.517   4.557  16.929 -0.4369 -0.6777 -0.0806
  212MPD1    H5 3282   0.432   4.595  16.968  0.6294  2.0731 -0.3940
  212MPD1    N1 3283   0.930   4.708  16.721  0.2930  0.0594  0.2168
  212MPD1    H6 3284   0.952   0.021  16.638 -1.2890 -3.2542 -2.3366
  212MPD1    H7 3285   0.955   4.609  16.718  1.2810  0.4501 -3.7871
  213MPD1     C 3286   3.509   0.473  15.636 -0.2951  0.1002  0.4730
  213MPD1    C1 3287   3.391   0.449  15.703 -0.2068  0.5723 -0.0727
  213MPD1    C2 3288   3.282   0.525  15.660 -0.4072 -0.2160 -0.0815
  213MPD1    C3 3289   3.277   0.610  15.554 -0.0076 -0.1805  0.5507
  213MPD1    C4 3290   3.393   0.622  15.480 -0.3865 -0.4976 -0.1177
  213MPD1    C5 3291   3.502   0.545  15.525  0.1011  1.3848 -0.0500
  213MPD1     H 3292   3.191   0.517  15.718 -0.2962 -1.5793 -0.0970
  213MPD1    H1 3293   3.402   0.680  15.389  1.6519 -0.5621  0.0567
  213MPD1    H2 3294   3.599   0.415  15.655 -1.7495 -1.8692  1.3627
  213MPD1    H3 3295   3.597   0.536  15.472  0.0435  0.2820  0.0415
  213MPD1     N 3296   3.154   0.671  15.518  0.5839  0.2033 -0.2571
  213MPD1    H5 3297   3.079   0.660  15.585 -0.0531 -0.9830 -1.1727
  213MPD1    N1 3298   3.405   0.412  15.838  0.0324  0.0363  0.2217
  213MPD1    H6 3299   3.479   0.346  15.862 -3.2475 -4.5512 -2.2519
  213MPD1    H7 3300   3.316   0.377  15.872  1.1283 -0.5582  2.4660
  214MPD1     C 3301   2.175   0.662  15.646  0.5017 -0.2139 -0.0035
  214MPD1    C1 3302   2.284   0.635  15.715 -0.3934 -0.3873  0.3842
  214MPD1    C2 3303   2.409   0.668  15.663 -0.1569 -0.9060  0.2093
  214MPD1    C3 3304   2.418   0.717  15.532  0.6165  1.3543  0.8158
  214MPD1    C4 3305   2.308   0.745  15.462 -0.1507  0.6778 -0.1583
  214MPD1    C5 3306   2.188   0.715  15.521  0.3202  0.4013 -0.1027
  214MPD1     H 3307   2.498   0.659  15.724  0.0760 -0.9967 -0.1411
  214MPD1    H1 3308   2.316   0.811  15.376 -0.0555 -0.0880 -0.7454
  214MPD1    H2 3309   2.077   0.647  15.690  0.8961 -0.1099  0.9136
  214MPD1    H3 3310   2.095   0.750  15.477  0.3608 -1.2563 -1.4990
  214MPD1     N 3311   2.543   0.750  15.473  0.3330 -0.6323  0.2162
  214MPD1    H5 3312   2.539   0.785  15.378 -2.0516 -0.2363  0.4719
  214MPD1    N1 3313   2.272   0.587  15.848  0.3497  0.2645 -0.5746
  214MPD1    H6 3314   2.353   0.537  15.883  0.3334  0.3185 -0.4591
  214MPD1    H7 3315   2.196   0.521  15.864 -0.3007  0.6954 -1.8027
  215MPD1     C 3316   2.500   1.621  11.275 -0.9758  0.1634 -0.3853
  215MPD1    C1 3317   2.568   1.652  11.391 -0.4096  0.4545  0.1570
  215MPD1    C2 3318   2.669   1.750  11.380  0.1050 -0.4821 -1.2141
  215MPD1    C3 3319   2.700   1.818  11.256 -0.7130 -0.0990  0.0130
  215MPD1    C4 3320   2.637   1.778  11.142  0.4722 -0.7872 -0.4119
  215MPD1    C5 3321   2.531   1.687  11.157  0.2162 -0.2786  0.5648
  215MPD1     H 3322   2.731   1.778  11.465  0.2934 -1.0252 -1.1682
  215MPD1    H1 3323   2.659   1.799  11.038  2.5489 -1.0963 -0.0391
  215MPD1    H2 3324   2.425   1.542  11.272 -0.5832 -0.1801 -1.0497
  215MPD1    H3 3325   2.483   1.660  11.064  1.2104  2.6990 -0.8159
  215MPD1     N 3326   2.797   1.922  11.253  0.2757  0.4903  0.2364
  215MPD1    H5 3327   2.834   1.949  11.343 -1.9039 -2.3458  1.9742
  215MPD1    N1 3328   2.564   1.555  11.489 -0.0428 -0.1336  0.0865
  215MPD1    H6 3329   2.471   1.514  11.490 -0.4979  0.9249  0.5053
  215MPD1    H7 3330   2.586   1.596  11.580  2.1061 -0.7790 -0.1422
  216MPD1     C 3331   0.497   0.615   0.205 -0.7657  0.2884  0.3210
  216MPD1    C1 3332   0.368   0.575   0.183 -0.0754  0.3299  0.8132
  216MPD1    C2 3333   0.337   0.443   0.205 -0.1906  0.8173 -0.0772
  216MPD1    C3 3334   0.434   0.359   0.259  0.2349  0.2488  0.8621
  216MPD1    C4 3335   0.549   0.410   0.303  0.6903 -0.3348  0.4432
  216MPD1    C5 3336   0.584   0.536   0.276 -0.3654  0.1865  0.7460
  216MPD1     H 3337   0.233   0.416   0.189 -0.3038 -0.3748  2.7230
  216MPD1    H1 3338   0.628   0.358   0.356  1.0899 -0.1906 -0.0144
  216MPD1    H2 3339   0.532   0.715   0.183 -1.2094  0.4618  0.4029
  216MPD1    H3 3340   0.680   0.564   0.317 -0.2137 -2.6557  2.3325
  216MPD1     N 3341   0.395   0.222   0.272 -1.1140  0.1789  0.4304
  216MPD1    H5 3342   0.300   0.203   0.241 -0.5333  1.7532 -2.2639
  216MPD1    N1 3343   0.264   0.661   0.134  0.8032 -0.2917 -0.2322
  216MPD1    H6 3344   0.297   0.757   0.131  0.7974 -0.1907  2.2625
  216MPD1    H7 3345   0.196   0.657   0.209  1.6738 -1.0666  0.5246
  217MPD1     C 3346   1.402   4.424   8.749  0.4373  0.7374  0.2947
  217MPD1    C1 3347   1.302   4.422   8.838 -0.4974  0.0622 -0.1776
  217MPD1    C2 3348   1.272   4.538   8.910 -0.1373 -0.4698  0.1723
  217MPD1    C3 3349   1.349   4.657   8.890  0.5716  0.1254  0.3785
  217MPD1    C4 3350   1.461   4.651   8.812 -0.8817 -0.6277 -0.4146
  217MPD1    C5 3351   1.485   4.534   8.742  0.1783  0.6393  0.2735
  217MPD1     H 3352   1.184   4.528   8.973 -0.3982 -0.3283 -0.1735
  217MPD1    H1 3353   1.532   4.733   8.807 -1.1958 -0.2148  1.6747
  217MPD1    H2 3354   1.425   4.332   8.696  0.9428  1.4987 -0.8238
  217MPD1    H3 3355   1.561   4.529   8.664 -0.1939  1.4254 -0.1363
  217MPD1     N 3356   1.319   0.030   8.965 -0.1123  0.1507  0.8643
  217MPD1    H5 3357   1.385   0.107   8.970  0.6397 -0.3766 -0.8971
  217MPD1    N1 3358   1.212   4.310   8.827  0.2200 -0.1834 -0.0835
  217MPD1    H6 3359   1.269   4.226   8.820 -1.3130 -1.5143  3.8430
  217MPD1    H7 3360   1.170   4.306   8.919  1.2082 -0.9864  0.3347
  218MPD1     C 3361   3.051   2.422  13.420 -0.1670  0.2589 -0.3019
  218MPD1    C1 3362   3.164   2.457  13.355 -0.1655 -0.4151  0.2393
  218MPD1    C2 3363   3.212   2.383  13.257 -0.7746 -0.7257 -0.0469
  218MPD1    C3 3364   3.149   2.266  13.217 -0.6212  0.0808  0.6447
  218MPD1    C4 3365   3.027   2.231  13.278 -0.7433 -0.0298 -0.6277
  218MPD1    C5 3366   2.978   2.317  13.377 -0.3173 -0.1597  0.1429
  218MPD1     H 3367   3.307   2.412  13.213 -1.1966  1.6353  0.5832
  218MPD1    H1 3368   2.962   2.147  13.257  0.6306 -1.4897  0.9400
  218MPD1    H2 3369   3.016   2.494  13.492 -1.6018 -0.8029  0.0617
  218MPD1    H3 3370   2.888   2.291  13.431 -0.6108  1.7081  0.5442
  218MPD1     N 3371   3.210   2.193  13.117 -0.0273 -0.1359 -0.0510
  218MPD1    H5 3372   3.282   2.238  13.061 -0.3901 -0.2672 -0.6294
  218MPD1    N1 3373   3.239   2.561  13.409 -0.5357  0.1221  0.1612
  218MPD1    H6 3374   3.170   2.632  13.431  0.5002  1.3940 -0.6807
  218MPD1    H7 3375   3.314   2.588  13.345 -1.0987 -1.7428 -1.2657
  219MPD1     C 3376   3.816   2.209  12.374 -0.3828 -0.0890  0.4630
  219MPD1    C1 3377   3.803   2.260  12.497 -0.4657 -0.3095 -0.5703
  219MPD1    C2 3378   3.700   2.212  12.577 -0.3357  0.3998 -0.9168
  219MPD1    C3 3379   3.626   2.095  12.543 -0.6239 -0.3979  0.3932
  219MPD1    C4 3380   3.650   2.037  12.417 -0.0417  0.3352 -0.0104
  219MPD1    C5 3381   3.752   2.097  12.341 -0.1153  0.5104  0.1118
  219MPD1     H 3382   3.682   2.266  12.669  0.7617  0.2952 -0.6414
  219MPD1    H1 3383   3.603   1.947  12.378  0.2166  0.7103 -1.1862
  219MPD1    H2 3384   3.889   2.239  12.301 -1.8171  0.0087 -0.9210
  219MPD1    H3 3385   3.774   2.054  12.244 -0.6840  1.9429 -0.6420
  219MPD1     N 3386   3.538   2.040  12.637 -0.0018 -1.0947  0.5776
  219MPD1    H5 3387   3.504   1.946  12.620 -1.3735 -0.7051  1.1176
  219MPD1    N1 3388   3.875   2.375  12.538  0.1018 -0.2974  0.2446
  219MPD1    H6 3389   3.974   2.374  12.514  0.1283  0.1667  0.3366
  219MPD1    H7 3390   3.877   2.384  12.640  3.1613  1.9313 -0.0315
  220MPD1     C 3391   2.507   2.664   9.439 -1.0190 -0.1451  0.3010
  220MPD1    C1 3392   2.477   2.534   9.486 -0.5011  0.2681 -0.0904
  220MPD1    C2 3393   2.500   2.508   9.623  0.0963  0.3951  0.0270
  220MPD1    C3 3394   2.586   2.594   9.691  0.3966  0.2088 -0.4537
  220MPD1    C4 3395   2.631   2.711   9.640  0.6106 -0.2416 -0.2209
  220MPD1    C5 3396   2.586   2.746   9.515  0.6912  0.6611  0.3753
  220MPD1     H 3397   2.454   2.428   9.679 -1.2140  0.5407 -0.8272
  220MPD1    H1 3398   2.697   2.769   9.704 -0.7412  1.4114 -0.3177
  220MPD1    H2 3399   2.478   2.703   9.342 -0.3189 -0.2672  0.0424
  220MPD1    H3 3400   2.618   2.841   9.475  0.8566  0.3749 -0.1691
  220MPD1     N 3401   2.627   2.549   9.821 -0.1577  0.2683 -0.5224
  220MPD1    H5 3402   2.576   2.465   9.848 -0.0719  0.2121 -0.5310
  220MPD1    N1 3403   2.389   2.457   9.419  0.2584  0.2311  0.4091
  220MPD1    H6 3404   2.412   2.363   9.451  0.9971  0.3689  0.2751
  220MPD1    H7 3405   2.413   2.464   9.321 -1.3867  0.5612  0.0199
  221MPD1     C 3406   1.847   0.710  16.815  0.7253 -0.3159  0.1151
  221MPD1    C1 3407   1.739   0.629  16.788 -0.4405 -0.2165 -0.4860
  221MPD1    C2 3408   1.638   0.687  16.718 -0.3774  0.5829 -0.5962
  221MPD1    C3 3409   1.649   0.810  16.656  0.8212 -0.4026 -0.1889
  221MPD1    C4 3410   1.762   0.886  16.679  0.0806 -0.1601 -0.7130
  221MPD1    C5 3411   1.859   0.837  16.758  0.0576  0.3508 -0.5192
  221MPD1     H 3412   1.561   0.616  16.691 -1.1616  1.3615 -0.4152
  221MPD1    H1 3413   1.767   0.986  16.637  1.9500  1.1172  2.5161
  221MPD1    H2 3414   1.922   0.670  16.882  0.9797 -0.3856 -0.2123
  221MPD1    H3 3415   1.945   0.897  16.785 -0.9670  1.1494  0.9629
  221MPD1     N 3416   1.553   0.850  16.564 -0.1744 -0.3296 -0.3627
  221MPD1    H5 3417   1.576   0.921  16.495 -0.8604  0.3560  0.1211
  221MPD1    N1 3418   1.708   0.511  16.853 -0.2543 -0.3525 -0.4435
  221MPD1    H6 3419   1.657   0.446  16.794  0.0565 -0.1623 -0.9235
  221MPD1    H7 3420   1.791   0.463  16.886 -2.7806 -3.1348  1.8139
  222MPD1     C 3421   4.444   0.451  17.427  0.8710  0.5367 -0.2430
  222MPD1    C1 3422   4.310   0.448  17.405 -0.1523  0.0233 -0.2736
  222MPD1    C2 3423   4.225   0.466  17.516  0.1240 -0.5744 -0.1446
  222MPD1    C3 3424   4.283   0.531  17.626  0.3150 -0.4672  0.0205
  222MPD1    C4 3425   4.415   0.566  17.627  0.3583  0.7354  0.0145
  222MPD1    C5 3426   4.500   0.529  17.523 -0.0297 -0.2554  0.5304
  222MPD1     H 3427   4.122   0.434  17.506  0.2153  0.0540 -3.2878
  222MPD1    H1 3428   4.446   0.596  17.727  1.2526 -0.6818  0.1591
  222MPD1    H2 3429   4.514   0.399  17.364 -0.0940 -0.7666 -0.2253
  222MPD1    H3 3430   4.608   0.531  17.533 -0.2569 -1.6729  3.2994
  222MPD1     N 3431   4.205   0.565  17.738  0.2028  0.0304  0.7215
  222MPD1    H5 3432   4.259   0.616   0.046  0.4541  1.2452 -0.3935
  222MPD1    N1 3433   4.265   0.387  17.281 -0.2725 -0.1815 -0.1729
  222MPD1    H6 3434   4.165   0.399  17.265 -0.4189  0.2496  1.0446
  222MPD1    H7 3435   4.303   0.432  17.199 -0.3185  2.4873  1.2819
  223MPD1     C 3436   3.407   0.327   0.711 -0.0593 -0.1403  0.4806
  223MPD1    C1 3437   3.476   0.436   0.762 -1.1870 -0.2128  0.2780
  223MPD1    C2 3438   3.577   0.484   0.678 -0.0910  0.0446 -0.0242
  223MPD1    C3 3439   3.612   0.434   0.554 -1.2378 -0.5066 -0.2787
  223MPD1    C4 3440   3.556   0.317   0.517  0.2549  0.1258 -0.6825
  223MPD1    C5 3441   3.457   0.270   0.596  0.1438 -0.2104 -0.7168
  223MPD1     H 3442   3.639   0.563   0.717 -1.1571  0.6555  0.4438
  223MPD1    H1 3443   3.575   0.261   0.426  2.0184 -0.4018  0.0209
  223MPD1    H2 3444   3.321   0.281   0.758 -0.6543  0.5820  0.0828
  223MPD1    H3 3445   3.408   0.185   0.551 -0.6518 -1.1874  1.9877
  223MPD1     N 3446   3.708   0.498   0.471  0.0664 -0.2753 -0.2496
  223MPD1    H5 3447   3.751   0.584   0.502  0.3117 -0.6700  0.4861
  223MPD1    N1 3448   3.444   0.499   0.885  0.0273 -0.4409  0.1586
  223MPD1    H6 3449   3.534   0.528   0.922  0.6907 -0.8223 -1.1520
  223MPD1    H7 3450   3.385   0.445   0.948  1.3761 -1.2923  0.6986
  224MPD1     C 3451   1.163   1.468   8.995 -0.4333 -0.4768 -0.4983
  224MPD1    C1 3452   1.150   1.599   9.028  0.1333 -0.0546 -0.8494
  224MPD1    C2 3453   1.174   1.634   9.163  0.1448  0.3682 -0.8190
  224MPD1    C3 3454   1.237   1.538   9.251 -0.5229 -0.0800 -0.0057
  224MPD1    C4 3455   1.254   1.411   9.212 -0.1456  0.0376 -0.5973
  224MPD1    C5 3456   1.212   1.377   9.090 -0.4437 -0.7110 -0.7970
  224MPD1     H 3457   1.159   1.733   9.206  3.2170  0.9212 -1.0443
  224MPD1    H1 3458   1.296   1.328   9.268 -0.8951  1.4896  2.1098
  224MPD1    H2 3459   1.140   1.441   8.893 -0.2040 -0.4688 -0.5533
  224MPD1    H3 3460   1.205   1.271   9.071 -0.0153 -0.7152 -0.9214
  224MPD1     N 3461   1.292   1.575   9.379  0.4534  0.4940  0.2959
  224MPD1    H5 3462   1.323   1.495   9.433 -1.0457  0.2448  0.7782
  224MPD1    N1 3463   1.095   1.688   8.936 -0.0582  0.6462 -0.5939
  224MPD1    H6 3464   1.151   1.774   8.941 -0.3859  0.6302  3.1454
  224MPD1    H7 3465   1.112   1.654   8.841  0.8814 -0.0748 -0.1683
  225MPD1     C 3466   3.530   2.914  12.317  0.7955 -0.0972 -0.7978
  225MPD1    C1 3467   3.471   2.896  12.194 -0.3389  0.0886  0.6139
  225MPD1    C2 3468   3.335   2.863  12.183 -0.7584 -0.2255  0.1243
  225MPD1    C3 3469   3.252   2.838  12.292  0.0153  0.1852 -0.4593
  225MPD1    C4 3470   3.316   2.845  12.414  0.3479  0.5940 -0.1983
  225MPD1    C5 3471   3.449   2.884  12.429 -0.6144  0.3098 -0.0660
  225MPD1     H 3472   3.291   2.867  12.084  1.1220  0.0790 -0.6915
  225MPD1    H1 3473   3.254   2.828  12.501 -1.5131 -0.1006 -1.6728
  225MPD1    H2 3474   3.636   2.931  12.324  0.3817  1.2878  2.4185
  225MPD1    H3 3475   3.491   2.895  12.529 -1.6741  0.5012  0.3507
  225MPD1     N 3476   3.117   2.812  12.296  0.0080 -0.1628 -0.4612
  225MPD1    H5 3477   3.080   2.799  12.390 -0.9953  0.4543 -0.7761
  225MPD1    N1 3478   3.529   2.945  12.076  0.8935  0.0154  0.6831
  225MPD1    H6 3479   3.631   2.953  12.077  1.0337 -1.8542  1.2528
  225MPD1    H7 3480   3.488   2.898  11.996 -2.6069  2.6834  0.9485
  226MPD1     C 3481   0.114   2.249  10.135  0.5235 -0.2083  0.1894
  226MPD1    C1 3482   0.155   2.357  10.205  0.0801 -0.1645  0.1881
  226MPD1    C2 3483   0.245   2.439  10.142  0.1334 -0.7103  0.2419
  226MPD1    C3 3484   0.297   2.418  10.014 -0.3401  0.5387  0.2383
  226MPD1    C4 3485   0.263   2.308   9.951 -0.7417 -0.4982  0.3420
  226MPD1    C5 3486   0.175   2.218  10.015 -0.2712  0.5542  0.2833
  226MPD1     H 3487   0.273   2.531  10.193 -2.8955  0.1083  0.4589
  226MPD1    H1 3488   0.308   2.279   9.857 -0.3315 -0.6361  0.5780
  226MPD1    H2 3489   0.035   2.184  10.172 -0.7526  1.7136  0.8107
  226MPD1    H3 3490   0.163   2.122   9.966  2.2513  0.7035 -0.5959
  226MPD1     N 3491   0.385   2.510   9.955  0.0669  0.2631 -0.6099
  226MPD1    H5 3492   0.411   2.585  10.018  0.7573 -1.6221  1.3452
  226MPD1    N1 3493   0.103   2.393  10.331  0.1278 -0.2095 -0.3755
  226MPD1    H6 3494   0.164   2.461  10.376 -2.3304  1.1906  0.8456
  226MPD1    H7 3495   0.076   2.311  10.385 -0.0739  0.3277  0.3394
  227MPD1     C 3496   0.678   3.451   9.929  0.3607 -0.9408  0.1383
  227MPD1    C1 3497   0.793   3.394   9.877  0.2465 -0.1087  0.5677
  227MPD1    C2 3498   0.794   3.264   9.848  1.6365  0.8844 -0.1910
  227MPD1    C3 3499   0.691   3.183   9.885 -0.0577 -0.1332  0.7327
  227MPD1    C4 3500   0.584   3.242   9.954  0.0005 -1.3290  0.2314
  227MPD1    C5 3501   0.572   3.380   9.968  0.0575  0.1795  0.2738
  227MPD1     H 3502   0.882   3.216   9.807  1.5015 -1.3592  2.1400
  227MPD1    H1 3503   0.501   3.177   9.980  1.0304 -1.3945  3.4238
  227MPD1    H2 3504   0.665   3.559   9.934 -1.8102 -1.0449 -3.0382
  227MPD1    H3 3505   0.480   3.426  10.003 -1.5940 -1.7718 -1.5424
  227MPD1     N 3506   0.707   3.044   9.864  0.2777 -0.5149  0.0946
  227MPD1    H5 3507   0.789   3.010   9.815 -0.0467 -0.6965 -0.3300
  227MPD1    N1 3508   0.894   3.478   9.821  0.2231  0.0687  0.1731
  227MPD1    H6 3509   0.907   3.565   9.872 -0.1169 -0.3481  0.9648
  227MPD1    H7 3510   0.984   3.432   9.827 -1.1525 -2.5663  0.8979
  228MPD1     C 3511   0.063   0.771  12.843  0.0572  0.9812 -0.6140
  228MPD1    C1 3512   4.705   0.787  12.746  0.2422 -0.5792 -0.2382
  228MPD1    C2 3513   4.587   0.737  12.783  0.3292  0.4049  0.7204
  228MPD1    C3 3514   4.564   0.649  12.886  0.6411  0.5771  1.3450
  228MPD1    C4 3515   4.668   0.608  12.965  0.0805 -1.0047 -0.2914
  228MPD1    C5 3516   0.040   0.681  12.948  0.3518 -0.0400 -0.8434
  228MPD1     H 3517   4.507   0.747  12.711 -0.5418  2.1889  1.9412
  228MPD1    H1 3518   4.668   0.524  13.034  1.3048 -2.6336 -2.2965
  228MPD1    H2 3519   0.158   0.821  12.831  0.8213 -0.0435  1.2164
  228MPD1    H3 3520   0.131   0.663  13.003 -0.3380 -0.8968  0.0258
  228MPD1     N 3521   4.434   0.594  12.888  0.7983 -0.3195 -0.2294
  228MPD1    H5 3522   4.369   0.629  12.817  1.1754  1.9779  0.5587
  228MPD1    N1 3523   4.727   0.878  12.633  0.6509 -0.2608  0.3724
  228MPD1    H6 3524   4.663   0.861  12.556  1.5523  0.6506 -0.5726
  228MPD1    H7 3525   0.083   0.888  12.603  0.4461  1.8625  0.4022
  229MPD1     C 3526   3.307   3.350  14.793 -0.1490 -0.1347  0.4154
  229MPD1    C1 3527   3.379   3.426  14.885 -0.0210  0.6689  0.4624
  229MPD1    C2 3528   3.439   3.359  14.990  0.1875  0.0838  0.1826
  229MPD1    C3 3529   3.423   3.218  15.009 -0.7790  0.2994 -0.6365
  229MPD1    C4 3530   3.362   3.149  14.911  0.5090 -0.2790 -0.2756
  229MPD1    C5 3531   3.303   3.215  14.802 -0.0423 -0.2555 -0.4829
  229MPD1     H 3532   3.505   3.404  15.063 -0.8188 -1.6829  2.1561
  229MPD1    H1 3533   3.363   3.041  14.925  0.4746  0.1180  2.8234
  229MPD1    H2 3534   3.264   3.398  14.705  0.4348  0.7052  0.5839
  229MPD1    H3 3535   3.236   3.166  14.733  0.3252  1.5966 -2.1471
  229MPD1     N 3536   3.488   3.142  15.107  0.6567 -0.2971  0.2118
  229MPD1    H5 3537   3.475   3.043  15.089  0.1267 -0.4162  1.2574
  229MPD1    N1 3538   3.401   3.559  14.862  0.2596 -0.3125 -0.0754
  229MPD1    H6 3539   3.334   3.607  14.802  0.1421 -1.3681 -0.8058
  229MPD1    H7 3540   3.430   3.605  14.948  1.9192 -0.1954 -0.6972
  230MPD1     C 3541   4.362   3.167  15.751 -0.0923  0.0230 -0.3772
  230MPD1    C1 3542   4.380   3.102  15.629 -1.0929 -0.0664  0.3513
  230MPD1    C2 3543   4.270   3.086  15.551 -0.1143  0.1399 -0.3063
  230MPD1    C3 3544   4.147   3.144  15.584 -0.4687  0.4173  0.1621
  230MPD1    C4 3545   4.128   3.211  15.701  0.1885  0.2029  0.2383
  230MPD1    C5 3546   4.240   3.226  15.782 -0.2023  0.0948  0.4084
  230MPD1     H 3547   4.270   3.027  15.460  1.8039 -0.1077 -0.1410
  230MPD1    H1 3548   4.030   3.248  15.730 -0.2552 -0.9915  0.2489
  230MPD1    H2 3549   4.444   3.180  15.821 -1.3155 -1.4133  1.3298
  230MPD1    H3 3550   4.230   3.280  15.875  2.9135  2.3120 -0.5508
  230MPD1     N 3551   4.039   3.120  15.493  0.3411  0.4101 -0.6264
  230MPD1    H5 3552   4.071   3.101  15.399  2.0684 -1.4590  0.3431
  230MPD1    N1 3553   4.500   3.037  15.597 -0.0190 -0.0496  0.0787
  230MPD1    H6 3554   4.587   3.089  15.607  0.0486 -0.2472  0.5564
  230MPD1    H7 3555   4.503   2.992  15.506 -0.0399 -0.3290  0.2159
  231MPD1     C 3556   2.381   1.065  15.487 -0.0454 -0.2526 -0.4594
  231MPD1    C1 3557   2.302   1.086  15.376  0.1100 -0.7875  0.6360
  231MPD1    C2 3558   2.356   1.163  15.276 -0.0772  0.4015  0.0114
  231MPD1    C3 3559   2.485   1.217  15.273  0.4304 -0.4830 -0.4511
  231MPD1    C4 3560   2.558   1.188  15.384  0.9510 -0.0055 -0.0443
  231MPD1    C5 3561   2.506   1.117  15.484 -0.4707 -0.2244  0.1466
  231MPD1     H 3562   2.295   1.177  15.187  1.5939 -0.4735 -1.2575
  231MPD1    H1 3563   2.658   1.230  15.396  0.4686  1.5196 -1.3412
  231MPD1    H2 3564   2.348   1.015  15.577  0.3704  0.3497  0.0258
  231MPD1    H3 3565   2.564   1.094  15.572 -1.3711  1.5020  1.2122
  231MPD1     N 3566   2.531   1.291  15.162  0.2154 -0.5558 -0.5771
  231MPD1    H5 3567   2.466   1.287  15.083  2.1205 -1.5442 -2.0900
  231MPD1    N1 3568   2.161   1.056  15.367 -0.2799  0.2428 -0.1720
  231MPD1    H6 3569   2.149   0.972  15.423 -2.1088 -0.6114 -1.8730
  231MPD1    H7 3570   2.136   1.038  15.270 -1.0303 -0.7741  0.2081
  232MPD1     C 3571   4.449   3.676   0.573  0.5353 -0.2067  0.3045
  232MPD1    C1 3572   4.346   3.766   0.603 -0.2073  0.1065  0.2664
  232MPD1    C2 3573   4.236   3.765   0.521  0.6209 -0.6849 -0.0688
  232MPD1    C3 3574   4.228   3.682   0.412  0.3178  0.7366 -0.7801
  232MPD1    C4 3575   4.330   3.598   0.382  0.2591 -0.9682  0.0546
  232MPD1    C5 3576   4.441   3.600   0.460  0.0586  0.2160 -0.1369
  232MPD1     H 3577   4.156   3.834   0.542  0.2203 -1.0926 -0.2676
  232MPD1    H1 3578   4.328   3.537   0.292  2.4717 -1.0009  0.0139
  232MPD1    H2 3579   4.536   3.671   0.638  0.4415 -1.9295  0.3070
  232MPD1    H3 3580   4.519   3.528   0.440  1.2233  1.6608 -0.8126
  232MPD1     N 3581   4.114   3.685   0.327  0.0600  0.0259 -0.1582
  232MPD1    H5 3582   4.037   3.745   0.357 -0.5456 -1.2178  0.7940
  232MPD1    N1 3583   4.353   3.840   0.723  0.3486 -0.4020  0.2630
  232MPD1    H6 3584   4.298   3.924   0.706  2.9077  1.2829  0.3207
  232MPD1    H7 3585   4.447   3.870   0.748  0.0463 -0.9737  2.0878
  233MPD1     C 3586   4.145   1.287   0.923 -0.7632  0.0165  1.2909
  233MPD1    C1 3587   4.230   1.389   0.939  0.3863 -0.3251  0.3506
  233MPD1    C2 3588   4.365   1.349   0.965  0.0349 -0.3503 -0.2728
  233MPD1    C3 3589   4.409   1.211   0.949 -0.4207  0.0901  0.2787
  233MPD1    C4 3590   4.318   1.114   0.924 -0.2257  0.3067  0.9749
  233MPD1    C5 3591   4.188   1.159   0.912  0.6125 -0.4502  0.0435
  233MPD1     H 3592   4.432   1.432   0.982  0.4503 -0.4207 -1.6065
  233MPD1    H1 3593   4.349   1.012   0.906 -0.5530 -0.0023  2.1203
  233MPD1    H2 3594   4.040   1.307   0.905 -0.4761  0.6014  0.2546
  233MPD1    H3 3595   4.111   1.086   0.889  0.7965 -0.2102 -1.3291
  233MPD1     N 3596   4.547   1.174   0.947 -0.1906 -0.5713  0.6685
  233MPD1    H5 3597   4.569   1.075   0.959 -1.5590 -0.8791  0.6718
  233MPD1    N1 3598   4.187   1.525   0.946  0.4333 -0.1522  0.3620
  233MPD1    H6 3599   4.261   1.587   0.915  1.5295 -1.9446 -0.5920
  233MPD1    H7 3600   4.102   1.540   0.892  1.1922 -1.6291 -1.2510
  234MPD1     C 3601   2.033   0.301  10.535 -0.3380 -0.0237 -0.0488
  234MPD1    C1 3602   2.035   0.439  10.520 -0.0949  0.0122  0.3471
  234MPD1    C2 3603   1.957   0.486  10.419  0.4186 -0.4178 -0.5700
  234MPD1    C3 3604   1.883   0.410  10.330  0.3605  0.6141 -0.1271
  234MPD1    C4 3605   1.896   0.276  10.342 -0.6888 -0.0523 -0.5395
  234MPD1    C5 3606   1.963   0.225  10.447 -0.0386  0.3846  0.1221
  234MPD1     H 3607   1.952   0.594  10.417 -0.0427 -0.3870  1.3898
  234MPD1    H1 3608   1.845   0.212  10.271  1.3746 -0.3867 -1.7144
  234MPD1    H2 3609   2.079   0.245  10.616  0.9175 -0.4144 -1.0360
  234MPD1    H3 3610   1.964   0.116  10.451 -0.4188  0.4087  0.9466
  234MPD1     N 3611   1.806   0.472  10.219  0.2255  0.9196  1.6047
  234MPD1    H5 3612   1.819   0.572  10.208 -1.6430  0.8949 -0.8923
  234MPD1    N1 3613   2.120   0.516  10.595 -1.0802 -1.1911 -0.6451
  234MPD1    H6 3614   2.093   0.614  10.601 -1.1143 -1.2093 -0.4925
  234MPD1    H7 3615   2.140   0.467  10.682 -1.0806 -0.5818 -0.3076
  235MPD1     C 3616   2.662   3.190  10.464  0.1684 -0.3437  0.2266
  235MPD1    C1 3617   2.789   3.244  10.506 -0.9052 -0.0176 -1.3867
  235MPD1    C2 3618   2.884   3.258  10.408  0.1280 -0.1796  0.7473
  235MPD1    C3 3619   2.851   3.213  10.280 -0.8282 -0.3096  0.2342
  235MPD1    C4 3620   2.728   3.159  10.246 -0.5832  0.8199 -0.0250
  235MPD1    C5 3621   2.637   3.143  10.339  0.3343 -0.0557  0.7598
  235MPD1     H 3622   2.980   3.302  10.432  0.0773  0.6000 -0.4632
  235MPD1    H1 3623   2.691   3.130  10.148  0.0257  1.0010 -0.3156
  235MPD1    H2 3624   2.578   3.185  10.532 -0.3916  0.9007 -0.3777
  235MPD1    H3 3625   2.540   3.113  10.302  0.1508 -0.5684  1.6566
  235MPD1     N 3626   2.960   3.229  10.187  0.5411  0.6889 -0.2805
  235MPD1    H5 3627   3.040   3.287  10.211  0.1763 -0.2071  3.1128
  235MPD1    N1 3628   2.814   3.292  10.636  0.6855  0.5546  0.4603
  235MPD1    H6 3629   2.767   3.240  10.710 -2.5742  0.3474 -1.7898
  235MPD1    H7 3630   2.914   3.287  10.657  0.6407 -2.4510 -0.0151
  236MPD1     C 3631   2.449   4.426  10.298  0.7072 -0.2961 -0.5302
  236MPD1    C1 3632   2.558   4.504  10.259 -0.9457 -0.3634 -0.0107
  236MPD1    C2 3633   2.673   4.492  10.334 -0.7744 -0.1620  0.3811
  236MPD1    C3 3634   2.693   4.394  10.433  0.0987  0.1896 -0.6291
  236MPD1    C4 3635   2.585   4.311  10.456  0.1851  0.7263  0.5809
  236MPD1    C5 3636   2.466   4.328  10.392 -0.4907 -0.0692  0.2568
  236MPD1     H 3637   2.755   4.552  10.296 -0.0927  0.0977  2.2624
  236MPD1    H1 3638   2.593   4.229  10.527  1.5841 -1.0653 -1.6351
  236MPD1    H2 3639   2.349   4.437  10.258  1.0476  2.9459 -0.4691
  236MPD1    H3 3640   2.377   4.266  10.405  0.2623 -0.9828  1.0613
  236MPD1     N 3641   2.818   4.354  10.484 -0.3846 -0.3981 -0.1843
  236MPD1    H5 3642   2.835   4.262  10.523 -2.0859  0.2481  2.0695
  236MPD1    N1 3643   2.536   4.611  10.174 -0.9476 -0.2648  0.9021
  236MPD1    H6 3644   2.615   4.623  10.111  1.7380 -2.4152  3.8590
  236MPD1    H7 3645   2.461   4.594  10.107 -0.0587  0.9810 -0.4074
  237MPD1     C 3646   2.768   3.104  15.150  0.9080 -0.0413 -0.7138
  237MPD1    C1 3647   2.642   3.118  15.094 -0.5820  0.1441 -0.3371
  237MPD1    C2 3648   2.566   3.009  15.084 -0.0493 -0.2244  0.7629
  237MPD1    C3 3649   2.617   2.878  15.109  0.4092 -0.3139  0.7202
  237MPD1    C4 3650   2.743   2.862  15.169 -0.0789  0.0216 -0.3769
  237MPD1    C5 3651   2.820   2.979  15.184  0.1469 -0.4174  0.3307
  237MPD1     H 3652   2.467   3.017  15.041  1.0709 -0.9399 -1.9441
  237MPD1    H1 3653   2.789   2.765  15.178  0.0836 -0.0206 -1.7140
  237MPD1    H2 3654   2.823   3.190  15.187 -1.7577  0.5969  1.7989
  237MPD1    H3 3655   2.920   2.978  15.226  0.5541  0.9020 -0.6192
  237MPD1     N 3656   2.545   2.755  15.088  0.2514  0.2297 -0.9815
  237MPD1    H5 3657   2.594   2.674  15.123  0.9432  1.6132  1.2379
  237MPD1    N1 3658   2.589   3.250  15.078  0.2486  0.0392 -0.0111
  237MPD1    H6 3659   2.652   3.330  15.073 -0.9484  1.0257  0.5912
  237MPD1    H7 3660   2.518   3.262  15.006  0.6016  1.9609 -0.0342
  238MPD1     C 3661   4.220   0.702  15.741 -0.1345  0.1718  0.6997
  238MPD1    C1 3662   4.334   0.680  15.675 -0.3392  0.0714 -0.4258
  238MPD1    C2 3663   4.326   0.638  15.548 -0.1302 -0.9573 -0.5499
  238MPD1    C3 3664   4.213   0.568  15.509  1.1904 -0.2168  0.4212
  238MPD1    C4 3665   4.099   0.583  15.584 -0.3514  0.0152 -0.2140
  238MPD1    C5 3666   4.101   0.657  15.693 -0.5115 -0.4308 -0.3457
  238MPD1     H 3667   4.421   0.629  15.497 -1.8568 -0.8493 -3.7225
  238MPD1    H1 3668   4.000   0.552  15.553  0.1931 -0.4576 -1.5044
  238MPD1    H2 3669   4.197   0.754  15.833 -1.8688 -0.5988  0.7047
  238MPD1    H3 3670   4.007   0.670  15.745 -1.4201 -0.7510 -1.9095
  238MPD1     N 3671   4.194   0.487  15.390  0.6077  0.3612 -0.1121
  238MPD1    H5 3672   4.108   0.434  15.378  2.4675 -1.9581 -3.0321
  238MPD1    N1 3673   4.452   0.740  15.723  0.7001 -0.0924 -0.5803
  238MPD1    H6 3674   4.440   0.731  15.824 -2.4453  1.9073 -0.7663
  238MPD1    H7 3675   4.531   0.681  15.698  0.8107 -1.1320  2.1866
  239MPD1     C 3676   4.049   0.990  14.431 -0.5248  0.8814 -0.2854
  239MPD1    C1 3677   3.946   1.086  14.413  0.1051  0.0060 -0.7019
  239MPD1    C2 3678   3.976   1.215  14.387 -0.3290  0.0527 -0.2702
  239MPD1    C3 3679   4.106   1.261  14.377  0.5153 -0.5046 -0.5649
  239MPD1    C4 3680   4.208   1.161  14.388  0.0637 -0.4593 -0.3564
  239MPD1    C5 3681   4.181   1.029  14.405  0.2807  0.3131 -0.4529
  239MPD1     H 3682   3.894   1.286  14.392  0.7371  1.1348  1.8028
  239MPD1    H1 3683   4.314   1.183  14.393 -0.4163  1.0845  2.7337
  239MPD1    H2 3684   4.035   0.883  14.439 -0.0711  1.0135  2.2958
  239MPD1    H3 3685   4.259   0.954  14.407 -0.1089 -0.0473  1.6174
  239MPD1     N 3686   4.147   1.389  14.359  0.1748  0.0776  0.0985
  239MPD1    H5 3687   4.247   1.404  14.349 -0.1286  2.3225  0.3699
  239MPD1    N1 3688   3.820   1.038  14.450  1.3098 -0.3621  0.1678
  239MPD1    H6 3689   3.813   0.937  14.456 -0.9328 -0.0129  3.4654
  239MPD1    H7 3690   3.748   1.074  14.387 -0.7803 -0.6963  2.3604
  240MPD1     C 3691   4.503   1.059  14.809 -0.2167 -0.6174 -0.0562
  240MPD1    C1 3692   4.382   1.124  14.779 -0.1978 -0.2536 -0.0605
  240MPD1    C2 3693   4.269   1.041  14.765  0.1833  0.1693  0.5862
  240MPD1    C3 3694   4.278   0.906  14.798 -0.5186  0.8259  0.2184
  240MPD1    C4 3695   4.397   0.852  14.841  0.3189 -0.5303  0.2045
  240MPD1    C5 3696   4.512   0.924  14.836  0.4139 -0.2869  0.8247
  240MPD1     H 3697   4.167   1.067  14.739 -0.4692 -3.4723 -0.4913
  240MPD1    H1 3698   4.410   0.749  14.871 -0.2818 -0.7476 -0.2671
  240MPD1    H2 3699   4.596   1.112  14.792 -0.5401  0.2236  0.7945
  240MPD1    H3 3700   4.602   0.879  14.876 -0.6480 -3.1221  0.0586
  240MPD1     N 3701   4.167   0.815  14.778 -0.2580  0.1473  0.2838
  240MPD1    H5 3702   4.084   0.860  14.743  0.3146  0.0714 -1.1478
  240MPD1    N1 3703   4.372   1.264  14.761 -0.0148 -0.2288  0.0337
  240MPD1    H6 3704   4.277   1.295  14.783  0.2068 -0.7121  1.6504
  240MPD1    H7 3705   4.440   1.316  14.815 -0.3405 -1.1345  1.3325
  241MPD1     C 3706   3.390   0.339  15.297 -0.2645 -0.1140 -0.5179
  241MPD1    C1 3707   3.518   0.289  15.290 -0.0783  0.0310 -0.1119
  241MPD1    C2 3708   3.600   0.328  15.191 -0.2467  0.4270  0.9355
  241MPD1    C3 3709   3.568   0.429  15.100 -0.3844 -0.7124  0.2541
  241MPD1    C4 3710   3.444   0.489  15.117 -0.1979 -0.1818  0.0725
  241MPD1    C5 3711   3.362   0.446  15.218 -0.2517 -0.7639 -0.3697
  241MPD1     H 3712   3.691   0.269  15.192  1.7275  3.4202 -2.4760
  241MPD1    H1 3713   3.396   0.559  15.050  0.5074  0.7649  0.5706
  241MPD1    H2 3714   3.316   0.287  15.358 -0.2133  1.1306  0.5964
  241MPD1    H3 3715   3.257   0.474  15.210  0.4658  1.8168 -0.6532
  241MPD1     N 3716   3.645   0.460  14.985 -1.1051  0.4267 -0.0094
  241MPD1    H5 3717   3.599   0.525  14.922 -1.7431  1.7709  1.8398
  241MPD1    N1 3718   3.553   0.181  15.372 -0.2137  0.0947  0.4331
  241MPD1    H6 3719   3.653   0.182  15.390 -0.2944  0.4777  0.8618
  241MPD1    H7 3720   3.502   0.170  15.459 -0.7342  1.8559  0.3566
  242MPD1     C 3721   2.457   3.640  15.308 -0.0087  0.5092 -0.0316
  242MPD1    C1 3722   2.435   3.580  15.189 -0.3866 -0.6657 -0.6870
  242MPD1    C2 3723   2.515   3.599  15.082  0.7007 -0.0147  0.3467
  242MPD1    C3 3724   2.633   3.672  15.096  0.1895 -0.2684  0.1689
  242MPD1    C4 3725   2.655   3.736  15.224 -0.0194 -0.1291  0.0113
  242MPD1    C5 3726   2.567   3.723  15.325 -0.0577 -0.2880 -0.5211
  242MPD1     H 3727   2.494   3.554  14.985  2.8232 -1.3697  0.5087
  242MPD1    H1 3728   2.741   3.800  15.239 -0.3204  0.4577 -0.7272
  242MPD1    H2 3729   2.386   3.629  15.390  1.6692 -1.7798  1.1214
  242MPD1    H3 3730   2.588   3.777  15.417  2.9961 -1.7893 -0.3509
  242MPD1     N 3731   2.723   3.699  14.995 -0.2388  0.6796 -0.4609
  242MPD1    H5 3732   2.798   3.764  15.015 -2.5574  2.2431  3.2145
  242MPD1    N1 3733   2.314   3.517  15.166 -0.4437  0.2914  0.8244
  242MPD1    H6 3734   2.334   3.444  15.098 -0.1372  1.2569 -0.1344
  242MPD1    H7 3735   2.277   3.476  15.251 -0.3697 -1.9044 -0.2207
  243MPD1     C 3736   4.576   2.605  17.752 -0.5063 -0.0932  0.3899
  243MPD1    C1 3737   4.572   2.471  17.708  0.0779  0.3036 -0.0847
  243MPD1    C2 3738   4.693   2.414  17.682 -0.2227  1.1241 -0.0564
  243MPD1    C3 3739   0.068   2.478  17.722  0.2468 -0.1563 -0.2414
  243MPD1    C4 3740   0.075   2.604   0.023 -0.0903 -0.1007  0.4036
  243MPD1    C5 3741   4.697   2.673   0.024  0.5613 -0.6483  0.6424
  243MPD1     H 3742   4.691   2.313  17.642  1.5793  0.6448  1.0824
  243MPD1    H1 3743   0.168   2.644   0.061 -0.6617  0.2142  1.4538
  243MPD1    H2 3744   4.493   2.672   0.006  2.3530  3.4169  0.6672
  243MPD1    H3 3745   4.703   2.774   0.063 -0.7778  0.3880 -1.8527
  243MPD1     N 3746   0.187   2.406  17.697 -0.0864 -0.3739  0.2446
  243MPD1    H5 3747   0.181   2.317  17.649  0.0393  0.4218 -1.2661
  243MPD1    N1 3748   4.452   2.408  17.675 -0.0946 -0.0308  0.2353
  243MPD1    H6 3749   4.461   2.308  17.690  0.0961  0.2943  2.2470
  243MPD1    H7 3750   4.377   2.447  17.731 -0.8787  0.8469 -1.4213
  244MPD1     C 3751   0.557   1.536  17.463 -0.2127  0.7692 -0.6416
  244MPD1    C1 3752   0.592   1.612  17.350 -0.0898  0.6083 -0.8230
  244MPD1    C2 3753   0.566   1.748  17.349  0.1140  0.3765  0.3467
  244MPD1    C3 3754   0.503   1.811  17.458  0.2200 -0.7534 -0.2186
  244MPD1    C4 3755   0.470   1.735  17.566 -0.0185 -0.3709  0.2859
  244MPD1    C5 3756   0.491   1.600  17.569 -0.1722  0.4900 -0.1459
  244MPD1     H 3757   0.614   1.810  17.274  1.0723 -1.0335 -0.2190
  244MPD1    H1 3758   0.434   1.773  17.661  2.3453  1.5171  0.4212
  244MPD1    H2 3759   0.581   1.431  17.468 -0.7784  0.6068 -1.2997
  244MPD1    H3 3760   0.468   1.550  17.662  2.4418 -2.2698 -0.9830
  244MPD1     N 3761   0.503   1.953  17.455  0.0141  0.8667  0.1903
  244MPD1    H5 3762   0.574   1.996  17.396 -1.2839  0.5504 -1.6039
  244MPD1    N1 3763   0.673   1.541  17.253  0.4430  0.4026 -0.3753
  244MPD1    H6 3764   0.680   1.596  17.168  3.1754 -0.5876 -0.7831
  244MPD1    H7 3765   0.767   1.518  17.285  0.0597 -0.0451  0.4512
  245MPD1     C 3766   2.480   3.395  12.993 -0.1793  0.0571  0.0500
  245MPD1    C1 3767   2.538   3.402  13.113 -0.5207  0.6919  0.1772
  245MPD1    C2 3768   2.514   3.523  13.183 -0.3434  0.6058  0.0604
  245MPD1    C3 3769   2.465   3.640  13.118  0.7494  0.1682 -0.3957
  245MPD1    C4 3770   2.446   3.629  12.979 -0.1946  0.0493 -0.6516
  245MPD1    C5 3771   2.454   3.507  12.926 -0.0594  0.0468 -0.6958
  245MPD1     H 3772   2.541   3.530  13.288  1.0467  1.3742 -0.3411
  245MPD1    H1 3773   2.425   3.715  12.917 -4.4447 -0.0239  0.7171
  245MPD1    H2 3774   2.479   3.301  12.939 -0.3744  1.1518 -1.8207
  245MPD1    H3 3775   2.446   3.500  12.818  1.8145  1.3600 -0.9249
  245MPD1     N 3776   2.457   3.765  13.192  0.0155 -0.5010 -0.1187
  245MPD1    H5 3777   2.479   3.768  13.292  0.8562  0.1762 -0.3275
  245MPD1    N1 3778   2.584   3.291  13.180 -0.0052 -0.5531  0.0912
  245MPD1    H6 3779   2.653   3.321  13.248  0.9589  0.0165 -1.1385
  245MPD1    H7 3780   2.615   3.221  13.112  2.7469  1.7441 -1.0072
  246MPD1     C 3781   2.060   2.510   9.802 -0.8311  0.2608  0.4837
  246MPD1    C1 3782   1.953   2.593   9.816 -0.0161  0.5467  0.6873
  246MPD1    C2 3783   1.976   2.731   9.804  0.3518  1.2149 -1.1104
  246MPD1    C3 3784   2.099   2.789   9.788 -0.0856  0.3821 -0.0181
  246MPD1    C4 3785   2.211   2.706   9.796  0.1972  0.3157 -1.0040
  246MPD1    C5 3786   2.181   2.573   9.804  0.0076 -0.1510 -0.3241
  246MPD1     H 3787   1.887   2.791   9.818  0.1404  0.5878  0.2565
  246MPD1    H1 3788   2.313   2.732   9.770  1.1824 -0.4412  2.1032
  246MPD1    H2 3789   2.043   2.403   9.803  1.6674 -0.1543 -0.7380
  246MPD1    H3 3790   2.262   2.505   9.778  0.0185  0.5981 -2.2769
  246MPD1     N 3791   2.099   2.923   9.745 -0.0179  0.1971 -0.6493
  246MPD1    H5 3792   2.010   2.963   9.717 -0.7673 -0.4474  0.8038
  246MPD1    N1 3793   1.827   2.537   9.853  0.4855 -0.7957 -0.2574
  246MPD1    H6 3794   1.808   2.440   9.828  2.2072 -1.5450  1.3500
  246MPD1    H7 3795   1.759   2.599   9.810 -0.4417  0.0701  2.4930
  247MPD1     C 3796   1.895   4.392  17.070  0.0119  0.2333 -0.5475
  247MPD1    C1 3797   1.794   4.304  17.104 -0.4780 -0.5845  0.2086
  247MPD1    C2 3798   1.749   4.205  17.017 -0.0819 -0.3733  0.1907
  247MPD1    C3 3799   1.791   4.197  16.893 -0.4196  0.6917  0.0008
  247MPD1    C4 3800   1.892   4.281  16.856  0.1306 -0.4948 -0.5252
  247MPD1    C5 3801   1.949   4.373  16.945 -0.2723 -0.4148  0.0085
  247MPD1     H 3802   1.682   4.126  17.052 -0.7133  0.4015  0.7350
  247MPD1    H1 3803   1.927   4.284  16.754  3.9746  2.6426  0.8614
  247MPD1    H2 3804   1.940   4.461  17.141  1.3936 -0.6743 -0.5258
  247MPD1    H3 3805   2.034   4.437  16.924 -0.8820  0.0078 -1.1656
  247MPD1     N 3806   1.741   4.111  16.787  0.4857 -0.0853  0.3224
  247MPD1    H5 3807   1.774   4.120  16.692 -1.1023 -0.7873 -0.2997
  247MPD1    N1 3808   1.758   4.303  17.241 -0.4257  0.3652  0.2419
  247MPD1    H6 3809   1.665   4.267  17.258  0.6350 -2.4788  0.0569
  247MPD1    H7 3810   1.763   4.397  17.279  2.7539  0.3366 -0.0831
  248MPD1     C 3811   1.184   4.450  17.233 -0.4290  0.1968  0.3339
  248MPD1    C1 3812   1.279   4.376  17.304  0.0473 -0.5377  0.1056
  248MPD1    C2 3813   1.266   4.359  17.440 -0.4426  0.1576  0.7743
  248MPD1    C3 3814   1.163   4.423  17.507 -0.2705  0.4334  0.6456
  248MPD1    C4 3815   1.078   4.493  17.437 -0.0362  0.4661 -0.0348
  248MPD1    C5 3816   1.077   4.499  17.303 -1.0484  0.3960  0.2548
  248MPD1     H 3817   1.347   4.308  17.491 -0.9449 -0.3630  1.0519
  248MPD1    H1 3818   1.001   4.551  17.488 -0.2996  0.2357 -0.1715
  248MPD1    H2 3819   1.192   4.471  17.127 -3.1579  0.5819  0.2021
  248MPD1    H3 3820   1.000   4.557  17.254  1.0440  1.3748 -1.8420
  248MPD1     N 3821   1.148   4.419  17.650  0.1080  0.0829  0.1275
  248MPD1    H5 3822   1.088   4.493  17.685 -0.3075  0.9143 -2.3305
  248MPD1    N1 3823   1.398   4.323  17.243  0.0340 -0.3863 -0.4432
  248MPD1    H6 3824   1.382   4.276  17.154 -1.0042  3.3332 -2.2343
  248MPD1    H7 3825   1.445   4.251  17.298 -1.9345  0.5515  2.4896
  249MPD1     C 3826   3.552   2.541  10.086  0.0214 -0.2674  0.7783
  249MPD1    C1 3827   3.618   2.655  10.056  0.1815  0.1755 -0.1056
  249MPD1    C2 3828   3.609   2.693   9.925  0.6263 -0.4831 -0.4123
  249MPD1    C3 3829   3.521   2.630   9.841 -0.4844  0.3218 -0.1325
  249MPD1    C4 3830   3.441   2.522   9.884 -0.8700 -0.3101  0.0650
  249MPD1    C5 3831   3.473   2.471  10.005 -0.3298  1.4848 -0.2809
  249MPD1     H 3832   3.658   2.785   9.894  1.9782 -0.4903  1.6771
  249MPD1    H1 3833   3.379   2.457   9.823  0.1423 -1.0013 -0.2161
  249MPD1    H2 3834   3.552   2.492  10.183  0.6147  1.0797  1.4644
  249MPD1    H3 3835   3.422   2.382  10.041  1.7996  0.7678  0.9382
  249MPD1     N 3836   3.517   2.678   9.710 -0.2432  0.6294  0.1827
  249MPD1    H5 3837   3.578   2.754   9.681  2.2738 -1.5938 -0.3057
  249MPD1    N1 3838   3.693   2.727  10.146 -0.0257  0.7326 -0.3132
  249MPD1    H6 3839   3.734   2.680  10.227  1.5011  3.4623  0.4937
  249MPD1    H7 3840   3.780   2.766  10.111  0.7907  0.8655  1.8223
  250MPD2     C 3841   1.159   2.346  13.137 -0.7154 -0.1289  0.7002
  250MPD2    C1 3842   1.066   2.411  13.216  0.3885  0.4577  0.0383
  250MPD2    C2 3843   0.949   2.348  13.251 -0.2740  0.1830  0.1915
  250MPD2    C3 3844   0.922   2.221  13.195 -0.0262  0.4150 -0.4680
  250MPD2    C4 3845   1.013   2.159  13.114 -0.5879  0.0597 -0.1422
  250MPD2    C5 3846   1.129   2.224  13.085  0.7380  0.5793  0.1487
  250MPD2     H 3847   0.871   2.390  13.313  0.0212 -0.9789  1.3498
  250MPD2    H1 3848   1.007   2.054  13.087 -0.9382  0.1032 -0.2284
  250MPD2    H2 3849   1.254   2.391  13.112 -0.0625 -2.1715 -0.5100
  250MPD2    H3 3850   1.202   2.183  13.016 -0.0435  0.3808 -0.5530
  250MPD2     N 3851   0.808   2.144  13.244 -0.2632  0.6058 -0.3295
  250MPD2    H5 3852   0.797   2.050  13.207 -4.5904  0.3061  1.6332
  250MPD2    N1 3853   1.114   2.527  13.267  0.3062 -0.0215  0.0800
  250MPD2    H7 3854   1.211   2.545  13.241  0.2513 -2.0533 -1.6000
  251TMC3    C1 3855   1.109   2.711  13.405 -0.4658 -0.3176 -0.1326
  251TMC3    C2 3856   1.056   2.834  13.373 -0.4432 -0.1364  0.1904
  251TMC3    C3 3857   1.140   2.937  13.359  0.8941  0.0175  0.7099
  251TMC3    C4 3858   1.239   2.691  13.434 -0.3381 -0.2717 -0.8382
  251TMC3    C5 3859   1.320   2.799  13.420  0.1276 -0.3024 -0.5689
  251TMC3    C6 3860   1.276   2.926  13.378 -0.0766 -1.0648 -0.2446
  251TMC3     C 3861   1.039   2.602  13.355  0.1729  0.8104 -0.1209
  251TMC3     O 3862   0.922   2.601  13.375 -0.2291  0.2196  0.4586
  251TMC3     H 3863   0.950   2.849  13.358 -0.3321 -0.4332 -0.8608
  251TMC3    H1 3864   1.272   2.594  13.470  0.4154  0.4170  0.3344
  251TMC3    H2 3865   1.337   3.010  13.349 -1.1488  0.8514  3.0919
  251TMC3    C7 3866   1.460   2.769  13.404 -0.0303 -0.4104  0.4660
  251TMC3    C8 3867   1.077   3.059  13.302 -0.4156 -0.2527 -0.4226
  251TMC3    O1 3868   1.491   2.655  13.448 -0.5102  0.2673  0.4471
  251TMC3    O2 3869   0.983   3.046  13.224  0.0382  0.1070 -0.3221
  252TMC3    C1 3870   4.675   3.574   9.629  0.7116  0.7221 -0.1942
  252TMC3    C2 3871   0.062   3.616   9.580 -0.0417  0.2689 -0.1706
  252TMC3    C3 3872   0.178   3.600   9.659  0.1907  0.5671 -0.5404
  252TMC3    C4 3873   4.668   3.507   9.749  0.5075 -0.3443  0.3449
  252TMC3    C5 3874   0.045   3.502   9.825  0.1091 -0.5847 -0.9269
  252TMC3    C6 3875   0.169   3.543   9.785  0.1554 -0.5339 -0.7075
  252TMC3     C 3876   4.558   3.589   9.548  0.0178  0.1136 -0.3308
  252TMC3     O 3877   4.456   3.529   9.584 -0.3535  0.6716 -0.5615
  252TMC3     H 3878   0.089   3.673   9.492  1.4390  1.6351  1.1632
  252TMC3    H1 3879   4.573   3.477   9.793  1.0157  0.2389  1.8195
  252TMC3    H2 3880   0.254   3.508   9.843 -0.3000 -1.5869 -0.6730
  252TMC3    C7 3881   0.036   3.408   9.932 -0.4698 -0.1468 -0.7375
  252TMC3    C8 3882   0.307   3.638   9.616 -0.8921 -0.1818 -0.2879
  252TMC3    O1 3883   4.678   3.332   9.928 -0.1229 -0.0779  0.2995
  252TMC3    O2 3884   0.334   3.637   9.496 -0.4739 -0.0153 -0.0827
  253MPD2     C 3885   2.084   2.718  15.218  0.3305 -0.2724 -0.4532
  253MPD2    C1 3886   1.959   2.656  15.193 -0.0947 -0.4150  0.8815
  253MPD2    C2 3887   1.910   2.574  15.298 -0.4874 -0.3940 -0.1728
  253MPD2    C3 3888   1.973   2.578  15.423  0.2803 -0.1429 -0.5381
  253MPD2    C4 3889   2.097   2.629  15.435  0.3371 -0.4727 -0.5713
  253MPD2    C5 3890   2.152   2.696  15.332  1.0149 -0.5156 -0.0675
  253MPD2     H 3891   1.817   2.526  15.269  0.2989 -1.4787 -0.8760
  253MPD2    H1 3892   2.154   2.628  15.528 -0.7237 -2.0578  0.0684
  253MPD2    H2 3893   2.134   2.777  15.141 -0.4856  2.3209  1.0155
  253MPD2    H3 3894   2.254   2.727  15.351  0.4158  1.2511  0.2543
  253MPD2     N 3895   1.910   2.509  15.532  0.7472 -0.2674  0.4821
  253MPD2    H5 3896   1.966   2.505  15.616 -1.1092 -3.8022  1.5123
  253MPD2    N1 3897   1.881   2.686  15.079 -0.2223  0.2783  0.0259
  253MPD2    H7 3898   1.789   2.645  15.068  0.1380 -0.6271  0.4164
  254TMC3    C1 3899   1.737   2.413  15.671 -0.2801  0.3638 -0.2144
  254TMC3    C2 3900   1.602   2.405  15.694 -0.0214 -0.2721  0.3268
  254TMC3    C3 3901   1.564   2.351  15.810  0.3524  0.0842  0.4351
  254TMC3    C4 3902   1.840   2.360  15.754  0.5641  0.1184  0.4381
  254TMC3    C5 3903   1.794   2.293  15.861  0.4703 -0.5424 -0.7214
  254TMC3    C6 3904   1.656   2.288  15.890 -0.0218  0.5759 -0.5428
  254TMC3     C 3905   1.776   2.479  15.543 -0.2228  0.2976 -0.1417
  254TMC3     O 3906   1.687   2.496  15.463  0.1259  0.1135 -0.0723
  254TMC3     H 3907   1.541   2.462  15.625  0.7592  0.6496  0.3875
  254TMC3    H1 3908   1.946   2.360  15.732  0.5474 -1.4248  0.3831
  254TMC3    H2 3909   1.612   2.232  15.972  2.9300 -1.0345 -0.0291
  254TMC3    C7 3910   1.865   2.286  15.990  0.4580  0.4055  0.6606
  254TMC3    C8 3911   1.433   2.386  15.864  0.4728  0.6399  0.3910
  254TMC3    O1 3912   1.811   2.218  16.081 -0.4801 -0.1613  0.0460
  254TMC3    O2 3913   1.428   2.373  15.987 -0.1216  0.0279 -0.3496
  255MPD2     C 3914   4.352   4.735  10.097  0.0668  0.0287  0.6615
  255MPD2    C1 3915   4.419   0.113  10.120 -0.2842 -0.1484  0.0775
  255MPD2    C2 3916   4.544   0.126  10.066  0.4225  0.0238 -0.3814
  255MPD2    C3 3917   4.599   0.034   9.991  0.6778  0.1615 -0.6996
  255MPD2    C4 3918   4.532   4.655   9.979  0.2549  0.0386  0.3251
  255MPD2    C5 3919   4.407   4.637  10.025 -0.5348 -0.0689 -0.1102
  255MPD2     H 3920   4.593   0.222  10.077 -0.2429  0.2960  0.2422
  255MPD2    H1 3921   4.572   4.573   9.921 -0.1406  2.4879 -3.4279
  255MPD2    H2 3922   4.254   4.716  10.140 -0.9157 -0.6556 -1.8595
  255MPD2    H3 3923   4.368   4.536  10.015 -0.8082 -0.0066  0.3557
  255MPD2     N 3924   4.724   0.055   9.918  0.6404 -0.2713  0.2304
  255MPD2    H5 3925   0.016   0.151   9.927 -0.2548  0.3662 -3.2444
  255MPD2    N1 3926   4.366   0.224  10.196 -0.0275  0.2397 -0.9380
  255MPD2    H7 3927   4.266   0.227  10.211  0.0442 -0.1439 -0.4044
  256TMC3    C1 3928   4.355   0.432  10.306  0.4848  0.1466  0.5380
  256TMC3    C2 3929   4.418   0.516  10.384 -0.2695  0.0439 -0.0708
  256TMC3    C3 3930   4.382   0.643  10.406  0.1142 -0.1643  0.1539
  256TMC3    C4 3931   4.242   0.467  10.244  0.2897 -0.9584  0.5571
  256TMC3    C5 3932   4.208   0.601  10.250  0.1042 -0.1238  0.3895
  256TMC3    C6 3933   4.275   0.690  10.330 -0.2082  0.1222  0.2746
  256TMC3     C 3934   4.441   0.335  10.243  0.3951 -0.1126  0.3166
  256TMC3     O 3935   4.560   0.365  10.243  0.0804  0.2485 -0.8017
  256TMC3     H 3936   4.512   0.484  10.427  0.4660  0.7255 -1.1794
  256TMC3    H1 3937   4.197   0.418  10.158  1.6015  0.9061 -1.2097
  256TMC3    H2 3938   4.242   0.793  10.342  1.0691  0.6176 -0.4447
  256TMC3    C7 3939   4.142   0.641  10.129  0.2332 -0.3711 -0.6597
  256TMC3    C8 3940   4.490   0.745  10.414  0.0523 -0.1437 -0.5710
  256TMC3    O1 3941   4.075   0.560  10.062  0.2994 -0.1899 -0.1686
  256TMC3    O2 3942   4.471   0.845  10.478 -0.8616  0.3146 -0.1618
  257MPD2     C 3943   4.663   2.466  13.263 -0.1673 -0.1649  0.1790
  257MPD2    C1 3944   4.575   2.431  13.163  0.9070  0.0654 -0.3698
  257MPD2    C2 3945   4.502   2.312  13.177  0.0074 -0.1920  0.2058
  257MPD2    C3 3946   4.508   2.231  13.288 -0.0177 -0.5467  0.2992
  257MPD2    C4 3947   4.603   2.271  13.383  0.0344  0.7591  0.2876
  257MPD2    C5 3948   4.680   2.386  13.373  0.2966  0.0640  0.1916
  257MPD2     H 3949   4.422   2.286  13.109 -0.1739 -0.0323  0.3572
  257MPD2    H1 3950   4.610   2.206  13.469 -1.4483  0.5953  0.2756
  257MPD2    H2 3951   4.697   2.568  13.260  0.0915 -0.2349  0.6522
  257MPD2    H3 3952   4.733   2.416  13.463 -1.6821  0.7152  1.1353
  257MPD2     N 3953   4.435   2.113  13.290  0.0235 -0.7618 -0.0675
  257MPD2    H5 3954   4.389   2.089  13.202  0.0211  0.9844 -0.5387
  257MPD2    N1 3955   4.548   2.517  13.055  0.0518  0.5159 -0.2098
  257MPD2    H7 3956   4.610   2.598  13.053  1.2266 -0.4706 -3.3348
  258TMC3    C1 3957   4.394   1.882  13.354 -0.4884 -0.8797 -0.5751
  258TMC3    C2 3958   4.317   1.854  13.240  0.3616 -0.0599  0.1041
  258TMC3    C3 3959   4.306   1.722  13.212  0.3516 -0.0285 -0.3446
  258TMC3    C4 3960   4.443   1.776  13.431  0.7956 -0.1231  0.4684
  258TMC3    C5 3961   4.434   1.641  13.390  0.3993  0.4996 -0.2668
  258TMC3    C6 3962   4.360   1.618  13.284  0.4307 -0.2603 -0.4714
  258TMC3     C 3963   4.448   2.015  13.389 -0.1168  0.8779 -0.4149
  258TMC3     O 3964   4.506   2.024  13.495 -0.3123 -0.2214 -0.5273
  258TMC3     H 3965   4.275   1.924  13.168 -0.3370 -0.1594  0.4156
  258TMC3    H1 3966   4.507   1.806  13.513 -1.7323 -0.9711  2.7726
  258TMC3    H2 3967   4.331   1.517  13.255 -2.8511  0.3165  0.8271
  258TMC3    C7 3968   4.472   1.530  13.475  0.1798 -0.0001  0.1071
  258TMC3    C8 3969   4.248   1.697  13.085  1.0600 -0.8083  0.1807
  258TMC3    O1 3970   4.404   1.428  13.464 -0.5156  0.3320  0.5146
  258TMC3    O2 3971   4.147   1.762  13.060 -0.1246  0.2055 -0.7779
  259MPD2     C 3972   2.939   4.318   0.643  0.2025 -0.2172 -0.1484
  259MPD2    C1 3973   2.963   4.191   0.590  0.2383  0.8529  0.2936
  259MPD2    C2 3974   2.974   4.174   0.455 -0.7165  0.3038  0.6151
  259MPD2    C3 3975   2.992   4.286   0.370 -0.0044 -0.1459 -0.5587
  259MPD2    C4 3976   2.988   4.413   0.430 -0.0317 -0.3403  0.2875
  259MPD2    C5 3977   2.954   4.426   0.557  0.5116  0.3487 -0.1562
  259MPD2     H 3978   2.969   4.079   0.403  0.6471  0.3710  0.3714
  259MPD2    H1 3979   3.015   4.498   0.367  2.0228 -1.1934 -0.0069
  259MPD2    H2 3980   2.910   4.343   0.744 -0.8250  0.7066 -0.6690
  259MPD2    H3 3981   2.944   4.526   0.598 -0.7439  1.1658 -2.4973
  259MPD2     N 3982   3.022   4.252   0.237  0.5789 -0.2529  0.4404
  259MPD2    H5 3983   3.032   4.152   0.219  2.2886 -0.0760  0.3880
  259MPD2    N1 3984   2.945   4.084   0.686  0.1223  0.0007  0.8219
  259MPD2    H7 3985   2.918   4.109   0.780  2.0362  2.8806  0.5918
  260TMC3    C1 3986   3.084   4.273   0.012  0.4968  0.1562 -0.4171
  260TMC3    C2 3987   3.153   4.356  17.687 -0.1170  0.0303 -0.4475
  260TMC3    C3 3988   3.231   4.298  17.584 -0.4965  0.0565 -0.0111
  260TMC3    C4 3989   3.083   4.135  17.760  0.2594  0.5329  0.0101
  260TMC3    C5 3990   3.153   4.088  17.654  0.6043 -0.8736 -0.6238
  260TMC3    C6 3991   3.225   4.164  17.567  0.8648 -1.0921  0.5070
  260TMC3     C 3992   3.031   4.341   0.131  0.2518 -0.2830 -0.1827
  260TMC3     O 3993   3.019   4.463   0.139  0.0276  0.1811 -0.3760
  260TMC3     H 3994   3.169   4.459  17.713  1.0055 -0.6108  1.3712
  260TMC3    H1 3995   3.046   4.061   0.069  2.1490  0.0119  0.4524
  260TMC3    H2 3996   3.258   4.128  17.470 -0.5242  1.2371 -0.8230
  260TMC3    C7 3997   3.213   3.956  17.655  0.1086  0.1855  0.1490
  260TMC3    C8 3998   3.372   4.338  17.577  0.1462  0.0159  0.1810
  260TMC3    O1 3999   3.319   3.940  17.589 -0.6657 -0.4845  0.2876
  260TMC3    O2 4000   3.396   4.459  17.596  0.0833 -0.4538 -0.5195
  261MPD2     C 4001   0.061   2.189  12.925  1.0698  0.1790 -0.5379
  261MPD2    C1 4002   0.189   2.163  12.875  0.5672 -0.1926 -0.0748
  261MPD2    C2 4003   0.222   2.190  12.741 -0.1224  0.6477  0.4736
  261MPD2    C3 4004   0.126   2.235  12.653 -0.9053  0.2738  0.1933
  261MPD2    C4 4005   0.000   2.266  12.707  0.2464  0.3528 -0.0575
  261MPD2    C5 4006   4.705   2.241  12.839  0.0700 -0.5223  0.0226
  261MPD2     H 4007   0.324   2.167  12.710 -1.0156 -3.3037  0.5415
  261MPD2    H1 4008   4.657   2.297  12.646  0.1716  0.6696  0.2092
  261MPD2    H2 4009   0.036   2.164  13.027  1.4682 -1.2237 -0.7828
  261MPD2    H3 4010   4.604   2.255  12.878  0.0885 -0.0342 -0.1043
  261MPD2     N 4011   0.155   2.244  12.514  0.1995  0.2870 -0.3559
  261MPD2    H5 4012   0.250   2.217  12.491  0.1218 -1.5055  1.3650
  261MPD2    N1 4013   0.302   2.130  12.959 -0.2237 -0.4017 -0.2168
  261MPD2    H7 4014   0.393   2.117  12.916 -0.4901 -2.0901 -0.2540
  262TMC3    C1 4015   0.158   2.340  12.303  0.0137 -0.1867 -0.8047
  262TMC3    C2 4016   0.107   2.445  12.227  0.1026 -0.6436 -0.4802
  262TMC3    C3 4017   0.164   2.472  12.107 -0.1482  0.2079  0.4352
  262TMC3    C4 4018   0.266   2.266  12.269  0.2833  0.6586  0.0815
  262TMC3    C5 4019   0.329   2.301  12.151  0.4468 -0.3807  0.0456
  262TMC3    C6 4020   0.272   2.399  12.061 -0.3112  0.1921 -0.6676
  262TMC3     C 4021   0.084   2.310  12.424  0.5694 -0.3466 -0.4497
  262TMC3     O 4022   4.711   2.359  12.430  0.6552 -0.3556  0.5102
  262TMC3     H 4023   0.025   2.504  12.267 -0.0737 -0.3896 -1.1983
  262TMC3    H1 4024   0.301   2.177  12.321  1.7721  0.7421 -0.7924
  262TMC3    H2 4025   0.326   2.435  11.974  1.5474  0.5120  0.6142
  262TMC3    C7 4026   0.453   2.236  12.119  0.2656  0.0018  0.2491
  262TMC3    C8 4027   0.124   2.582  12.023 -0.8628 -0.3767  0.3737
  262TMC3    O1 4028   0.483   2.150  12.200 -0.7969  0.1272 -0.0191
  262TMC3    O2 4029   0.196   2.603  11.926  0.3768 -0.5484  0.7469
  263MPD2     C 4030   1.447   1.516  11.840  0.1722  0.2335  0.3987
  263MPD2    C1 4031   1.533   1.490  11.738 -0.3224 -0.2315  0.2651
  263MPD2    C2 4032   1.557   1.588  11.640  0.3405  0.2804 -0.8581
  263MPD2    C3 4033   1.471   1.700  11.644  0.0311 -0.1053 -0.1851
  263MPD2    C4 4034   1.371   1.714  11.744 -0.3131  0.6846  0.0868
  263MPD2    C5 4035   1.357   1.617  11.831  0.2042  0.5382 -0.4517
  263MPD2     H 4036   1.637   1.578  11.567  1.8045  1.7012  0.5663
  263MPD2    H1 4037   1.305   1.799  11.762  1.2774  1.5026  2.0840
  263MPD2    H2 4038   1.448   1.441  11.918  0.7879 -0.6822 -0.5027
  263MPD2    H3 4039   1.285   1.621  11.912  1.6663 -1.9296  0.9732
  263MPD2     N 4040   1.493   1.803  11.555 -0.0080 -0.2227 -0.3148
  263MPD2    H5 4041   1.570   1.801  11.489 -0.0265 -1.2614 -0.3068
  263MPD2    N1 4042   1.597   1.369  11.747 -0.2389 -0.1883  0.3235
  263MPD2    H7 4043   1.578   1.312  11.830 -2.6079  1.4104  0.8847
  264TMC3    C1 4044   1.475   2.029  11.476  0.2749  0.7501  0.1450
  264TMC3    C2 4045   1.555   2.112  11.553 -0.2592  0.1497 -0.3488
  264TMC3    C3 4046   1.622   2.206  11.483  0.3186  0.5716 -0.8106
  264TMC3    C4 4047   1.497   2.018  11.346 -0.5206  0.2935  0.3858
  264TMC3    C5 4048   1.584   2.096  11.279 -0.5230  0.4423  0.1437
  264TMC3    C6 4049   1.638   2.204  11.345 -0.2333  0.5466 -0.5054
  264TMC3     C 4050   1.417   1.921  11.551  0.6054 -0.2634  0.2253
  264TMC3     O 4051   1.326   1.958  11.622 -0.6326 -0.6947  0.2879
  264TMC3     H 4052   1.542   2.110  11.660 -0.9500 -0.7962 -0.4579
  264TMC3    H1 4053   1.430   1.945  11.302 -1.4866  0.5834  1.3718
  264TMC3    H2 4054   1.694   2.278  11.289  0.5702 -0.0255 -0.4522
  264TMC3    C7 4055   1.589   2.094  11.136 -0.6533  0.1871  0.1927
  264TMC3    C8 4056   1.723   2.280  11.557 -0.3174  0.0255 -0.5676
  264TMC3    O1 4057   1.653   2.182  11.080  0.4369 -0.7512 -0.3657
  264TMC3    O2 4058   1.776   2.209  11.643  0.1007  0.0188  0.5890
  265MPD2     C 4059   2.761   2.185  15.321 -0.3402 -0.6596  0.1776
  265MPD2    C1 4060   2.897   2.221  15.332  0.0248 -0.1985  0.2700
  265MPD2    C2 4061   2.996   2.154  15.264  0.0695 -0.6947 -1.0644
  265MPD2    C3 4062   2.970   2.042  15.187 -0.1071  0.6344  0.0807
  265MPD2    C4 4063   2.831   2.007  15.167  0.4959  0.1643 -0.8199
  265MPD2    C5 4064   2.731   2.079  15.235  0.9397 -0.1063 -0.2516
  265MPD2     H 4065   3.097   2.192  15.273 -0.1685 -0.8874  2.1500
  265MPD2    H1 4066   2.802   1.921  15.108  2.0611 -0.9359  0.0041
  265MPD2    H2 4067   2.675   2.222  15.376  0.3607  1.0798  0.1087
  265MPD2    H3 4068   2.630   2.041  15.224  0.6879 -0.1630  2.2726
  265MPD2     N 4069   3.062   1.955  15.127 -1.0493 -0.6415  0.5469
  265MPD2    H5 4070   3.024   1.883  15.067  0.5487 -0.0884 -1.1525
  265MPD2    N1 4071   2.929   2.329  15.418 -0.1748  0.1656  0.1084
  265MPD2    H7 4072   3.028   2.348  15.429  0.1110 -0.9933 -0.4701
  266TMC3    C1 4073   2.901   2.513  15.550  0.3270 -0.7551  0.4176
  266TMC3    C2 4074   2.985   2.480  15.651 -0.3603 -0.6758 -0.6611
  266TMC3    C3 4075   3.004   2.573  15.750 -0.1347  0.0927 -0.0109
  266TMC3    C4 4076   2.820   2.621  15.556  0.0261  0.2833  0.4940
  266TMC3    C5 4077   2.838   2.712  15.653  0.2509  0.2006 -0.2534
  266TMC3    C6 4078   2.923   2.686  15.753  0.0953  0.3904 -0.8093
  266TMC3     C 4079   2.837   2.404  15.482 -0.3068  0.3078 -0.4063
  266TMC3     O 4080   2.714   2.405  15.476 -0.5538 -0.2685 -0.0115
  266TMC3     H 4081   3.047   2.392  15.652 -0.3565 -0.6575  0.8071
  266TMC3    H1 4082   2.756   2.633  15.470 -2.1205  2.0850  2.3213
  266TMC3    H2 4083   2.927   2.764  15.828  0.8603 -0.1394 -0.3060
  266TMC3    C7 4084   2.725   2.799  15.684  0.3426 -0.0349 -0.3608
  266TMC3    C8 4085   3.076   2.525  15.867 -0.2233  0.2330 -0.2722
  266TMC3    O1 4086   2.700   2.825  15.802 -0.1971 -0.2079  0.2510
  266TMC3    O2 4087   3.095   2.403  15.889  0.1946 -0.1189 -0.4384
  267MPD2     C 4088   0.410   4.369   1.066 -0.2115  0.8502 -0.3032
  267MPD2    C1 4089   0.414   4.276   0.961 -0.1796  0.1029  0.0865
  267MPD2    C2 4090   0.412   4.316   0.827 -0.4314  0.5424  0.1848
  267MPD2    C3 4091   0.405   4.453   0.801 -0.2277 -0.1870  0.4275
  267MPD2    C4 4092   0.408   4.538   0.904 -0.1556  0.1760  0.0790
  267MPD2    C5 4093   0.402   4.503   1.037  0.1424  0.4729 -0.0626
  267MPD2     H 4094   0.417   4.240   0.751  1.5526  0.8589 -0.0059
  267MPD2    H1 4095   0.416   4.644   0.883 -2.4882  0.1299 -1.1030
  267MPD2    H2 4096   0.400   4.337   1.168 -1.1894 -0.0705 -0.6930
  267MPD2    H3 4097   0.394   4.575   1.118 -0.9681  0.6605 -0.3435
  267MPD2     N 4098   0.407   4.511   0.671 -0.1240  0.5121 -0.1520
  267MPD2    H5 4099   0.393   4.612   0.672 -1.0508  0.3879  0.4634
  267MPD2    N1 4100   0.411   4.140   0.998  0.1628 -0.1323 -0.5344
  267MPD2    H7 4101   0.444   4.123   1.093  1.5010  0.9082 -0.8174
  268TMC3    C1 4102   0.450   3.909   0.955  0.1922 -0.0729 -0.9067
  268TMC3    C2 4103   0.502   3.842   0.852 -0.1485  0.0780  0.2785
  268TMC3    C3 4104   0.593   3.741   0.878 -0.0527  0.2594 -0.5043
  268TMC3    C4 4105   0.494   3.891   1.082 -0.9458 -0.0982 -0.1443
  268TMC3    C5 4106   0.597   3.790   1.103 -0.6400  0.0012 -0.4354
  268TMC3    C6 4107   0.642   3.713   1.003 -0.0040  0.3655  0.0955
  268TMC3     C 4108   0.384   4.029   0.921  0.4000  0.1272 -0.3552
  268TMC3     O 4109   0.310   4.022   0.821  0.2406  0.2512 -0.3661
  268TMC3     H 4110   0.476   3.873   0.752 -2.0418  1.0325  1.0623
  268TMC3    H1 4111   0.451   3.954   1.159 -0.3679  1.0452 -0.7618
  268TMC3    H2 4112   0.697   3.622   1.023  0.1607  0.4891  0.1922
  268TMC3    C7 4113   0.667   3.778   1.231 -0.4000  0.0633 -0.1233
  268TMC3    C8 4114   0.672   3.683   0.776  0.3974 -0.0548  0.1819
  268TMC3    O1 4115   0.733   3.679   1.250 -0.3262  0.4007 -0.0539
  268TMC3    O2 4116   0.768   3.626   0.817  0.4024  0.2075  0.1223
  269MPD2     C 4117   1.142   2.746  15.374  0.2868  0.1448  0.0032
  269MPD2    C1 4118   1.014   2.759  15.412 -0.3633 -0.3304  0.4674
  269MPD2    C2 4119   0.960   2.885  15.381 -0.0555 -0.5495 -0.1444
  269MPD2    C3 4120   1.027   2.984  15.319 -0.1087  0.7653  0.8656
  269MPD2    C4 4121   1.162   2.969  15.286 -0.2057  0.1482  0.3150
  269MPD2    C5 4122   1.215   2.849  15.318  0.5890 -0.5156  0.2799
  269MPD2     H 4123   0.858   2.901  15.414  0.1843  0.1951  0.2320
  269MPD2    H1 4124   1.214   3.040  15.222 -1.9531  1.8259  0.7439
  269MPD2    H2 4125   1.194   2.651  15.374 -0.2802 -0.1498 -2.0751
  269MPD2    H3 4126   1.313   2.819  15.284 -0.5849 -3.0057 -0.8623
  269MPD2     N 4127   0.971   3.116  15.314 -0.0815 -0.6459 -0.1183
  269MPD2    H5 4128   0.883   3.131  15.362  0.3779  1.3185  0.1032
  269MPD2    N1 4129   0.933   2.644  15.458  0.6404  0.1550  0.1785
  269MPD2    H7 4130   0.985   2.560  15.479 -1.8507 -1.4214  0.0802
  270TMC3    C1 4131   0.744   2.523  15.508  0.5674  0.4613  0.3822
  270TMC3    C2 4132   0.636   2.489  15.435 -0.0214 -0.0209 -0.2301
  270TMC3    C3 4133   0.581   2.364  15.464 -0.0941 -0.4433 -0.5898
  270TMC3    C4 4134   0.809   2.446  15.605 -0.1058 -0.0785  0.4234
  270TMC3    C5 4135   0.762   2.319  15.612  1.0631 -0.2111  0.2179
  270TMC3    C6 4136   0.650   2.281  15.548  0.2054 -0.3609  0.6419
  270TMC3     C 4137   0.796   2.648  15.470  0.0574 -0.1209  0.3140
  270TMC3     O 4138   0.709   2.725  15.429 -0.1784 -0.1614 -0.2439
  270TMC3     H 4139   0.588   2.551  15.360  2.5911  0.1805 -1.7560
  270TMC3    H1 4140   0.907   2.475  15.642  0.3262  0.3820 -1.0644
  270TMC3    H2 4141   0.611   2.180  15.560  1.8810 -1.1648 -0.5045
  270TMC3    C7 4142   0.856   2.213  15.651 -0.0594  0.3221  0.2851
  270TMC3    C8 4143   0.481   2.310  15.372  0.6289  0.1086 -0.6412
  270TMC3    O1 4144   0.914   2.216  15.757  0.3601 -0.6409 -0.1261
  270TMC3    O2 4145   0.379   2.250  15.417 -0.5388  0.5601 -0.2315
  271MPD2     C 4146   0.116   2.631  13.755  0.0069 -0.6938  0.3879
  271MPD2    C1 4147   0.062   2.512  13.801  0.7608 -0.4710  0.2494
  271MPD2    C2 4148   4.676   2.469  13.761  0.6104 -0.3877  0.1447
  271MPD2    C3 4149   4.607   2.548  13.671 -0.9862  0.0227 -0.8099
  271MPD2    C4 4150   4.668   2.654  13.611  0.1752 -0.5287  0.7630
  271MPD2    C5 4151   0.045   2.701  13.662 -0.6690  0.5731 -0.1141
  271MPD2     H 4152   4.638   2.374  13.797 -2.1156  0.8640  0.5746
  271MPD2    H1 4153   4.613   2.698  13.529  1.1035 -2.9947 -1.1841
  271MPD2    H2 4154   0.202   2.685  13.794 -0.1245  0.4764 -0.9528
  271MPD2    H3 4155   0.085   2.794  13.623 -1.3737  1.1923  0.6458
  271MPD2     N 4156   4.478   2.517  13.631 -0.1700 -0.0564  0.2653
  271MPD2    H5 4157   4.426   2.586  13.577  0.9004  0.8024  0.3314
  271MPD2    N1 4158   0.132   2.419  13.890 -0.2498  0.2000  0.1472
  271MPD2    H7 4159   0.087   2.336  13.926  0.7895 -1.6920 -2.9018
  272TMC3    C1 4160   0.294   2.336  14.028  0.2526 -0.3332 -0.3038
  272TMC3    C2 4161   0.414   2.279  14.038 -0.3086  0.2681 -0.1331
  272TMC3    C3 4162   0.460   2.215  14.151  0.0624 -0.3794  0.4431
  272TMC3    C4 4163   0.207   2.333  14.133  0.8015 -0.0083 -0.2528
  272TMC3    C5 4164   0.255   2.264  14.245  0.6616  0.3521 -0.4189
  272TMC3    C6 4165   0.379   2.212  14.257 -0.1995  0.2327 -0.8822
  272TMC3     C 4166   0.266   2.426  13.914  0.2176 -0.6728  0.7389
  272TMC3     O 4167   0.350   2.503  13.870  0.2076  0.0049  0.4225
  272TMC3     H 4168   0.475   2.290  13.949 -0.8777 -2.6271 -0.8861
  272TMC3    H1 4169   0.109   2.378  14.125  1.0672  0.5893 -0.1568
  272TMC3    H2 4170   0.397   2.151  14.345  0.7295 -0.8414 -1.8235
  272TMC3    C7 4171   0.183   2.269  14.365  0.8871 -0.6358  0.0808
  272TMC3    C8 4172   0.598   2.171  14.162  0.5899  0.6083 -0.6330
  272TMC3    O1 4173   0.067   2.234  14.355  0.0912  0.0792 -0.7912
  272TMC3    O2 4174   0.678   2.227  14.091  0.5141  0.0735  0.6099
  273MPD2     C 4175   1.868   0.634  12.113 -0.0252  0.5555  0.0858
  273MPD2    C1 4176   1.975   0.628  12.030  0.0591 -0.1104 -0.2005
  273MPD2    C2 4177   1.976   0.560  11.909  0.5290  0.1522  0.1436
  273MPD2    C3 4178   1.860   0.495  11.870  0.1590 -0.5070 -0.0314
  273MPD2    C4 4179   1.751   0.510  11.955 -0.2461  0.3869 -0.0490
  273MPD2    C5 4180   1.762   0.563  12.079 -0.6927  0.8200 -0.5969
  273MPD2     H 4181   2.062   0.558  11.843  0.3889 -0.4812 -0.0182
  273MPD2    H1 4182   1.655   0.468  11.927 -1.9128  2.3556  2.6184
  273MPD2    H2 4183   1.867   0.678  12.212 -1.2094 -1.9464  1.1754
  273MPD2    H3 4184   1.679   0.560  12.149 -1.0078 -3.8135 -1.1809
  273MPD2     N 4185   1.834   0.440  11.746 -0.0716  0.0900 -0.2788
  273MPD2    H5 4186   1.736   0.428  11.721 -0.8210 -0.0473  2.6847
  273MPD2    N1 4187   2.098   0.684  12.085 -0.2024 -0.1339 -0.8540
  273MPD2    H7 4188   2.089   0.703  12.184  0.9734 -0.8800 -0.6080
  274TMC3    C1 4189   1.873   0.387  11.525 -0.0585 -0.2242  0.7405
  274TMC3    C2 4190   1.740   0.412  11.508 -0.3706  0.3724 -0.3742
  274TMC3    C3 4191   1.693   0.451  11.378  0.5944 -0.3957 -0.0815
  274TMC3    C4 4192   1.953   0.386  11.427 -0.4944  0.0865  0.2609
  274TMC3    C5 4193   1.905   0.433  11.302 -0.1029 -0.9936 -0.0595
  274TMC3    C6 4194   1.778   0.449  11.273 -0.6945 -0.3181 -0.5501
  274TMC3     C 4195   1.933   0.413  11.653  0.0283 -0.4360 -0.0314
  274TMC3     O 4196   2.056   0.407  11.664 -0.2355  0.2118  0.3481
  274TMC3     H 4197   1.667   0.400  11.587  0.6110 -0.6770  0.3689
  274TMC3    H1 4198   2.058   0.360  11.436 -0.3274  0.9696  0.8786
  274TMC3    H2 4199   1.759   0.507  11.183 -0.4565  1.0342  0.2686
  274TMC3    C7 4200   2.007   0.484  11.200  0.6992  0.2940  0.3875
  274TMC3    C8 4201   1.556   0.456  11.346  0.3691 -0.0840  0.0732
  274TMC3    O1 4202   1.976   0.443  11.088 -0.2709  0.0216 -0.5741
  274TMC3    O2 4203   1.482   0.506  11.427 -0.1690 -0.8514 -0.2128
  275MPD2     C 4204   1.261   3.953  14.466  0.4216  0.6446 -0.7574
  275MPD2    C1 4205   1.259   3.833  14.536  0.8949  0.0939  0.6358
  275MPD2    C2 4206   1.196   3.724  14.477 -0.0370 -0.0547 -0.7446
  275MPD2    C3 4207   1.119   3.733  14.356 -0.7440 -0.0219  0.1243
  275MPD2    C4 4208   1.113   3.858  14.305 -0.1318 -0.3825 -0.1783
  275MPD2    C5 4209   1.195   3.959  14.352 -0.1860  0.1974  0.0971
  275MPD2     H 4210   1.209   3.626  14.523 -0.9907  0.9284  1.5914
  275MPD2    H1 4211   1.063   3.888  14.213  0.1916  0.3448 -0.1176
  275MPD2    H2 4212   1.306   4.047  14.496 -0.1345  0.2030  1.4453
  275MPD2    H3 4213   1.192   4.056  14.303 -3.2289  0.3289  0.5910
  275MPD2     N 4214   1.032   3.640  14.302 -0.0080 -0.0651 -0.6495
  275MPD2    H5 4215   0.968   3.664  14.228 -0.0253 -0.1041 -0.6474
  275MPD2    N1 4216   1.323   3.824  14.665 -0.2855  0.1026  0.1651
  275MPD2    H7 4217   1.312   3.737  14.716 -1.4498  0.6460  0.8429
  276TMC3    C1 4218   1.450   3.901  14.853 -0.2824 -0.0643 -0.0714
  276TMC3    C2 4219   1.383   3.803  14.926  0.2664  0.1523 -0.1653
  276TMC3    C3 4220   1.386   3.797  15.063  0.6483  0.1843  0.5572
  276TMC3    C4 4221   1.530   3.994  14.913  0.1221  0.7056 -0.9944
  276TMC3    C5 4222   1.539   3.979  15.048  0.1579  0.0590  0.1901
  276TMC3    C6 4223   1.464   3.888  15.121  0.2092  0.5334 -0.9593
  276TMC3     C 4224   1.414   3.920  14.715 -0.0587  0.4371  0.4730
  276TMC3     O 4225   1.456   4.023  14.667  0.1065  0.1321 -0.1559
  276TMC3     H 4226   1.311   3.733  14.885 -1.2122  0.9465  1.1124
  276TMC3    H1 4227   1.581   4.073  14.858 -0.5019  0.5199 -1.8418
  276TMC3    H2 4228   1.476   3.892  15.229 -2.5327 -1.2674 -0.5976
  276TMC3    C7 4229   1.643   4.044  15.122  0.1983  0.6803  0.5232
  276TMC3    C8 4230   1.367   3.672  15.149 -0.2380 -0.1518 -0.4291
  276TMC3    O1 4231   1.683   3.987  15.221 -0.4445 -0.5029 -0.2005
  276TMC3    O2 4232   1.333   3.692  15.265  0.5202 -0.2676 -0.4004
  277MPD2     C 4233   3.678   2.361  13.019  0.1830  0.0995 -0.3629
  277MPD2    C1 4234   3.614   2.435  13.118  0.1505 -0.6340 -0.0725
  277MPD2    C2 4235   3.566   2.368  13.231  0.5516 -0.0591  0.7882
  277MPD2    C3 4236   3.584   2.235  13.244 -0.2800  0.3385  0.1978
  277MPD2    C4 4237   3.638   2.161  13.139 -0.5539 -0.2280  0.5654
  277MPD2    C5 4238   3.698   2.222  13.031  0.2108  0.0636  0.0279
  277MPD2     H 4239   3.509   2.415  13.310 -0.3114  0.4705 -0.1588
  277MPD2    H1 4240   3.632   2.053  13.143 -1.5794 -0.1946 -0.1699
  277MPD2    H2 4241   3.700   2.410  12.924  1.4054 -1.2035 -0.7572
  277MPD2    H3 4242   3.737   2.165  12.948  0.9996 -0.2526  0.6244
  277MPD2     N 4243   3.508   2.172  13.345 -0.2072  0.2905  0.3307
  277MPD2    H5 4244   3.461   2.235  13.409  2.1548 -0.0928  2.4686
  277MPD2    N1 4245   3.594   2.569  13.086 -0.0920 -0.1703  0.0217
  277MPD2    H7 4246   3.636   2.605  13.001  1.3183  0.2240  0.8880
  278TMC3    C1 4247   3.410   1.995  13.465  0.8145  1.0282 -0.8218
  278TMC3    C2 4248   3.417   1.867  13.505 -0.7096  0.0762 -0.2703
  278TMC3    C3 4249   3.320   1.828  13.596  0.8265  0.3818  0.6515
  278TMC3    C4 4250   3.323   2.086  13.512  0.0320 -0.0490 -0.6873
  278TMC3    C5 4251   3.228   2.039  13.590  0.4379  0.5033 -0.0857
  278TMC3    C6 4252   3.225   1.914  13.640 -0.3141 -1.0672 -0.4272
  278TMC3     C 4253   3.502   2.033  13.367  0.1187 -0.4422  0.1377
  278TMC3     O 4254   3.565   1.945  13.305 -0.0620  0.4186  0.5190
  278TMC3     H 4255   3.504   1.813  13.471 -0.6465  0.2241 -0.3454
  278TMC3    H1 4256   3.303   2.186  13.475  1.4794  0.8499  0.9475
  278TMC3    H2 4257   3.148   1.889  13.712 -0.6062 -1.0948 -0.7508
  278TMC3    C7 4258   3.177   2.146  13.670  0.5470 -0.8821  0.9068
  278TMC3    C8 4259   3.297   1.686  13.619 -0.0260 -0.8651 -0.3854
  278TMC3    O1 4260   3.248   2.245  13.675 -0.3305  0.5397  0.4602
  278TMC3    O2 4261   3.394   1.621  13.653  0.8388  0.5228 -0.0819
  279MPD2     C 4262   2.643   1.747   0.228  0.0862 -0.2726 -0.2914
  279MPD2    C1 4263   2.538   1.838   0.246  0.0650  0.0622  0.1657
  279MPD2    C2 4264   2.551   1.957   0.188  0.7611 -0.1760  0.2223
  279MPD2    C3 4265   2.660   1.996   0.104 -0.0133  0.5495 -0.0596
  279MPD2    C4 4266   2.768   1.913   0.097 -0.5540 -0.4206 -0.1843
  279MPD2    C5 4267   2.752   1.786   0.149  0.2824  0.1143  0.5687
  279MPD2     H 4268   2.474   2.033   0.201  2.8327  1.8850  0.4691
  279MPD2    H1 4269   2.856   1.951   0.048 -0.2531  1.1550  1.5637
  279MPD2    H2 4270   2.652   1.648   0.272 -0.4838 -0.9345 -1.6641
  279MPD2    H3 4271   2.838   1.722   0.129  0.5488  0.3510  0.9524
  279MPD2     N 4272   2.663   2.121   0.029 -0.1717 -0.5514 -0.1001
  279MPD2    H5 4273   2.744   2.152  17.737  0.5385 -1.1790  0.6219
  279MPD2    N1 4274   2.422   1.820   0.325 -0.8478  0.7035  0.3071
  279MPD2    H7 4275   2.353   1.893   0.312 -1.8138  0.0359  1.6880
  280TMC3    C1 4276   2.245   1.694   0.430  0.2726  0.8247  0.2297
  280TMC3    C2 4277   2.188   1.572   0.445 -0.5287  0.0589 -0.4622
  280TMC3    C3 4278   2.046   1.572   0.443 -0.1131 -0.4727 -0.2458
  280TMC3    C4 4279   2.173   1.812   0.444  0.3534 -0.7602 -0.3836
  280TMC3    C5 4280   2.034   1.808   0.458 -0.1524 -0.5306  0.3243
  280TMC3    C6 4281   1.967   1.689   0.440 -0.3122 -0.0056  0.4353
  280TMC3     C 4282   2.385   1.702   0.390  0.5833  0.4026 -0.3170
  280TMC3     O 4283   2.453   1.604   0.414  0.4567 -0.2330  0.3982
  280TMC3     H 4284   2.247   1.482   0.433  0.0098  0.3962 -0.3743
  280TMC3    H1 4285   2.226   1.906   0.427  0.6419 -0.3722  2.5477
  280TMC3    H2 4286   1.860   1.682   0.424 -0.4957  0.4670  1.4474
  280TMC3    C7 4287   1.961   1.922   0.410 -0.3268  0.9802  0.0120
  280TMC3    C8 4288   1.979   1.443   0.440  0.3326 -0.3231  0.9515
  280TMC3    O1 4289   1.851   1.895   0.363  0.2982  0.2405 -0.4012
  280TMC3    O2 4290   1.886   1.422   0.364 -0.0764  0.1490  0.6192
  281TMC3    C1 4291   1.741   2.506  13.580  0.3338  0.1312 -0.6651
  281TMC3    C2 4292   1.827   2.498  13.467 -0.5938  0.4283 -0.3768
  281TMC3    C3 4293   1.792   2.414  13.367  0.3299 -0.5767  0.0591
  281TMC3    C4 4294   1.622   2.442  13.577 -0.9024  0.1870  0.4245
  281TMC3    C5 4295   1.592   2.356  13.472 -0.4860  0.7627  0.1574
  281TMC3    C6 4296   1.677   2.348  13.363  0.2233  0.7416  0.3423
  281TMC3     C 4297   1.764   2.616  13.670  0.0708 -0.1737  0.4554
  281TMC3     O 4298   1.883   2.652  13.689  0.6232 -0.1975 -0.1199
  281TMC3     H 4299   1.907   2.571  13.459  1.4443 -1.8031 -0.4891
  281TMC3    H1 4300   1.558   2.453  13.663 -0.2554  0.5134  0.8607
  281TMC3    H2 4301   1.646   2.292  13.276  1.5927  2.6607 -1.3831
  281TMC3    C7 4302   1.460   2.293  13.465  0.5105 -0.0419  0.0374
  281TMC3    C8 4303   1.857   2.429  13.237  0.6202 -0.2245 -0.5949
  281TMC3    O1 4304   1.435   2.235  13.357 -0.2449  0.4109  0.7077
  281TMC3    O2 4305   1.883   2.323  13.187 -0.4246  0.3522 -0.5757
  282MPD2     C 4306   2.561   4.033  14.788  0.2371  0.0764 -0.0180
  282MPD2    C1 4307   2.482   3.990  14.891 -0.6189 -0.0313  0.1747
  282MPD2    C2 4308   2.405   3.883  14.872  0.0813  0.0809  0.3821
  282MPD2    C3 4309   2.396   3.828  14.741 -0.3926 -0.2478 -0.2375
  282MPD2    C4 4310   2.475   3.875  14.637 -0.0778 -0.2201 -0.3935
  282MPD2    C5 4311   2.564   3.974  14.662  0.2137 -0.3562  0.8047
  282MPD2     H 4312   2.340   3.851  14.953 -1.0820 -2.6158 -1.6236
  282MPD2    H1 4313   2.476   3.834  14.537  2.4241 -0.4662 -0.2660
  282MPD2    H2 4314   2.636   4.110  14.806  0.4420  0.1930 -1.3302
  282MPD2    H3 4315   2.621   4.007  14.577 -0.0865 -3.2427 -0.5311
  282MPD2     N 4316   2.303   3.728  14.720  0.1670 -0.0174  0.1520
  282MPD2    H5 4317   2.237   3.713  14.796 -0.9982 -0.9327 -1.0534
  282MPD2    N1 4318   2.473   4.051  15.022 -0.5445  0.1350 -0.4260
  282MPD2    H7 4319   2.405   4.011  15.086 -0.5342  1.1896  0.2487
  283TMC3    C1 4320   2.534   4.189  15.204 -0.3138 -0.1896  0.1512
  283TMC3    C2 4321   2.582   4.313  15.238  0.1805 -0.1721  0.2834
  283TMC3    C3 4322   2.569   4.350  15.369 -0.0948 -0.1705  0.1009
  283TMC3    C4 4323   2.475   4.105  15.290 -0.0078  0.2964 -0.4417
  283TMC3    C5 4324   2.458   4.152  15.417  0.7019 -0.3768  0.5250
  283TMC3    C6 4325   2.509   4.272  15.460  0.8766 -0.5120 -0.2836
  283TMC3     C 4326   2.564   4.139  15.072  0.2487 -0.3667  0.7146
  283TMC3     O 4327   2.659   4.193  15.020  0.1818 -0.6830 -0.3153
  283TMC3     H 4328   2.641   4.366  15.164 -1.5634  0.5599 -0.5822
  283TMC3    H1 4329   2.460   4.004  15.252  1.6578 -1.1048  2.6332
  283TMC3    H2 4330   2.489   4.308  15.560 -1.4590 -1.7352 -0.3149
  283TMC3    C7 4331   2.385   4.078  15.515  0.0232 -0.0438 -0.0396
  283TMC3    C8 4332   2.677   4.419  15.433 -0.4154 -0.0375  0.3327
  283TMC3    O1 4333   2.415   4.100  15.633 -0.6399 -0.8251  0.5833
  283TMC3    O2 4334   2.697   4.411  15.552 -0.0205 -0.4358  0.5625
  284MPD2     C 4335   1.585   2.894  12.450 -0.1683 -0.1772 -0.3235
  284MPD2    C1 4336   1.687   2.987  12.426  0.3093  0.0736 -0.0192
  284MPD2    C2 4337   1.819   2.952  12.413  0.0934 -0.6244 -0.4820
  284MPD2    C3 4338   1.852   2.822  12.436 -0.0155 -0.0972 -0.0833
  284MPD2    C4 4339   1.755   2.726  12.461  0.0398  0.5495  0.4690
  284MPD2    C5 4340   1.624   2.764  12.464  0.6031  0.1547  0.1142
  284MPD2     H 4341   1.879   3.036  12.380  0.0249 -0.5295 -0.3669
  284MPD2    H1 4342   1.780   2.626  12.495  0.6032  0.7275  0.5751
  284MPD2    H2 4343   1.479   2.915  12.441 -0.9407 -3.2281  1.4106
  284MPD2    H3 4344   1.554   2.686  12.489  1.8853 -0.8476  0.5878
  284MPD2     N 4345   1.985   2.768  12.424  0.3738  0.3108 -0.6759
  284MPD2    H5 4346   1.996   2.668  12.428 -0.4732  0.1749 -2.0724
  284MPD2    N1 4347   1.657   3.122  12.393  0.6665  0.3238  0.0649
  284MPD2    H7 4348   1.737   3.179  12.369  1.7874 -1.4852 -0.5485
  285TMC3    C1 4349   1.509   3.301  12.315 -0.2554  0.0537  0.6402
  285TMC3    C2 4350   1.614   3.338  12.232  0.0187 -0.7124  0.5668
  285TMC3    C3 4351   1.585   3.439  12.148 -0.7683 -0.3460  1.0517
  285TMC3    C4 4352   1.389   3.363  12.321  0.3746  0.7336  0.1073
  285TMC3    C5 4353   1.374   3.467  12.238  0.0123 -0.4325 -0.8345
  285TMC3    C6 4354   1.468   3.514  12.154  0.3232  0.4790 -0.9910
  285TMC3     C 4355   1.527   3.175  12.392  0.6659 -0.3865  0.7434
  285TMC3     O 4356   1.428   3.136  12.446  0.2361 -0.6451  0.9859
  285TMC3     H 4357   1.702   3.275  12.225 -0.3959 -1.1119 -1.1041
  285TMC3    H1 4358   1.309   3.335  12.388  0.1162 -1.3459 -1.0819
  285TMC3    H2 4359   1.438   3.590  12.082  1.3859  1.0937 -0.7994
  285TMC3    C7 4360   1.247   3.533  12.223 -0.5455  0.3127  0.3693
  285TMC3    C8 4361   1.644   3.423  12.020 -0.1192  0.1044  1.0197
  285TMC3    O1 4362   1.243   3.655  12.232  0.3261 -0.5625  0.0719
  285TMC3    O2 4363   1.695   3.318  11.986  0.2230  0.6574  0.1113
  286MPD2     C 4364   1.689   2.032   1.460  0.3680  0.0410  0.3525
  286MPD2    C1 4365   1.596   1.941   1.404  0.2617  0.0344 -0.1096
  286MPD2    C2 4366   1.613   1.806   1.399 -0.3969  0.1187  0.1978
  286MPD2    C3 4367   1.729   1.760   1.455 -0.6687  0.1268 -0.2222
  286MPD2    C4 4368   1.818   1.844   1.512 -0.1943  0.1082  0.0831
  286MPD2    C5 4369   1.800   1.980   1.513 -0.4348  0.1657 -0.5236
  286MPD2     H 4370   1.534   1.738   1.367  1.7682 -2.4970  0.4007
  286MPD2    H1 4371   1.900   1.791   1.558  0.1571  3.7109  3.6900
  286MPD2    H2 4372   1.680   2.140   1.460  0.7160  0.0850 -2.7411
  286MPD2    H3 4373   1.875   2.043   1.559 -0.3554 -0.2554 -0.0774
  286MPD2     N 4374   1.759   1.626   1.457 -0.1540 -0.1508 -0.2377
  286MPD2    H5 4375   1.844   1.593   1.500 -0.4488 -0.3436  0.1988
  286MPD2    N1 4376   1.475   1.980   1.351 -0.2657  0.9062  0.1153
  286MPD2    H7 4377   1.413   1.907   1.317  0.8094 -0.5413  1.3303
  287TMC3    C1 4378   1.754   1.402   1.372  0.0117 -0.6308 -0.8297
  287TMC3    C2 4379   1.669   1.305   1.323 -0.0133 -0.0133  0.3345
  287TMC3    C3 4380   1.727   1.207   1.245 -0.4887 -0.4476  0.2516
  287TMC3    C4 4381   1.890   1.405   1.341 -0.3865  0.1311 -0.1560
  287TMC3    C5 4382   1.944   1.301   1.275  0.4267 -0.1747  0.1205
  287TMC3    C6 4383   1.864   1.205   1.222  0.1831 -0.5135  0.3805
  287TMC3     C 4384   1.692   1.529   1.380 -0.2729 -0.2417  0.1920
  287TMC3     O 4385   1.620   1.540   1.283 -0.4983  0.6738 -0.0063
  287TMC3     H 4386   1.563   1.301   1.347 -0.1689  1.0611 -0.2031
  287TMC3    H1 4387   1.947   1.494   1.364 -0.2172  0.0866 -0.4137
  287TMC3    H2 4388   1.900   1.130   1.152 -0.0364  0.0396 -0.3283
  287TMC3    C7 4389   2.090   1.292   1.277  0.7732 -0.0530  0.5596
  287TMC3    C8 4390   1.653   1.185   1.118  0.2623 -1.6373  0.1743
  287TMC3    O1 4391   2.141   1.217   1.192  0.6547 -0.0755  0.0306
  287TMC3    O2 4392   1.668   1.079   1.062  0.0307 -0.0692 -0.3914
  288TMC3    C1 4393   3.621   1.830  14.331  0.2378  0.1719  0.0231
  288TMC3    C2 4394   3.499   1.857  14.379 -0.1783  0.2546 -0.4061
  288TMC3    C3 4395   3.433   1.979  14.364  0.0635  0.6041 -0.2775
  288TMC3    C4 4396   3.678   1.912  14.238 -0.5523 -0.1691  0.0736
  288TMC3    C5 4397   3.609   2.028  14.208  0.0794 -0.2328  0.1142
  288TMC3    C6 4398   3.498   2.072  14.286 -0.3908  0.1688 -0.3397
  288TMC3     C 4399   3.656   1.689  14.322 -0.0636  0.1238 -0.6656
  288TMC3     O 4400   3.705   1.654  14.216 -0.6850 -0.1207 -0.2885
  288TMC3     H 4401   3.451   1.789  14.448 -1.9431  1.1653 -0.7315
  288TMC3    H1 4402   3.765   1.885  14.180 -0.9646 -1.0034 -0.1572
  288TMC3    H2 4403   3.447   2.166  14.269  0.4374  0.6834 -0.0053
  288TMC3    C7 4404   3.629   2.097  14.077 -0.1403 -0.7720 -0.2378
  288TMC3    C8 4405   3.341   2.034  14.465  0.4511 -0.7300 -0.4377
  288TMC3    O1 4406   3.571   2.207  14.057 -0.2496  0.1548  1.0680
  288TMC3    O2 4407   3.356   2.150  14.493 -0.6488 -0.2642 -0.4442
  289MPD2     C 4408   3.518   0.431  14.354  0.0701  0.6068 -0.1773
  289MPD2    C1 4409   3.565   0.557  14.398  0.3504  0.7395  0.4939
  289MPD2    C2 4410   3.521   0.674  14.337  0.2206  0.7394 -0.1093
  289MPD2    C3 4411   3.423   0.659  14.244 -0.3024  0.8647 -0.4198
  289MPD2    C4 4412   3.364   0.535  14.211  1.1057  0.2785  0.1559
  289MPD2    C5 4413   3.416   0.421  14.263  0.6371  0.4787  0.0245
  289MPD2     H 4414   3.566   0.771  14.354  3.2520 -0.5714 -0.7255
  289MPD2    H1 4415   3.284   0.523  14.139  1.6507 -1.6589 -0.1195
  289MPD2    H2 4416   3.569   0.346  14.398  1.3314  1.2594 -0.3718
  289MPD2    H3 4417   3.367   0.330  14.231  0.8352  0.1117  0.7669
  289MPD2     N 4418   3.359   0.768  14.180  0.3130 -0.1881 -0.3407
  289MPD2    H5 4419   3.283   0.747  14.117  0.4958 -0.1341 -0.5823
  289MPD2    N1 4420   3.671   0.555  14.499  1.1032 -0.5059  0.0014
  289MPD2    H7 4421   3.706   0.467  14.535  0.0272 -1.3498 -0.9964
  290TMC3    C1 4422   3.283   0.973  14.129 -0.7940  0.1591 -0.2731
  290TMC3    C2 4423   3.271   1.113  14.149 -0.1711  0.8734 -0.3592
  290TMC3    C3 4424   3.166   1.176  14.085  0.3786  0.1923 -0.5376
  290TMC3    C4 4425   3.193   0.904  14.049 -0.0601  0.0400 -0.6729
  290TMC3    C5 4426   3.076   0.974  14.019 -0.3104 -1.1543  0.3664
  290TMC3    C6 4427   3.065   1.106  14.025 -0.0097  0.3664 -0.2599
  290TMC3     C 4428   3.375   0.898  14.209 -0.7022 -0.9301  0.2343
  290TMC3     O 4429   3.452   0.956  14.287 -0.0309  0.0189  0.2392
  290TMC3     H 4430   3.341   1.159  14.217  0.4329 -1.6688  0.7143
  290TMC3    H1 4431   3.206   0.804  14.010 -1.1973 -0.1945 -0.4529
  290TMC3    H2 4432   2.979   1.160  13.987 -1.7103 -1.4552  1.0305
  290TMC3    C7 4433   2.980   0.909  13.926  1.0344 -0.0642 -0.3533
  290TMC3    C8 4434   3.152   1.317  14.083  0.9337  0.2709 -0.3668
  290TMC3    O1 4435   2.956   0.982  13.832  0.0662 -0.8060  0.4995
  290TMC3    O2 4436   3.040   1.368  14.070  0.2893  0.3205  0.0220
  291MPD2     C 4437   2.427   0.693   0.655  0.7204 -0.2231  0.2827
  291MPD2    C1 4438   2.425   0.609   0.546  0.4891 -0.0552  0.5646
  291MPD2    C2 4439   2.549   0.579   0.488 -0.0689  0.2762  0.1164
  291MPD2    C3 4440   2.670   0.633   0.538  0.0342 -0.3079  0.2560
  291MPD2    C4 4441   2.663   0.723   0.636  0.1039 -0.2895  0.6784
  291MPD2    C5 4442   2.539   0.759   0.690  0.2679 -0.5933 -0.1013
  291MPD2     H 4443   2.558   0.520   0.398  3.1485 -0.5209  0.9496
  291MPD2    H1 4444   2.755   0.763   0.675 -1.0104  1.2502  1.7082
  291MPD2    H2 4445   2.338   0.720   0.711 -0.1154 -2.0119 -0.2013
  291MPD2    H3 4446   2.544   0.833   0.769  0.6148  0.3326 -0.9907
  291MPD2     N 4447   2.788   0.606   0.470 -0.7107 -0.5625  0.1341
  291MPD2    H5 4448   2.857   0.679   0.485 -1.0582 -0.8711  3.2046
  291MPD2    N1 4449   2.304   0.565   0.485  0.6887 -0.3118 -0.7767
  291MPD2    H7 4450   2.309   0.527   0.392  0.6902 -0.2672 -0.7948
  292TMC3    C1 4451   2.074   0.526   0.451  1.0733  0.2722  0.6838
  292TMC3    C2 4452   1.943   0.548   0.492  0.2517  0.5270 -0.8757
  292TMC3    C3 4453   1.838   0.490   0.431  0.0789 -0.3195  0.5864
  292TMC3    C4 4454   2.102   0.443   0.352  0.1477 -0.5192 -0.2081
  292TMC3    C5 4455   1.988   0.378   0.295 -0.2032 -0.6155 -0.4445
  292TMC3    C6 4456   1.863   0.386   0.345 -0.9391 -0.5438 -0.2061
  292TMC3     C 4457   2.180   0.562   0.544  0.3292  0.8171 -0.0627
  292TMC3     O 4458   2.157   0.579   0.664  0.6137  0.2898  0.4802
  292TMC3     H 4459   1.920   0.614   0.575  1.2372 -0.0963 -0.1087
  292TMC3    H1 4460   2.200   0.415   0.316  1.1516  0.9321  1.3929
  292TMC3    H2 4461   1.782   0.330   0.301 -1.7973  1.2431 -0.9295
  292TMC3    C7 4462   2.009   0.278   0.184 -0.4380 -0.1196  0.0505
  292TMC3    C8 4463   1.716   0.478   0.514  0.1972 -0.3242 -0.1586
  292TMC3    O1 4464   2.117   0.226   0.186 -0.4907 -0.1723  0.0346
  292TMC3    O2 4465   1.724   0.509   0.628 -0.0166 -0.2922  0.2261
  293MPD2     C 4466   4.604   1.737  12.943 -0.3095  0.1541 -0.1266
  293MPD2    C1 4467   4.561   1.862  12.966 -0.6303  0.0927 -0.1001
  293MPD2    C2 4468   4.606   1.932  13.077 -0.3350 -0.5282 -0.1689
  293MPD2    C3 4469   4.697   1.865  13.166 -0.0325 -0.8044 -0.2509
  293MPD2    C4 4470   4.736   1.743  13.138  0.0255 -0.2742 -0.0928
  293MPD2    C5 4471   4.691   1.673  13.024  0.3290 -0.5821  0.9506
  293MPD2     H 4472   4.576   2.035  13.093  1.8295  0.1172 -0.2344
  293MPD2    H1 4473   0.079   1.696  13.187  0.4884  0.3561 -0.2782
  293MPD2    H2 4474   4.571   1.684  12.854 -0.1458  0.3260 -0.2909
  293MPD2    H3 4475   4.719   1.569  13.010 -0.1217 -0.6521  0.5737
  293MPD2     N 4476   4.738   1.935  13.275 -0.1695 -0.0519 -0.6904
  293MPD2    H5 4477   4.711   2.033  13.275 -0.7432 -0.2065  0.2746
  293MPD2    N1 4478   4.474   1.921  12.872 -0.1589  0.1997 -0.2586
  293MPD2    H7 4479   4.454   1.869  12.787 -0.7060 -1.4635  0.8920
  294TMC3    C1 4480   4.287   2.048  12.796 -0.2919  0.2132 -0.1362
  294TMC3    C2 4481   4.159   1.999  12.831 -0.4261 -0.0079 -0.7489
  294TMC3    C3 4482   4.056   2.034  12.742  0.3360  0.1368  0.0115
  294TMC3    C4 4483   4.317   2.121  12.683 -0.9009 -0.0256 -0.5397
  294TMC3    C5 4484   4.209   2.162  12.614 -0.5607 -0.0525  0.7550
  294TMC3    C6 4485   4.083   2.113  12.637 -0.6195 -0.0258  0.4103
  294TMC3     C 4486   4.390   2.027  12.895  0.2919  0.1134  0.4301
  294TMC3     O 4487   4.367   2.078  13.005  0.1920 -0.2733  0.0011
  294TMC3     H 4488   4.137   1.946  12.923 -0.6544  0.1556 -0.7103
  294TMC3    H1 4489   4.414   2.170  12.680 -0.4175 -0.7817  1.8739
  294TMC3    H2 4490   4.010   2.140  12.562  0.3203 -0.5890 -0.7180
  294TMC3    C7 4491   4.229   2.232  12.491  0.4761 -0.5249 -0.2137
  294TMC3    C8 4492   3.949   1.934  12.719  0.3303  0.0789  0.0332
  294TMC3    O1 4493   4.129   2.288  12.449  0.9662  0.7520 -0.5813
  294TMC3    O2 4494   3.903   1.879  12.816 -0.5041 -0.1794  0.0144
  295MPD2     C 4495   0.409   1.072   0.822 -0.5013  0.2338 -0.1878
  295MPD2    C1 4496   0.304   1.011   0.763 -0.6408 -0.3985 -0.4390
  295MPD2    C2 4497   0.267   0.885   0.812  0.7935 -0.0405 -0.1757
  295MPD2    C3 4498   0.334   0.825   0.915  0.2226  0.0627  1.0117
  295MPD2    C4 4499   0.447   0.876   0.961  0.2281  0.3928 -0.0707
  295MPD2    C5 4500   0.483   0.998   0.919 -0.2598  0.3136  0.0647
  295MPD2     H 4501   0.192   0.828   0.758 -0.1527 -0.5906  1.7234
  295MPD2    H1 4502   0.510   0.836   1.040  1.2217 -3.2817 -2.7411
  295MPD2    H2 4503   0.448   1.170   0.797 -0.6067  0.5826  1.0226
  295MPD2    H3 4504   0.572   1.044   0.959 -1.0368  0.6761  1.3695
  295MPD2     N 4505   0.296   0.700   0.973  0.5175 -0.1463  0.0862
  295MPD2    H5 4506   0.360   0.647   1.032 -1.5487  0.2816  2.6688
  295MPD2    N1 4507   0.225   1.071   0.663 -0.1503  0.4003 -0.0519
  295MPD2    H7 4508   0.147   1.017   0.627 -1.0813  1.8474 -0.2109
  296TMC3    C1 4509   0.153   0.541   1.054 -0.0333  0.3782  0.3536
  296TMC3    C2 4510   0.047   0.568   1.144  0.1194 -0.3998  0.5068
  296TMC3    C3 4511   0.001   0.473   1.227 -0.2535 -0.1593  0.0467
  296TMC3    C4 4512   0.239   0.434   1.075  0.0290 -0.0080 -0.0711
  296TMC3    C5 4513   0.203   0.343   1.176  0.4097 -0.6576  0.1525
  296TMC3    C6 4514   0.079   0.359   1.252 -0.5616 -0.0499  0.1686
  296TMC3     C 4515   0.167   0.650   0.966 -0.4041 -0.4128 -0.0043
  296TMC3     O 4516   0.066   0.707   0.928 -0.2027  0.2545  0.6094
  296TMC3     H 4517   4.725   0.654   1.127  1.3349  0.3806 -0.0104
  296TMC3    H1 4518   0.329   0.415   1.018  0.1037  2.8982 -0.9056
  296TMC3    H2 4519   0.041   0.285   1.321  0.2696  0.4537  1.1730
  296TMC3    C7 4520   0.300   0.241   1.216 -0.4185 -1.1223 -0.2377
  296TMC3    C8 4521   4.635   0.499   1.319 -0.4535 -0.2650 -0.1023
  296TMC3    O1 4522   0.385   0.218   1.131  0.0241 -0.4068 -0.4114
  296TMC3    O2 4523   4.603   0.404   1.390  0.0027 -0.5941 -0.5379
  297MPD2     C 4524   2.017   2.678  16.534 -0.3318  0.1920  0.5065
  297MPD2    C1 4525   2.010   2.723  16.401  0.1746  0.5922  0.3734
  297MPD2    C2 4526   2.112   2.803  16.355 -0.3760  0.7451 -0.6152
  297MPD2    C3 4527   2.214   2.847  16.435 -0.3406 -0.0651  0.2096
  297MPD2    C4 4528   2.223   2.792  16.561 -0.0138  0.1372  0.5557
  297MPD2    C5 4529   2.122   2.715  16.611  0.5193  1.0097  0.2890
  297MPD2     H 4530   2.106   2.841  16.253 -1.6649  2.3684  0.0612
  297MPD2    H1 4531   2.315   2.802  16.618 -0.1560  0.8512  0.6493
  297MPD2    H2 4532   1.952   2.602  16.576  0.7823 -1.3483 -0.5235
  297MPD2    H3 4533   2.131   2.677  16.712  0.1262 -2.0402 -0.7951
  297MPD2     N 4534   2.307   2.942  16.394  0.2477  0.1963 -0.2519
  297MPD2    H5 4535   2.299   2.981  16.300 -0.4607 -0.1443 -0.3285
  297MPD2    N1 4536   1.912   2.676  16.310  0.7017  0.1158 -0.6967
  297MPD2    H7 4537   1.929   2.699  16.213  1.6756 -1.0389 -0.7867
  298TMC3    C1 4538   1.716   2.587  16.225 -0.4831  0.5608 -0.2870
  298TMC3    C2 4539   1.764   2.616  16.094 -0.1260 -0.2888 -0.3637
  298TMC3    C3 4540   1.679   2.664  16.002  0.2346 -0.0295 -0.0804
  298TMC3    C4 4541   1.584   2.599  16.259 -0.3446 -0.5347  0.1920
  298TMC3    C5 4542   1.503   2.630  16.150  0.0760  0.0751  0.3633
  298TMC3    C6 4543   1.546   2.668  16.026  0.1149 -0.0250 -0.1272
  298TMC3     C 4544   1.806   2.598  16.345  0.3066  0.2344  0.2021
  298TMC3     O 4545   1.763   2.563  16.451  0.1290 -0.5053  0.1838
  298TMC3     H 4546   1.870   2.626  16.076  0.3580 -0.8051  2.1529
  298TMC3    H1 4547   1.546   2.585  16.360 -0.8426 -0.6429 -0.0095
  298TMC3    H2 4548   1.482   2.687  15.940  0.2915  1.0224 -0.0184
  298TMC3    C7 4549   1.370   2.672  16.193  0.6498  0.1060 -0.1210
  298TMC3    C8 4550   1.730   2.711  15.869  0.4207 -0.2968 -0.2422
  298TMC3    O1 4551   1.331   2.614  16.293 -0.5101 -0.1279 -0.3393
  298TMC3    O2 4552   1.830   2.653  15.825  0.1773 -0.0510  0.3751
  299MPD2     C 4553   2.566   2.839  10.152 -0.3547  0.6011  0.3246
  299MPD2    C1 4554   2.534   2.837  10.286  0.1859 -0.1264 -0.3774
  299MPD2    C2 4555   2.398   2.840  10.318  0.5308  0.0170 -0.4477
  299MPD2    C3 4556   2.307   2.861  10.209 -0.1987 -0.4874  0.8953
  299MPD2    C4 4557   2.345   2.866  10.077  0.0759  0.0040 -0.1380
  299MPD2    C5 4558   2.477   2.870  10.050  0.1153  0.3910 -0.0485
  299MPD2     H 4559   2.365   2.842  10.421 -3.0633  0.3698 -1.6236
  299MPD2    H1 4560   2.277   2.886   9.995 -0.9489 -0.5165  0.5736
  299MPD2    H2 4561   2.671   2.841  10.125 -0.1236 -2.5079  0.9385
  299MPD2    H3 4562   2.505   2.886   9.947 -0.8937  2.8604  0.0761
  299MPD2     N 4563   2.171   2.890  10.229 -0.7311  0.0986 -0.2109
  299MPD2    H5 4564   2.120   2.917  10.146  0.6806  2.7968 -0.1887
  299MPD2    N1 4565   2.635   2.819  10.378  0.3775  0.4519 -0.2754
  299MPD2    H7 4566   2.730   2.825  10.340  0.7141 -1.9332  0.1877
  300TMC3    C1 4567   1.969   2.945  10.319  0.2181 -0.7934 -1.1184
  300TMC3    C2 4568   1.928   2.935  10.184  0.1251 -0.7797  0.7169
  300TMC3    C3 4569   1.865   3.044  10.131 -0.3130 -0.4311 -0.4105
  300TMC3    C4 4570   1.931   3.038  10.404 -0.5577  0.2338  0.0405
  300TMC3    C5 4571   1.862   3.138  10.347  0.5974  0.8473 -0.9113
  300TMC3    C6 4572   1.825   3.145  10.214  0.3457 -0.4015 -0.2005
  300TMC3     C 4573   2.099   2.891  10.347 -0.3717  0.2667 -0.0505
  300TMC3     O 4574   2.142   2.883  10.459 -0.0645 -0.1890  0.2105
  300TMC3     H 4575   1.962   2.860  10.114  1.6331 -0.5371  1.1787
  300TMC3    H1 4576   1.982   3.045  10.499  0.1930 -3.0020 -0.1378
  300TMC3    H2 4577   1.772   3.232  10.178  1.0562 -0.4748 -1.4022
  300TMC3    C7 4578   1.833   3.259  10.413 -0.6818  0.3232  0.3768
  300TMC3    C8 4579   1.960   3.094  10.027 -0.1275 -0.2731 -0.3116
  300TMC3    O1 4580   1.812   3.365  10.356 -0.2045 -0.8563  0.4405
  300TMC3    O2 4581   2.077   3.051  10.025 -0.5342 -0.0963  0.2371
  301MPD2     C 4582   0.278   3.821   1.347 -0.1357 -0.3254  0.1878
  301MPD2    C1 4583   0.191   3.801   1.244  0.4101 -0.5682  0.0897
  301MPD2    C2 4584   0.196   3.687   1.162 -0.0723 -0.3202  0.2639
  301MPD2    C3 4585   0.280   3.585   1.190 -0.2405  1.0234  0.1069
  301MPD2    C4 4586   0.361   3.601   1.297 -0.3744 -0.5460 -0.2288
  301MPD2    C5 4587   0.366   3.720   1.368  0.5495 -0.1440  0.4611
  301MPD2     H 4588   0.133   3.692   1.074  0.0790  0.8386  0.2198
  301MPD2    H1 4589   0.437   3.527   1.322 -1.3982 -1.1003  1.2390
  301MPD2    H2 4590   0.287   3.906   1.414 -4.1686  0.1697  0.1629
  301MPD2    H3 4591   0.452   3.732   1.433  0.4342 -1.9368  0.9413
  301MPD2     N 4592   0.295   3.465   1.119 -0.6461  0.3674 -0.0262
  301MPD2    H5 4593   0.352   3.387   1.149 -1.1091  1.0343  2.5746
  301MPD2    N1 4594   0.084   3.894   1.221 -0.1261  0.3267 -0.4139
  301MPD2    H7 4595   0.009   3.864   1.159 -1.2605  1.2573  0.5174
  302TMC3    C1 4596   0.206   3.292   0.970 -0.4498 -0.0658  0.0741
  302TMC3    C2 4597   0.277   3.197   1.043 -0.2226  0.3013 -0.0145
  302TMC3    C3 4598   0.247   3.066   1.011 -0.0669  0.1209 -0.3351
  302TMC3    C4 4599   0.099   3.264   0.889  1.0392 -0.2584  0.1005
  302TMC3    C5 4600   0.072   3.135   0.867 -0.0986  0.8586 -0.5649
  302TMC3    C6 4601   0.144   3.033   0.925 -0.4068 -0.7562  0.1007
  302TMC3     C 4602   0.212   3.434   1.015 -0.0435 -0.4085  0.6989
  302TMC3     O 4603   0.141   3.510   0.948  0.0611  0.6897 -0.2530
  302TMC3     H 4604   0.359   3.222   1.109 -0.5576 -0.5241  0.7015
  302TMC3    H1 4605   0.059   3.340   0.823  0.2514 -1.1450 -0.4487
  302TMC3    H2 4606   0.116   2.930   0.905  2.3471 -1.0377 -2.2329
  302TMC3    C7 4607   4.736   3.104   0.753 -0.2037 -0.5735 -0.0759
  302TMC3    C8 4608   0.340   2.963   1.058  0.0207 -0.1866  0.3365
  302TMC3    O1 4609   0.018   2.998   0.694 -0.2224 -0.5639  0.2378
  302TMC3    O2 4610   0.452   3.004   1.075  0.1702  0.2054 -0.3575
  303MPD2     C 4611   0.654   2.116  11.013  0.3322 -0.3062  0.4300
  303MPD2    C1 4612   0.560   2.034  10.958 -0.8693 -0.1076 -0.6898
  303MPD2    C2 4613   0.529   2.042  10.823  0.3521  0.8386 -0.4203
  303MPD2    C3 4614   0.597   2.137  10.752  0.0875 -0.3794  0.0714
  303MPD2    C4 4615   0.698   2.207  10.806 -0.0184 -0.1820  0.4450
  303MPD2    C5 4616   0.728   2.202  10.936  0.0257 -0.1201  0.3579
  303MPD2     H 4617   0.458   1.974  10.778  1.3288  0.3519 -1.2031
  303MPD2    H1 4618   0.763   2.266  10.743 -1.7153  2.7718  1.4832
  303MPD2    H2 4619   0.664   2.117  11.121 -3.1685  2.9007  0.7686
  303MPD2    H3 4620   0.808   2.264  10.973 -1.1001  0.9661  0.9970
  303MPD2     N 4621   0.573   2.164  10.611  0.0893 -0.2558 -0.1024
  303MPD2    H5 4622   0.653   2.209  10.570 -0.5707  1.7795  0.8250
  303MPD2    N1 4623   0.498   1.951  11.047 -1.3347 -0.3435  0.4347
  303MPD2    H7 4624   0.523   1.946  11.146 -2.3156 -1.3641  0.6350
  304TMC3    C1 4625   0.351   1.797  11.128  0.1619  0.5733 -0.6030
  304TMC3    C2 4626   0.222   1.758  11.133 -0.2177  0.3193 -0.0328
  304TMC3    C3 4627   0.198   1.639  11.201  0.4262 -0.6341  0.2535
  304TMC3    C4 4628   0.449   1.726  11.190 -0.0966  0.7170  0.3753
  304TMC3    C5 4629   0.423   1.612  11.254 -0.1010 -0.5224 -0.5337
  304TMC3    C6 4630   0.295   1.573  11.271  0.0460 -0.2909  0.3649
  304TMC3     C 4631   0.385   1.884  11.021 -0.3112 -0.0084 -0.1341
  304TMC3     O 4632   0.295   1.917  10.943 -0.4526 -0.1383  0.2454
  304TMC3     H 4633   0.153   1.783  11.053  0.0711  1.2199  0.0034
  304TMC3    H1 4634   0.550   1.757  11.165  1.0744 -2.0967  1.6780
  304TMC3    H2 4635   0.278   1.475  11.314  0.7806  1.3586  4.4181
  304TMC3    C7 4636   0.520   1.506  11.222 -0.6494  0.3913  0.3563
  304TMC3    C8 4637   0.119   1.541  11.140 -0.3483 -0.7063  0.2987
  304TMC3    O1 4638   0.639   1.533  11.228 -0.1978  0.2809  0.4399
  304TMC3    O2 4639   0.176   1.433  11.130 -0.2177 -0.7171  0.4143
  305MPD2     C 4640   3.253   4.540  13.451  0.7095 -0.2677  0.0563
  305MPD2    C1 4641   3.178   4.422  13.443 -0.0059 -0.4198  0.1543
  305MPD2    C2 4642   3.193   4.345  13.326  0.3273  0.6196 -0.5396
  305MPD2    C3 4643   3.268   4.388  13.218  0.0379 -0.2041  0.0732
  305MPD2    C4 4644   3.340   4.505  13.231  0.1618 -0.3074 -0.1915
  305MPD2    C5 4645   3.328   4.578  13.345  0.0924 -0.4901 -0.1361
  305MPD2     H 4646   3.140   4.252  13.309  2.3823 -0.8361  1.0087
  305MPD2    H1 4647   3.378   4.557  13.143 -0.7994 -1.3456 -1.2238
  305MPD2    H2 4648   3.253   4.612  13.533  2.1328  0.9568 -1.0100
  305MPD2    H3 4649   3.380   4.672  13.354 -2.6873  1.2932 -2.7919
  305MPD2     N 4650   3.297   4.309  13.101 -1.0509  0.2422  0.6817
  305MPD2    H5 4651   3.353   4.353  13.028 -2.1685  0.4246 -0.0593
  305MPD2    N1 4652   3.102   4.384  13.554  0.1610  0.0194  0.0606
  305MPD2    H7 4653   3.125   4.438  13.637 -0.5967 -0.9476  0.8962
  306TMC3    C1 4654   2.975   4.237  13.693  0.1345 -0.3048  0.0276
  306TMC3    C2 4655   3.077   4.256  13.794  0.0380  0.4886 -0.5570
  306TMC3    C3 4656   3.078   4.179  13.899 -0.5506 -0.3444 -0.1419
  306TMC3    C4 4657   2.875   4.146  13.713  0.4438 -0.3167 -0.1660
  306TMC3    C5 4658   2.882   4.067  13.827  0.5644  0.2547  0.1914
  306TMC3    C6 4659   2.989   4.076  13.914 -0.6456 -0.3472 -0.0472
  306TMC3     C 4660   3.008   4.273  13.558  0.1029 -0.0971  0.7262
  306TMC3     O 4661   2.953   4.207  13.471 -0.1323  0.4233 -0.1134
  306TMC3     H 4662   3.145   4.340  13.794  0.5672  0.0615  0.5047
  306TMC3    H1 4663   2.798   4.136  13.637  1.0137  1.0980 -0.9256
  306TMC3    H2 4664   2.990   4.006  13.996  0.2832  0.1129  0.3373
  306TMC3    C7 4665   2.761   3.993  13.851 -0.1780  0.0546 -0.2867
  306TMC3    C8 4666   3.211   4.150  13.946  0.1715  0.4244 -0.8600
  306TMC3    O1 4667   2.712   3.931  13.757 -0.3424 -0.3005 -0.3673
  306TMC3    O2 4668   3.307   4.160  13.870 -0.3843  0.1753  0.2901
  307MPD2     C 4669   1.106   2.145   0.420  0.0158 -0.4246 -0.0999
  307MPD2    C1 4670   1.075   2.274   0.376  0.3725 -0.1566 -0.2924
  307MPD2    C2 4671   1.015   2.368   0.460 -0.8232 -0.5719  0.3672
  307MPD2    C3 4672   0.991   2.341   0.594  0.0754 -0.3261  0.1532
  307MPD2    C4 4673   1.031   2.218   0.643 -0.1401 -0.1928 -0.3876
  307MPD2    C5 4674   1.077   2.120   0.554 -0.0553 -0.0533  0.6078
  307MPD2     H 4675   0.995   2.466   0.419 -0.3843 -0.7900 -0.3582
  307MPD2    H1 4676   1.014   2.198   0.748 -0.1428 -1.0206 -0.5469
  307MPD2    H2 4677   1.155   2.075   0.354 -0.3866 -1.6127  0.8627
  307MPD2    H3 4678   1.095   2.018   0.587 -0.9092 -0.8013 -1.2374
  307MPD2     N 4679   0.923   2.434   0.672  0.8469  0.2292 -0.1875
  307MPD2    H5 4680   0.905   2.520   0.621  0.1577  2.0999  3.2379
  307MPD2    N1 4681   1.096   2.319   0.241  0.6892  0.4684 -0.2198
  307MPD2    H7 4682   1.063   2.413   0.221  0.5595  0.0241 -2.1265
  308TMC3    C1 4683   0.581   2.583   0.867  0.4869  0.4452 -0.9533
  308TMC3    C2 4684   0.602   2.719   0.853  0.0277  0.1732  1.3390
  308TMC3    C3 4685   0.739   2.756   0.850 -0.5448 -0.2440  0.8021
  308TMC3    C4 4686   0.680   2.490   0.866 -0.3454  0.0603 -0.1605
  308TMC3    C5 4687   0.809   2.532   0.850 -0.0005  0.0461  0.0395
  308TMC3    C6 4688   0.840   2.663   0.832 -0.0465  0.4634 -0.6701
  308TMC3     C 4689   0.447   2.530   0.840 -0.4081  0.5012 -0.8335
  308TMC3     O 4690   0.435   2.406   0.852  0.1416 -0.0190  0.1760
  308TMC3     H 4691   0.524   2.794   0.860 -0.0780 -0.0124  2.1328
  308TMC3    H1 4692   0.663   2.384   0.882 -3.6778  0.4819 -0.7812
  308TMC3    H2 4693   0.939   2.701   0.806  1.8850 -3.0397  1.6651
  308TMC3    C7 4694   0.888   2.423   0.803  0.3872  0.3101 -0.0881
  308TMC3    C8 4695   0.770   2.890   0.805  0.4331 -0.0630  0.5956
  308TMC3    O1 4696   0.892   2.326   0.876  0.1655  0.0421  0.2069
  308TMC3    O2 4697   0.859   2.899   0.726 -0.4819  0.1023 -0.0829
  309MPD2     C 4698   0.168   2.325  17.056 -0.0747  0.8047 -0.4876
  309MPD2    C1 4699   0.116   2.422  16.972  0.5584 -0.1107 -0.2162
  309MPD2    C2 4700   0.005   2.492  17.011 -0.7728  0.7812  0.2525
  309MPD2    C3 4701   4.680   2.478  17.132  0.1848 -0.7638  0.1847
  309MPD2    C4 4702   4.727   2.374  17.208 -0.6329  0.2523  0.2670
  309MPD2    C5 4703   0.106   2.307  17.176 -0.5650  0.2444 -0.0682
  309MPD2     H 4704   4.722   2.565  16.934 -2.8393  2.9775  2.9503
  309MPD2    H1 4705   4.684   2.342  17.302  0.2630  1.4440  1.0736
  309MPD2    H2 4706   0.253   2.259  17.037 -0.5079 -0.1526  0.8196
  309MPD2    H3 4707   0.150   2.236  17.244 -1.3984 -0.8201 -0.6303
  309MPD2     N 4708   4.568   2.551  17.174 -0.0356  0.1228  0.7547
  309MPD2    H5 4709   4.521   2.519  17.258 -1.2302 -1.5710 -0.5478
  309MPD2    N1 4710   0.177   2.452  16.843 -0.2721  0.5585 -0.9483
  309MPD2    H7 4711   0.133   2.520  16.782 -2.0600  0.9547  0.8037
  310TMC3    C1 4712   0.339   2.447  16.666 -0.0124 -0.2254 -0.8618
  310TMC3    C2 4713   0.298   2.570  16.617  0.1212 -0.1059 -0.5203
  310TMC3    C3 4714   0.341   2.603  16.497 -0.1375  0.0081 -0.6793
  310TMC3    C4 4715   0.434   2.368  16.600 -0.0330  0.7437 -0.1053
  310TMC3    C5 4716   0.473   2.411  16.472  0.1190 -0.5143  0.1770
  310TMC3    C6 4717   0.429   2.529  16.417  0.0795  0.4426 -0.2908
  310TMC3     C 4718   0.296   2.389  16.794 -0.4974  0.3941 -0.9287
  310TMC3     O 4719   0.349   2.282  16.830  0.4790  0.1975  0.3965
  310TMC3     H 4720   0.236   2.641  16.672  1.0951 -0.1872  0.6824
  310TMC3    H1 4721   0.459   2.266  16.627 -0.1818  0.5980 -0.5096
  310TMC3    H2 4722   0.464   2.571  16.324 -0.6993  2.7913  0.4919
  310TMC3    C7 4723   0.565   2.340  16.392 -0.1224  0.8084  0.1817
  310TMC3    C8 4724   0.265   2.695  16.414  0.8442 -0.5442 -0.1271
  310TMC3    O1 4725   0.567   2.364  16.274 -0.3051  0.2720 -0.2262
  310TMC3    O2 4726   0.284   2.686  16.295  0.1987 -0.3514 -0.3181
  311MPD2     C 4727   2.358   3.651  12.353  0.0319  0.5842  0.2314
  311MPD2    C1 4728   2.407   3.758  12.431 -0.2111 -0.5491 -1.1632
  311MPD2    C2 4729   2.364   3.778  12.560 -0.1364 -0.5909  0.1936
  311MPD2    C3 4730   2.270   3.699  12.615  0.3088  0.4458 -0.1454
  311MPD2    C4 4731   2.230   3.589  12.543  0.2045  0.0898  0.5555
  311MPD2    C5 4732   2.269   3.566  12.413  0.6500 -0.3402 -0.0796
  311MPD2     H 4733   2.396   3.866  12.615 -3.8863  1.0960 -0.3466
  311MPD2    H1 4734   2.148   3.530  12.581 -1.3640  1.4029 -0.7907
  311MPD2    H2 4735   2.381   3.623  12.251  0.6906  0.1456  0.4981
  311MPD2    H3 4736   2.216   3.492  12.354 -0.3835  1.1782 -1.0696
  311MPD2     N 4737   2.219   3.732  12.743  0.1033 -0.1202  0.0931
  311MPD2    H5 4738   2.243   3.823  12.780  2.1528 -0.7508  0.2707
  311MPD2    N1 4739   2.485   3.865  12.379  0.5067 -0.5285  0.0715
  311MPD2    H7 4740   2.542   3.915  12.446  0.6469 -0.2545 -0.2486
  312TMC3    C1 4741   2.074   3.744  12.928  0.6101 -0.0139  0.3278
  312TMC3    C2 4742   1.993   3.681  13.016 -0.5026 -0.2868  0.3538
  312TMC3    C3 4743   1.926   3.762  13.105 -0.2470 -0.4421 -0.2833
  312TMC3    C4 4744   2.119   3.872  12.949 -0.4407 -0.1513 -0.1252
  312TMC3    C5 4745   2.061   3.940  13.058  0.9306  0.3010 -0.6634
  312TMC3    C6 4746   1.957   3.892  13.129  0.4692 -0.3302  0.8069
  312TMC3     C 4747   2.120   3.663  12.813  0.5739  0.7540 -0.3868
  312TMC3     O 4748   2.066   3.551  12.793 -0.2242  0.0597 -0.2454
  312TMC3     H 4749   1.960   3.579  13.002 -2.7835  0.3784  0.9305
  312TMC3    H1 4750   2.185   3.925  12.882 -0.3827 -2.2138 -1.7101
  312TMC3    H2 4751   1.896   3.958  13.190 -2.0180 -0.1200 -1.9171
  312TMC3    C7 4752   2.114   4.072  13.089 -1.0626 -0.7330 -0.7816
  312TMC3    C8 4753   1.782   3.721  13.109 -0.9008  0.0448  0.4885
  312TMC3    O1 4754   2.197   4.117  13.012  0.6351 -0.2175  0.1610
  312TMC3    O2 4755   1.763   3.601  13.118 -0.2412 -0.5572  0.5634
  313MPD2     C 4756   1.309   3.695  11.501  0.0862 -0.8859  0.0886
  313MPD2    C1 4757   1.242   3.731  11.381  0.1332 -0.2756  0.3682
  313MPD2    C2 4758   1.266   3.643  11.273 -0.3675  0.4045  0.2729
  313MPD2    C3 4759   1.347   3.528  11.283  0.4168 -0.6949  0.5913
  313MPD2    C4 4760   1.410   3.500  11.405 -0.0321  0.0924  0.1321
  313MPD2    C5 4761   1.388   3.587  11.511  0.1599  0.0171  0.0312
  313MPD2     H 4762   1.217   3.669  11.180  1.0415 -1.4590 -0.9749
  313MPD2    H1 4763   1.477   3.417  11.423  2.5702  1.9183 -0.9705
  313MPD2    H2 4764   1.320   3.762  11.585  1.8910  0.4828 -1.2367
  313MPD2    H3 4765   1.440   3.562  11.603  0.3822 -0.6450 -0.2697
  313MPD2     N 4766   1.370   3.443  11.165 -0.5182  0.0380  0.5990
  313MPD2    H5 4767   1.315   3.467  11.083 -1.3426 -1.9598  0.5630
  313MPD2    N1 4768   1.165   3.849  11.359 -0.4932  0.4044 -0.5282
  313MPD2    H7 4769   1.123   3.863  11.267 -0.6290  2.6929 -0.1155
  314TMC3    C1 4770   1.061   4.061  11.391 -0.3298 -0.4845 -0.1401
  314TMC3    C2 4771   1.114   4.188  11.392 -0.0834  0.9170 -0.3522
  314TMC3    C3 4772   1.080   4.275  11.294 -0.2399 -0.2184  0.2098
  314TMC3    C4 4773   0.968   4.019  11.301  0.4859 -0.3483  0.3589
  314TMC3    C5 4774   0.944   4.108  11.192 -0.6398  0.0178 -0.4364
  314TMC3    C6 4775   0.998   4.236  11.193 -0.7348 -0.3024  0.0404
  314TMC3     C 4776   1.147   3.951  11.451 -0.5249 -0.1699 -0.6183
  314TMC3     O 4777   1.203   3.975  11.557  0.0280  0.0698  0.4172
  314TMC3     H 4778   1.198   4.216  11.455 -0.3030 -2.3538  1.4152
  314TMC3    H1 4779   0.912   3.926  11.301  0.2805 -0.2201 -0.7785
  314TMC3    H2 4780   0.973   4.299  11.109 -0.0538  0.7175  0.5976
  314TMC3    C7 4781   0.822   4.076  11.127  0.4106 -0.2386 -0.3395
  314TMC3    C8 4782   1.190   4.346  11.248 -0.2822  0.6243 -0.2578
  314TMC3    O1 4783   0.739   4.007  11.189  0.0533  0.6771 -0.2392
  314TMC3    O2 4784   1.305   4.299  11.268 -0.0832  0.2769  0.1206
  315MPD2     C 4785   1.276   1.827  17.536 -0.6888  0.1260  0.4195
  315MPD2    C1 4786   1.312   1.878  17.657 -0.1428  0.3923 -0.1094
  315MPD2    C2 4787   1.355   2.013  17.660  0.2353 -0.0694  0.1801
  315MPD2    C3 4788   1.386   2.080  17.547 -0.4269  0.1194  0.5623
  315MPD2    C4 4789   1.364   2.022  17.428 -0.0014  0.1745 -0.0267
  315MPD2    C5 4790   1.305   1.902  17.427  0.8630 -1.1083  0.4103
  315MPD2     H 4791   1.351   2.062  17.756 -0.2968 -0.9816  0.6297
  315MPD2    H1 4792   1.394   2.073  17.337  1.8517 -0.2384  0.3545
  315MPD2    H2 4793   1.248   1.723  17.522  0.9769 -0.3099  0.3451
  315MPD2    H3 4794   1.298   1.862  17.326 -0.0579 -0.1588  0.0952
  315MPD2     N 4795   1.454   2.202  17.565  0.1028  0.4100  0.7147
  315MPD2    H5 4796   1.483   2.223  17.660 -2.0114 -1.3934  1.7420
  315MPD2    N1 4797   1.312   1.810   0.014  0.4297  0.3750 -0.1668
  315MPD2    H7 4798   1.322   1.857   0.103  0.1140  2.2084 -1.1149
  316TMC3    C1 4799   1.563   2.400  17.540  0.0681  0.2364 -0.6432
  316TMC3    C2 4800   1.659   2.367  17.635  0.5000  0.6192 -0.5593
  316TMC3    C3 4801   1.741   2.468  17.682 -0.7366  0.6411 -0.1021
  316TMC3    C4 4802   1.551   2.526  17.495 -0.2937 -0.5469  0.0039
  316TMC3    C5 4803   1.631   2.626  17.539 -0.2107 -0.0151 -0.0784
  316TMC3    C6 4804   1.714   2.602  17.643  0.1748  0.5341  0.5085
  316TMC3     C 4805   1.486   2.293  17.475  0.1919  0.7540 -0.4699
  316TMC3     O 4806   1.427   2.316  17.368 -0.4859 -0.2493  0.1384
  316TMC3     H 4807   1.667   2.262  17.660  3.2355  1.1374  0.7284
  316TMC3    H1 4808   1.480   2.546  17.416  1.6295 -0.1822 -1.6514
  316TMC3    H2 4809   1.785   2.680  17.668 -0.2988  0.9544  0.5504
  316TMC3    C7 4810   1.596   2.763  17.506 -0.0086 -0.5696 -0.3188
  316TMC3    C8 4811   1.786   2.476   0.060 -0.0850  0.4932 -0.4827
  316TMC3    O1 4812   1.620   2.835  17.602 -0.5856 -0.5321 -0.7988
  316TMC3    O2 4813   1.785   2.587   0.109  0.0717 -0.0901 -0.0145
  317MPD2     C 4814   3.208   1.049  13.191 -0.4381 -0.4318  0.4343
  317MPD2    C1 4815   3.298   0.980  13.112  0.0991 -0.2619 -0.1920
  317MPD2    C2 4816   3.400   0.916  13.171  0.3563  0.2554 -0.3403
  317MPD2    C3 4817   3.422   0.934  13.303 -0.3597 -0.3016 -1.0480
  317MPD2    C4 4818   3.362   1.031  13.375  0.2837  0.3338  0.1371
  317MPD2    C5 4819   3.244   1.083  13.318 -0.0824  0.2934 -0.5724
  317MPD2     H 4820   3.462   0.845  13.117  0.2843  0.0298 -0.1237
  317MPD2    H1 4821   3.402   1.056  13.472  0.2138 -0.7651  0.4436
  317MPD2    H2 4822   3.131   1.114  13.152  0.1886 -0.8575 -1.4909
  317MPD2    H3 4823   3.170   1.138  13.376  0.2762  0.0943  0.0761
  317MPD2     N 4824   3.533   0.853  13.351  0.3166  0.3020  0.4427
  317MPD2    H5 4825   3.569   0.776  13.294 -1.3671 -0.1521  0.0033
  317MPD2    N1 4826   3.285   0.957  12.972 -0.2331  0.6733 -0.0634
  317MPD2    H7 4827   3.359   0.907  12.925 -1.8763  0.8122 -2.7714
  318TMC3    C1 4828   3.625   0.722  13.518  0.1225 -0.2190 -0.1455
  318TMC3    C2 4829   3.577   0.613  13.448  1.1020  0.1723 -0.4674
  318TMC3    C3 4830   3.623   0.489  13.477  0.0660 -0.0794 -1.2510
  318TMC3    C4 4831   3.736   0.713  13.593 -0.1084 -0.5718  0.4072
  318TMC3    C5 4832   3.797   0.596  13.598  0.5394 -0.1969  0.7201
  318TMC3    C6 4833   3.737   0.481  13.552 -0.4466 -0.2902  0.6826
  318TMC3     C 4834   3.570   0.852  13.485  0.1447  0.6578  0.0207
  318TMC3     O 4835   3.553   0.931  13.575 -0.3751  0.4798 -0.1177
  318TMC3     H 4836   3.488   0.621  13.387  1.5891 -1.1898 -1.3497
  318TMC3    H1 4837   3.762   0.796  13.658  2.1791 -1.4206  0.5430
  318TMC3    H2 4838   3.787   0.386  13.568  0.2827 -0.2089 -1.1572
  318TMC3    C7 4839   3.924   0.587  13.675 -0.5436 -0.1421  0.5478
  318TMC3    C8 4840   3.581   0.366  13.416  0.0176  0.6868  0.0314
  318TMC3    O1 4841   3.935   0.659  13.772  0.0387  0.4095 -0.1110
  318TMC3    O2 4842   3.653   0.270  13.431  0.0571  0.3931  0.3500
  319MPD2     C 4843   4.329   2.082  16.044  0.6277  0.2607 -0.1930
  319MPD2    C1 4844   4.290   2.145  16.160 -0.3384 -0.3133 -0.6473
  319MPD2    C2 4845   4.161   2.196  16.172  0.0276 -0.0651  1.1293
  319MPD2    C3 4846   4.068   2.174  16.068  0.3679 -0.0547  0.0946
  319MPD2    C4 4847   4.117   2.112  15.951 -0.1840 -0.1562 -0.0319
  319MPD2    C5 4848   4.241   2.063  15.938  0.1200 -0.6085 -0.3240
  319MPD2     H 4849   4.134   2.244  16.265 -0.2135  1.9074  0.0452
  319MPD2    H1 4850   4.055   2.098  15.863 -2.2359 -0.3044  1.4146
  319MPD2    H2 4851   4.426   2.033  16.045 -0.1804 -1.3023  3.1110
  319MPD2    H3 4852   4.271   2.025  15.841 -1.9078 -0.6873 -0.9220
  319MPD2     N 4853   3.938   2.237  16.058  0.1174 -0.4103  0.0650
  319MPD2    H5 4854   3.886   2.225  15.971  0.9422  3.2879 -0.9274
  319MPD2    N1 4855   4.380   2.161  16.273  0.0130 -0.2981  0.1049
  319MPD2    H7 4856   4.338   2.195  16.359 -1.3996  1.1055 -1.1366
  320TMC3    C1 4857   3.756   2.372  16.120 -0.4378 -0.0758  0.5400
  320TMC3    C2 4858   3.724   2.387  15.993 -0.7334 -0.2666 -0.5841
  320TMC3    C3 4859   3.606   2.441  15.962 -0.8088  0.1790 -0.2615
  320TMC3    C4 4860   3.656   2.381  16.215  0.7334 -0.6025  0.1355
  320TMC3    C5 4861   3.528   2.419  16.181  0.8571 -0.6207 -0.3249
  320TMC3    C6 4862   3.504   2.459  16.052  1.0332  0.4601  0.2197
  320TMC3     C 4863   3.875   2.302  16.161  0.1580 -0.0427  0.4733
  320TMC3     O 4864   3.907   2.298  16.277 -0.2496  0.0585  0.1217
  320TMC3     H 4865   3.797   2.377  15.915  0.8990  0.2496  0.8701
  320TMC3    H1 4866   3.680   2.342  16.313 -0.2302  0.9647  0.9857
  320TMC3    H2 4867   3.399   2.475  16.028  0.7870  0.0513  1.0059
  320TMC3    C7 4868   3.429   2.321  16.228 -0.2856  0.6764 -0.7199
  320TMC3    C8 4869   3.565   2.450  15.822  0.7564  0.3190 -0.3796
  320TMC3    O1 4870   3.361   2.259  16.148 -0.1644 -0.2738  0.0632
  320TMC3    O2 4871   3.624   2.363  15.753 -0.3893  0.3129  0.3618
  321TMC3    C1 4872   4.575   2.156  16.397  0.1035  0.7236  0.0454
  321TMC3    C2 4873   4.500   2.139  16.513  0.1907 -0.2700 -0.9487
  321TMC3    C3 4874   4.568   2.167  16.632 -0.0424  0.1501  0.5426
  321TMC3    C4 4875   4.712   2.189  16.396 -0.2604 -0.9524 -0.2655
  321TMC3    C5 4876   0.029   2.215  16.516  0.8608  0.0712  0.7990
  321TMC3    C6 4877   4.698   2.216  16.638 -0.1338  0.2133 -0.1004
  321TMC3     C 4878   4.513   2.144  16.268 -0.3596 -0.3466 -0.2698
  321TMC3     O 4879   4.594   2.128  16.175  0.2944  0.2647  0.0094
  321TMC3     H 4880   4.400   2.099  16.515 -0.6297  1.8402  0.5807
  321TMC3    H1 4881   0.023   2.197  16.301 -0.8265  1.3907 -0.3897
  321TMC3    H2 4882   0.006   2.251  16.729 -0.0073  0.0000 -0.0872
  321TMC3    C7 4883   0.161   2.156  16.525  0.1884 -0.6729 -0.8590
  321TMC3    C8 4884   4.562   2.071  16.741 -0.1055  0.0732 -0.1950
  321TMC3    O1 4885   0.232   2.151  16.424  0.1443 -0.3536  0.1468
  321TMC3    O2 4886   4.670   2.051  16.792 -0.3969  0.3374 -0.2023
  322MPD2     C 4887   3.012   3.808  13.616  0.6754 -0.4381 -0.2042
  322MPD2    C1 4888   3.062   3.730  13.718 -0.1419 -0.6774 -0.2850
  322MPD2    C2 4889   3.128   3.610  13.694  0.5860 -0.1920 -0.1482
  322MPD2    C3 4890   3.151   3.566  13.569  0.2583  0.3792  0.0899
  322MPD2    C4 4891   3.089   3.640  13.464 -0.1208 -0.4481  0.2936
  322MPD2    C5 4892   3.027   3.759  13.492 -0.1133  0.0972  0.6433
  322MPD2     H 4893   3.178   3.560  13.776 -0.5214 -1.4694 -0.2536
  322MPD2    H1 4894   3.087   3.618  13.358 -0.4663  1.2026 -0.0446
  322MPD2    H2 4895   2.968   3.906  13.630  0.2265 -0.9125  1.6974
  322MPD2    H3 4896   2.995   3.824  13.411  2.5837 -0.3497 -0.7821
  322MPD2     N 4897   3.210   3.444  13.548  0.5402  0.1959 -0.4363
  322MPD2    H5 4898   3.247   3.400  13.632 -0.7540 -1.8701 -0.9339
  322MPD2    N1 4899   3.046   3.778  13.847 -0.8930 -0.5212 -0.2076
  322MPD2    H7 4900   2.972   3.847  13.848 -0.8430 -0.4456 -3.6233
  323TMC3    C1 4901   3.232   3.681  13.979  0.1418 -0.8229 -0.2966
  323TMC3    C2 4902   3.333   3.718  13.893 -0.0109 -0.7741 -0.2804
  323TMC3    C3 4903   3.461   3.686  13.920  0.0608  0.4637 -0.2810
  323TMC3    C4 4904   3.260   3.619  14.094  0.2107 -0.8130 -0.0666
  323TMC3    C5 4905   3.392   3.589  14.118 -0.6779 -0.5530  0.3497
  323TMC3    C6 4906   3.497   3.616  14.033  0.0330 -0.0106 -0.0950
  323TMC3     C 4907   3.101   3.746  13.969 -0.6006 -0.3624 -0.0117
  323TMC3     O 4908   3.061   3.785  14.076  0.1909  0.2085  0.0648
  323TMC3     H 4909   3.301   3.783  13.812  2.8279 -0.2561 -0.9928
  323TMC3    H1 4910   3.183   3.563  14.146  1.5579 -0.6644  2.0816
  323TMC3    H2 4911   3.597   3.578  14.045  0.3869  0.2929 -2.0955
  323TMC3    C7 4912   3.425   3.486  14.221 -0.1004  0.4127 -0.6603
  323TMC3    C8 4913   3.559   3.722  13.822  0.1527 -1.0188 -0.6658
  323TMC3    O1 4914   3.337   3.399  14.249 -0.3174  0.6085 -0.5571
  323TMC3    O2 4915   3.674   3.724  13.863  0.0907  0.2326 -0.0574
  324MPD2     C 4916   0.396   4.272  13.776  0.1278  0.8385 -0.0068
  324MPD2    C1 4917   0.362   4.330  13.906  0.2422 -0.2261 -0.3591
  324MPD2    C2 4918   0.229   4.348  13.934 -0.7915 -0.1346 -0.7498
  324MPD2    C3 4919   0.130   4.308  13.844 -0.0064  0.2657  0.1719
  324MPD2    C4 4920   0.170   4.245  13.722 -0.1063  0.0276  0.2908
  324MPD2    C5 4921   0.302   4.226  13.691 -0.3058  0.1274  0.0548
  324MPD2     H 4922   0.220   4.389  14.034  2.7079 -0.3133 -0.3502
  324MPD2    H1 4923   0.096   4.199  13.657 -0.8078 -0.9880  1.8138
  324MPD2    H2 4924   0.496   4.251  13.740 -1.1143 -3.7711 -0.8785
  324MPD2    H3 4925   0.332   4.168  13.605 -0.9473  0.9224 -0.7192
  324MPD2     N 4926   4.732   4.325  13.859  0.2540  0.1111 -0.0217
  324MPD2    H5 4927   4.672   4.269  13.800 -0.8858 -0.6349  1.8198
  324MPD2    N1 4928   0.468   4.383  13.987  0.4652  0.6943 -0.0399
  324MPD2    H7 4929   0.432   4.421  14.074 -0.2282  0.7189 -0.3365
  325TMC3    C1 4930   4.527   4.394  13.959 -0.1957  0.1661 -1.0884
  325TMC3    C2 4931   4.460   4.340  13.853 -0.5800  0.7511 -0.0312
  325TMC3    C3 4932   4.325   4.331  13.862 -0.7222  0.1107  0.5328
  325TMC3    C4 4933   4.464   4.445  14.068  0.0957  0.3343  0.1242
  325TMC3    C5 4934   4.323   4.430  14.073 -0.4839 -0.4611  0.7960
  325TMC3    C6 4935   4.252   4.372  13.974 -0.2411 -0.6294 -0.9813
  325TMC3     C 4936   4.673   4.418  13.942  0.3161  0.2924  0.3250
  325TMC3     O 4937   4.730   4.483  14.031 -0.2812 -0.2864 -0.4322
  325TMC3     H 4938   4.512   4.313  13.762 -2.0072  2.6344 -1.4128
  325TMC3    H1 4939   4.511   4.486  14.157  0.7681 -1.9454  0.8119
  325TMC3    H2 4940   4.145   4.368  13.992  0.0788 -0.6349  0.8548
  325TMC3    C7 4941   4.250   4.498  14.180 -0.0262 -0.5433 -0.0243
  325TMC3    C8 4942   4.252   4.273  13.747 -0.8033  1.0549 -0.5333
  325TMC3    O1 4943   4.311   4.595  14.225  0.0071 -0.1568 -1.4165
  325TMC3    O2 4944   4.317   4.254  13.641  0.4672  0.1538  0.8139
  326MPD2     C 4945   1.688   1.125  11.202  0.1274  0.4813 -1.1599
  326MPD2    C1 4946   1.639   1.157  11.079  0.1906  0.6383 -0.4728
  326MPD2    C2 4947   1.716   1.214  10.986 -0.4294  0.8150  0.7619
  326MPD2    C3 4948   1.848   1.233  11.009 -0.2831 -0.3691 -0.3184
  326MPD2    C4 4949   1.897   1.207  11.135 -1.1887 -0.1583 -0.4216
  326MPD2    C5 4950   1.822   1.142  11.231 -0.2025 -0.5367  0.3238
  326MPD2     H 4951   1.667   1.243  10.893 -0.6070  0.3893  0.7215
  326MPD2    H1 4952   2.003   1.226  11.150 -1.1558 -0.3619 -0.3978
  326MPD2    H2 4953   1.631   1.076  11.280  0.0865 -2.4317 -3.0386
  326MPD2    H3 4954   1.875   1.103  11.317 -1.0917  0.2963  1.2533
  326MPD2     N 4955   1.931   1.298  10.922 -0.2679 -0.9585 -0.3560
  326MPD2    H5 4956   2.013   1.339  10.965 -1.6297  1.0344  0.3981
  326MPD2    N1 4957   1.503   1.133  11.037 -0.1712  0.0390  0.1085
  326MPD2    H7 4958   1.473   1.170  10.947  1.0528  0.9513  0.0811
  327TMC3    C1 4959   1.274   1.054  11.058  0.1912  0.0159  0.5595
  327TMC3    C2 4960   1.251   1.124  10.942 -0.0805 -0.0319  0.5778
  327TMC3    C3 4961   1.148   1.083  10.865  1.2087  0.0861  0.4821
  327TMC3    C4 4962   1.200   0.944  11.090 -0.5588 -0.0304 -0.0443
  327TMC3    C5 4963   1.106   0.896  11.002 -0.3306  0.5495 -0.1996
  327TMC3    C6 4964   1.072   0.968  10.891  0.2078  0.0833 -0.2059
  327TMC3     C 4965   1.414   1.053  11.105 -0.5167  0.8395 -0.0110
  327TMC3     O 4966   1.428   0.994  11.209  1.1872 -0.3770  0.4374
  327TMC3     H 4967   1.306   1.213  10.916 -0.4224  0.0779  0.2252
  327TMC3    H1 4968   1.223   0.892  11.183 -2.7203  0.1141  0.5728
  327TMC3    H2 4969   0.994   0.932  10.824  1.2046 -1.2000 -0.6704
  327TMC3    C7 4970   1.114   0.753  10.977 -0.3625 -1.0225  0.9186
  327TMC3    C8 4971   1.101   1.173  10.768 -0.3429 -0.4931 -0.4287
  327TMC3    O1 4972   1.092   0.725  10.861 -0.5176 -0.0511 -0.1626
  327TMC3    O2 4973   1.180   1.258  10.724 -0.1380 -0.1107 -0.2604
  328MPD2     C 4974   3.641   0.822  17.320 -0.1637 -0.2075  0.3599
  328MPD2    C1 4975   3.631   0.811  17.184 -0.5486 -0.4003  0.8273
  328MPD2    C2 4976   3.608   0.921  17.105 -0.1687 -0.3128 -0.1172
  328MPD2    C3 4977   3.610   1.045  17.163  0.1777  0.1749  0.4376
  328MPD2    C4 4978   3.617   1.055  17.296  0.0274  0.1126 -0.0271
  328MPD2    C5 4979   3.634   0.948  17.375  0.1382  0.4464 -0.0775
  328MPD2     H 4980   3.571   0.911  17.004  0.3906 -2.6902 -0.0901
  328MPD2    H1 4981   3.637   1.153  17.340  0.8508 -0.0916  0.0660
  328MPD2    H2 4982   3.654   0.743  17.394  0.9951  0.0457  0.4260
  328MPD2    H3 4983   3.630   0.971  17.481  0.3512  1.7407 -0.3591
  328MPD2     N 4984   3.574   1.169  17.100  0.3980 -0.3283 -0.2039
  328MPD2    H5 4985   3.551   1.250  17.157  1.2014 -0.1571 -0.1198
  328MPD2    N1 4986   3.621   0.686  17.130  0.5050  0.2882 -0.3500
  328MPD2    H7 4987   3.608   0.608  17.194 -0.7692 -1.1529 -2.3434
  329TMC3    C1 4988   3.591   0.501  16.984  0.2617  0.0044  0.1871
  329TMC3    C2 4989   3.542   0.432  17.092 -0.3326 -0.1080  0.3860
  329TMC3    C3 4990   3.538   0.300  17.081  0.8523  0.4975 -0.2749
  329TMC3    C4 4991   3.630   0.436  16.865  0.4164  0.4222  0.3747
  329TMC3    C5 4992   3.610   0.300  16.857  0.3529 -0.0361 -0.8301
  329TMC3    C6 4993   3.572   0.230  16.967 -0.5836  0.3014 -0.2990
  329TMC3     C 4994   3.626   0.642  16.999  0.1466 -0.0164  1.0697
  329TMC3     O 4995   3.653   0.706  16.898  0.0798 -0.3044  0.1385
  329TMC3     H 4996   3.502   0.483  17.178 -1.0890 -0.0216 -0.0198
  329TMC3    H1 4997   3.679   0.491  16.785  0.2587 -1.0468 -0.7316
  329TMC3    H2 4998   3.549   0.126  16.948  2.2258 -1.0140  3.6145
  329TMC3    C7 4999   3.651   0.227  16.743  0.2051  0.1107  0.0243
  329TMC3    C8 5000   3.479   0.228  17.190  0.0977  0.2290 -0.6663
  329TMC3    O1 5001   3.676   0.106  16.761  0.4798 -0.2725  0.3362
  329TMC3    O2 5002   3.483   0.107  17.178 -0.1210  0.4389  0.7856
  330TMC3    C1 5003   1.435   4.482   9.198  0.7202 -0.2527 -0.3562
  330TMC3    C2 5004   1.338   4.389   9.221 -0.8013 -0.3635 -0.0736
  330TMC3    C3 5005   1.350   4.268   9.154  0.2936 -0.6119 -0.3330
  330TMC3    C4 5006   1.547   4.449   9.122  0.2067  0.1878  0.3123
  330TMC3    C5 5007   1.551   4.328   9.057 -0.0590 -0.4101  0.0820
  330TMC3    C6 5008   1.458   4.223   9.079 -0.9632 -0.0509  0.1852
  330TMC3     C 5009   1.453   4.601   9.278  0.6684 -0.4140  0.1161
  330TMC3     O 5010   1.557   4.661   9.278  0.0758 -0.3008 -0.2054
  330TMC3     H 5011   1.244   4.413   9.270  0.8190  2.0084  1.8611
  330TMC3    H1 5012   1.614   4.529   9.093  1.6411 -1.5844 -1.2207
  330TMC3    H2 5013   1.473   4.118   9.054 -2.5034 -0.5111  1.1836
  330TMC3    C7 5014   1.678   4.309   8.977  0.6354 -0.0896 -0.3141
  330TMC3    C8 5015   1.234   4.196   9.139 -0.0836 -0.4792 -0.0707
  330TMC3    O1 5016   1.765   4.392   8.990 -0.4602  0.4869 -0.1876
  330TMC3    O2 5017   1.227   4.118   9.046  0.1823  0.1459 -0.3059
  331MPD2     C 5018   4.154   3.349  12.800  0.7652 -0.6740 -0.6117
  331MPD2    C1 5019   4.270   3.423  12.784  0.4067 -0.6818  0.3342
  331MPD2    C2 5020   4.390   3.350  12.781  0.1467 -0.0804  0.0578
  331MPD2    C3 5021   4.388   3.214  12.782  0.0340  0.4273 -0.7768
  331MPD2    C4 5022   4.270   3.144  12.808  0.5402 -0.3192  0.1481
  331MPD2    C5 5023   4.152   3.217  12.824  0.2863 -0.0632  0.0320
  331MPD2     H 5024   4.479   3.406  12.755  0.0739  0.1635  0.3374
  331MPD2    H1 5025   4.265   3.036  12.808 -1.5755 -0.1958  3.1434
  331MPD2    H2 5026   4.056   3.396  12.798  2.5648  3.2515  2.7766
  331MPD2    H3 5027   4.063   3.155  12.814  0.3012 -0.0154 -0.4210
  331MPD2     N 5028   4.510   3.147  12.740  0.5337 -0.4177  0.5342
  331MPD2    H5 5029   4.591   3.201  12.713 -1.1051  0.8926 -1.7334
  331MPD2    N1 5030   4.266   3.563  12.762  0.1202 -0.2790  0.1320
  331MPD2    H7 5031   4.170   3.595  12.767  0.4048  0.5967 -0.1336
  332TMC3    C1 5032   4.670   2.983  12.711 -0.0322 -0.2345  0.4217
  332TMC3    C2 5033   4.706   3.036  12.595  0.1613 -0.3673  1.1226
  332TMC3    C3 5034   0.098   3.031  12.560 -0.4209  0.6590 -0.5964
  332TMC3    C4 5035   0.022   2.940  12.805  0.7436  0.1877  0.3755
  332TMC3    C5 5036   0.152   2.943  12.763  0.1673 -0.4940  0.4803
  332TMC3    C6 5037   0.194   2.980  12.643  1.0949 -0.3492 -0.9774
  332TMC3     C 5038   4.532   3.015  12.758 -0.7857  0.2655 -0.2938
  332TMC3     O 5039   4.474   2.926  12.819 -0.6363  0.1438  0.4135
  332TMC3     H 5040   4.635   3.068  12.519  1.6529 -0.1731 -0.1911
  332TMC3    H1 5041   4.723   2.918  12.903 -0.7146 -1.4371 -0.5625
  332TMC3    H2 5042   0.294   2.963  12.603  1.8465 -0.0401  0.7513
  332TMC3    C7 5043   0.256   2.908  12.856  1.1549  0.1324  0.1983
  332TMC3    C8 5044   0.146   3.112  12.441  0.6141 -0.5485  1.0105
  332TMC3    O1 5045   0.215   2.848  12.957  0.5009 -0.5388 -0.4231
  332TMC3    O2 5046   0.262   3.148  12.449 -0.0430 -0.2819  0.0517
  333MPD2     C 5047   4.697   4.440  11.420  0.2533 -0.4581  0.5083
  333MPD2    C1 5048   4.706   4.378  11.300  0.2746  0.4347  0.5862
  333MPD2    C2 5049   4.707   4.239  11.292  0.1872  0.2811 -0.2156
  333MPD2    C3 5050   4.724   4.169  11.410  0.7048 -0.0149  0.3102
  333MPD2    C4 5051   4.708   4.228  11.532 -0.0486  0.2189 -0.2379
  333MPD2    C5 5052   4.692   4.366  11.535 -0.2086  0.0855  0.0196
  333MPD2     H 5053   4.713   4.183  11.199 -0.5647  0.9458 -0.6570
  333MPD2    H1 5054   4.712   4.167  11.621  0.0874  1.9117  0.9277
  333MPD2    H2 5055   4.711   4.547  11.426 -0.3741 -0.4484  1.6056
  333MPD2    H3 5056   4.694   4.424  11.627 -1.7244  1.3911 -0.7500
  333MPD2     N 5057   0.001   4.029  11.406 -0.0048 -0.5929 -0.3511
  333MPD2    H5 5058   4.734   3.998  11.309 -1.1019  0.1427 -0.5026
  333MPD2    N1 5059   4.714   4.460  11.185 -0.2524 -0.3725  0.8645
  333MPD2    H7 5060   4.701   4.558  11.207  0.1513 -0.4699  1.5349
  334TMC3    C1 5061   0.024   4.520  10.953 -0.3480 -0.4246 -0.3912
  334TMC3    C2 5062   0.066   4.472  10.835  0.9896  0.2241 -0.2977
  334TMC3    C3 5063   0.102   4.563  10.746  0.6196  0.1420 -0.2815
  334TMC3    C4 5064   4.736   4.656  10.970  0.7197 -0.3533 -0.0045
  334TMC3    C5 5065   0.039   0.005  10.873 -1.1722  0.5325 -0.2813
  334TMC3    C6 5066   0.098   4.701  10.760  0.5965 -0.0756  0.3363
  334TMC3     C 5067   0.002   4.418  11.054  0.3232  0.4058 -0.4922
  334TMC3     O 5068   0.028   4.304  11.018  0.3525 -0.1598  0.1936
  334TMC3     H 5069   0.091   4.367  10.821  1.9397  0.6003 -1.4071
  334TMC3    H1 5070   4.688   4.685  11.062  0.7603  0.4342 -0.2383
  334TMC3    H2 5071   0.147   0.033  10.695 -3.9444  1.6901 -1.1532
  334TMC3    C7 5072   0.055   0.148  10.905 -0.0981  0.3172  0.1571
  334TMC3    C8 5073   0.182   4.500  10.639  0.1718 -0.1359 -0.5635
  334TMC3    O1 5074   0.070   0.176  11.025  0.0850 -0.2020  0.4973
  334TMC3    O2 5075   0.140   4.397  10.594  0.1192  0.1612  0.1618
  335TMC3    C1 5076   4.020   0.778  17.456  0.3851  0.1699 -0.3707
  335TMC3    C2 5077   3.973   0.712  17.340  0.8409  1.1255 -0.4188
  335TMC3    C3 5078   4.061   0.718  17.231  0.2611  0.2735  0.4487
  335TMC3    C4 5079   4.145   0.834  17.468 -0.3959  0.2716 -0.7286
  335TMC3    C5 5080   4.218   0.835  17.350 -0.5228  0.3470 -0.2637
  335TMC3    C6 5081   4.174   0.786  17.233 -0.0677 -0.2453 -0.1329
  335TMC3     C 5082   3.925   0.799  17.569  0.0231  0.2661  0.2933
  335TMC3     O 5083   3.838   0.713  17.574 -0.5903  0.0962  0.0985
  335TMC3     H 5084   3.872   0.673  17.330  2.2248 -2.5934  0.2482
  335TMC3    H1 5085   4.169   0.896  17.554 -2.0152  4.3885 -3.2356
  335TMC3    H2 5086   4.243   0.785  17.149 -0.8814  2.2847 -0.8396
  335TMC3    C7 5087   4.364   0.860  17.360 -0.1883  0.9895  0.0744
  335TMC3    C8 5088   4.033   0.645  17.107 -0.5460  0.5162 -0.0183
  335TMC3    O1 5089   4.432   0.870  17.260  0.1987 -0.3028  0.8871
  335TMC3    O2 5090   4.109   0.660  17.011  0.2372 -0.3254  0.3625
  336MPD2     C 5091   4.015   3.429  15.993  0.8046  0.1007  0.1485
  336MPD2    C1 5092   3.922   3.345  15.939 -0.1897  0.4336 -0.5863
  336MPD2    C2 5093   3.906   3.218  15.976  0.0898  0.0108  0.0962
  336MPD2    C3 5094   3.996   3.166  16.065  0.0664  0.1877 -0.1659
  336MPD2    C4 5095   4.091   3.250  16.127  0.1971 -0.0575  0.1555
  336MPD2    C5 5096   4.085   3.384  16.100  0.1457 -0.2877  0.3644
  336MPD2     H 5097   3.838   3.151  15.925  0.3734 -0.1937 -0.0126
  336MPD2    H1 5098   4.154   3.213  16.207  0.2725  1.9461  1.0402
  336MPD2    H2 5099   4.026   3.530  15.956  1.7701 -0.3650 -0.8276
  336MPD2    H3 5100   4.151   3.447  16.159  0.3552  1.0613 -1.3197
  336MPD2     N 5101   3.993   3.027  16.101  1.0358  0.5337  0.6983
  336MPD2    H5 5102   4.071   2.994  16.158  0.7799  1.0660  1.3563
  336MPD2    N1 5103   3.843   3.395  15.832 -0.1275 -0.0876 -0.0460
  336MPD2    H7 5104   3.806   3.333  15.761 -1.3060 -0.2659  0.7259
  337TMC3    C1 5105   3.757   3.554  15.691 -0.0499  0.5282 -0.1218
  337TMC3    C2 5106   3.636   3.608  15.671  0.0458 -0.1111 -0.5390
  337TMC3    C3 5107   3.586   3.599  15.548  0.1197  0.0104  0.2495
  337TMC3    C4 5108   3.835   3.518  15.583  0.4631 -0.6309  1.2163
  337TMC3    C5 5109   3.786   3.533  15.456 -0.3404  0.5384 -0.0231
  337TMC3    C6 5110   3.657   3.567  15.437  0.0372  0.3429 -0.2560
  337TMC3     C 5111   3.804   3.530  15.822  0.3466  0.1216 -1.0201
  337TMC3     O 5112   3.802   3.623  15.899  0.2199 -0.3089  0.1597
  337TMC3     H 5113   3.560   3.627  15.746  0.0065 -1.7906 -0.1482
  337TMC3    H1 5114   3.923   3.459  15.606  0.1125 -1.7591 -0.2907
  337TMC3    H2 5115   3.631   3.606  15.339  2.7245  1.7540 -0.4263
  337TMC3    C7 5116   3.878   3.496  15.350 -0.0331  0.5293  1.2579
  337TMC3    C8 5117   3.439   3.604  15.538  0.7604 -0.5343  0.4502
  337TMC3    O1 5118   3.991   3.485  15.386  0.3375  0.0487 -0.0327
  337TMC3    O2 5119   3.381   3.682  15.617  0.5367  0.3527 -0.0829
  338MPD2     C 5120   3.948   3.019   0.922 -0.2194 -0.2296 -0.8910
  338MPD2    C1 5121   3.926   3.015   0.787  0.3901  0.3876 -0.3628
  338MPD2    C2 5122   3.798   3.019   0.729  0.3594 -0.4957  0.0076
  338MPD2    C3 5123   3.685   3.031   0.808  0.0638 -0.0306  0.4859
  338MPD2    C4 5124   3.709   3.034   0.943  0.7525  0.4195 -0.0321
  338MPD2    C5 5125   3.834   3.030   0.996 -0.7733 -0.0554 -0.2586
  338MPD2     H 5126   3.783   3.011   0.622 -0.6717 -2.2235  0.2814
  338MPD2    H1 5127   3.634   3.030   1.022 -1.4746  0.2071 -2.1663
  338MPD2    H2 5128   4.044   3.011   0.971 -0.0581  0.7589 -1.0388
  338MPD2    H3 5129   3.850   3.026   1.103 -0.8272 -2.1000 -0.3261
  338MPD2     N 5130   3.561   3.034   0.745  0.1383  0.2533  0.0557
  338MPD2    H5 5131   3.555   3.042   0.644 -2.2851  0.2777  0.2050
  338MPD2    N1 5132   4.031   2.999   0.699  0.7155 -0.3172 -0.1207
  338MPD2    H7 5133   4.006   2.996   0.600  0.8671  1.9862 -0.2299
  339TMC3    C1 5134   3.330   3.071   0.731  0.8482 -0.0339  0.2019
  339TMC3    C2 5135   3.231   2.972   0.731 -0.2842  0.5523  0.0931
  339TMC3    C3 5136   3.188   2.937   0.597  0.1057  0.3992  0.6218
  339TMC3    C4 5137   3.365   3.139   0.624 -0.5344 -0.0515 -0.0528
  339TMC3    C5 5138   3.314   3.107   0.500 -0.1317  0.3064 -0.0377
  339TMC3    C6 5139   3.231   3.003   0.485  0.0907 -0.4518  0.7054
  339TMC3     C 5140   3.440   3.032   0.813  0.3343  0.2353 -0.2047
  339TMC3     O 5141   3.418   2.995   0.929 -0.4570 -0.0520  0.0270
  339TMC3     H 5142   3.229   2.893   0.805 -0.3569  0.3449 -0.1332
  339TMC3    H1 5143   3.437   3.218   0.643 -1.7544  1.2003 -0.5781
  339TMC3    H2 5144   3.198   2.975   0.386 -0.8999  1.0849  0.5932
  339TMC3    C7 5145   3.376   3.171   0.385 -0.5198 -0.3128 -0.0013
  339TMC3    C8 5146   3.121   2.810   0.579  0.5550  0.0652  0.4510
  339TMC3    O1 5147   3.452   3.261   0.423 -0.2135 -0.1451  0.0541
  339TMC3    O2 5148   3.132   2.755   0.466  0.0662 -0.6989  0.0058
  340MPD2     C 5149   4.063   0.968   9.747  0.2286 -0.3534  0.3771
  340MPD2    C1 5150   4.039   0.834   9.756 -0.9611 -0.1106  0.5151
  340MPD2    C2 5151   4.073   0.769   9.874  0.4406 -0.2913 -0.0463
  340MPD2    C3 5152   4.144   0.830   9.971 -0.6219  0.6408 -0.2334
  340MPD2    C4 5153   4.180   0.958   9.958 -0.3608 -0.3904 -0.2634
  340MPD2    C5 5154   4.131   1.029   9.847 -0.0075  0.1781 -0.2259
  340MPD2     H 5155   4.072   0.661   9.867 -0.6425 -0.2554 -0.4172
  340MPD2    H1 5156   4.232   1.010  10.037  0.4865 -1.4566 -0.1286
  340MPD2    H2 5157   4.036   1.027   9.660 -1.7308 -0.6300  0.7918
  340MPD2    H3 5158   4.151   1.136   9.844  0.0658  0.2678  2.6826
  340MPD2     N 5159   4.182   0.770  10.090 -0.4817  0.4132 -0.1330
  340MPD2    H5 5160   4.254   0.821  10.141  0.1620  0.4203 -1.0421
  340MPD2    N1 5161   3.983   0.767   9.649  0.2138 -0.4780  0.0038
  340MPD2    H7 5162   3.940   0.831   9.582 -2.3448 -0.8249  1.2961
  341TMC3    C1 5163   3.881   0.607   9.506 -0.1862 -0.0581  0.6702
  341TMC3    C2 5164   3.799   0.502   9.509  0.1900  0.2330 -0.2457
  341TMC3    C3 5165   3.743   0.457   9.394  0.3409  0.0541  0.2931
  341TMC3    C4 5166   3.918   0.660   9.379  0.2638  0.5739 -0.9773
  341TMC3    C5 5167   3.869   0.603   9.265  0.0370 -0.1092 -0.8386
  341TMC3    C6 5168   3.776   0.508   9.276 -0.0050 -0.0808 -0.5638
  341TMC3     C 5169   3.950   0.633   9.635  0.0804 -0.1196  0.4784
  341TMC3     O 5170   3.984   0.539   9.702  0.0284  0.7010  0.3050
  341TMC3     H 5171   3.763   0.458   9.601 -1.0281  0.9948 -0.3544
  341TMC3    H1 5172   3.994   0.737   9.379  1.0077 -0.1627 -1.1834
  341TMC3    H2 5173   3.738   0.451   9.192  1.6808 -1.5227 -0.3519
  341TMC3    C7 5174   3.960   0.599   9.149 -0.4963 -0.0300 -1.0199
  341TMC3    C8 5175   3.665   0.340   9.410 -0.6595 -1.0226 -0.6647
  341TMC3    O1 5176   3.970   0.502   9.079 -0.5427 -0.3090 -0.4528
  341TMC3    O2 5177   3.700   0.260   9.497 -0.3796 -0.5249 -0.0700
  342MPD2     C 5178   1.650   3.635  17.492  0.3654 -0.7998 -0.7789
  342MPD2    C1 5179   1.786   3.637  17.456  0.4184  0.2496 -0.1403
  342MPD2    C2 5180   1.859   3.741  17.510  0.1872 -0.0754 -0.1039
  342MPD2    C3 5181   1.800   3.842  17.591 -0.0670  0.4829  0.3692
  342MPD2    C4 5182   1.662   3.844  17.615 -0.0397 -0.2046 -0.0278
  342MPD2    C5 5183   1.591   3.738  17.565  0.1323  0.2468 -1.3457
  342MPD2     H 5184   1.965   3.734  17.486 -0.9271 -0.6218 -4.7596
  342MPD2    H1 5185   1.613   3.910  17.686 -1.1304 -1.1512  0.0806
  342MPD2    H2 5186   1.580   3.561  17.457 -0.3833 -2.1828  3.7563
  342MPD2    H3 5187   1.486   3.728  17.590  0.3583  0.9772 -0.1180
  342MPD2     N 5188   1.887   3.941  17.645 -0.2098 -0.0633  0.5704
  342MPD2    H5 5189   1.844   4.016  17.700  1.7867  0.7270  1.0643
  342MPD2    N1 5190   1.858   3.543  17.380  0.2739  0.2314  0.4587
  342MPD2    H7 5191   1.959   3.551  17.366  0.2841  0.8859  0.9266
  343TMC3    C1 5192   1.908   3.326  17.289 -0.1576 -0.2022 -0.5229
  343TMC3    C2 5193   2.041   3.345  17.289  0.6685  0.6020 -0.2849
  343TMC3    C3 5194   2.126   3.249  17.260 -0.1108  0.2723  0.1775
  343TMC3    C4 5195   1.855   3.204  17.263 -0.0706 -0.4145 -0.3448
  343TMC3    C5 5196   1.947   3.095  17.271 -0.7678  0.0880 -0.2026
  343TMC3    C6 5197   2.078   3.117  17.257  0.0208 -0.3101  0.0709
  343TMC3     C 5198   1.806   3.432  17.329 -0.4938  0.3326  0.3359
  343TMC3     O 5199   1.689   3.412  17.306 -0.4671 -0.1508  0.1058
  343TMC3     H 5200   2.068   3.450  17.286 -2.4407  1.4544  1.9680
  343TMC3    H1 5201   1.755   3.177  17.294 -0.6178 -1.1813 -2.8255
  343TMC3    H2 5202   2.140   3.027  17.259 -1.2055 -1.1655 -0.4797
  343TMC3    C7 5203   1.913   2.962  17.285 -0.1066  0.5192 -0.2629
  343TMC3    C8 5204   2.261   3.290  17.282  0.2142  0.4047  0.1760
  343TMC3    O1 5205   1.813   2.921  17.219  0.4077 -0.4013  0.1770
  343TMC3    O2 5206   2.281   3.387  17.354 -0.0552 -0.1669  0.1736
  344MPD2     C 5207   3.263   3.220  10.755  0.0356 -1.0465 -0.9134
  344MPD2    C1 5208   3.202   3.176  10.634  0.3781  0.0322  0.0437
  344MPD2    C2 5209   3.220   3.256  10.525 -0.2160  0.8459 -0.2177
  344MPD2    C3 5210   3.282   3.379  10.547  0.2565  0.2588 -0.8422
  344MPD2    C4 5211   3.343   3.412  10.669 -0.5993  0.4143 -0.3017
  344MPD2    C5 5212   3.339   3.328  10.774 -0.0229 -0.3003 -0.7859
  344MPD2     H 5213   3.190   3.234  10.423  0.0219 -2.5397  0.4440
  344MPD2    H1 5214   3.396   3.504  10.693  0.6760 -0.3303 -0.2410
  344MPD2    H2 5215   3.253   3.163  10.847 -2.0165  0.2668 -0.3240
  344MPD2    H3 5216   3.392   3.354  10.866 -0.0335 -2.5280 -0.1463
  344MPD2     N 5217   3.282   3.488  10.457 -0.2554  0.1961  0.2817
  344MPD2    H5 5218   3.336   3.567  10.488  2.8682 -1.8636  0.1134
  344MPD2    N1 5219   3.122   3.064  10.631 -0.2493 -0.1678 -0.1072
  344MPD2    H7 5220   3.105   3.017  10.719 -3.6412  1.8105  0.2935
  345TMC3    C1 5221   3.234   3.617  10.285 -0.4828 -0.4987  0.1991
  345TMC3    C2 5222   3.371   3.638  10.272 -0.0739 -0.9198 -0.4979
  345TMC3    C3 5223   3.420   3.754  10.299 -0.6557  0.7478 -0.7540
  345TMC3    C4 5224   3.152   3.726  10.319  0.5753  0.3078  0.4135
  345TMC3    C5 5225   3.206   3.853  10.335  0.6481  0.0151 -0.1744
  345TMC3    C6 5226   3.342   3.865  10.329 -0.7834 -0.1525  0.2116
  345TMC3     C 5227   3.212   3.487  10.342  0.8772 -0.8901 -0.3586
  345TMC3     O 5228   3.140   3.404  10.289 -0.1410  0.4954  0.4247
  345TMC3     H 5229   3.429   3.548  10.256  3.3145  1.0220  0.8224
  345TMC3    H1 5230   3.047   3.704  10.328  0.5301  0.0226 -0.8127
  345TMC3    H2 5231   3.394   3.960  10.326  1.5435 -1.4857 -2.5644
  345TMC3    C7 5232   3.134   3.979  10.322 -0.0869 -0.0234  0.5843
  345TMC3    C8 5233   3.550   3.783  10.228  0.4752 -0.1727  0.3210
  345TMC3    O1 5234   3.197   4.082  10.348  0.3569 -0.0727  0.0510
  345TMC3    O2 5235   3.613   3.873  10.271 -0.1592  0.4508 -0.2664
  346MPD2     C 5236   3.113   4.477  14.057  0.3571  0.9240  0.1350
  346MPD2    C1 5237   3.253   4.468  14.053  1.0286  0.0232 -0.4197
  346MPD2    C2 5238   3.317   4.407  14.159  0.1938 -0.3126  1.2386
  346MPD2    C3 5239   3.243   4.359  14.260  0.0512 -0.5880 -0.0616
  346MPD2    C4 5240   3.110   4.376  14.274  0.5068  0.5721 -0.0299
  346MPD2    C5 5241   3.041   4.430  14.163  0.5081  0.6504  0.2706
  346MPD2     H 5242   3.424   4.387  14.158  0.5475  1.8623 -1.9189
  346MPD2    H1 5243   3.054   4.355  14.365  1.1211  0.5035  0.3403
  346MPD2    H2 5244   3.051   4.526  13.983 -1.9969 -0.1480  1.3781
  346MPD2    H3 5245   2.934   4.442  14.161  0.3319 -0.8658  1.0107
  346MPD2     N 5246   3.318   4.289  14.351 -0.3549  0.4089  0.3386
  346MPD2    H5 5247   3.418   4.286  14.333 -0.5661 -1.1522 -0.5707
  346MPD2    N1 5248   3.329   4.520  13.942 -0.3748 -0.5376  0.2365
  346MPD2    H7 5249   3.429   4.518  13.957 -0.2239  2.3739 -0.3746
  347TMC3    C1 5250   3.395   4.162  14.539 -0.9872  0.5163  0.6839
  347TMC3    C2 5251   3.518   4.157  14.478 -0.1322  0.4835  0.1008
  347TMC3    C3 5252   3.632   4.159  14.554  0.7311 -0.2377 -0.2648
  347TMC3    C4 5253   3.385   4.160  14.678 -0.9718  0.2019  0.5237
  347TMC3    C5 5254   3.495   4.177  14.755  0.1413 -0.1582 -0.8167
  347TMC3    C6 5255   3.620   4.178  14.690  0.5038  0.1275 -0.0975
  347TMC3     C 5256   3.280   4.220  14.464  0.0850  0.1042  0.0054
  347TMC3     O 5257   3.168   4.206  14.502 -0.6811 -0.3184  0.5458
  347TMC3     H 5258   3.530   4.159  14.370  1.9199 -2.5446  0.2734
  347TMC3    H1 5259   3.282   4.160  14.711 -0.7129 -0.6309  1.3221
  347TMC3    H2 5260   3.712   4.190  14.747 -0.3793 -0.3228  1.4313
  347TMC3    C7 5261   3.479   4.193  14.897 -0.3647 -0.1311  0.4085
  347TMC3    C8 5262   3.747   4.211  14.489  0.4167  0.5846  0.4760
  347TMC3    O1 5263   3.586   4.218  14.957 -0.2417 -0.2329  0.4658
  347TMC3    O2 5264   3.791   4.145  14.396 -0.2022  0.0415 -0.4963
  348MPD2     C 5265   2.254   4.606  12.008  0.6062  0.1322  0.7863
  348MPD2    C1 5266   2.246   4.531  11.896  0.1985  0.1126 -1.0756
  348MPD2    C2 5267   2.309   4.572  11.785  0.0487  0.1106 -0.6445
  348MPD2    C3 5268   2.390   4.688  11.774  0.9242  0.3208  0.4608
  348MPD2    C4 5269   2.404   0.024  11.894 -0.7050  0.1667 -0.8901
  348MPD2    C5 5270   2.343   4.715  12.010 -0.2043 -0.5938  0.1754
  348MPD2     H 5271   2.265   4.531  11.695 -0.6789  1.2789 -0.8165
  348MPD2    H1 5272   2.461   0.114  11.912  0.3510 -0.7483  0.4034
  348MPD2    H2 5273   2.198   4.582  12.098 -0.8034 -0.8975 -0.3750
  348MPD2    H3 5274   2.362   0.034  12.098 -0.2327 -1.5764  0.8442
  348MPD2     N 5275   2.443   4.724  11.650  0.1992  0.3096 -0.0901
  348MPD2    H5 5276   2.425   4.667  11.568 -0.2166  0.6367 -0.2284
  348MPD2    N1 5277   2.167   4.417  11.869 -0.0427  1.1037 -0.6738
  348MPD2    H7 5278   2.178   4.364  11.783 -0.9400 -0.9674  0.4898
  349TMC3    C1 5279   1.992   4.264  11.880  0.5001  0.1159  0.6259
  349TMC3    C2 5280   2.071   4.162  11.839 -0.1431 -0.4923  0.0499
  349TMC3    C3 5281   2.012   4.058  11.769  0.1752  0.6420 -0.2900
  349TMC3    C4 5282   1.856   4.259  11.865  0.2136  0.7590  0.8641
  349TMC3    C5 5283   1.807   4.155  11.790 -0.3701  0.4410  0.6153
  349TMC3    C6 5284   1.878   4.050  11.750 -0.0411 -0.4667  0.2104
  349TMC3     C 5285   2.058   4.381  11.941  0.1085  0.2140  0.4492
  349TMC3     O 5286   2.009   4.421  12.045 -0.8830  0.1700 -0.7302
  349TMC3     H 5287   2.175   4.166  11.868 -0.0693  0.1942 -0.3103
  349TMC3    H1 5288   1.788   4.335  11.902  1.0856  1.6029  0.7239
  349TMC3    H2 5289   1.834   3.961  11.706  0.2523 -0.9517  0.8892
  349TMC3    C7 5290   1.674   4.150  11.746  0.3738 -0.3589 -0.4506
  349TMC3    C8 5291   2.096   3.943  11.740 -0.1769  0.0689 -0.1619
  349TMC3    O1 5292   1.610   4.044  11.738 -0.8350  0.1840  0.2353
  349TMC3    O2 5293   2.042   3.830  11.724  0.3818  0.3542 -0.1328
  350MPD2     C 5294   0.925   2.974  10.552  0.0278  0.5154  0.1880
  350MPD2    C1 5295   1.050   2.930  10.515  0.1262  0.3048 -0.4426
  350MPD2    C2 5296   1.164   3.008  10.538 -0.2897 -0.0396 -0.0266
  350MPD2    C3 5297   1.156   3.122  10.613  0.1833 -0.6579  0.3013
  350MPD2    C4 5298   1.033   3.161  10.657 -0.3396 -0.1353 -0.4992
  350MPD2    C5 5299   0.919   3.089  10.631 -0.1065 -0.4579 -0.2026
  350MPD2     H 5300   1.256   2.975  10.492  0.1034 -0.5276  1.0909
  350MPD2    H1 5301   1.038   3.248  10.722 -1.1416  0.6823 -1.5308
  350MPD2    H2 5302   0.834   2.917  10.547  0.1250  0.1878  2.0877
  350MPD2    H3 5303   0.839   3.113  10.700 -1.5428  1.2882 -2.4738
  350MPD2     N 5304   1.282   3.184  10.637  0.3925 -0.1527 -0.4154
  350MPD2    H5 5305   1.361   3.132  10.600 -0.0942 -2.2118  1.4699
  350MPD2    N1 5306   1.071   2.804  10.461 -0.2915  0.4196 -0.3324
  350MPD2    H7 5307   1.168   2.786  10.439 -0.4766 -2.2193  0.9869
  351TMC3    C1 5308   1.026   2.574  10.407  0.5437 -0.3150  0.6202
  351TMC3    C2 5309   1.122   2.573  10.316 -0.0454  0.4721 -0.5603
  351TMC3    C3 5310   1.156   2.457  10.252  0.3044  0.0218 -0.8135
  351TMC3    C4 5311   0.944   2.463  10.430  0.2258  0.0762  0.2270
  351TMC3    C5 5312   0.974   2.355  10.359 -0.1593 -0.0778  0.4664
  351TMC3    C6 5313   1.081   2.344  10.271  0.3030  0.6381  0.4074
  351TMC3     C 5314   0.976   2.700  10.459 -0.1237 -0.1977 -0.6104
  351TMC3     O 5315   0.858   2.704  10.478 -0.3679  0.1334  0.5885
  351TMC3     H 5316   1.184   2.661  10.296 -1.0094  1.6525  1.6559
  351TMC3    H1 5317   0.860   2.458  10.498 -0.1618 -1.1620 -0.3480
  351TMC3    H2 5318   1.099   2.254  10.214 -3.4321 -0.9806  1.8282
  351TMC3    C7 5319   0.897   2.241  10.395  1.6551 -0.0270  0.2717
  351TMC3    C8 5320   1.234   2.473  10.128  0.3480  0.0133 -0.6960
  351TMC3    O1 5321   0.849   2.239  10.509 -0.6505  0.5734  0.0050
  351TMC3    O2 5322   1.241   2.589  10.090 -0.5935  0.0027  0.0328
  352MPD2     C 5323   0.005   0.073   1.032 -0.4244  0.2270  0.3921
  352MPD2    C1 5324   4.623   0.066   1.100  0.4048  0.2134  0.5629
  352MPD2    C2 5325   4.600   4.689   1.170  0.1977  0.1559  0.0630
  352MPD2    C3 5326   4.684   4.577   1.158 -0.4258  0.0996  0.2801
  352MPD2    C4 5327   0.059   4.593   1.083 -0.0048 -0.0696 -0.5682
  352MPD2    C5 5328   0.090   4.709   1.023  0.3600 -0.1576  0.0627
  352MPD2     H 5329   4.503   4.674   1.215  0.0495 -2.1747 -1.0495
  352MPD2    H1 5330   0.120   4.508   1.053  1.3850  1.3764 -1.8312
  352MPD2    H2 5331   0.032   0.164   0.981 -2.5642 -0.7938 -2.5169
  352MPD2    H3 5332   0.174   4.717   0.955 -0.1179 -0.1353 -0.5284
  352MPD2     N 5333   4.657   4.452   1.219  0.9324 -0.4564  0.0781
  352MPD2    H5 5334   4.730   4.382   1.213 -0.5436 -1.8581 -1.4695
  352MPD2    N1 5335   4.537   0.175   1.094  0.6862 -0.3669  0.5258
  352MPD2    H7 5336   4.562   0.252   1.032  3.3782 -3.4383 -2.2051
  353TMC3    C1 5337   4.538   4.260   1.284  0.3130 -0.2376  0.8824
  353TMC3    C2 5338   4.662   4.203   1.299  0.4683 -0.8618  0.0461
  353TMC3    C3 5339   4.671   4.073   1.273  0.5084  0.2510 -0.2112
  353TMC3    C4 5340   4.427   4.187   1.248 -0.8508  0.0485 -0.2039
  353TMC3    C5 5341   4.446   4.052   1.231  0.0063  0.1043 -0.0398
  353TMC3    C6 5342   4.567   3.997   1.224 -0.4313  0.1221 -0.8763
  353TMC3     C 5343   4.533   4.404   1.261  0.0133  0.0093 -0.3041
  353TMC3     O 5344   4.426   4.462   1.259  0.0698 -0.2071  0.6974
  353TMC3     H 5345   0.008   4.258   1.334  0.3052 -0.3605 -0.3432
  353TMC3    H1 5346   4.329   4.233   1.237 -2.0773 -2.4328  0.2766
  353TMC3    H2 5347   4.575   3.889   1.230 -1.1221  0.1392  0.4187
  353TMC3    C7 5348   4.348   3.977   1.155 -0.3042  0.3757  0.0836
  353TMC3    C8 5349   0.064   4.018   1.287  0.3351  0.2476 -0.2703
  353TMC3    O1 5350   4.394   3.919   1.057  0.6952  0.1888 -0.0607
  353TMC3    O2 5351   0.142   4.082   1.364 -0.0940 -0.5551  0.2842
  354TMC3    C1 5352   1.084   0.753  13.606  0.9704  0.4354  0.3959
  354TMC3    C2 5353   1.163   0.864  13.612 -0.4149  0.2297 -0.8911
  354TMC3    C3 5354   1.256   0.895  13.518  0.2478  0.5775 -0.2998
  354TMC3    C4 5355   1.092   0.678  13.486 -0.0213 -0.5351 -0.5299
  354TMC3    C5 5356   1.195   0.696  13.404 -0.2874 -0.4262  0.9126
  354TMC3    C6 5357   1.269   0.813  13.409 -0.2245  0.0414  0.7992
  354TMC3     C 5358   1.045   0.678  13.727  0.1690  1.0332  0.5914
  354TMC3     O 5359   0.948   0.605  13.716  1.0083  0.0068  0.3013
  354TMC3     H 5360   1.158   0.928  13.700  0.0710 -1.1263  0.1313
  354TMC3    H1 5361   1.037   0.585  13.484 -1.4968  0.3286 -0.3476
  354TMC3    H2 5362   1.368   0.822  13.364 -0.6879  0.1195 -0.2113
  354TMC3    C7 5363   1.195   0.617  13.285 -0.4991  0.2544 -0.5464
  354TMC3    C8 5364   1.322   1.025  13.527  0.5560 -0.0057  0.1579
  354TMC3    O1 5365   1.128   0.515  13.288 -0.3550  0.1920 -0.3943
  354TMC3    O2 5366   1.353   1.068  13.638 -0.8560 -0.2748  0.4038
  355MPD2     C 5367   1.787   1.859  11.783 -0.3157 -0.4599 -0.0277
  355MPD2    C1 5368   1.878   1.843  11.686  0.5992 -0.1703  0.1819
  355MPD2    C2 5369   1.972   1.741  11.695 -0.3119  0.3981 -0.1454
  355MPD2    C3 5370   1.973   1.655  11.807  0.1240  0.4618 -0.1314
  355MPD2    C4 5371   1.865   1.670  11.891 -0.4390  0.9779 -0.1880
  355MPD2    C5 5372   1.779   1.770  11.880 -0.1902  0.4531 -0.3327
  355MPD2     H 5373   2.045   1.715  11.619 -0.3184 -0.9602  0.3152
  355MPD2    H1 5374   1.845   1.600  11.972 -0.0225  1.9528  0.7568
  355MPD2    H2 5375   1.724   1.947  11.785  0.7142  0.2467  1.6625
  355MPD2    H3 5376   1.708   1.779  11.961 -1.0152 -0.3771 -0.9585
  355MPD2     N 5377   2.061   1.543  11.818  0.3466 -0.3574  0.0747
  355MPD2    H5 5378   2.024   1.462  11.867  1.5227 -0.6836  0.4093
  355MPD2    N1 5379   1.904   1.956  11.607 -0.3429 -1.1917 -0.4007
  355MPD2    H7 5380   1.851   2.042  11.621  2.4765  0.4671  0.0284
  356TMC3    C1 5381   2.249   1.703  11.807  0.2319 -0.0741 -0.0800
  356TMC3    C2 5382   2.286   1.764  11.691  0.4317  0.0087  0.7096
  356TMC3    C3 5383   2.351   1.882  11.703  0.1885  0.7915  0.4986
  356TMC3    C4 5384   2.265   1.761  11.935  0.2336 -0.1810 -0.2412
  356TMC3    C5 5385   2.324   1.885  11.941 -0.2089  0.2501  0.3646
  356TMC3    C6 5386   2.361   1.948  11.826  0.5013 -0.4132 -0.4361
  356TMC3     C 5387   2.206   1.561  11.800  0.1433 -0.1097  0.5686
  356TMC3     O 5388   2.293   1.485  11.766  0.2704 -0.2705 -0.5829
  356TMC3     H 5389   2.280   1.712  11.596 -0.9903  1.0867  0.2327
  356TMC3    H1 5390   2.212   1.716  12.018 -2.3729  0.8195 -1.3539
  356TMC3    H2 5391   2.419   2.039  11.839  2.4934 -2.0365  2.1382
  356TMC3    C7 5392   2.332   1.956  12.068 -0.2312  0.2994 -0.5158
  356TMC3    C8 5393   2.378   1.943  11.579  0.0369 -1.0681  0.2240
  356TMC3    O1 5394   2.325   1.881  12.163  0.0377  0.1559 -0.1123
  356TMC3    O2 5395   2.352   1.884  11.474  0.2816 -0.2277  0.4379
  357MPD2     C 5396   0.571   1.762   1.198  0.4374  0.4080  0.3870
  357MPD2    C1 5397   0.636   1.640   1.173 -0.0300 -0.1562 -0.4539
  357MPD2    C2 5398   0.552   1.533   1.143  0.3455 -0.0506  0.3044
  357MPD2    C3 5399   0.417   1.541   1.158  0.8050  0.0973 -0.0524
  357MPD2    C4 5400   0.362   1.662   1.196 -0.4189 -0.3969 -0.4804
  357MPD2    C5 5401   0.437   1.776   1.214 -0.2083 -0.0653 -0.2506
  357MPD2     H 5402   0.584   1.432   1.120 -1.6786 -0.1070 -2.1484
  357MPD2    H1 5403   0.255   1.666   1.211 -0.1951  0.6149  0.8667
  357MPD2    H2 5404   0.623   1.856   1.209  2.0646 -0.5840  1.2255
  357MPD2    H3 5405   0.399   1.870   1.254  0.0322  0.1867 -0.6113
  357MPD2     N 5406   0.326   1.436   1.141  0.8728 -0.1622 -0.5797
  357MPD2    H5 5407   0.229   1.467   1.139  1.3589  1.4212  0.8270
  357MPD2    N1 5408   0.775   1.624   1.159  0.0687  0.6843  0.4451
  357MPD2    H7 5409   0.800   1.540   1.107 -1.2439 -0.3915  1.5678
  358TMC3    C1 5410   0.991   1.663   1.212  0.1615  0.1114  0.2855
  358TMC3    C2 5411   1.022   1.574   1.113  0.1092  0.1917 -0.5989
  358TMC3    C3 5412   1.119   1.475   1.136 -0.0961 -0.1885 -0.5539
  358TMC3    C4 5413   1.067   1.672   1.327  0.2797  0.3128 -0.3454
  358TMC3    C5 5414   1.171   1.575   1.344  0.0574  0.3802  0.6059
  358TMC3    C6 5415   1.188   1.470   1.257  0.6519 -0.1483 -0.3422
  358TMC3     C 5416   0.859   1.709   1.220  0.1915  0.4483  0.5576
  358TMC3     O 5417   0.833   1.797   1.296  0.1406  0.1077 -0.1654
  358TMC3     H 5418   0.967   1.574   1.020 -1.9735 -0.5733  0.6149
  358TMC3    H1 5419   1.053   1.739   1.411  1.8052  0.5074 -0.2431
  358TMC3    H2 5420   1.284   1.422   1.249  0.0470 -1.2898 -0.7314
  358TMC3    C7 5421   1.260   1.605   1.446  0.0318  0.6969 -0.5502
  358TMC3    C8 5422   1.096   1.356   1.059  1.1031  0.0898 -0.3739
  358TMC3    O1 5423   1.292   1.719   1.468 -0.0191  0.3528 -0.2066
  358TMC3    O2 5424   1.031   1.369   0.955 -0.1597 -0.0173  0.1427
  359MPD2     C 5425   2.425   0.658  12.706  0.0811 -0.3388 -0.7003
  359MPD2    C1 5426   2.333   0.646  12.602  0.1739 -0.2252  0.6915
  359MPD2    C2 5427   2.233   0.549  12.618  0.2611  0.6301  0.3053
  359MPD2    C3 5428   2.224   0.464  12.718 -0.0592 -0.4431 -0.8726
  359MPD2    C4 5429   2.311   0.481  12.824  0.1690 -0.5353 -0.3669
  359MPD2    C5 5430   2.416   0.573  12.814 -0.0009  0.0366  0.5670
  359MPD2     H 5431   2.159   0.540  12.540 -1.2210 -2.3718  2.0780
  359MPD2    H1 5432   2.318   0.403  12.899 -3.0507  0.4129  0.9001
  359MPD2    H2 5433   2.508   0.728  12.702  0.4718 -0.7664  0.0028
  359MPD2    H3 5434   2.485   0.593  12.896  1.7409 -1.3209 -0.5744
  359MPD2     N 5435   2.133   0.354  12.736  0.3726  0.2702  0.2776
  359MPD2    H5 5436   2.147   0.296  12.817 -1.9617 -1.9959 -0.9616
  359MPD2    N1 5437   2.342   0.721  12.485  0.4761  0.2169  0.3791
  359MPD2    H7 5438   2.257   0.714  12.430  0.9083 -0.0698 -0.2432
  360TMC3    C1 5439   2.420   0.833  12.302  0.2798 -0.1459  1.3174
  360TMC3    C2 5440   2.517   0.908  12.250 -0.2199 -0.0492 -0.0920
  360TMC3    C3 5441   2.504   0.919  12.111  0.1990  0.3704  0.6380
  360TMC3    C4 5442   2.328   0.756  12.229 -0.1530 -0.3581  0.9710
  360TMC3    C5 5443   2.314   0.781  12.095  0.1555  0.3361  0.6694
  360TMC3    C6 5444   2.417   0.848  12.037  0.2671  0.1618 -0.0609
  360TMC3     C 5445   2.446   0.798  12.441 -0.1382  0.0013  1.0648
  360TMC3     O 5446   2.537   0.843  12.505 -0.0078 -0.1902  0.2670
  360TMC3     H 5447   2.575   0.974  12.313 -2.5454  1.6711  0.2228
  360TMC3    H1 5448   2.273   0.670  12.264 -2.4982  1.0473  0.7365
  360TMC3    H2 5449   2.422   0.865  11.930 -0.1669 -1.6930 -0.3701
  360TMC3    C7 5450   2.215   0.705  12.016 -0.2393 -0.4698  0.3072
  360TMC3    C8 5451   2.626   0.992  12.063 -0.3403  0.0848 -0.2475
  360TMC3    O1 5452   2.236   0.702  11.894 -0.6976  0.4253 -0.1004
  360TMC3    O2 5453   2.668   1.091  12.117  0.0715 -0.3532 -0.3928
  361MPD2     C 5454   3.638   4.565  17.286  0.0064  0.4246  0.8371
  361MPD2    C1 5455   3.594   4.495  17.178 -0.1433  0.0329  0.7458
  361MPD2    C2 5456   3.632   4.367  17.152  0.0245  0.2528  0.7037
  361MPD2    C3 5457   3.722   4.303  17.237  0.4395 -0.2658 -0.5244
  361MPD2    C4 5458   3.766   4.374  17.348 -0.1352 -0.6096 -0.1892
  361MPD2    C5 5459   3.724   4.504  17.372 -0.7605  0.3612 -0.0022
  361MPD2     H 5460   3.584   4.305  17.077  0.4842 -1.0385  1.4925
  361MPD2    H1 5461   3.817   4.318  17.426 -2.2805  0.7456  2.1814
  361MPD2    H2 5462   3.603   4.666  17.304  1.5218  1.1270 -0.1685
  361MPD2    H3 5463   3.755   4.552  17.464 -2.0755 -0.3388  0.8059
  361MPD2     N 5464   3.780   4.174  17.223  0.3539 -0.7777 -0.0715
  361MPD2    H5 5465   3.844   4.136  17.292  0.7922  2.2763  1.1983
  361MPD2    N1 5466   3.505   4.568  17.100 -0.0952 -0.1423 -0.3612
  361MPD2    H7 5467   3.463   4.656  17.130  0.8999  0.5694 -1.0740
  362TMC3    C1 5468   3.361   4.622  16.931 -0.5597 -0.1228  0.2764
  362TMC3    C2 5469   3.287   4.667  17.035 -0.6518  0.6235  0.0880
  362TMC3    C3 5470   3.209   0.039  17.023 -0.2783  0.2098 -0.6166
  362TMC3    C4 5471   3.368   4.695  16.814 -0.3594  0.7764  0.3200
  362TMC3    C5 5472   3.293   0.072  16.809  0.3760 -0.0599 -0.0536
  362TMC3    C6 5473   3.224   0.117  16.913 -0.4556  0.1190 -0.2130
  362TMC3     C 5474   3.481   4.548  16.964  0.1573 -0.0647  0.0523
  362TMC3     O 5475   3.517   4.459  16.895 -0.1864  0.8402 -0.5716
  362TMC3     H 5476   3.260   4.597  17.113  4.2323  0.2500  1.4568
  362TMC3    H1 5477   3.444   4.663  16.743 -0.7387  4.3626 -1.6786
  362TMC3    H2 5478   3.153   0.199  16.912  0.4413  0.9008  0.3634
  362TMC3    C7 5479   3.301   0.159  16.686  0.0019  0.0378  0.1924
  362TMC3    C8 5480   3.112   0.078  17.127  0.5059  0.1880 -0.1599
  362TMC3    O1 5481   3.269   0.275  16.704 -0.0717  0.2680  0.3023
  362TMC3    O2 5482   3.012   0.131  17.075 -0.4247  0.1296 -0.2071
  363TMC3    C1 5483   1.381   2.052   9.097 -0.6503  1.5220 -0.1302
  363TMC3    C2 5484   1.462   1.996   9.191  0.1948  0.2842  0.8429
  363TMC3    C3 5485   1.459   2.043   9.318  0.6311  0.1825  0.1986
  363TMC3    C4 5486   1.290   2.146   9.135  0.1292 -0.1231  0.0677
  363TMC3    C5 5487   1.292   2.180   9.268  0.2332  0.2279 -0.0247
  363TMC3    C6 5488   1.377   2.140   9.360  0.1429  0.3725 -0.5389
  363TMC3     C 5489   1.364   1.973   8.973  0.2996 -0.5771  0.1089
  363TMC3     O 5490   1.254   1.954   8.925  0.2737 -0.4398 -0.2645
  363TMC3     H 5491   1.532   1.917   9.163  0.3292  0.5468  0.4443
  363TMC3    H1 5492   1.215   2.179   9.063 -0.4726 -0.1995  0.6616
  363TMC3    H2 5493   1.365   2.151   9.467  1.1997 -0.8145 -0.2957
  363TMC3    C7 5494   1.186   2.269   9.315 -0.0337 -0.0789 -0.7818
  363TMC3    C8 5495   1.562   2.006   9.416  1.1452 -0.0663 -0.1828
  363TMC3    O1 5496   1.166   2.269   9.437 -0.6171 -0.4315  0.3355
  363TMC3    O2 5497   1.570   2.070   9.518  0.1878 -0.1239 -0.0596
  364MPD2     C 5498   0.746   1.411  10.505 -0.2995 -0.4646 -0.0644
  364MPD2    C1 5499   0.871   1.447  10.522 -0.4908 -0.3930  0.3539
  364MPD2    C2 5500   0.958   1.369  10.600 -0.0886 -0.1215 -0.4163
  364MPD2    C3 5501   0.896   1.265  10.678  0.1119 -0.3139 -0.3119
  364MPD2    C4 5502   0.757   1.242  10.673 -0.4285 -0.3352 -0.2074
  364MPD2    C5 5503   0.689   1.309  10.581 -0.2317  0.5326  0.4104
  364MPD2     H 5504   1.061   1.402  10.612 -1.2176  2.0778  3.2998
  364MPD2    H1 5505   0.710   1.161  10.729 -0.1821 -0.8082 -0.6809
  364MPD2    H2 5506   0.684   1.477  10.445  2.4350 -0.0824 -2.4695
  364MPD2    H3 5507   0.581   1.301  10.584 -0.0262 -2.6321 -0.7857
  364MPD2     N 5508   0.967   1.178  10.762  0.0010 -0.3506 -0.3354
  364MPD2    H5 5509   0.918   1.115  10.825 -1.2200 -0.4426 -1.3922
  364MPD2    N1 5510   0.946   1.544  10.442 -0.1022 -0.7449  0.4266
  364MPD2    H7 5511   0.903   1.574  10.355  1.1749  1.6923  0.6235
  365TMC3    C1 5512   1.098   1.700  10.373 -0.1550 -0.6572  0.2326
  365TMC3    C2 5513   1.066   1.670  10.243 -0.3840 -0.0119 -0.3230
  365TMC3    C3 5514   1.093   1.765  10.151 -0.0703  0.1373 -0.0998
  365TMC3    C4 5515   1.155   1.819  10.416 -0.2427  0.6965 -0.9645
  365TMC3    C5 5516   1.163   1.914  10.315 -0.0773  0.0251  0.4600
  365TMC3    C6 5517   1.124   1.889  10.184  0.0901 -0.1832  0.4160
  365TMC3     C 5518   1.056   1.609  10.478 -0.1984  0.7483 -0.5933
  365TMC3     O 5519   1.103   1.623  10.590 -0.2254  0.8398 -0.4453
  365TMC3     H 5520   1.021   1.575  10.218 -0.4529 -0.6261  2.1154
  365TMC3    H1 5521   1.203   1.831  10.513 -1.7069 -1.1395  0.0099
  365TMC3    H2 5522   1.151   1.962  10.109 -1.6982 -0.5525 -0.5801
  365TMC3    C7 5523   1.226   2.044  10.336  0.0837 -0.6934  0.4221
  365TMC3    C8 5524   1.062   1.743  10.016 -0.0495 -0.8173  0.1270
  365TMC3    O1 5525   1.263   2.105  10.239 -0.3774 -0.1965 -0.4732
  365TMC3    O2 5526   1.038   1.847   9.955  0.4557  0.1096 -0.1151
  366MPD2     C 5527   3.930   1.978  15.093  0.2008  0.2324 -0.4244
  366MPD2    C1 5528   3.927   2.083  15.185  0.5396 -0.0223  0.2533
  366MPD2    C2 5529   4.048   2.138  15.233  0.6419 -0.7876  0.5164
  366MPD2    C3 5530   4.171   2.102  15.181  0.0740  0.3541 -0.7894
  366MPD2    C4 5531   4.175   2.007  15.090  0.1674  0.1094  0.1281
  366MPD2    C5 5532   4.057   1.946  15.049  0.1629 -0.2862  0.2108
  366MPD2     H 5533   4.042   2.211  15.313  0.9541 -1.8924  1.5449
  366MPD2    H1 5534   4.265   1.970  15.042 -0.1151 -2.7336  1.7976
  366MPD2    H2 5535   3.842   1.930  15.052 -0.5782 -0.6606  2.2698
  366MPD2    H3 5536   4.072   1.870  14.973 -3.1257  1.0512 -1.7684
  366MPD2     N 5537   4.286   2.174  15.229 -0.2944 -0.3856 -0.3450
  366MPD2    H5 5538   4.276   2.223  15.317  0.8382 -1.8239  0.5818
  366MPD2    N1 5539   3.813   2.134  15.249  0.7050  0.2735  0.1075
  366MPD2    H7 5540   3.826   2.215  15.309 -4.0606  1.4789 -0.5204
  367TMC3    C1 5541   3.597   2.228  15.257 -0.2372 -0.8491 -0.1006
  367TMC3    C2 5542   3.675   2.289  15.339 -0.2288 -0.0243 -0.1918
  367TMC3    C3 5543   3.675   2.430  15.346  1.0301 -0.2677  0.0980
  367TMC3    C4 5544   3.517   2.295  15.167 -0.0903 -0.6753  0.3648
  367TMC3    C5 5545   3.508   2.432  15.175 -0.4447 -0.4259 -0.4140
  367TMC3    C6 5546   3.592   2.503  15.262 -0.4414  0.2819 -0.0565
  367TMC3     C 5547   3.680   2.112  15.202 -0.3210  0.7710 -0.1953
  367TMC3     O 5548   3.639   2.044  15.108  0.0056 -0.2131  0.1770
  367TMC3     H 5549   3.706   2.233  15.427  0.7477  1.3759  0.3563
  367TMC3    H1 5550   3.444   2.235  15.114 -1.3045  1.8024 -0.7515
  367TMC3    H2 5551   3.576   2.608  15.280 -1.8399 -0.0798  0.8114
  367TMC3    C7 5552   3.380   2.500  15.148 -0.0967 -0.0189 -0.1808
  367TMC3    C8 5553   3.776   2.501  15.427  0.1911  0.2888 -0.1186
  367TMC3    O1 5554   3.377   2.617  15.190  0.5129  0.3806 -0.0425
  367TMC3    O2 5555   3.878   2.438  15.456 -0.6185 -0.8215  0.2597
  368MPD2     C 5556   0.239   4.484  12.792 -0.1284 -0.4782  0.5964
  368MPD2    C1 5557   0.299   4.593  12.725 -0.0730 -0.1022 -0.1812
  368MPD2    C2 5558   0.435   4.590  12.701 -0.0281 -0.1960 -0.3119
  368MPD2    C3 5559   0.518   4.489  12.751 -0.4452  0.1718 -0.3571
  368MPD2    C4 5560   0.454   4.385  12.820  0.5100  0.5429  0.4805
  368MPD2    C5 5561   0.313   4.382  12.840  0.2312 -0.5061  0.7164
  368MPD2     H 5562   0.479   4.674  12.649 -0.4254  0.3161  0.1855
  368MPD2    H1 5563   0.513   4.301  12.854 -1.1467 -0.3993  1.0426
  368MPD2    H2 5564   0.134   4.482  12.819 -1.0400 -3.5161 -3.0791
  368MPD2    H3 5565   0.272   4.295  12.889 -0.4791 -1.3383 -1.3711
  368MPD2     N 5566   0.655   4.478  12.724 -0.8649  0.1004 -0.0818
  368MPD2    H5 5567   0.699   4.392  12.756  0.2833  0.7336  0.0029
  368MPD2    N1 5568   0.234   4.712  12.693 -1.1959  0.4135 -0.5195
  368MPD2    H7 5569   0.285   0.040  12.639  0.2876 -0.1669  0.1362
  369TMC3    C1 5570   0.067   0.133  12.689  0.0832 -0.7093  0.1027
  369TMC3    C2 5571   0.144   0.240  12.701 -0.2477 -0.0797  0.0905
  369TMC3    C3 5572   0.089   0.360  12.676  0.6144 -0.4660  0.8159
  369TMC3    C4 5573   4.672   0.147  12.667  0.4689  0.2924  0.4167
  369TMC3    C5 5574   4.619   0.274  12.660 -0.1877 -0.6087  0.0887
  369TMC3    C6 5575   4.697   0.381  12.660  0.7214  0.1204 -0.5591
  369TMC3     C 5576   0.108   0.004  12.740 -0.1900  0.3712 -0.7419
  369TMC3     O 5577   0.015   4.673  12.776 -0.3444  0.0095 -0.0575
  369TMC3     H 5578   0.247   0.226  12.732  0.0909  0.6728 -0.6757
  369TMC3    H1 5579   4.608   0.062  12.643  1.1969 -0.4142  0.9594
  369TMC3    H2 5580   4.670   0.486  12.659 -0.3817 -0.1726 -0.9311
  369TMC3    C7 5581   4.474   0.296  12.635 -0.4956  0.8146 -0.0168
  369TMC3    C8 5582   0.177   0.477  12.671 -0.3241 -0.5922  0.3624
  369TMC3    O1 5583   4.435   0.410  12.615 -0.4058  0.1967 -0.0421
  369TMC3    O2 5584   0.159   0.566  12.586  0.4290 -0.0662 -0.6911
  370TMC3    C1 5585   4.217   0.189  16.411  0.2143  0.3321 -0.0119
  370TMC3    C2 5586   4.181   0.086  16.490  0.0491  0.0135 -0.4177
  370TMC3    C3 5587   4.236   4.707  16.471 -0.0650  0.2324  0.7672
  370TMC3    C4 5588   4.305   0.170  16.307 -0.3223  0.0483  0.3548
  370TMC3    C5 5589   4.347   0.044  16.272 -0.3145  0.1959  0.4834
  370TMC3    C6 5590   4.307   4.676  16.355  0.3643 -0.1588  0.0878
  370TMC3     C 5591   4.237   0.310  16.484 -0.0213  0.3235  0.2087
  370TMC3     O 5592   4.220   0.297  16.604 -0.1167 -0.5531  0.5525
  370TMC3     H 5593   4.104   0.092  16.567 -0.2070 -1.5426 -0.5419
  370TMC3    H1 5594   4.337   0.257  16.251 -1.0284 -0.1341 -0.3181
  370TMC3    H2 5595   4.350   4.577  16.347  1.1000  0.1540  0.1796
  370TMC3    C7 5596   4.421   0.021  16.151  0.9263  0.5995  0.1504
  370TMC3    C8 5597   4.282   4.647  16.589  0.6392  0.2739  0.1797
  370TMC3    O1 5598   4.445   0.124  16.086 -0.3184  0.4116 -0.4965
  370TMC3    O2 5599   4.329   4.536  16.581  0.3679  0.1036  0.1853
  371TMC3    C1 5600   0.993   3.354  15.274 -0.2804 -0.5942  0.0097
  371TMC3    C2 5601   0.982   3.373  15.410  0.0199  0.1996 -0.0892
  371TMC3    C3 5602   0.965   3.501  15.452 -0.1277 -0.5950 -0.6132
  371TMC3    C4 5603   0.969   3.449  15.183  0.7995  0.0923 -0.0256
  371TMC3    C5 5604   0.958   3.574  15.231 -1.0635  0.2205 -0.3457
  371TMC3    C6 5605   0.951   3.607  15.366 -0.0692 -0.3890 -0.5579
  371TMC3     C 5606   1.008   3.217  15.228 -0.5648  0.1348  0.1844
  371TMC3     O 5607   1.058   3.200  15.116 -0.1702 -0.2202  0.7669
  371TMC3     H 5608   0.985   3.289  15.478  0.6915 -2.0438 -2.8996
  371TMC3    H1 5609   0.979   3.416  15.080 -0.6494 -0.6820  0.0837
  371TMC3    H2 5610   0.963   3.711  15.396  0.0876 -0.3621 -0.7112
  371TMC3    C7 5611   0.999   3.676  15.141 -0.2724  0.1692  0.5323
  371TMC3    C8 5612   0.962   3.527  15.595  0.0955  0.0878 -0.1081
  371TMC3    O1 5613   1.072   3.630  15.054 -0.1719  0.6221 -0.2258
  371TMC3    O2 5614   1.006   3.449  15.674  0.3965 -0.4207 -0.0176
  372MPD2     C 5615   0.118   4.377  13.331 -0.3611  0.6062 -0.8571
  372MPD2    C1 5616   0.230   4.312  13.292 -0.1558  0.6309  0.4153
  372MPD2    C2 5617   0.249   4.180  13.309 -0.2958  0.1339 -0.3289
  372MPD2    C3 5618   0.149   4.108  13.371  0.1230 -0.2749  0.3038
  372MPD2    C4 5619   0.036   4.169  13.412 -0.2222 -0.1246 -0.3948
  372MPD2    C5 5620   0.017   4.304  13.379  0.1388  0.3624 -0.2428
  372MPD2     H 5621   0.337   4.122  13.284 -0.0690 -0.9021  2.8825
  372MPD2    H1 5622   4.694   4.117  13.458  0.3304 -1.4912 -0.9703
  372MPD2    H2 5623   0.100   4.482  13.314  1.9653  1.1327 -0.0775
  372MPD2    H3 5624   4.668   4.358  13.407 -2.1322 -2.6122 -1.7873
  372MPD2     N 5625   0.188   3.980  13.424 -0.2138 -0.8093  0.0201
  372MPD2    H5 5626   0.284   3.952  13.411  0.5104  1.0944  1.2596
  372MPD2    N1 5627   0.330   4.379  13.221  0.1029 -0.0786  0.4731
  372MPD2    H7 5628   0.405   4.323  13.183  0.6673  1.4095 -0.6422
  373TMC3    C1 5629   0.182   3.779  13.566 -0.1895 -0.8639  0.6621
  373TMC3    C2 5630   0.103   3.692  13.643  0.9908  0.1513  0.3910
  373TMC3    C3 5631   0.140   3.563  13.663 -0.0864  0.4350  0.1706
  373TMC3    C4 5632   0.296   3.723  13.513  0.2751 -0.0694 -0.3664
  373TMC3    C5 5633   0.326   3.585  13.534 -0.9201  0.1339 -0.6895
  373TMC3    C6 5634   0.248   3.504  13.614 -0.3829  0.2229 -0.2469
  373TMC3     C 5635   0.117   3.900  13.513  0.1377 -0.4972 -0.0873
  373TMC3     O 5636   0.000   3.912  13.547 -0.0561 -0.5107  0.7908
  373TMC3     H 5637   0.010   3.725  13.688  0.5007  0.8703 -1.1342
  373TMC3    H1 5638   0.368   3.787  13.463  1.0999 -1.5536 -1.0639
  373TMC3    H2 5639   0.278   3.404  13.639 -0.5454 -0.1251 -1.4177
  373TMC3    C7 5640   0.451   3.539  13.484 -0.5598 -0.1290 -0.5966
  373TMC3    C8 5641   0.068   3.480  13.756 -0.6894 -0.4120  0.0751
  373TMC3    O1 5642   0.553   3.603  13.481 -0.1456 -0.4206 -0.2416
  373TMC3    O2 5643   0.036   3.371  13.712  0.2241 -0.5754  0.2565
  374TMC3    C1 5644   1.532   4.607   9.729 -1.4422 -0.5621 -0.2280
  374TMC3    C2 5645   1.449   4.672   9.812 -0.5071 -0.1221  0.1373
  374TMC3    C3 5646   1.493   0.044   9.877 -0.4641  0.3836  0.2711
  374TMC3    C4 5647   1.660   4.652   9.720 -0.3919  0.1697 -0.2088
  374TMC3    C5 5648   1.702   0.027   9.780  0.0790 -0.1997  0.7529
  374TMC3    C6 5649   1.618   0.100   9.857 -0.8280  0.0149  0.1438
  374TMC3     C 5650   1.484   4.480   9.660 -0.4726  0.2766  0.0647
  374TMC3     O 5651   1.367   4.448   9.673 -0.3785 -0.3897 -0.2627
  374TMC3     H 5652   1.353   4.627   9.832 -1.9967  3.0893  0.1274
  374TMC3    H1 5653   1.713   4.622   9.630 -0.2699 -0.2955  0.0219
  374TMC3    H2 5654   1.658   0.192   9.897 -0.2112 -1.1985  2.3021
  374TMC3    C7 5655   1.831   0.093   9.746  0.1869  0.1397  1.3341
  374TMC3    C8 5656   1.394   0.103   9.965  0.3876  0.0598 -0.2533
  374TMC3    O1 5657   1.844   0.210   9.773 -0.0964 -0.5441 -0.2324
  374TMC3    O2 5658   1.278   0.059   9.959 -0.3112  0.1661  0.6365
  375MPD2     C 5659   0.838   0.378  17.085  0.0593  0.1062 -0.1400
  375MPD2    C1 5660   0.780   0.463  17.001 -0.0525  0.1753  0.6522
  375MPD2    C2 5661   0.825   0.469  16.875  0.0253 -0.4482 -0.1476
  375MPD2    C3 5662   0.933   0.387  16.831 -1.0664  0.0920 -0.5710
  375MPD2    C4 5663   0.998   0.312  16.923 -0.0891  0.2319  0.1130
  375MPD2    C5 5664   0.946   0.300  17.049  0.0236 -0.6561 -0.0382
  375MPD2     H 5665   0.759   0.525  16.810 -0.1922 -1.1862 -0.5699
  375MPD2    H1 5666   1.083   0.251  16.893 -1.0855 -0.7340 -0.7390
  375MPD2    H2 5667   0.802   0.367  17.187  1.0432 -1.1055  0.0811
  375MPD2    H3 5668   0.999   0.249  17.129  0.7657 -0.6371 -0.5185
  375MPD2     N 5669   0.976   0.367  16.699  0.4500  0.1919  0.0818
  375MPD2    H5 5670   1.068   0.325  16.690  0.2477 -0.0986 -0.6231
  375MPD2    N1 5671   0.657   0.529  17.022 -0.3238 -0.6316  0.1180
  375MPD2    H7 5672   0.620   0.580  16.942  0.8113 -1.0515 -0.6796
  376TMC3    C1 5673   1.008   0.397  16.464  0.5417  0.3414  0.1840
  376TMC3    C2 5674   1.144   0.387  16.480 -0.2820  0.7307  0.8966
  376TMC3    C3 5675   1.221   0.373  16.370  0.0101 -0.6343 -0.2056
  376TMC3    C4 5676   0.950   0.401  16.344  0.4030  0.2347 -0.2015
  376TMC3    C5 5677   1.030   0.393  16.233 -0.0755  0.9157 -0.6026
  376TMC3    C6 5678   1.163   0.377  16.244  0.8969  0.3319  0.0557
  376TMC3     C 5679   0.924   0.414  16.583 -0.2440  0.2858  0.4538
  376TMC3     O 5680   0.815   0.465  16.557  0.0214  0.2150 -0.5273
  376TMC3     H 5681   1.192   0.401  16.576  0.9499 -0.3241  0.4317
  376TMC3    H1 5682   0.843   0.414  16.341  0.3140 -0.1137  1.7964
  376TMC3    H2 5683   1.232   0.383  16.160 -0.8242  1.5042 -1.2658
  376TMC3    C7 5684   0.976   0.416  16.102 -0.0675 -0.2823  0.7145
  376TMC3    C8 5685   1.364   0.407  16.378 -0.4996  0.0303  0.1762
  376TMC3    O1 5686   1.055   0.434  16.011 -0.2407  0.3763 -0.4376
  376TMC3    O2 5687   1.413   0.449  16.272  0.0261  0.4407 -0.2678
  377MPD2     C 5688   4.627   0.108  12.312 -0.3866 -0.6042 -0.5205
  377MPD2    C1 5689   4.569   0.230  12.301 -0.2777  0.3943  0.0959
  377MPD2    C2 5690   4.433   0.246  12.311  0.1964 -0.1192  0.0650
  377MPD2    C3 5691   4.354   0.136  12.332 -0.0360  0.0519 -0.8329
  377MPD2    C4 5692   4.402   0.014  12.344 -0.2023  0.2034  0.4945
  377MPD2    C5 5693   4.539   0.005  12.331  0.1599  0.0682  0.9391
  377MPD2     H 5694   4.381   0.340  12.297  1.2174  0.5844  1.0459
  377MPD2    H1 5695   4.329   4.675  12.358  1.4141 -1.4374 -0.3973
  377MPD2    H2 5696   4.734   0.093  12.312 -0.4156 -0.8095 -0.6240
  377MPD2    H3 5697   4.587   4.650  12.345 -1.2606 -1.0150 -1.6842
  377MPD2     N 5698   4.217   0.147  12.364  0.0795  0.4307 -0.7667
  377MPD2    H5 5699   4.162   0.065  12.387 -0.4229  0.6495 -1.1892
  377MPD2    N1 5700   4.653   0.336  12.258 -0.4506  0.2056  0.5808
  377MPD2    H7 5701   0.007   0.313  12.232 -0.0301  3.4112 -0.6893
  378TMC3    C1 5702   4.702   0.733  11.999 -0.5304  0.5778 -0.1171
  378TMC3    C2 5703   4.663   0.667  12.115 -0.2155  0.5162  0.4659
  378TMC3    C3 5704   4.699   0.540  12.142  0.3353 -0.2281  0.7768
  378TMC3    C4 5705   0.043   0.670  11.910  0.3480 -0.1849 -0.7033
  378TMC3    C5 5706   0.070   0.539  11.935  0.1038  0.2378  0.5912
  378TMC3    C6 5707   0.036   0.476  12.056  1.3642 -0.2902  0.2860
  378TMC3     C 5708   4.616   0.844  11.963  0.5285  0.8464 -0.1166
  378TMC3     O 5709   4.512   0.860  12.027  0.2065  0.1313 -0.1237
  378TMC3     H 5710   4.602   0.711  12.193 -1.3732  1.0388 -0.7409
  378TMC3    H1 5711   0.066   0.712  11.813 -2.5701 -0.2343 -1.4038
  378TMC3    H2 5712   0.051   0.368  12.055  1.5219 -0.2516 -1.8538
  378TMC3    C7 5713   0.139   0.453  11.834  0.1999 -0.0965  0.2218
  378TMC3    C8 5714   4.605   0.461  12.221 -0.1849  0.5772 -0.3614
  378TMC3    O1 5715   0.218   0.371  11.879 -0.2217 -0.1474  0.3354
  378TMC3    O2 5716   4.491   0.509  12.244 -0.5677 -0.2015  0.3910
  379MPD2     C 5717   4.598   2.989  16.315  0.0728 -0.1035  0.3643
  379MPD2    C1 5718   4.655   2.887  16.241 -0.6766  0.0974 -0.9208
  379MPD2    C2 5719   0.030   2.829  16.288  0.6110  0.6394 -0.4616
  379MPD2    C3 5720   0.079   2.856  16.417 -0.1737 -0.1079 -0.7269
  379MPD2    C4 5721   0.010   2.950  16.492  0.0814  0.0280 -0.0711
  379MPD2    C5 5722   4.647   3.020  16.440 -0.0892 -0.4709  0.2944
  379MPD2     H 5723   0.081   2.748  16.237 -1.6089 -1.6141  0.8913
  379MPD2    H1 5724   0.035   2.960  16.597 -1.3906  1.7794  0.1058
  379MPD2    H2 5725   4.502   3.031  16.288 -0.1052 -0.8046 -0.0991
  379MPD2    H3 5726   4.601   3.080  16.518  1.4290  1.7919 -0.5645
  379MPD2     N 5727   0.187   2.786  16.483  0.3201 -0.3638 -0.7518
  379MPD2    H5 5728   0.194   2.809  16.582  0.9559 -1.1088 -0.6274
  379MPD2    N1 5729   4.596   2.832  16.120  0.8031 -0.1413  0.4524
  379MPD2    H7 5730   4.516   2.886  16.089  0.7432 -0.8077 -0.5316
  380TMC3    C1 5731   4.575   2.730  15.901 -0.7238  0.0804  0.5594
  380TMC3    C2 5732   4.633   2.685  15.785  0.0477  0.6733 -0.8297
  380TMC3    C3 5733   4.561   2.681  15.665  0.3343  0.2195  0.1834
  380TMC3    C4 5734   4.446   2.775  15.898  0.1052  0.1726 -0.6684
  380TMC3    C5 5735   4.375   2.765  15.778  0.2910  0.5164  0.2466
  380TMC3    C6 5736   4.429   2.729  15.659  0.4127  0.1454  0.3753
  380TMC3     C 5737   4.648   2.741  16.028 -0.0309  0.6542  0.6109
  380TMC3     O 5738   0.006   2.668  16.039  0.1838  0.2074 -0.4968
  380TMC3     H 5739   4.739   2.661  15.793 -0.8854 -2.9809  0.5326
  380TMC3    H1 5740   4.389   2.798  15.987 -2.0423 -2.9456 -1.2262
  380TMC3    H2 5741   4.363   2.738  15.574  3.3856  0.1244 -1.9163
  380TMC3    C7 5742   4.244   2.824  15.777  0.0006 -0.3358  0.4786
  380TMC3    C8 5743   4.622   2.702  15.536 -0.3737  0.0076 -0.9733
  380TMC3    O1 5744   4.219   2.905  15.864 -0.3158  0.5345  0.9749
  380TMC3    O2 5745   4.554   2.719  15.439 -0.5507  0.0899 -0.0283
  381TMC3    C1 5746   4.633   3.864  16.326  0.0131 -0.4408 -0.7905
  381TMC3    C2 5747   4.691   3.988  16.317 -0.1465 -0.1681 -0.2419
  381TMC3    C3 5748   4.630   4.087  16.385 -0.6086  1.1658 -0.5988
  381TMC3    C4 5749   4.531   3.827  16.404 -0.3973  0.4030 -0.8589
  381TMC3    C5 5750   4.474   3.934  16.475  0.0712  0.2245  0.0432
  381TMC3    C6 5751   4.527   4.059  16.469  0.0253 -0.6810  1.1022
  381TMC3     C 5752   4.654   3.774  16.212  0.2988 -0.0732  0.4332
  381TMC3     O 5753   4.630   3.657  16.238 -0.0846  0.0273 -0.2040
  381TMC3     H 5754   0.032   4.021  16.254  0.9293 -3.0827 -0.4190
  381TMC3    H1 5755   4.499   3.723  16.408 -3.1916  1.1613 -3.3081
  381TMC3    H2 5756   4.490   4.133  16.540 -0.6390 -0.7832  0.8695
  381TMC3    C7 5757   4.399   3.891  16.593  0.6959 -0.1464  0.6973
  381TMC3    C8 5758   4.676   4.218  16.359  0.1698 -0.0570  0.0913
  381TMC3    O1 5759   4.411   3.773  16.610  0.9162 -0.6336  0.1856
  381TMC3    O2 5760   4.699   4.243  16.240 -0.1343 -0.2346 -0.1843
  382MPD2     C 5761   4.163   1.926  17.345 -0.4194 -0.0689 -0.5171
  382MPD2    C1 5762   4.063   2.009  17.384  0.3999 -0.2081 -0.2918
  382MPD2    C2 5763   3.934   1.958  17.400  0.4597 -0.4252 -0.0230
  382MPD2    C3 5764   3.909   1.824  17.373 -0.0716  0.5239 -0.3217
  382MPD2    C4 5765   4.011   1.746  17.318 -0.5224 -0.8807  0.1590
  382MPD2    C5 5766   4.142   1.797  17.305 -0.0188  0.9821 -0.4344
  382MPD2     H 5767   3.854   2.025  17.427  1.0532  0.3632 -0.2340
  382MPD2    H1 5768   3.986   1.644  17.290 -0.5915 -0.7569 -0.2368
  382MPD2    H2 5769   4.260   1.972  17.329 -0.1896 -0.8607 -1.3715
  382MPD2    H3 5770   4.223   1.743  17.257  0.1737 -0.4999  1.5502
  382MPD2     N 5771   3.785   1.766  17.386 -0.2329 -0.2020  0.2901
  382MPD2    H5 5772   3.781   1.669  17.354  0.4705 -0.3242  0.5613
  382MPD2    N1 5773   4.078   2.151  17.401 -0.7476  0.1847 -0.1080
  382MPD2    H7 5774   3.991   2.201  17.420 -0.7075  0.8188 -1.6283
  383TMC3    C1 5775   3.576   1.718  17.488 -0.1973 -0.3171  0.0617
  383TMC3    C2 5776   3.562   1.604  17.417 -0.0592 -0.3540  0.3642
  383TMC3    C3 5777   3.444   1.536  17.441 -0.0727  0.0611  0.7740
  383TMC3    C4 5778   3.475   1.759  17.577  0.5895 -0.0618  0.2321
  383TMC3    C5 5779   3.372   1.674  17.603  0.1797  0.1004  0.1920
  383TMC3    C6 5780   3.349   1.566  17.531  0.7037  0.9979 -0.2245
  383TMC3     C 5781   3.680   1.822  17.456  0.1887  0.0230 -0.1390
  383TMC3     O 5782   3.663   1.935  17.499 -0.4436  0.2774  0.6438
  383TMC3     H 5783   3.630   1.573  17.338  0.7231 -0.1475  0.9653
  383TMC3    H1 5784   3.477   1.854  17.630  1.9599 -0.2761  0.5578
  383TMC3    H2 5785   3.281   1.488  17.562  1.6861  0.0106 -0.5851
  383TMC3    C7 5786   3.321   1.662  17.739  0.7814 -0.3451 -0.1098
  383TMC3    C8 5787   3.406   1.433  17.340  0.3172 -0.7552  0.5305
  383TMC3    O1 5788   3.227   1.589  17.759 -0.1513 -0.1165 -0.5104
  383TMC3    O2 5789   3.499   1.362  17.305 -0.3335 -0.0427  0.2377
  384MPD2     C 5790   0.527   3.143  11.707 -0.2885 -0.0921 -0.3593
  384MPD2    C1 5791   0.618   3.080  11.787  0.2330  0.2873  0.1187
  384MPD2    C2 5792   0.748   3.125  11.797 -0.6593  0.2850 -0.3752
  384MPD2    C3 5793   0.784   3.241  11.728 -0.2054 -0.1041 -0.4485
  384MPD2    C4 5794   0.688   3.308  11.650 -0.1567  0.4521  0.4982
  384MPD2    C5 5795   0.560   3.261  11.642 -0.1487 -0.1835 -0.2615
  384MPD2     H 5796   0.822   3.072  11.856 -0.1289  0.8581 -0.5347
  384MPD2    H1 5797   0.707   3.400  11.596 -1.6351  0.3149 -0.2615
  384MPD2    H2 5798   0.428   3.105  11.686 -0.0133  1.0751 -3.7817
  384MPD2    H3 5799   0.483   3.307  11.581 -1.0701 -1.4593 -0.0350
  384MPD2     N 5800   0.924   3.267  11.723  0.8462  0.4231  0.1687
  384MPD2    H5 5801   0.974   3.222  11.799  0.0928  0.7485  0.8626
  384MPD2    N1 5802   0.598   2.952  11.842  0.2290 -0.6182  0.3272
  384MPD2    H7 5803   0.679   2.903  11.879 -1.6394 -3.4038  0.7276
  385TMC3    C1 5804   1.141   3.339  11.683 -0.2707  0.8080  0.1970
  385TMC3    C2 5805   1.228   3.279  11.593 -0.3541  0.6859 -0.6811
  385TMC3    C3 5806   1.338   3.212  11.647  0.2507 -0.5359 -0.4899
  385TMC3    C4 5807   1.161   3.308  11.818  0.1352 -0.1660 -0.3307
  385TMC3    C5 5808   1.257   3.227  11.864  0.3535  0.1559  0.2373
  385TMC3    C6 5809   1.353   3.185  11.781  0.0402 -0.3188  0.7250
  385TMC3     C 5810   0.998   3.349  11.642  0.6342  0.3476 -0.7773
  385TMC3     O 5811   0.973   3.398  11.529  0.0393 -0.1363  0.7165
  385TMC3     H 5812   1.213   3.303  11.489 -0.4390 -1.5456 -1.1831
  385TMC3    H1 5813   1.099   3.351  11.896  0.5088  0.4183 -0.3556
  385TMC3    H2 5814   1.435   3.128  11.823 -2.0730 -3.5779  0.4570
  385TMC3    C7 5815   1.186   3.118  11.939  0.1606 -0.3738  0.6117
  385TMC3    C8 5816   1.424   3.128  11.562  0.2979  0.1378 -0.8631
  385TMC3    O1 5817   1.064   3.123  11.920 -0.7975  0.3550 -0.6099
  385TMC3    O2 5818   1.539   3.107  11.598 -0.0291 -0.7304  0.0514
  386TMC3    C1 5819   1.387   0.243  11.711 -0.2880 -0.5176 -0.5218
  386TMC3    C2 5820   1.363   0.244  11.576  0.0356  0.0545 -0.5129
  386TMC3    C3 5821   1.247   0.305  11.540  0.5528 -0.2355  0.0088
  386TMC3    C4 5822   1.303   0.285  11.809 -0.2641 -0.3820  0.1133
  386TMC3    C5 5823   1.180   0.338  11.766  0.2176 -0.4437  0.1141
  386TMC3    C6 5824   1.156   0.354  11.630  0.2985  0.0020 -0.3360
  386TMC3     C 5825   1.499   0.164  11.754 -0.5934 -0.1510 -0.3632
  386TMC3     O 5826   1.604   0.208  11.709 -0.1466 -0.1022  0.1680
  386TMC3     H 5827   1.437   0.204  11.508  0.2800 -1.6751  0.7763
  386TMC3    H1 5828   1.332   0.278  11.913  2.5939 -1.0723 -0.7427
  386TMC3    H2 5829   1.056   0.386  11.601 -0.1939  0.9098  2.3562
  386TMC3    C7 5830   1.094   0.401  11.859  0.3954 -0.2223  0.3390
  386TMC3    C8 5831   1.204   0.290  11.402 -0.6986 -0.4176  0.3896
  386TMC3    O1 5832   1.024   0.491  11.814  0.0637  0.1137  0.3138
  386TMC3    O2 5833   1.254   0.202  11.338  0.4728 -0.3459  0.2187
  387MPD2     C 5834   3.124   0.701   9.751  0.8737 -0.8403 -0.1890
  387MPD2    C1 5835   3.205   0.639   9.843 -0.3692 -0.8425  0.9270
  387MPD2    C2 5836   3.196   0.506   9.873 -0.7894 -0.5605  0.7640
  387MPD2    C3 5837   3.081   0.435   9.836 -0.1042 -0.2270  0.4493
  387MPD2    C4 5838   2.994   0.489   9.746  0.4880  0.1656  1.2073
  387MPD2    C5 5839   3.018   0.624   9.711 -0.2222 -0.4905  0.5192
  387MPD2     H 5840   3.269   0.453   9.933  0.4455 -0.7394 -0.9216
  387MPD2    H1 5841   2.907   0.438   9.707  1.2983  0.7976 -1.4481
  387MPD2    H2 5842   3.134   0.806   9.726  0.9805 -0.6354  0.7180
  387MPD2    H3 5843   2.942   0.661   9.643  0.8502 -0.6504 -0.7642
  387MPD2     N 5844   3.065   0.312   9.899 -0.2036  0.7146  0.7029
  387MPD2    H5 5845   3.133   0.286   9.969  1.8132  3.3490 -0.2817
  387MPD2    N1 5846   3.307   0.710   9.918  0.0086 -0.6460 -0.1488
  387MPD2    H7 5847   3.383   0.655   9.956  0.2053 -1.0030 -1.0520
  388TMC3    C1 5848   3.413   0.877  10.049 -0.2331  0.3959 -0.0860
  388TMC3    C2 5849   3.436   1.010  10.072 -0.1242 -0.1708  0.4382
  388TMC3    C3 5850   3.515   1.038  10.181  0.2234 -0.1047  0.5736
  388TMC3    C4 5851   3.453   0.780  10.128 -0.8178 -0.0339 -0.6930
  388TMC3    C5 5852   3.530   0.807  10.238 -0.2910  0.6036 -0.1977
  388TMC3    C6 5853   3.570   0.938  10.257 -0.5569  0.7524  0.0171
  388TMC3     C 5854   3.308   0.845   9.950 -0.6204 -0.4831 -0.1719
  388TMC3     O 5855   3.232   0.931   9.906 -0.0360 -0.1787 -0.2811
  388TMC3     H 5856   3.405   1.085  10.000 -3.4359 -0.6390  1.3976
  388TMC3    H1 5857   3.394   0.690  10.129 -2.3942  1.0153  0.4656
  388TMC3    H2 5858   3.609   0.958  10.356 -1.2869  1.1018  0.2409
  388TMC3    C7 5859   3.541   0.707  10.346  0.7751  0.2176  0.7895
  388TMC3    C8 5860   3.552   1.176  10.210  0.1512 -0.3185 -0.3715
  388TMC3    O1 5861   3.540   0.738  10.465 -0.3194  0.0635 -0.6460
  388TMC3    O2 5862   3.549   1.256  10.118  0.5646 -0.0103 -0.0453
  389MPD2     C 5863   2.064   3.616  10.765  0.2489  0.1261  0.1188
  389MPD2    C1 5864   2.193   3.552  10.770 -0.4646 -0.1796 -0.7063
  389MPD2    C2 5865   2.223   3.493  10.889  0.0387 -0.2939  0.1729
  389MPD2    C3 5866   2.147   3.514  11.003  0.4522 -0.0797  0.7533
  389MPD2    C4 5867   2.040   3.589  10.997 -0.5733 -0.0904  0.2585
  389MPD2    C5 5868   1.996   3.641  10.874  0.8242 -0.0799  0.2269
  389MPD2     H 5869   2.311   3.431  10.899  1.5834  1.9621  0.6807
  389MPD2    H1 5870   1.983   3.606  11.087 -1.8547 -2.4319 -0.1072
  389MPD2    H2 5871   2.021   3.639  10.669  0.6532  1.6830  0.3211
  389MPD2    H3 5872   1.898   3.688  10.871  1.4725  1.1693 -1.5628
  389MPD2     N 5873   2.173   3.445  11.120 -0.0060 -0.2498 -0.1899
  389MPD2    H5 5874   2.133   3.477  11.208 -0.8670  0.4001 -0.8234
  389MPD2    N1 5875   2.276   3.539  10.659 -0.1428  0.1210 -0.7267
  389MPD2    H7 5876   2.242   3.580  10.573 -1.3308  0.6139 -0.0190
  390TMC3    C1 5877   2.300   3.290  11.251 -0.6503 -0.6419 -1.0723
  390TMC3    C2 5878   2.327   3.158  11.269  0.4819  0.2507 -0.5411
  390TMC3    C3 5879   2.401   3.117  11.375 -0.2064  0.8874 -0.6828
  390TMC3    C4 5880   2.332   3.381  11.351 -0.4085 -0.0837  0.3912
  390TMC3    C5 5881   2.388   3.331  11.461  1.0742 -0.6179 -0.2853
  390TMC3    C6 5882   2.434   3.204  11.473 -0.2685 -0.0272  0.2682
  390TMC3     C 5883   2.248   3.329  11.118 -0.9878 -0.2664  0.0396
  390TMC3     O 5884   2.270   3.246  11.028 -0.1268  0.0922 -0.1210
  390TMC3     H 5885   2.305   3.084  11.194  1.6371  0.3105 -0.9479
  390TMC3    H1 5886   2.310   3.487  11.344 -2.3309 -0.6204 -1.9134
  390TMC3    H2 5887   2.530   3.187  11.520 -0.7191 -0.6882  0.9432
  390TMC3    C7 5888   2.309   3.371  11.570 -0.1743  1.0793  0.4871
  390TMC3    C8 5889   2.373   2.978  11.411  0.8063  0.9667 -0.4300
  390TMC3    O1 5890   2.217   3.446  11.544  0.2705 -0.4563  0.8274
  390TMC3    O2 5891   2.316   2.906  11.333  0.2596 -0.1333  0.0594
  391MPD2     C 5892   1.966   4.713  11.261  0.2372 -0.4596 -0.6744
  391MPD2    C1 5893   2.061   0.053  11.200  0.3488  0.5395 -0.0103
  391MPD2    C2 5894   2.016   0.132  11.086 -0.2104  0.4970  0.2982
  391MPD2    C3 5895   1.884   0.139  11.044 -0.1412  0.0522 -0.0333
  391MPD2    C4 5896   1.792   0.060  11.116  0.4284  0.2143  0.0365
  391MPD2    C5 5897   1.840   4.724  11.220  0.0341 -0.4457 -0.3269
  391MPD2     H 5898   2.088   0.206  11.053 -0.0870  0.3626  0.2643
  391MPD2    H1 5899   1.686   0.066  11.092  0.2280 -1.5138  0.4838
  391MPD2    H2 5900   2.000   4.656  11.347 -0.2332  0.4248  0.1053
  391MPD2    H3 5901   1.776   4.657  11.277 -0.7666 -0.5600 -1.3626
  391MPD2     N 5902   1.858   0.229  10.942  0.0368  0.3885  0.1299
  391MPD2    H5 5903   1.925   0.305  10.934  0.1467  0.2422 -0.3454
  391MPD2    N1 5904   2.189   0.044  11.250 -0.4619 -1.0323  0.4189
  391MPD2    H7 5905   2.201   4.727  11.333  0.0076  0.2444  1.2440
  392TMC3    C1 5906   1.712   0.358  10.795 -0.1876  0.0637 -0.8030
  392TMC3    C2 5907   1.593   0.374  10.725  0.7184 -0.0075 -0.0328
  392TMC3    C3 5908   1.565   0.498  10.678 -0.3992  0.0388  0.4177
  392TMC3    C4 5909   1.788   0.469  10.828  0.0018  0.2911 -0.8814
  392TMC3    C5 5910   1.753   0.594  10.784 -0.2972  0.5433  0.5658
  392TMC3    C6 5911   1.646   0.604  10.702 -0.3761  0.1115 -0.0160
  392TMC3     C 5912   1.740   0.235  10.865 -1.1156  0.0106  0.1904
  392TMC3     O 5913   1.664   0.139  10.849  0.5087  0.7026 -0.6443
  392TMC3     H 5914   1.522   0.293  10.717 -0.6182  1.1975 -0.5011
  392TMC3    H1 5915   1.877   0.449  10.885  0.6196 -0.9082 -2.2639
  392TMC3    H2 5916   1.608   0.695  10.655  1.7375  0.4245 -1.1412
  392TMC3    C7 5917   1.865   0.675  10.752  0.2822  0.0063  0.5480
  392TMC3    C8 5918   1.469   0.507  10.575 -0.1617 -0.0147 -0.3068
  392TMC3    O1 5919   1.971   0.663  10.810 -0.2159 -0.0017  0.7111
  392TMC3    O2 5920   1.386   0.597  10.567  0.0425 -0.2319 -0.3527
  393TMC3    C1 5921   0.523   2.882  10.962 -0.5024 -0.1198  0.4101
  393TMC3    C2 5922   0.428   2.804  11.019 -0.2583 -0.7505 -0.1230
  393TMC3    C3 5923   0.450   2.671  11.032  0.3938  0.0459 -0.4007
  393TMC3    C4 5924   0.644   2.835  10.924  0.4378  0.1251 -0.5999
  393TMC3    C5 5925   0.662   2.704  10.944  0.3848  0.5129  0.5981
  393TMC3    C6 5926   0.576   2.615  11.000  0.0928 -0.2898 -0.0253
  393TMC3     C 5927   0.485   3.012  10.904  0.2864 -0.4013 -0.6965
  393TMC3     O 5928   0.369   3.017  10.863 -0.1330 -0.5640 -0.3050
  393TMC3     H 5929   0.337   2.853  11.052  0.5516  0.5069  0.2273
  393TMC3    H1 5930   0.720   2.886  10.867 -0.0906 -0.9425 -2.2631
  393TMC3    H2 5931   0.596   2.508  10.998  0.1421 -0.2743 -0.3942
  393TMC3    C7 5932   0.791   2.642  10.909 -0.4378  0.5707  0.3213
  393TMC3    C8 5933   0.356   2.593  11.108 -0.0084 -0.0819 -0.4195
  393TMC3    O1 5934   0.791   2.523  10.883 -0.1550 -0.6578  0.4953
  393TMC3    O2 5935   0.241   2.636  11.118  0.8424 -0.0264 -0.0966
  394TMC3    C1 5936   2.455   3.473  10.523  0.8750  0.3108 -0.3094
  394TMC3    C2 5937   2.378   3.490  10.416 -0.3937  0.2087 -0.5663
  394TMC3    C3 5938   2.435   3.558  10.312  0.4224 -0.4957 -0.1201
  394TMC3    C4 5939   2.589   3.496  10.518 -0.2054  0.6239  0.7720
  394TMC3    C5 5940   2.648   3.556  10.411 -0.5359 -0.0222 -0.5557
  394TMC3    C6 5941   2.568   3.599  10.302  0.0943  0.8162  0.1269
  394TMC3     C 5942   2.398   3.473  10.655 -0.5356 -0.1602 -0.2663
  394TMC3     O 5943   2.464   3.435  10.749 -0.2568 -0.0457 -0.4169
  394TMC3     H 5944   2.273   3.463  10.409 -0.1433 -1.1320  1.0533
  394TMC3    H1 5945   2.645   3.497  10.610  0.5775  0.9710  0.2930
  394TMC3    H2 5946   2.607   3.659  10.220  1.1306  2.4239  1.7968
  394TMC3    C7 5947   2.771   3.624  10.428  0.0282 -0.0948 -0.5039
  394TMC3    C8 5948   2.372   3.567  10.184 -0.6972 -0.1751 -0.7929
  394TMC3    O1 5949   2.792   3.727  10.366  0.0539  0.1920  0.1444
  394TMC3    O2 5950   2.401   3.668  10.120 -0.3899 -0.0690  0.4737
  395TMC3    C1 5951   1.871   0.717  14.695 -0.5497  0.0650  0.5016
  395TMC3    C2 5952   1.905   0.588  14.658 -0.0426 -0.4718 -0.0152
  395TMC3    C3 5953   2.036   0.565  14.620  0.7535 -0.1037  0.5538
  395TMC3    C4 5954   1.963   0.814  14.697 -0.1996 -0.4892 -0.8895
  395TMC3    C5 5955   2.093   0.786  14.659  0.0780 -1.2102  0.2016
  395TMC3    C6 5956   2.131   0.660  14.620  0.0395 -0.6369  0.3002
  395TMC3     C 5957   1.739   0.753  14.717  0.2954  0.0322 -0.5058
  395TMC3     O 5958   1.726   0.849  14.791  0.2624 -0.1008 -0.0244
  395TMC3     H 5959   1.831   0.510  14.663  2.5102 -2.9135 -0.3796
  395TMC3    H1 5960   1.933   0.918  14.703  1.5804  0.1033 -2.3789
  395TMC3    H2 5961   2.236   0.635  14.613  0.9689  3.4862 -0.6414
  395TMC3    C7 5962   2.186   0.901  14.619  0.1542  0.3240  0.1380
  395TMC3    C8 5963   2.081   0.426  14.604  0.1446  0.6252 -0.2933
  395TMC3    O1 5964   2.145   1.012  14.656 -0.3507  0.1585 -0.1705
  395TMC3    O2 5965   2.201   0.399  14.625 -0.1075 -0.0254 -0.3302
  396MPD2     C 5966   1.879   1.512  17.061  0.0003  0.4862 -0.2569
  396MPD2    C1 5967   1.925   1.594  17.161  0.6411 -0.5812  0.7116
  396MPD2    C2 5968   1.931   1.732  17.135  0.1000  0.2771  0.3751
  396MPD2    C3 5969   1.897   1.786  17.011 -0.2035  0.0803 -0.3832
  396MPD2    C4 5970   1.862   1.693  16.914  0.0508  1.4023 -0.2563
  396MPD2    C5 5971   1.857   1.564  16.937 -1.1248  0.3490 -0.4462
  396MPD2     H 5972   1.958   1.805  17.211  0.3789 -0.7725  1.2885
  396MPD2    H1 5973   1.854   1.729  16.812  2.0734 -0.4451 -1.0627
  396MPD2    H2 5974   1.866   1.406  17.076  0.5008  0.2742 -1.3451
  396MPD2    H3 5975   1.824   1.498  16.857 -1.4887  0.8005 -0.6717
  396MPD2     N 5976   1.912   1.928  16.983  0.2736 -0.5035 -0.6361
  396MPD2    H5 5977   1.962   1.977  17.057 -2.0314  0.2213  0.4400
  396MPD2    N1 5978   1.967   1.538  17.287 -0.1593 -0.2340 -0.5800
  396MPD2    H7 5979   1.964   1.437  17.297  0.5948 -0.2993 -0.9692
  397TMC3    C1 5980   2.071   1.515  17.496 -0.3046  0.0239 -0.3688
  397TMC3    C2 5981   2.199   1.480  17.475 -0.4169  0.2295  0.6552
  397TMC3    C3 5982   2.224   1.348  17.450 -1.0728 -0.2177 -0.0516
  397TMC3    C4 5983   1.972   1.425  17.532  0.2727 -0.0070 -0.2115
  397TMC3    C5 5984   2.003   1.295  17.539  0.2754 -1.0877 -0.2671
  397TMC3    C6 5985   2.128   1.255  17.493  0.3009  0.1635 -0.2163
  397TMC3     C 5986   2.029   1.604  17.383 -0.3362  1.0172  0.7044
  397TMC3     O 5987   2.071   1.719  17.389  0.0246  0.5889  0.0514
  397TMC3     H 5988   2.274   1.550  17.439 -0.1382  0.9674  2.6583
  397TMC3    H1 5989   1.874   1.461  17.562  0.6728  0.0699  0.9766
  397TMC3    H2 5990   2.129   1.150  17.470 -2.1919 -0.3991  2.2260
  397TMC3    C7 5991   1.901   1.200  17.527  0.0517 -0.8288  0.0678
  397TMC3    C8 5992   2.267   1.318  17.315 -0.0699 -0.4390  0.6215
  397TMC3    O1 5993   1.891   1.159  17.409  0.4324  0.0437 -0.0779
  397TMC3    O2 5994   2.179   1.296  17.233  0.1055 -0.9187  0.3371
  398MPD2     C 5995   0.052   3.127   0.215  0.5673 -0.0263 -0.5834
  398MPD2    C1 5996   0.161   3.043   0.216  0.0580  0.8045 -0.2687
  398MPD2    C2 5997   0.285   3.095   0.183 -0.7011  0.2651  0.0046
  398MPD2    C3 5998   0.304   3.231   0.154 -0.0854 -0.5773  0.6874
  398MPD2    C4 5999   0.195   3.313   0.178 -0.4477 -0.4743  0.0007
  398MPD2    C5 6000   0.067   3.260   0.192  0.5160 -0.0660 -0.4828
  398MPD2     H 6001   0.369   3.028   0.169 -2.2631 -1.9285  1.0124
  398MPD2    H1 6002   0.196   3.422   0.175  1.6373 -0.3832  3.9922
  398MPD2    H2 6003   4.689   3.101   0.227  0.9581 -0.7824  1.1768
  398MPD2    H3 6004   4.720   3.323   0.198  1.4075  1.0903  0.4567
  398MPD2     N 6005   0.439   3.278   0.131  0.1316 -0.3209  0.0009
  398MPD2    H5 6006   0.507   3.204   0.118  0.9645  0.6071 -0.9240
  398MPD2    N1 6007   0.158   2.912   0.265  0.1878 -0.1077 -0.3501
  398MPD2    H7 6008   0.246   2.862   0.268 -0.7512 -1.6894  1.2027
  399TMC3    C1 6009   0.079   2.707   0.352  0.3671 -0.2403  0.3148
  399TMC3    C2 6010   0.212   2.663   0.362 -0.3155  1.8149  0.3119
  399TMC3    C3 6011   0.240   2.525   0.359 -0.2653  0.1153 -0.3543
  399TMC3    C4 6012   4.717   2.617   0.333 -0.9115  1.0047  0.3082
  399TMC3    C5 6013   0.002   2.486   0.337 -0.6342  0.2816  0.1536
  399TMC3    C6 6014   0.130   2.437   0.350  0.2962 -0.3970 -0.8417
  399TMC3     C 6015   0.055   2.839   0.308  0.1731 -0.1721  0.6305
  399TMC3     O 6016   4.677   2.876   0.296 -0.2487  0.1292 -0.5915
  399TMC3     H 6017   0.290   2.733   0.388 -0.6195  1.9129  0.9505
  399TMC3    H1 6018   4.622   2.666   0.320 -0.3407  2.1915  0.5762
  399TMC3    H2 6019   0.137   2.329   0.363 -1.4857 -0.2895  0.9664
  399TMC3    C7 6020   4.632   2.388   0.335  0.1275 -0.0155 -0.1380
  399TMC3    C8 6021   0.373   2.482   0.415  0.2547  0.1625 -0.5669
  399TMC3    O1 6022   4.664   2.274   0.301  0.0133 -0.5653 -0.4101
  399TMC3    O2 6023   0.440   2.562   0.483  0.4426 -0.1779 -0.1778
  400TMC3    C1 6024   3.496   1.304  16.917 -0.2099  0.0085 -0.0757
  400TMC3    C2 6025   3.378   1.296  16.844  0.2473 -0.7964 -0.0753
  400TMC3    C3 6026   3.283   1.394  16.846  0.1995 -0.8183 -0.3649
  400TMC3    C4 6027   3.513   1.418  16.993 -0.1317  0.9261 -1.2462
  400TMC3    C5 6028   3.413   1.516  16.985  0.9730  0.8503 -0.4226
  400TMC3    C6 6029   3.295   1.503  16.924 -0.5689  0.5214 -0.1573
  400TMC3     C 6030   3.551   1.180  16.965 -0.2801 -0.4641  0.1121
  400TMC3     O 6031   3.563   1.100  16.873 -0.5109 -0.1244 -0.1205
  400TMC3     H 6032   3.358   1.206  16.788 -1.6512 -1.1399  1.1634
  400TMC3    H1 6033   3.584   1.425  17.075  0.1868 -2.5082 -1.2247
  400TMC3    H2 6034   3.217   1.577  16.911 -1.2324 -0.1942 -0.3018
  400TMC3    C7 6035   3.434   1.629  17.072  0.3537 -0.5772 -0.3882
  400TMC3    C8 6036   3.149   1.383  16.787  0.6134  0.1835 -0.2073
  400TMC3    O1 6037   3.551   1.660  17.093  0.5202  0.5071 -0.7983
  400TMC3    O2 6038   3.080   1.482  16.784  0.1475 -0.3744 -0.2112
  401MPD2     C 6039   0.832   4.637   1.137 -0.0850  0.2495 -0.4963
  401MPD2    C1 6040   0.958   4.597   1.179  0.4000 -0.7980  0.1450
  401MPD2    C2 6041   0.990   4.465   1.178  0.0207 -0.0481 -0.2277
  401MPD2    C3 6042   0.900   4.369   1.144 -0.1170  0.3539 -0.5226
  401MPD2    C4 6043   0.783   4.410   1.085  0.1415  0.4007  0.3609
  401MPD2    C5 6044   0.752   4.543   1.085 -0.0528  0.6409 -0.2463
  401MPD2     H 6045   1.088   4.435   1.215 -0.8292 -0.8474  1.3342
  401MPD2    H1 6046   0.708   4.342   1.045 -0.6067 -0.0492  2.5537
  401MPD2    H2 6047   0.805   0.000   1.129 -0.5429  0.0551 -1.3750
  401MPD2    H3 6048   0.657   4.570   1.038 -0.1462 -0.5940 -0.7825
  401MPD2     N 6049   0.937   4.231   1.158 -0.1135  0.2442 -0.2812
  401MPD2    H5 6050   1.030   4.220   1.196 -0.1396  1.7361  0.2270
  401MPD2    N1 6051   1.070   4.682   1.191 -0.3573  0.3482  0.1031
  401MPD2    H7 6052   1.159   4.640   1.217 -1.0330 -2.1190 -1.6058
  402TMC3    C1 6053   0.924   4.000   1.125 -0.2478  0.1046 -0.2023
  402TMC3    C2 6054   1.009   3.980   1.234 -0.0458 -0.0696 -0.4094
  402TMC3    C3 6055   1.078   3.866   1.257  0.5986 -0.5751  0.1901
  402TMC3    C4 6056   0.916   3.904   1.027 -0.2426  0.2260  0.8259
  402TMC3    C5 6057   1.001   3.797   1.042 -0.4520  0.1763  0.0857
  402TMC3    C6 6058   1.081   3.770   1.152 -0.2123  0.3345 -0.4478
  402TMC3     C 6059   0.862   4.127   1.110  0.6236 -0.8017  0.4677
  402TMC3     O 6060   0.747   4.127   1.068 -0.0518  0.0480 -0.0715
  402TMC3     H 6061   1.007   4.060   1.307 -1.6030 -2.6219  2.3116
  402TMC3    H1 6062   0.847   3.917   0.944  0.3419  0.4497  0.3735
  402TMC3    H2 6063   1.148   3.685   1.163  1.0043  1.5495  1.6077
  402TMC3    C7 6064   1.043   3.735   0.918 -0.3270 -0.2797  0.2964
  402TMC3    C8 6065   1.209   3.882   1.309 -0.1177  0.1812  0.1154
  402TMC3    O1 6066   1.089   3.621   0.925  0.4724  0.0342  0.0179
  402TMC3    O2 6067   1.297   3.802   1.283  0.1036  0.1775 -0.4040
  403MPD2     C 6068   0.261   2.499  13.240 -0.6496 -0.6812 -0.1443
  403MPD2    C1 6069   0.279   2.459  13.375 -0.6455 -0.2776  0.1355
  403MPD2    C2 6070   0.322   2.556  13.463  0.3138 -0.4310  0.1886
  403MPD2    C3 6071   0.318   2.691  13.428 -0.3082 -0.1681 -0.4029
  403MPD2    C4 6072   0.292   2.727  13.302 -0.0940 -0.2960  0.0197
  403MPD2    C5 6073   0.275   2.629  13.203 -0.1958 -0.6309 -0.4736
  403MPD2     H 6074   0.339   2.532  13.567 -1.2859 -1.0790  0.2859
  403MPD2    H1 6075   0.295   2.832  13.275 -0.1449 -0.3230 -0.0944
  403MPD2    H2 6076   0.242   2.421  13.167 -0.4914 -2.7875  2.0878
  403MPD2    H3 6077   0.261   2.656  13.099  1.3102  1.4725 -0.1436
  403MPD2     N 6078   0.361   2.781  13.525  0.1982  0.1056 -0.0204
  403MPD2    H5 6079   0.438   2.749  13.582 -0.5088  0.7271  1.2735
  403MPD2    N1 6080   0.249   2.321  13.405 -0.4268  0.0302 -0.4542
  403MPD2    H7 6081   0.218   2.264  13.327 -1.5638  2.9508 -2.1472
  404TMC3    C1 6082   0.209   2.144  13.559 -0.5415 -0.7138  0.7915
  404TMC3    C2 6083   0.246   2.092  13.681 -0.3583 -0.1943  0.5892
  404TMC3    C3 6084   0.209   1.959  13.703 -0.1780 -1.1497  0.8414
  404TMC3    C4 6085   0.132   2.082  13.469  0.1116  0.6359  0.7319
  404TMC3    C5 6086   0.088   1.957  13.498 -0.2798  0.0689 -0.3228
  404TMC3    C6 6087   0.122   1.889  13.614  0.1108  0.3196  0.4412
  404TMC3     C 6088   0.275   2.270  13.531 -0.7489 -0.0263  0.3120
  404TMC3     O 6089   0.351   2.313  13.618  0.0768 -0.5617 -0.0162
  404TMC3     H 6090   0.315   2.135  13.753  0.9031 -0.7882 -0.2738
  404TMC3    H1 6091   0.100   2.134  13.379  1.4592  0.0950 -0.0679
  404TMC3    H2 6092   0.089   1.787  13.624  0.9508  0.1206  1.1585
  404TMC3    C7 6093   0.040   1.874  13.391  0.2684  0.0910 -0.0170
  404TMC3    C8 6094   0.240   1.900  13.838 -0.6030  0.1257  0.7842
  404TMC3    O1 6095   0.057   1.753  13.407 -0.4140  0.3715  0.1639
  404TMC3    O2 6096   0.347   1.934  13.887  0.5038  0.2998 -0.1102
  405MPD2     C 6097   0.329   3.921  15.398 -0.0695 -0.4531 -0.0610
  405MPD2    C1 6098   0.361   3.827  15.303 -0.3788  0.7479 -0.2167
  405MPD2    C2 6099   0.306   3.845  15.176 -0.0552  0.4830 -0.0871
  405MPD2    C3 6100   0.226   3.956  15.145 -0.7350  0.6401  0.2265
  405MPD2    C4 6101   0.209   4.050  15.235  0.0242 -0.4134  0.4192
  405MPD2    C5 6102   0.247   4.025  15.366  0.7721  0.3796 -0.0767
  405MPD2     H 6103   0.322   3.768  15.101 -1.0975 -0.3943  0.5932
  405MPD2    H1 6104   0.148   4.138  15.216  0.2471 -0.0843  1.2198
  405MPD2    H2 6105   0.365   3.910  15.500 -1.9547  0.7466  0.7235
  405MPD2    H3 6106   0.227   4.096  15.446  0.8308 -0.3293  0.5700
  405MPD2     N 6107   0.165   3.957  15.016  0.3485  0.4195 -0.4609
  405MPD2    H5 6108   0.191   3.882  14.953 -3.1992 -1.1124 -0.1083
  405MPD2    N1 6109   0.438   3.715  15.343 -0.0349  0.7475  0.1873
  405MPD2    H7 6110   0.449   3.709  15.443  1.7186 -1.3007 -0.1319
  406TMC3    C1 6111   4.607   3.968  14.680 -0.0083 -0.2652  0.2952
  406TMC3    C2 6112   4.610   3.831  14.663 -0.1366 -0.0192  0.8272
  406TMC3    C3 6113   4.674   3.756  14.770 -0.0089 -0.2220 -0.2179
  406TMC3    C4 6114   4.660   4.026  14.792  0.0650  0.3128  0.1713
  406TMC3    C5 6115   4.718   3.953  14.888 -0.7452 -0.3141 -0.9675
  406TMC3    C6 6116   4.723   3.818  14.882 -0.2775 -0.2291 -0.1230
  406TMC3     C 6117   4.613   4.050  14.560 -1.0763 -0.0033 -0.4488
  406TMC3     O 6118   4.711   4.122  14.549  0.0593  0.0747  0.1159
  406TMC3     H 6119   4.579   3.782  14.571  2.7571 -2.9386  1.4298
  406TMC3    H1 6120   4.676   4.133  14.799 -0.2904  0.4875 -1.6683
  406TMC3    H2 6121   0.024   3.759  14.963  0.7953  0.9579  0.1976
  406TMC3    C7 6122   0.055   4.032  14.983 -0.3509  1.1121 -0.1769
  406TMC3    C8 6123   4.708   3.617  14.743  0.5766 -0.3043 -0.6311
  406TMC3    O1 6124   0.002   4.132  15.030 -0.3550  0.0671  0.5252
  406TMC3    O2 6125   4.634   3.554  14.669  0.2805 -0.7311 -0.2280
  407MPD2     C 6126   2.339   4.377   9.817  0.6253 -0.3414 -0.6910
  407MPD2    C1 6127   2.459   4.438   9.816 -0.7479  0.2685 -0.5319
  407MPD2    C2 6128   2.464   4.570   9.841 -0.6465 -0.3430 -0.0258
  407MPD2    C3 6129   2.343   4.644   9.864  0.3853  0.2164  0.1595
  407MPD2    C4 6130   2.230   4.574   9.870  0.0679 -0.2580 -0.0646
  407MPD2    C5 6131   2.225   4.440   9.850  0.1999 -0.5334 -0.2409
  407MPD2     H 6132   2.560   4.617   9.831 -0.6872 -0.2964 -0.2044
  407MPD2    H1 6133   2.141   4.631   9.896 -0.5385 -0.5755 -1.4389
  407MPD2    H2 6134   2.323   4.273   9.788  1.8935 -1.1179  1.4205
  407MPD2    H3 6135   2.130   4.388   9.856 -0.1193  0.1090  0.2381
  407MPD2     N 6136   2.341   0.038   9.888 -0.3963  0.3287 -0.0310
  407MPD2    H5 6137   2.253   0.080   9.915  0.2065  1.8914 -0.4769
  407MPD2    N1 6138   2.583   4.373   9.809 -0.2605  0.2421 -0.7040
  407MPD2    H7 6139   2.664   4.432   9.824  0.7998 -1.1942 -0.8411
  408TMC3    C1 6140   2.737   4.191   9.803 -0.5012  0.1169 -0.0244
  408TMC3    C2 6141   2.849   4.269   9.794 -0.5908 -0.4074 -0.2612
  408TMC3    C3 6142   2.972   4.201   9.817  0.2911 -0.4289 -0.8691
  408TMC3    C4 6143   2.743   4.058   9.825  0.0262  0.1867  0.2365
  408TMC3    C5 6144   2.862   3.996   9.837 -0.8849  0.0026  0.2728
  408TMC3    C6 6145   2.980   4.065   9.845  0.2058 -0.1643 -0.4849
  408TMC3     C 6146   2.606   4.248   9.776 -0.2826 -0.8070 -0.4998
  408TMC3     O 6147   2.521   4.163   9.745  0.0135 -0.1952 -0.5697
  408TMC3     H 6148   2.845   4.377   9.806 -0.0379 -0.6976  2.4633
  408TMC3    H1 6149   2.651   4.000   9.823  0.7042 -0.8409 -0.9460
  408TMC3    H2 6150   3.079   4.022   9.856 -0.3787 -1.8086 -1.6854
  408TMC3    C7 6151   2.868   3.855   9.883 -1.0645 -0.0532 -0.0075
  408TMC3    C8 6152   3.101   4.264   9.836 -0.4058 -0.1378  0.2482
  408TMC3    O1 6153   2.951   3.823   9.965  0.7068  0.3659  0.0333
  408TMC3    O2 6154   3.181   4.204   9.901  0.1760  0.1665 -0.1368
  409MPD2     C 6155   2.211   0.602  16.911 -0.1339  0.6101  0.4221
  409MPD2    C1 6156   2.321   0.614  16.987  0.3188  0.6858 -0.0903
  409MPD2    C2 6157   2.412   0.712  16.953 -0.1578 -0.3695 -0.0977
  409MPD2    C3 6158   2.381   0.805  16.855  0.7244 -0.7579  0.4186
  409MPD2    C4 6159   2.270   0.790  16.777  0.7307 -0.0493  0.0255
  409MPD2    C5 6160   2.191   0.679  16.796  0.2556 -0.1838 -0.1446
  409MPD2     H 6161   2.493   0.726  17.024 -1.1569 -4.1242  1.7938
  409MPD2    H1 6162   2.242   0.856  16.695 -1.9751 -0.9648  0.2363
  409MPD2    H2 6163   2.122   0.544  16.934 -0.1469  0.6808  0.5538
  409MPD2    H3 6164   2.104   0.655  16.737 -0.3278 -0.3325  0.7702
  409MPD2     N 6165   2.457   0.919  16.833 -0.9852  0.2067  0.2763
  409MPD2    H5 6166   2.421   0.988  16.768 -0.1040  2.6375  2.3731
  409MPD2    N1 6167   2.339   0.542  17.106 -0.5206 -0.1769 -0.2239
  409MPD2    H7 6168   2.425   0.553  17.159 -2.1845  0.8439  2.2728
  410TMC3    C1 6169   2.625   1.077  16.863  0.3290 -0.6336  0.1156
  410TMC3    C2 6170   2.710   1.134  16.955 -0.0268 -0.4782 -0.4337
  410TMC3    C3 6171   2.756   1.260  16.932 -0.6419  0.4579 -0.0902
  410TMC3    C4 6172   2.572   1.159  16.766  0.1192  0.9430 -0.0323
  410TMC3    C5 6173   2.608   1.289  16.757  0.1257 -0.5404 -0.7709
  410TMC3    C6 6174   2.703   1.345  16.837 -0.6560  0.1813  0.4488
  410TMC3     C 6175   2.576   0.944  16.897  0.1785  0.0419  0.5788
  410TMC3     O 6176   2.648   0.867  16.957  0.0096  0.1856 -0.1839
  410TMC3     H 6177   2.745   1.070  17.036  1.5173  0.2839 -0.4892
  410TMC3    H1 6178   2.512   1.115  16.688  0.6192 -0.7194  0.5221
  410TMC3    H2 6179   2.742   1.446  16.834 -0.5816  0.2148  2.5251
  410TMC3    C7 6180   2.557   1.361  16.641 -0.7838  0.0554  0.3749
  410TMC3    C8 6181   2.867   1.310  17.008 -0.0362  0.2491  0.2057
  410TMC3    O1 6182   2.479   1.301  16.569 -0.0294 -0.0396  0.6112
  410TMC3    O2 6183   2.868   1.424  17.053  0.4450  0.1297  0.0949
  411MPD2     C 6184   2.840   1.843  14.429 -0.5286  0.4662  0.0409
  411MPD2    C1 6185   2.722   1.848  14.491  0.0220  0.3288 -0.7581
  411MPD2    C2 6186   2.635   1.738  14.480 -0.3810 -0.1826  0.2153
  411MPD2    C3 6187   2.656   1.636  14.386  0.1465 -0.5175 -0.4907
  411MPD2    C4 6188   2.770   1.644  14.311  0.0080  0.2966 -0.2362
  411MPD2    C5 6189   2.862   1.738  14.345  0.7230  0.7023  0.1800
  411MPD2     H 6190   2.542   1.740  14.536  0.2975  0.9436  1.2957
  411MPD2    H1 6191   2.792   1.581  14.226  0.0070  0.4051 -0.3167
  411MPD2    H2 6192   2.916   1.917  14.451  0.7803 -0.7645 -0.3742
  411MPD2    H3 6193   2.959   1.736  14.297 -0.5167  0.1086 -2.2734
  411MPD2     N 6194   2.563   1.540  14.349 -0.0384  0.1419  0.1804
  411MPD2    H5 6195   2.565   1.486  14.263 -2.7362  0.7257 -0.2484
  411MPD2    N1 6196   2.690   1.967  14.566 -0.0630 -0.4437  0.5109
  411MPD2    H7 6197   2.742   2.050  14.542  0.6614 -0.8443  0.6811
  412TMC3    C1 6198   2.375   1.398  14.364 -0.3266  0.0762 -0.0495
  412TMC3    C2 6199   2.246   1.376  14.418  0.1417  0.2563 -0.5229
  412TMC3    C3 6200   2.189   1.255  14.405  0.3154 -0.8062  0.9478
  412TMC3    C4 6201   2.436   1.308  14.273  0.3433  0.5104 -0.1919
  412TMC3    C5 6202   2.361   1.198  14.253  0.3643 -0.2741  0.7745
  412TMC3    C6 6203   2.246   1.162  14.325  0.3016 -0.1114 -0.2272
  412TMC3     C 6204   2.447   1.516  14.418 -0.0576  0.5403 -0.2374
  412TMC3     O 6205   2.413   1.562  14.528  0.4508 -0.5847 -0.4667
  412TMC3     H 6206   2.202   1.461  14.469  1.1667  0.3687  0.1771
  412TMC3    H1 6207   2.537   1.322  14.237  0.9124 -0.2152  1.1080
  412TMC3    H2 6208   2.197   1.067  14.307 -1.4000  0.6790  0.2622
  412TMC3    C7 6209   2.344   1.161  14.112  0.1576  0.1092 -0.6883
  412TMC3    C8 6210   2.042   1.256  14.379 -0.3910 -0.0611 -0.4477
  412TMC3    O1 6211   2.266   1.072  14.083 -0.3987  0.0342  0.1906
  412TMC3    O2 6212   1.989   1.361  14.341  0.1490 -0.3156 -0.4239
  413MPD2     C 6213   3.263   3.895  15.179 -0.9116 -0.2568  0.5253
  413MPD2    C1 6214   3.280   3.853  15.048 -0.3237 -0.1594  0.1946
  413MPD2    C2 6215   3.408   3.845  15.004  0.0692  0.4600  0.1148
  413MPD2    C3 6216   3.517   3.866  15.093  0.5543  0.4337  0.5819
  413MPD2    C4 6217   3.495   3.905  15.224  0.2406  0.0891 -0.1094
  413MPD2    C5 6218   3.369   3.909  15.265  0.3822  0.6043 -0.2278
  413MPD2     H 6219   3.431   3.811  14.904  0.1361  0.8526 -0.0043
  413MPD2    H1 6220   3.581   3.935  15.284  1.0120 -1.3010 -0.5218
  413MPD2    H2 6221   3.165   3.909  15.225 -0.4205  3.0604  0.5829
  413MPD2    H3 6222   3.338   3.944  15.363  2.2116 -2.1877  1.3597
  413MPD2     N 6223   3.643   3.851  15.040 -0.0326  0.0261 -0.4002
  413MPD2    H5 6224   3.657   3.842  14.940 -0.7574 -2.4597 -0.2675
  413MPD2    N1 6225   3.163   3.832  14.971 -0.7981 -0.3441  0.4086
  413MPD2    H7 6226   3.076   3.832  15.023 -1.9002  0.5094 -1.4173
  414TMC3    C1 6227   3.876   3.826  15.044  0.7063 -0.4747  0.0015
  414TMC3    C2 6228   3.983   3.786  15.122 -0.5886  0.2014 -0.0404
  414TMC3    C3 6229   4.100   3.854  15.112 -0.2267 -0.2921 -0.2351
  414TMC3    C4 6230   3.897   3.929  14.960 -0.4815 -0.2669 -0.2207
  414TMC3    C5 6231   4.018   3.988  14.949 -0.8865 -0.2155  0.2079
  414TMC3    C6 6232   4.122   3.958  15.029 -0.6906 -0.1938  0.0403
  414TMC3     C 6233   3.756   3.830  15.120  0.6985 -0.5055 -0.2023
  414TMC3     O 6234   3.766   3.801  15.239 -0.2739 -0.1978 -0.2661
  414TMC3     H 6235   3.977   3.705  15.194 -1.3346  0.9957  0.7855
  414TMC3    H1 6236   3.822   3.957  14.887 -0.7982 -0.9355 -0.1459
  414TMC3    H2 6237   4.216   4.012  15.023 -0.6408 -0.0977  1.5617
  414TMC3    C7 6238   4.044   4.085  14.838 -0.2182 -0.0469  0.3862
  414TMC3    C8 6239   4.212   3.789  15.163 -0.5091 -0.1568 -0.0391
  414TMC3    O1 6240   3.982   4.073  14.738 -0.7333  0.0652 -0.6790
  414TMC3    O2 6241   4.205   3.670  15.196 -0.5848  0.2760  0.1255
  415TMC3    C1 6242   0.490   2.129  10.394  0.0578  0.0650  0.4351
  415TMC3    C2 6243   0.561   2.233  10.336 -0.0417  0.2248 -0.7801
  415TMC3    C3 6244   0.551   2.234  10.202 -0.3327 -0.1629  0.1723
  415TMC3    C4 6245   0.421   2.031  10.320  0.7410 -0.0559 -0.0599
  415TMC3    C5 6246   0.417   2.032  10.187 -0.1419  0.4358  0.2561
  415TMC3    C6 6247   0.482   2.139  10.131  0.0163  0.3267 -0.5400
  415TMC3     C 6248   0.477   2.104  10.536 -0.9732 -0.7120  0.5255
  415TMC3     O 6249   0.382   2.041  10.572  0.3313 -0.5817 -0.0958
  415TMC3     H 6250   0.607   2.314  10.391 -0.1374 -0.1185 -0.1966
  415TMC3    H1 6251   0.354   1.964  10.373 -0.4877  0.7300 -0.6127
  415TMC3    H2 6252   0.485   2.140  10.023  1.0860 -1.0965 -0.5311
  415TMC3    C7 6253   0.389   1.907  10.111  0.0765 -0.9961 -0.0790
  415TMC3    C8 6254   0.621   2.335  10.122 -0.3526  0.4845  0.3372
  415TMC3    O1 6255   0.385   1.920   9.988 -0.7874  0.3516  0.0782
  415TMC3    O2 6256   0.646   2.303  10.008  0.1977 -0.3302  0.2239
  416MPD2     C 6257   2.188   0.749  11.586 -0.8234 -0.8083  0.2072
  416MPD2    C1 6258   2.062   0.751  11.531  0.0414 -0.3247  0.5537
  416MPD2    C2 6259   2.041   0.676  11.418  0.1003 -0.2204 -0.1075
  416MPD2    C3 6260   2.142   0.609  11.362 -0.2932 -0.0100  0.3288
  416MPD2    C4 6261   2.274   0.618  11.404 -0.3323 -0.3599 -0.4335
  416MPD2    C5 6262   2.291   0.678  11.525 -0.0848  0.5089  0.2299
  416MPD2     H 6263   1.940   0.664  11.380  0.6949 -0.9387 -1.4987
  416MPD2    H1 6264   2.353   0.561  11.357  0.2103  0.1281 -0.1196
  416MPD2    H2 6265   2.222   0.801  11.675  0.7317 -1.0944 -0.2262
  416MPD2    H3 6266   2.390   0.687  11.567  0.8402 -1.7098 -1.4890
  416MPD2     N 6267   2.128   0.523  11.252  0.1507 -0.2312  0.0472
  416MPD2    H5 6268   2.211   0.503  11.197 -1.5582  1.0471 -2.9351
  416MPD2    N1 6269   1.963   0.823  11.603  0.1538 -0.7594 -0.1136
  416MPD2    H7 6270   1.986   0.859  11.695  0.3236 -1.7479  0.2325
  417TMC3    C1 6271   1.781   0.957  11.648 -0.3656 -0.0375 -0.3564
  417TMC3    C2 6272   1.786   0.941  11.787 -0.4473  1.0764 -0.6872
  417TMC3    C3 6273   1.771   1.051  11.869 -0.5811 -0.2046  0.3757
  417TMC3    C4 6274   1.729   1.079  11.603  0.3670  0.4203  0.8395
  417TMC3    C5 6275   1.722   1.185  11.691 -0.1184 -0.3005  0.6003
  417TMC3    C6 6276   1.746   1.175  11.819  0.6112  0.3685 -0.0825
  417TMC3     C 6277   1.840   0.858  11.558 -0.8276 -0.8165 -0.1922
  417TMC3     O 6278   1.803   0.854  11.445 -0.1438 -0.4240  0.0585
  417TMC3     H 6279   1.837   0.853  11.825  1.2088  1.6664 -1.5449
  417TMC3    H1 6280   1.721   1.093  11.496 -1.1005  2.3248  1.1916
  417TMC3    H2 6281   1.749   1.256  11.892  0.7731 -0.4124  0.7835
  417TMC3    C7 6282   1.663   1.304  11.643 -0.3410  0.1432 -0.3368
  417TMC3    C8 6283   1.753   1.035  12.011 -0.8959 -0.5985  0.1592
  417TMC3    O1 6284   1.667   1.329  11.522 -0.2972 -1.0938 -0.0082
  417TMC3    O2 6285   1.769   1.135  12.078  0.7423 -0.2385 -0.1807
  418TMC3    C1 6286   0.785   3.287   0.035 -0.8113  0.3288  0.1680
  418TMC3    C2 6287   0.672   3.364   0.017 -0.4647  0.4791 -0.1849
  418TMC3    C3 6288   0.616   3.423   0.125  0.6371  0.6655 -0.4771
  418TMC3    C4 6289   0.846   3.272   0.158  0.3502 -0.3005  0.7850
  418TMC3    C5 6290   0.783   3.331   0.264  0.0784  0.7469 -0.0546
  418TMC3    C6 6291   0.663   3.400   0.250 -0.5835  0.3822  0.3675
  418TMC3     C 6292   0.853   3.241  17.676 -0.2551 -0.5576 -0.2370
  418TMC3     O 6293   0.824   3.302  17.578 -0.3622  0.0213  0.1207
  418TMC3     H 6294   0.637   3.386  17.678 -0.4343 -0.0224 -0.3029
  418TMC3    H1 6295   0.935   3.216   0.182  0.2532  0.3714  2.7432
  418TMC3    H2 6296   0.602   3.450   0.325 -0.3570  0.8438  0.2460
  418TMC3    C7 6297   0.816   3.268   0.394 -0.1322  0.2443 -0.6763
  418TMC3    C8 6298   0.474   3.413   0.121  0.3428 -0.5400 -0.1105
  418TMC3    O1 6299   0.899   3.182   0.402  0.4586 -0.0456  0.1846
  418TMC3    O2 6300   0.407   3.519   0.124 -0.2695  0.5022  0.1612
  419MPD2     C 6301   4.267   0.992  12.414 -0.6071  0.1996  0.1615
  419MPD2    C1 6302   4.160   1.076  12.420 -0.5162  0.4295 -0.0827
  419MPD2    C2 6303   4.087   1.088  12.534  0.9599 -0.0855 -0.1045
  419MPD2    C3 6304   4.130   1.016  12.643 -0.3877 -0.3723 -0.3721
  419MPD2    C4 6305   4.232   0.918  12.626 -1.1700  0.4637  0.1315
  419MPD2    C5 6306   4.299   0.907  12.514 -0.4179  0.7758  0.5269
  419MPD2     H 6307   3.996   1.146  12.542  1.0489  0.0905 -0.3816
  419MPD2    H1 6308   4.257   0.849  12.706 -0.1052  0.9419  0.2036
  419MPD2    H2 6309   4.322   0.964  12.325  0.5192  1.6446  0.4004
  419MPD2    H3 6310   4.375   0.831  12.504  0.0530  1.1496  1.2278
  419MPD2     N 6311   4.069   1.048  12.768 -0.6682 -0.8976  0.4938
  419MPD2    H5 6312   3.997   1.119  12.764 -0.4326 -0.6806  0.1248
  419MPD2    N1 6313   4.127   1.149  12.301  0.2789  0.0122  0.2872
  419MPD2    H7 6314   4.036   1.193  12.298  1.0216  1.2956 -3.7250
  420TMC3    C1 6315   3.980   0.977  12.987  0.3698  0.4940  0.4404
  420TMC3    C2 6316   3.873   1.058  12.965 -0.3231 -0.6678 -0.0906
  420TMC3    C3 6317   3.782   1.077  13.065  0.2453 -0.5114 -0.5771
  420TMC3    C4 6318   4.005   0.917  13.105 -0.0666  0.1568  0.2261
  420TMC3    C5 6319   3.912   0.946  13.202  0.5906  0.6166 -0.1803
  420TMC3    C6 6320   3.790   1.002  13.183 -0.2987  0.3578 -0.2811
  420TMC3     C 6321   4.077   0.969  12.881  0.0067 -0.1500 -0.5306
  420TMC3     O 6322   4.167   0.893  12.912 -0.1851  0.1229 -0.1719
  420TMC3     H 6323   3.855   1.112  12.873 -2.2789 -1.2718 -0.0718
  420TMC3    H1 6324   4.092   0.855  13.120 -0.2089  0.4334  2.1392
  420TMC3    H2 6325   3.724   1.004  13.269 -1.5720  1.4977 -1.2806
  420TMC3    C7 6326   3.958   0.940  13.340  0.4874 -0.2607  0.2770
  420TMC3    C8 6327   3.699   1.193  13.061  0.0572  0.8420 -0.1820
  420TMC3    O1 6328   3.877   0.935  13.431  0.2857  0.1278 -0.2259
  420TMC3    O2 6329   3.678   1.246  12.952  0.0543 -0.0190  0.2526
  421TMC3    C1 6330   0.424   2.975  13.625 -0.5764 -0.2737 -0.3626
  421TMC3    C2 6331   0.393   3.100  13.688  0.5783  0.2483 -0.4644
  421TMC3    C3 6332   0.496   3.159  13.758  0.5389  0.4894 -0.3866
  421TMC3    C4 6333   0.550   2.917  13.636 -0.0710 -0.4394 -0.0583
  421TMC3    C5 6334   0.647   2.986  13.706 -0.2322 -0.3637  0.3264
  421TMC3    C6 6335   0.620   3.110  13.763 -0.1803 -0.3827 -0.6807
  421TMC3     C 6336   0.332   2.912  13.524  0.4101 -0.1055 -0.5947
  421TMC3     O 6337   0.232   2.965  13.481 -0.4125 -0.4129  0.4955
  421TMC3     H 6338   0.298   3.152  13.674  0.8798  1.2824  1.4299
  421TMC3    H1 6339   0.591   2.843  13.568  1.5461  0.0468  0.3945
  421TMC3    H2 6340   0.701   3.157  13.818 -0.4875 -0.4045 -0.2133
  421TMC3    C7 6341   0.784   2.933  13.725  0.5196 -0.5979  0.1726
  421TMC3    C8 6342   0.465   3.245  13.870  0.0451  0.4865 -0.3622
  421TMC3    O1 6343   0.871   3.016  13.750 -0.2857  0.2227  0.3194
  421TMC3    O2 6344   0.560   3.295  13.935 -0.2078 -0.1708 -0.0339
  422TMC3    C1 6345   2.777   4.071  12.111 -0.4252 -0.2195  0.1996
  422TMC3    C2 6346   2.811   4.147  12.212 -0.6593 -0.2146 -0.0060
  422TMC3    C3 6347   2.731   4.161  12.319 -0.3543 -0.2021  0.1532
  422TMC3    C4 6348   2.655   4.002  12.116  0.9410 -0.2613 -0.6176
  422TMC3    C5 6349   2.583   4.006  12.231 -0.0335 -0.8298  0.0138
  422TMC3    C6 6350   2.619   4.084  12.341  0.5317 -0.2276 -0.6965
  422TMC3     C 6351   2.876   4.057  12.000  0.0508  0.3949 -0.4846
  422TMC3     O 6352   2.964   4.145  11.995 -0.7778  0.1156 -0.1783
  422TMC3     H 6353   2.907   4.198  12.215 -1.2205  0.6172  4.0444
  422TMC3    H1 6354   2.612   3.953  12.030  2.5967 -0.6211 -1.2329
  422TMC3    H2 6355   2.546   4.103  12.419  0.2186 -0.7707 -0.8560
  422TMC3    C7 6356   2.488   3.901  12.243 -0.0857 -0.2463  0.0557
  422TMC3    C8 6357   2.738   4.281  12.399 -0.0008  1.0847  0.5821
  422TMC3    O1 6358   2.417   3.869  12.150 -0.3093  0.0853  0.3351
  422TMC3    O2 6359   2.791   4.384  12.359  0.0986  0.0345  0.0701
  423MPD2     C 6360   4.293   0.467   0.526  0.4602 -0.8751  0.3251
  423MPD2    C1 6361   4.303   0.347   0.587 -0.0279 -0.3170  0.1449
  423MPD2    C2 6362   4.345   0.233   0.512 -0.1730 -0.4741  0.2186
  423MPD2    C3 6363   4.361   0.241   0.377 -0.1946  0.3360  0.3130
  423MPD2    C4 6364   4.338   0.362   0.316  0.5450 -0.5088 -0.1501
  423MPD2    C5 6365   4.308   0.470   0.389  0.5754  0.6943  0.9781
  423MPD2     H 6366   4.358   0.140   0.566 -0.6522 -2.0901 -2.4770
  423MPD2    H1 6367   4.344   0.372   0.208  1.6684  0.2382 -0.0281
  423MPD2    H2 6368   4.280   0.561   0.579 -0.1559 -2.6213  3.2692
  423MPD2    H3 6369   4.307   0.571   0.350 -0.4383  0.7182  1.0834
  423MPD2     N 6370   4.395   0.133   0.286 -0.1075 -0.3454 -0.3788
  423MPD2    H5 6371   4.430   0.160   0.195 -1.2395  1.1342 -0.3805
  423MPD2    N1 6372   4.297   0.336   0.729 -0.5379  0.5506  0.3676
  423MPD2    H7 6373   4.338   0.256   0.776  0.4139  0.3466 -0.8050
  424TMC3    C1 6374   4.246   0.409   0.951  0.1271  0.2947  0.4106
  424TMC3    C2 6375   4.350   0.341   1.001  0.0109  0.0797 -0.2022
  424TMC3    C3 6376   4.357   0.312   1.137  0.6840  0.2022  0.6003
  424TMC3    C4 6377   4.136   0.444   1.022 -0.4687  0.0047 -0.7024
  424TMC3    C5 6378   4.152   0.417   1.156  0.0723 -0.2602 -0.4228
  424TMC3    C6 6379   4.255   0.350   1.220 -0.1367 -0.1607 -0.1778
  424TMC3     C 6380   4.231   0.425   0.805  0.2286 -0.0301 -0.3435
  424TMC3     O 6381   4.144   0.503   0.766 -0.0315  0.2045  0.2893
  424TMC3     H 6382   4.419   0.302   0.926  2.5216  1.2601  1.5014
  424TMC3    H1 6383   4.046   0.492   0.987 -0.0859 -0.3874 -2.2132
  424TMC3    H2 6384   4.250   0.313   1.322  2.8150  3.2945  1.2179
  424TMC3    C7 6385   4.032   0.415   1.220  0.0023 -0.0792  0.2660
  424TMC3    C8 6386   4.429   0.198   1.176 -0.5832 -0.0462 -0.2867
  424TMC3    O1 6387   4.038   0.412   1.343 -0.3736 -0.2152 -0.1559
  424TMC3    O2 6388   4.396   0.138   1.277 -0.2932  0.1876  0.2797
  425MPD2     C 6389   2.835   4.183  17.480 -0.2625  0.6491  0.2959
  425MPD2    C1 6390   2.775   4.063  17.514 -0.5478  0.1949  0.3877
  425MPD2    C2 6391   2.659   4.062  17.586 -0.4706 -0.0962 -0.2946
  425MPD2    C3 6392   2.596   4.181  17.612  0.4611 -0.2925  0.5097
  425MPD2    C4 6393   2.656   4.297  17.579 -0.3011 -0.0470 -1.0554
  425MPD2    C5 6394   2.773   4.301  17.516 -0.1239 -0.0891  0.2107
  425MPD2     H 6395   2.613   3.968  17.611  0.5171 -0.6184 -0.4549
  425MPD2    H1 6396   2.604   4.391  17.588  0.0979  0.0905 -0.2320
  425MPD2    H2 6397   2.920   4.189  17.413 -1.2399 -0.3515 -1.0261
  425MPD2    H3 6398   2.814   4.391  17.470  1.7250 -1.3050 -0.5376
  425MPD2     N 6399   2.467   4.171  17.673  0.4588 -0.0388 -0.2092
  425MPD2    H5 6400   2.445   4.074  17.690 -2.7586  0.9706  1.2923
  425MPD2    N1 6401   2.827   3.942  17.477 -0.8303  0.8352  0.4074
  425MPD2    H7 6402   2.770   3.860  17.495  1.2293 -0.8105 -0.5991
  426TMC3    C1 6403   2.991   3.771  17.417 -0.7435  0.1427 -0.1690
  426TMC3    C2 6404   3.085   3.743  17.324  0.0269 -0.0650  0.4488
  426TMC3    C3 6405   3.130   3.607  17.310  0.1399  0.3404 -0.1648
  426TMC3    C4 6406   2.936   3.674  17.496 -0.2120 -0.2013  0.5355
  426TMC3    C5 6407   2.972   3.546  17.477 -0.0114 -0.5416  0.0418
  426TMC3    C6 6408   3.067   3.511  17.380 -0.0754 -0.2471 -0.2340
  426TMC3     C 6409   2.953   3.912  17.427  0.2235 -0.0358  0.1498
  426TMC3     O 6410   3.033   3.984  17.371  0.6710  0.5005 -0.0254
  426TMC3     H 6411   3.113   3.810  17.243  0.8521 -3.2446 -1.9111
  426TMC3    H1 6412   2.856   3.700  17.564  0.7349  2.0216  0.8088
  426TMC3    H2 6413   3.089   3.407  17.361  0.3036 -0.0292 -0.9969
  426TMC3    C7 6414   2.924   3.439  17.561  0.1305 -0.2426 -0.0313
  426TMC3    C8 6415   3.194   3.566  17.186  0.1695 -0.4289  0.2113
  426TMC3    O1 6416   2.989   3.331  17.559 -0.1629  0.5030 -0.7737
  426TMC3    O2 6417   3.180   3.453  17.148  0.0512 -0.7639  0.6764
  427MPD2     C 6418   1.651   1.200  14.711 -0.0004  0.5003  1.1277
  427MPD2    C1 6419   1.617   1.326  14.756 -0.4583  0.7026 -0.0846
  427MPD2    C2 6420   1.485   1.363  14.752  0.2956 -0.5555  0.0690
  427MPD2    C3 6421   1.379   1.280  14.721 -0.5066 -0.1158 -0.0313
  427MPD2    C4 6422   1.414   1.153  14.679  0.1918 -0.0232 -0.2588
  427MPD2    C5 6423   1.547   1.115  14.675  0.6439  0.6083 -0.0223
  427MPD2     H 6424   1.459   1.464  14.784 -1.5354 -1.1542  0.4791
  427MPD2    H1 6425   1.342   1.074  14.660 -1.2951  1.3112 -0.1014
  427MPD2    H2 6426   1.749   1.158  14.726 -0.4211 -0.0694  2.2727
  427MPD2    H3 6427   1.565   1.011  14.652 -1.7453  0.3816 -0.8177
  427MPD2     N 6428   1.241   1.319  14.719  0.3737 -0.6822  0.8583
  427MPD2    H5 6429   1.172   1.253  14.687 -2.3100  2.7278 -0.3063
  427MPD2    N1 6430   1.703   1.424  14.807  0.4391 -0.3529 -0.0609
  427MPD2    H7 6431   1.653   1.504  14.844  0.3835  2.0237 -5.3170
  428TMC3    C1 6432   1.880   1.500  14.935 -0.9089 -0.2314 -0.7064
  428TMC3    C2 6433   1.777   1.551  15.010  0.6031 -0.4821 -0.4990
  428TMC3    C3 6434   1.775   1.525  15.144 -0.7641 -0.1548 -0.4558
  428TMC3    C4 6435   1.987   1.457  15.004  0.1391 -0.4598 -1.2474
  428TMC3    C5 6436   1.986   1.445  15.138 -0.3984  0.6434 -0.8715
  428TMC3    C6 6437   1.879   1.472  15.212 -0.9199 -0.5096 -0.8922
  428TMC3     C 6438   1.841   1.427  14.807  0.3458  0.3107  0.2854
  428TMC3     O 6439   1.924   1.347  14.759  0.6530 -0.9430 -0.0432
  428TMC3     H 6440   1.683   1.580  14.962 -0.3989 -2.9858 -0.0523
  428TMC3    H1 6441   2.060   1.406  14.942  0.2783 -1.9307  0.1437
  428TMC3    H2 6442   1.883   1.463  15.320  0.9691  0.1002 -0.9096
  428TMC3    C7 6443   2.113   1.473  15.199  0.2914 -0.1064 -0.3891
  428TMC3    C8 6444   1.643   1.481  15.181  0.1984 -0.2265 -1.5735
  428TMC3    O1 6445   2.122   1.455  15.320 -0.0850 -0.2620  0.1407
  428TMC3    O2 6446   1.573   1.451  15.087  0.3459 -0.2634 -0.6059
  429MPD2     C 6447   2.168   1.527   0.078  0.2221  0.1572  0.2759
  429MPD2    C1 6448   2.291   1.475   0.073 -0.1692  0.7694  0.0125
  429MPD2    C2 6449   2.396   1.553   0.020 -0.7384  0.4015  0.2818
  429MPD2    C3 6450   2.375   1.680  17.731  0.3774 -0.1644  0.1984
  429MPD2    C4 6451   2.249   1.727  17.750 -0.0900 -0.5834  0.7675
  429MPD2    C5 6452   2.146   1.655   0.047  0.1800 -0.1983 -0.1479
  429MPD2     H 6453   2.497   1.513   0.021 -0.8792  0.0079 -1.6248
  429MPD2    H1 6454   2.227   1.832  17.737  0.4418 -0.4939  0.6106
  429MPD2    H2 6455   2.083   1.477   0.125 -0.8039  2.3651  0.7485
  429MPD2    H3 6456   2.054   1.712   0.057 -2.0219 -3.2544 -3.0429
  429MPD2     N 6457   2.474   1.758  17.664 -0.4731  0.2876 -0.5704
  429MPD2    H5 6458   2.570   1.724  17.667 -0.3381  0.6750 -0.4487
  429MPD2    N1 6459   2.326   1.346   0.129  0.4105  0.8423  0.3613
  429MPD2    H7 6460   2.426   1.331   0.136 -0.3231 -3.0003  2.3040
  430TMC3    C1 6461   2.569   1.933  17.526  0.1093 -0.9557  0.8251
  430TMC3    C2 6462   2.544   2.050  17.451 -0.0465  0.2175 -0.0017
  430TMC3    C3 6463   2.652   2.111  17.397 -0.1149 -0.4135 -0.0040
  430TMC3    C4 6464   2.684   1.868  17.513 -0.7116 -0.2401  0.1480
  430TMC3    C5 6465   2.792   1.930  17.460  0.3544  0.0842 -0.3372
  430TMC3    C6 6466   2.780   2.056  17.403  0.0922  0.2218 -0.4954
  430TMC3     C 6467   2.446   1.877  17.590 -0.0090 -0.3840  0.0034
  430TMC3     O 6468   2.333   1.928  17.572  0.4358 -0.5666  0.7471
  430TMC3     H 6469   2.447   2.098  17.455 -0.9306 -1.7475  2.4750
  430TMC3    H1 6470   2.708   1.774  17.560  0.4481 -0.2566 -0.4696
  430TMC3    H2 6471   2.860   2.103  17.347  0.8618 -1.8720 -1.1602
  430TMC3    C7 6472   2.906   1.857  17.415  0.1844 -0.0322 -0.2927
  430TMC3    C8 6473   2.630   2.170  17.268 -0.0715  0.1783 -0.8318
  430TMC3    O1 6474   2.885   1.744  17.372  0.4976  0.3607  0.2801
  430TMC3    O2 6475   2.715   2.250  17.221 -0.6573 -0.3642 -0.6678
  431MPD2     C 6476   3.784   1.716  12.606  1.2135 -0.6634 -0.2305
  431MPD2    C1 6477   3.872   1.790  12.529 -0.5152 -0.5799 -0.1438
  431MPD2    C2 6478   3.901   1.738  12.404 -0.0419  0.4431  0.2171
  431MPD2    C3 6479   3.847   1.619  12.354 -0.1135 -1.0314  0.1496
  431MPD2    C4 6480   3.749   1.563  12.438  0.5716 -0.3569  0.0941
  431MPD2    C5 6481   3.719   1.612  12.561  0.1459  0.3104  0.5181
  431MPD2     H 6482   3.981   1.783  12.345  1.5868 -0.3714  1.8161
  431MPD2    H1 6483   3.687   1.476  12.418  0.4974  0.0500 -1.3857
  431MPD2    H2 6484   3.765   1.746  12.708 -0.3690  1.2678 -1.0927
  431MPD2    H3 6485   3.646   1.559  12.621  0.4528  0.8240  1.3450
  431MPD2     N 6486   3.899   1.545  12.251  0.2063  0.5846  0.0262
  431MPD2    H5 6487   3.872   1.447  12.241  0.2484  0.5953 -0.1939
  431MPD2    N1 6488   3.943   1.896  12.586 -0.1236 -0.0654 -0.3651
  431MPD2    H7 6489   4.008   1.943  12.522  0.8893 -1.0541 -0.0605
  432TMC3    C1 6490   4.048   1.485  12.086 -0.7777 -0.0163 -0.5935
  432TMC3    C2 6491   4.090   1.501  11.955  0.5264 -0.0369  0.6810
  432TMC3    C3 6492   4.161   1.393  11.901  0.0577  0.5071 -0.5624
  432TMC3    C4 6493   4.080   1.376  12.159 -0.1834 -0.2762 -0.4490
  432TMC3    C5 6494   4.159   1.276  12.104  0.1360 -0.0485 -0.0920
  432TMC3    C6 6495   4.211   1.288  11.976  0.0803  0.1693 -0.4906
  432TMC3     C 6496   3.974   1.595  12.149 -0.4435 -0.4722 -0.1021
  432TMC3     O 6497   4.004   1.713  12.118  0.0731 -0.3144  0.2480
  432TMC3     H 6498   4.073   1.595  11.903  2.3015  0.2353  0.5876
  432TMC3    H1 6499   4.060   1.372  12.265 -1.7148 -1.4549 -0.7733
  432TMC3    H2 6500   4.275   1.217  11.925  2.5219  1.2914  1.0195
  432TMC3    C7 6501   4.208   1.164  12.189 -0.2400  0.8340 -0.2465
  432TMC3    C8 6502   4.256   1.417  11.788 -0.7548 -0.0527  0.2122
  432TMC3    O1 6503   4.304   1.097  12.156 -0.3227  0.3479  0.4594
  432TMC3    O2 6504   4.203   1.481  11.698 -0.3819 -0.4429  0.4494
  433MPD2     C 6505   2.692   0.655  10.629  0.3839 -0.1175 -0.2467
  433MPD2    C1 6506   2.639   0.562  10.719 -0.3000  0.7472 -0.0450
  433MPD2    C2 6507   2.689   0.561  10.850  0.2075 -0.5928 -0.2988
  433MPD2    C3 6508   2.792   0.637  10.890  0.0590 -0.3465  0.2246
  433MPD2    C4 6509   2.843   0.729  10.795 -0.7638  0.2388  0.1686
  433MPD2    C5 6510   2.789   0.738  10.672 -0.8737  0.0598 -0.4134
  433MPD2     H 6511   2.647   0.496  10.925 -0.4232  1.8256  1.4216
  433MPD2    H1 6512   2.919   0.799  10.826 -1.1245  0.3703  0.7572
  433MPD2    H2 6513   2.659   0.651  10.525 -3.9275  0.3369  1.1074
  433MPD2    H3 6514   2.833   0.799  10.595  0.8649 -0.8597 -0.1499
  433MPD2     N 6515   2.852   0.604  11.009 -0.5789 -0.1466 -0.3540
  433MPD2    H5 6516   2.818   0.522  11.059  0.4221  0.3342  1.1021
  433MPD2    N1 6517   2.539   0.475  10.672  0.1240 -0.6182 -0.5282
  433MPD2    H7 6518   2.528   0.474  10.571 -0.5210 -1.6239 -0.4490
  434TMC3    C1 6519   2.435   0.271  10.664  1.0471 -0.8429 -0.3876
  434TMC3    C2 6520   2.448   0.143  10.718 -0.3553 -0.5828  0.2185
  434TMC3    C3 6521   2.453   0.041  10.633  0.3901  0.1283  0.0787
  434TMC3    C4 6522   2.410   0.297  10.535 -1.4907 -0.0573 -0.0871
  434TMC3    C5 6523   2.407   0.192  10.451 -0.5687 -0.0657  0.1739
  434TMC3    C6 6524   2.432   0.060  10.497 -0.3950 -0.2815  0.7806
  434TMC3     C 6525   2.491   0.371  10.747 -0.4347  0.5892  0.2553
  434TMC3     O 6526   2.498   0.348  10.869 -0.1630  0.6127 -0.5244
  434TMC3     H 6527   2.463   0.130  10.825  0.6973  0.3707  0.1878
  434TMC3    H1 6528   2.400   0.394  10.487  0.1404  0.4539  0.6228
  434TMC3    H2 6529   2.450   4.723  10.423  0.2251  2.9763 -2.5047
  434TMC3    C7 6530   2.334   0.209  10.327 -0.3436 -0.6858  0.2136
  434TMC3    C8 6531   2.534   4.672  10.674 -0.2075  0.3374 -0.3102
  434TMC3    O1 6532   2.330   0.323  10.281 -0.6978 -1.0029  0.2894
  434TMC3    O2 6533   2.631   4.699  10.744  0.2772 -0.3075 -0.0129
  435MPD2     C 6534   4.437   0.276  15.549  0.0099 -1.1930  0.2718
  435MPD2    C1 6535   4.431   0.265  15.687  0.7729  0.0880  0.1604
  435MPD2    C2 6536   4.547   0.235  15.763  0.6280 -0.4918 -0.0059
  435MPD2    C3 6537   4.653   0.178  15.694  0.7002  0.4473  0.1122
  435MPD2    C4 6538   4.652   0.192  15.555  0.5413 -0.7465 -0.2841
  435MPD2    C5 6539   4.549   0.241  15.485  0.5287  0.0638  0.0909
  435MPD2     H 6540   4.552   0.232  15.871 -1.1711 -0.6022  0.0827
  435MPD2    H1 6541   4.740   0.167  15.496 -0.2067  2.0027 -2.5514
  435MPD2    H2 6542   4.356   0.302  15.482  1.0119 -0.5515 -0.6911
  435MPD2    H3 6543   4.558   0.258  15.378 -2.6108  0.8921 -0.0357
  435MPD2     N 6544   0.023   0.120  15.763  0.2120  0.5644 -0.1708
  435MPD2    H5 6545   0.015   0.120  15.864  0.7607  0.8244 -0.1252
  435MPD2    N1 6546   4.309   0.274  15.753  0.0924  0.9103 -0.2525
  435MPD2    H7 6547   4.318   0.277  15.854  0.3721 -1.1991 -0.2171
  436TMC3    C1 6548   3.980   0.402  15.973  0.2085 -0.1299  0.0088
  436TMC3    C2 6549   4.096   0.357  15.909  0.1474 -0.2835  0.3334
  436TMC3    C3 6550   4.073   0.287  15.793 -0.0425  0.2792  0.2315
  436TMC3    C4 6551   3.851   0.370  15.932  0.6100  0.1379 -0.5390
  436TMC3    C5 6552   3.836   0.284  15.822  0.0223 -0.2890  0.0397
  436TMC3    C6 6553   3.951   0.248  15.746 -0.0860 -0.3062 -0.0518
  436TMC3     C 6554   3.997   0.467  16.102  0.4245  0.2743 -0.0973
  436TMC3     O 6555   4.095   0.446  16.172 -0.0571 -0.9052  0.0855
  436TMC3     H 6556   4.195   0.392  15.936  0.7911 -0.1403 -2.1696
  436TMC3    H1 6557   3.760   0.402  15.982  0.5090  0.2101 -0.7703
  436TMC3    H2 6558   3.956   0.181  15.662  2.6919 -1.9874  1.4474
  436TMC3    C7 6559   3.712   0.204  15.808  0.1918  0.0806  0.3304
  436TMC3    C8 6560   4.179   0.269  15.700 -0.0084  0.4158  0.5279
  436TMC3    O1 6561   3.648   0.202  15.910 -0.2547  0.3595  0.4847
  436TMC3    O2 6562   4.152   0.252  15.586  0.1387 -0.2874  0.1396
  437TMC3    C1 6563   3.507   2.466  12.471 -0.1011  0.4842  0.3244
  437TMC3    C2 6564   3.431   2.358  12.440 -0.5730 -0.1087  0.7553
  437TMC3    C3 6565   3.446   2.305  12.312 -0.3097 -0.4561 -0.3748
  437TMC3    C4 6566   3.595   2.524  12.384  0.8148 -0.7372  0.2584
  437TMC3    C5 6567   3.600   2.472  12.259  0.7873  1.3064 -0.0007
  437TMC3    C6 6568   3.535   2.358  12.222 -0.4925  0.1663  0.1788
  437TMC3     C 6569   3.490   2.536  12.596 -1.0053  0.0229 -0.1253
  437TMC3     O 6570   3.554   2.642  12.614  0.3004  0.3527  0.3850
  437TMC3     H 6571   3.356   2.317  12.507  0.3786  0.1397  1.9776
  437TMC3    H1 6572   3.658   2.604  12.420 -0.6670  1.0713 -1.0987
  437TMC3    H2 6573   3.540   2.322  12.120  2.0170 -0.2749  0.4473
  437TMC3    C7 6574   3.722   2.502  12.183  0.3198 -0.5100 -0.2285
  437TMC3    C8 6575   3.370   2.188  12.275 -0.2632  0.0025  0.0451
  437TMC3    O1 6576   3.729   2.471  12.063 -0.8499 -0.6603  0.0743
  437TMC3    O2 6577   3.321   2.130  12.370  0.2641  0.6747 -0.9899
  438MPD2     C 6578   0.733   2.959  16.697 -0.3647  0.5081 -0.6162
  438MPD2    C1 6579   0.787   2.847  16.756  0.4782 -0.5234  0.3907
  438MPD2    C2 6580   0.784   2.837  16.894  0.3561 -0.6982 -0.3027
  438MPD2    C3 6581   0.724   2.932  16.977 -0.2579  0.3828 -0.2365
  438MPD2    C4 6582   0.666   3.037  16.906  0.3804 -0.0194  0.2201
  438MPD2    C5 6583   0.669   3.054  16.770 -0.6293 -0.3036 -0.2993
  438MPD2     H 6584   0.828   2.749  16.938  1.0543  0.3808  1.1624
  438MPD2    H1 6585   0.610   3.111  16.961 -0.3506 -1.4530  1.4005
  438MPD2    H2 6586   0.748   2.979  16.591  1.9569 -2.1761 -0.7873
  438MPD2    H3 6587   0.610   3.134  16.728  1.5734  0.7624 -1.3833
  438MPD2     N 6588   0.718   2.924  17.119 -0.6696  0.2961 -0.1289
  438MPD2    H5 6589   0.671   3.004  17.159 -1.0227 -0.1001  0.2533
  438MPD2    N1 6590   0.856   2.745  16.684  0.0600 -0.1408  0.4429
  438MPD2    H7 6591   0.914   2.679  16.734  1.8466  0.8088 -0.3644
  439TMC3    C1 6592   0.946   2.617  16.514 -0.2742 -0.4134 -0.6598
  439TMC3    C2 6593   0.962   2.595  16.379 -0.5066 -0.2580 -0.2141
  439TMC3    C3 6594   0.983   2.469  16.333 -0.2885  0.5251 -0.0622
  439TMC3    C4 6595   0.962   2.514  16.610 -0.1662 -0.2178  0.6281
  439TMC3    C5 6596   0.979   2.385  16.557  0.1613  0.2313  0.2530
  439TMC3    C6 6597   1.000   2.363  16.425  0.3438 -0.6784  0.2935
  439TMC3     C 6598   0.866   2.735  16.545 -0.2072 -0.2492 -0.1308
  439TMC3     O 6599   0.811   2.796  16.456 -0.3965  0.2189  0.1178
  439TMC3     H 6600   0.959   2.680  16.312  0.8265  1.3572  1.7733
  439TMC3    H1 6601   0.941   2.537  16.714 -2.2016 -0.0457  0.1816
  439TMC3    H2 6602   1.008   2.261  16.389  2.5305  0.2903 -1.9878
  439TMC3    C7 6603   1.054   2.304  16.650 -0.2676  0.0900  0.0360
  439TMC3    C8 6604   1.042   2.449  16.204  0.8066  0.5188  0.1490
  439TMC3    O1 6605   1.071   2.351  16.760  0.1593 -0.3098  0.0714
  439TMC3    O2 6606   1.116   2.348  16.196  0.3714 -0.1822 -0.5170
  440MPD2     C 6607   4.067   2.847  14.859  0.0660 -0.1152 -0.1825
  440MPD2    C1 6608   4.093   2.944  14.960  0.0772 -0.1448 -0.2986
  440MPD2    C2 6609   4.221   3.009  14.950 -0.0423 -0.0977  0.3328
  440MPD2    C3 6610   4.300   2.992  14.840  0.3078  0.1453 -0.1325
  440MPD2    C4 6611   4.260   2.903  14.740 -0.5855 -0.5706  0.0393
  440MPD2    C5 6612   4.148   2.829  14.750  0.2356 -0.5700 -1.0048
  440MPD2     H 6613   4.249   3.076  15.031  1.4610  0.1251 -0.3622
  440MPD2    H1 6614   4.318   2.886  14.651  1.4715  1.6335  0.9431
  440MPD2    H2 6615   3.971   2.796  14.862 -0.0419 -0.0238 -1.9258
  440MPD2    H3 6616   4.131   2.741  14.689 -0.4452 -0.8373 -0.4262
  440MPD2     N 6617   4.425   3.062  14.821 -0.1965  0.1847  0.2209
  440MPD2    H5 6618   4.496   3.035  14.753 -0.9575  0.0827 -0.5344
  440MPD2    N1 6619   4.005   2.980  15.065 -0.3136 -0.5952  0.4158
  440MPD2    H7 6620   4.043   3.045  15.133  0.7154 -0.1636 -0.5748
  441TMC3    C1 6621   4.613   3.197  14.905 -0.7995  0.1186  0.5644
  441TMC3    C2 6622   4.635   3.314  14.974 -0.3568  0.9638  0.6452
  441TMC3    C3 6623   4.728   3.312  15.076  0.4005  1.0456  0.3182
  441TMC3    C4 6624   4.669   3.076  14.929  0.4555 -0.6773  0.2417
  441TMC3    C5 6625   0.018   3.082  15.037  0.8407  0.6729  0.2402
  441TMC3    C6 6626   0.050   3.194  15.113 -0.2994  0.3836  0.0862
  441TMC3     C 6627   4.464   3.176  14.889 -0.0329  0.0704 -0.5410
  441TMC3     O 6628   4.394   3.258  14.947 -0.1177 -0.3268  0.0546
  441TMC3     H 6629   4.579   3.403  14.948  1.5212  1.7095 -0.8170
  441TMC3    H1 6630   4.649   2.976  14.893 -1.2526 -0.1176 -0.3522
  441TMC3    H2 6631   0.121   3.206  15.193  1.2974 -0.0064 -1.2685
  441TMC3    C7 6632   0.028   2.962  15.110 -0.1708  0.0272  0.0391
  441TMC3    C8 6633   4.739   3.438  15.150  0.0767 -0.4271 -0.4013
  441TMC3    O1 6634   4.671   2.891  15.117 -0.1676 -0.3590  0.2704
  441TMC3    O2 6635   0.105   3.465  15.203  0.1229  0.5336  0.6536
  442MPD2     C 6636   2.913   3.525  16.924  0.1175 -0.3208  0.3508
  442MPD2    C1 6637   2.825   3.592  16.850  0.1483  0.5584  0.1523
  442MPD2    C2 6638   2.778   3.536  16.728  0.7529  0.6703 -0.0856
  442MPD2    C3 6639   2.814   3.404  16.693 -0.1603  0.6053  0.1923
  442MPD2    C4 6640   2.905   3.338  16.768 -0.1970 -0.1069  0.5200
  442MPD2    C5 6641   2.958   3.403  16.877  1.3602  0.2966 -0.3429
  442MPD2     H 6642   2.715   3.599  16.667 -1.0570 -1.1138 -0.0714
  442MPD2    H1 6643   2.941   3.237  16.752 -2.8258 -1.1665  1.2760
  442MPD2    H2 6644   2.959   3.561  17.015  1.8244 -0.8180 -0.2958
  442MPD2    H3 6645   3.039   3.357  16.933 -0.7612 -1.2616  1.4483
  442MPD2     N 6646   2.767   3.329  16.586  0.5307  0.2077 -0.8766
  442MPD2    H5 6647   2.798   3.235  16.566 -1.9260 -0.5532 -1.1562
  442MPD2    N1 6648   2.783   3.724  16.888 -0.6956  0.3852 -0.1502
  442MPD2    H7 6649   2.732   3.781  16.822 -1.3013 -1.8216 -1.5901
  443TMC3    C1 6650   2.741   3.912  17.038 -0.2201 -0.1317  0.9937
  443TMC3    C2 6651   2.751   4.007  16.949 -0.0970 -0.0823 -0.0110
  443TMC3    C3 6652   2.691   4.130  16.977 -0.6512 -0.2116 -0.0081
  443TMC3    C4 6653   2.691   3.931  17.160  0.0988  0.4305 -0.2819
  443TMC3    C5 6654   2.629   4.049  17.187  0.5574 -0.2231  0.6285
  443TMC3    C6 6655   2.625   4.147  17.091  0.3318  0.1359 -0.3118
  443TMC3     C 6656   2.805   3.778  17.015  0.1880  0.0550 -0.0643
  443TMC3     O 6657   2.839   3.721  17.117 -0.1885  0.1756 -0.6155
  443TMC3     H 6658   2.803   3.986  16.856 -0.7262 -2.5495  0.1960
  443TMC3    H1 6659   2.696   3.852  17.235 -0.4477 -0.2487 -0.9509
  443TMC3    H2 6660   2.556   4.230  17.103  0.8425  0.8461 -2.2839
  443TMC3    C7 6661   2.500   4.032  17.253  0.2333  0.0785  0.0433
  443TMC3    C8 6662   2.653   4.217  16.867  0.4003  0.0248 -0.8447
  443TMC3    O1 6663   2.453   3.916  17.258 -0.4798  0.0770  0.1374
  443TMC3    O2 6664   2.600   4.327  16.896 -0.0592 -0.0066  0.1459
  444MPD2     C 6665   2.547   3.283  17.322  0.2185  0.3272  0.0238
  444MPD2    C1 6666   2.486   3.220  17.219  0.3287 -0.1179 -0.3353
  444MPD2    C2 6667   2.557   3.159  17.122  0.7488  0.0012 -0.5733
  444MPD2    C3 6668   2.694   3.166  17.119 -0.5545  0.2940  0.5912
  444MPD2    C4 6669   2.758   3.243  17.217 -0.2112 -0.2300  0.0945
  444MPD2    C5 6670   2.683   3.292  17.322 -0.3005 -0.4832 -0.1172
  444MPD2     H 6671   2.506   3.108  17.040 -3.5098  2.9622  0.2453
  444MPD2    H1 6672   2.864   3.262  17.210 -0.2622 -1.4095 -4.0028
  444MPD2    H2 6673   2.484   3.312  17.405 -1.9337 -0.0179 -1.4532
  444MPD2    H3 6674   2.734   3.344  17.402 -1.3981  1.2288 -0.5208
  444MPD2     N 6675   2.768   3.094  17.019 -0.3931  0.3838 -0.3585
  444MPD2    H5 6676   2.712   3.036  16.958 -1.0784  1.1273 -0.4390
  444MPD2    N1 6677   2.343   3.206  17.211  0.0439  0.4391 -0.1568
  444MPD2    H7 6678   2.298   3.154  17.137  0.7454 -0.2025 -0.1347
  445TMC3    C1 6679   2.947   2.967  16.927  0.5576  0.2775  0.0180
  445TMC3    C2 6680   2.889   2.983  16.803 -0.0605  0.3427 -0.2607
  445TMC3    C3 6681   2.933   2.899  16.708 -0.3760  0.2455  0.8114
  445TMC3    C4 6682   3.044   2.880  16.958  0.0986  0.2939 -0.5801
  445TMC3    C5 6683   3.081   2.792  16.860  0.3303  0.1639  0.2420
  445TMC3    C6 6684   3.029   2.807  16.730 -0.3603 -0.0750  0.0909
  445TMC3     C 6685   2.901   3.061  17.031  0.1921  0.3157 -0.0707
  445TMC3     O 6686   2.982   3.089  17.120  0.0801  0.3162 -0.1902
  445TMC3     H 6687   2.814   3.059  16.781 -1.2251  0.0047  2.5651
  445TMC3    H1 6688   3.078   2.886  17.061 -1.0665 -3.6448  0.0103
  445TMC3    H2 6689   3.061   2.740  16.651  1.8548  1.3762 -0.2483
  445TMC3    C7 6690   3.212   2.717  16.874  0.0898 -0.2604 -0.4382
  445TMC3    C8 6691   2.881   2.913  16.575  0.2588 -0.7224 -0.1646
  445TMC3    O1 6692   3.237   2.665  16.984  0.8515  0.0077  0.1731
  445TMC3    O2 6693   2.861   3.030  16.542  0.0809  0.4927 -0.4499
  446MPD2     C 6694   2.417   4.431  11.120  0.4248 -0.0516  0.1978
  446MPD2    C1 6695   2.377   4.539  11.040  0.5336 -0.6397  0.5926
  446MPD2    C2 6696   2.474   4.636  11.009  0.2394  0.7162  0.3285
  446MPD2    C3 6697   2.603   4.641  11.063  0.1335 -0.1267  0.5865
  446MPD2    C4 6698   2.630   4.540  11.157 -0.6246 -0.1166 -0.0228
  446MPD2    C5 6699   2.540   4.436  11.181 -0.7296  0.0641  0.6176
  446MPD2     H 6700   2.439   4.721  10.951 -0.5264  0.3707  0.2864
  446MPD2    H1 6701   2.712   4.560  11.225  0.0580 -0.6126 -0.6997
  446MPD2    H2 6702   2.350   4.353  11.152  1.1618 -0.6622  0.2462
  446MPD2    H3 6703   2.564   4.362  11.257  0.4286 -0.5326 -0.3169
  446MPD2     N 6704   2.695   0.004  11.016  0.2708  0.6870 -0.0704
  446MPD2    H5 6705   2.661   0.067  10.944  0.2057  2.1954  1.2958
  446MPD2    N1 6706   2.250   4.544  10.988  0.8569  0.4920 -0.0230
  446MPD2    H7 6707   2.233   4.617  10.919 -2.9189 -0.1108  0.2845
  447TMC3    C1 6708   2.889   0.127  10.987  0.3476  0.1026  0.1319
  447TMC3    C2 6709   2.829   0.199  10.884 -0.7678  0.1731  0.6549
  447TMC3    C3 6710   2.907   0.277  10.807 -0.3831 -0.3472  0.5150
  447TMC3    C4 6711   3.026   0.132  11.008 -0.5261 -0.0867 -0.7041
  447TMC3    C5 6712   3.101   0.213  10.932 -0.2534 -0.7388 -0.1059
  447TMC3    C6 6713   3.045   0.284  10.829 -0.9814  0.3572 -0.4026
  447TMC3     C 6714   2.834   0.010  11.042 -0.4705 -0.4794 -0.2579
  447TMC3     O 6715   2.895   4.671  11.107 -0.2915 -0.5610  0.0294
  447TMC3     H 6716   2.725   0.184  10.857 -0.5998  0.6639 -0.2619
  447TMC3    H1 6717   3.077   0.063  11.075  0.8769  1.0013 -0.6565
  447TMC3    H2 6718   3.113   0.349  10.774  2.0303 -2.0866  0.4338
  447TMC3    C7 6719   3.245   0.213  10.939  0.1350  0.3799  0.4620
  447TMC3    C8 6720   2.862   0.300  10.668  0.3964 -0.0861 -0.1165
  447TMC3    O1 6721   3.296   0.216  10.826 -0.2114  0.2508  0.5024
  447TMC3    O2 6722   2.768   0.232  10.627  0.1457 -0.9292  0.3220
  448TMC3    C1 6723   0.609   3.938  17.557 -0.0093  0.1857 -0.6344
  448TMC3    C2 6724   0.627   3.871  17.441  0.0842 -0.7677  0.3061
  448TMC3    C3 6725   0.664   3.739  17.454  0.3368  0.4530  0.2177
  448TMC3    C4 6726   0.621   3.876  17.679  0.1502  0.2289 -0.0580
  448TMC3    C5 6727   0.659   3.750  17.693 -0.1054 -0.8110 -0.8887
  448TMC3    C6 6728   0.678   3.680  17.578 -0.2353  0.4389 -0.1277
  448TMC3     C 6729   0.604   4.085  17.570 -0.4063 -0.2130  0.2130
  448TMC3     O 6730   0.605   4.135  17.683  0.7594 -0.3162  0.8424
  448TMC3     H 6731   0.616   3.920  17.345 -0.3585  0.0561  0.7829
  448TMC3    H1 6732   0.609   3.928   0.013  0.1483 -3.7244  2.1186
  448TMC3    H2 6733   0.722   3.581  17.585 -1.0057  0.1426  0.4645
  448TMC3    C7 6734   0.746   3.721   0.046 -0.2240  0.1563 -0.4647
  448TMC3    C8 6735   0.683   3.653  17.330 -0.3215  0.1128  0.0982
  448TMC3    O1 6736   0.862   3.698   0.018 -0.2191  0.5606  0.1235
  448TMC3    O2 6737   0.739   3.542  17.351 -0.3369 -0.1445 -0.3245
  449MPD2     C 6738   2.893   2.877  13.831  0.0832 -0.3643 -0.2097
  449MPD2    C1 6739   2.793   2.978  13.827  0.1059 -0.2104  0.4775
  449MPD2    C2 6740   2.663   2.931  13.810 -0.2365 -0.0789  0.1215
  449MPD2    C3 6741   2.621   2.802  13.801  0.1420  0.1907 -0.0048
  449MPD2    C4 6742   2.717   2.707  13.798 -0.3726 -0.0007  0.5826
  449MPD2    C5 6743   2.853   2.742  13.811  0.3423 -0.5746  0.2206
  449MPD2     H 6744   2.586   3.007  13.806 -1.9103 -1.6772  2.2300
  449MPD2    H1 6745   2.697   2.602  13.784 -1.5981  0.4398 -0.9940
  449MPD2    H2 6746   2.996   2.904  13.848 -0.3884  0.8741  0.6496
  449MPD2    H3 6747   2.927   2.663  13.807  1.0859  0.2372 -2.4226
  449MPD2     N 6748   2.483   2.780  13.808 -0.1797 -0.4111 -0.3040
  449MPD2    H5 6749   2.431   2.868  13.807  0.2324 -0.1757 -0.7266
  449MPD2    N1 6750   2.804   3.116  13.845 -0.2865 -0.1481 -0.7116
  449MPD2    H7 6751   2.720   3.173  13.849  0.3263  0.8485 -2.0274
  450TMC3    C1 6752   2.888   3.327  13.800 -0.0665  0.4417  0.0346
  450TMC3    C2 6753   2.903   3.348  13.664 -0.2859  0.2269  0.2669
  450TMC3    C3 6754   2.791   3.390  13.596 -0.2854 -0.4186 -0.1001
  450TMC3    C4 6755   2.780   3.357  13.865  0.3566 -0.1072  0.3653
  450TMC3    C5 6756   2.672   3.398  13.787  0.0104  0.1200 -0.5861
  450TMC3    C6 6757   2.678   3.417  13.653 -0.6379 -0.3293 -0.3577
  450TMC3     C 6758   2.921   3.192  13.828 -0.0868 -0.1392 -0.0045
  450TMC3     O 6759   3.019   3.141  13.778 -0.1501  0.4869 -0.0214
  450TMC3     H 6760   2.990   3.319  13.606  0.8687  1.3711  1.4315
  450TMC3    H1 6761   2.769   3.332  13.970  0.4052  0.3961  0.4911
  450TMC3    H2 6762   2.586   3.446  13.603  0.0497  1.8777 -0.3475
  450TMC3    C7 6763   2.552   3.347  13.840  0.4359  0.3860  0.8546
  450TMC3    C8 6764   2.792   3.406  13.450  0.9415 -0.1321 -0.4421
  450TMC3    O1 6765   2.565   3.242  13.902 -0.5920  0.0410 -0.4769
  450TMC3    O2 6766   2.712   3.482  13.398  0.1009 -0.5021 -0.0018
  451MPD2     C 6767   3.233   1.793   0.853  0.4957  0.2660 -0.2256
  451MPD2    C1 6768   3.147   1.731   0.765 -0.1458 -0.1916  0.5514
  451MPD2    C2 6769   3.191   1.642   0.667  0.1478  0.5816 -0.2310
  451MPD2    C3 6770   3.323   1.610   0.654 -0.6688 -0.3877  0.6170
  451MPD2    C4 6771   3.411   1.664   0.744  0.3032 -0.0778 -0.3204
  451MPD2    C5 6772   3.363   1.755   0.839  0.0168 -0.3526 -0.0250
  451MPD2     H 6773   3.120   1.599   0.598  2.6099  0.0242 -2.4242
  451MPD2    H1 6774   3.518   1.649   0.747  0.5736  1.6553 -1.5795
  451MPD2    H2 6775   3.215   1.867   0.930  1.2599 -1.9944  2.1168
  451MPD2    H3 6776   3.438   1.798   0.903  1.4219 -2.8971  0.0168
  451MPD2     N 6777   3.369   1.531   0.543  0.0963 -0.1908  0.2311
  451MPD2    H5 6778   3.469   1.543   0.531 -0.2109  1.2102 -0.9724
  451MPD2    N1 6779   3.012   1.760   0.782 -0.0707  0.6043  0.3624
  451MPD2    H7 6780   2.994   1.837   0.845 -2.1478  0.7076 -0.3421
  452TMC3    C1 6781   3.380   1.369   0.378 -0.1080  0.1410 -0.1824
  452TMC3    C2 6782   3.343   1.233   0.371  0.2569 -0.3296 -0.0589
  452TMC3    C3 6783   3.405   1.171   0.264 -0.2801 -0.1077  0.1225
  452TMC3    C4 6784   3.465   1.441   0.296  0.2855  0.0580  0.3170
  452TMC3    C5 6785   3.517   1.368   0.194 -0.6639  0.0524  0.3104
  452TMC3    C6 6786   3.491   1.233   0.181 -0.9637  0.1660 -0.3115
  452TMC3     C 6787   3.298   1.450   0.463 -0.4969  0.0770 -0.2193
  452TMC3     O 6788   3.179   1.421   0.472  0.6794 -0.1717 -0.1101
  452TMC3     H 6789   3.273   1.195   0.444 -2.7490  2.1144 -1.6935
  452TMC3    H1 6790   3.473   1.548   0.304 -3.0153  0.1495  2.1531
  452TMC3    H2 6791   3.542   1.179   0.102 -0.3386 -1.4407  1.1989
  452TMC3    C7 6792   3.615   1.431   0.110  0.5256 -0.3709  0.9253
  452TMC3    C8 6793   3.371   1.031   0.228 -0.1711  0.2067  0.1751
  452TMC3    O1 6794   3.677   1.527   0.156  0.5663 -0.1914 -0.1323
  452TMC3    O2 6795   3.393   0.997   0.112  0.3662 -0.0167  0.6634
  453TMC3    C1 6796   0.325   3.376  11.904 -0.0866 -0.2330  0.4307
  453TMC3    C2 6797   0.232   3.276  11.900  1.0263  0.0748  0.2511
  453TMC3    C3 6798   0.141   3.280  11.791 -0.2274 -0.2870  0.1174
  453TMC3    C4 6799   0.341   3.468  11.804 -0.0690 -0.8606 -0.2567
  453TMC3    C5 6800   0.259   3.454  11.693 -0.0334  0.2270  0.5592
  453TMC3    C6 6801   0.157   3.367  11.685 -0.0885  0.9458 -0.1862
  453TMC3     C 6802   0.415   3.386  12.014  0.4960 -0.2627  0.1714
  453TMC3     O 6803   0.477   3.491  12.028 -0.0783 -0.0081 -0.3357
  453TMC3     H 6804   0.213   3.214  11.987  0.8809 -0.3971 -0.1198
  453TMC3    H1 6805   0.418   3.545  11.811  0.6702 -1.5435 -0.8784
  453TMC3    H2 6806   0.087   3.365  11.602  0.3005 -0.9820 -0.4780
  453TMC3    C7 6807   0.280   3.563  11.595  0.4240 -0.1783 -0.6138
  453TMC3    C8 6808   0.043   3.174  11.783 -0.6635  0.8215  0.5798
  453TMC3    O1 6809   0.309   3.672  11.641 -0.4693  0.3046  0.2558
  453TMC3    O2 6810   4.688   3.196  11.708 -1.1283 -0.7508 -0.4314
  454MPD2     C 6811   3.340   3.440  15.829  0.4138  0.5522  0.0435
  454MPD2    C1 6812   3.212   3.390  15.837 -0.3764  0.5489  0.3171
  454MPD2    C2 6813   3.148   3.398  15.959 -0.7426 -0.0871 -0.5833
  454MPD2    C3 6814   3.214   3.426  16.078 -0.0674  0.3771 -0.2147
  454MPD2    C4 6815   3.345   3.472  16.062  0.0615  0.6304 -0.0526
  454MPD2    C5 6816   3.400   3.493  15.938 -0.4039  0.2802  0.5342
  454MPD2     H 6817   3.046   3.361  15.965 -0.5051 -0.6422  0.1652
  454MPD2    H1 6818   3.397   3.505  16.151  0.0888  0.2860  0.0584
  454MPD2    H2 6819   3.392   3.439  15.734  1.2854 -0.2028  0.5285
  454MPD2    H3 6820   3.500   3.535  15.928 -1.5446  3.1658  1.2707
  454MPD2     N 6821   3.157   3.409  16.207  0.1621 -0.6044  0.0647
  454MPD2    H5 6822   3.220   3.426  16.285  0.4999  1.4935 -0.6623
  454MPD2    N1 6823   3.145   3.354  15.720  0.2735  0.0731 -0.2824
  454MPD2    H7 6824   3.044   3.344  15.722  0.2180  0.4355 -1.0514
  455TMC3    C1 6825   3.036   3.310  16.378 -0.5766 -0.1274  0.2176
  455TMC3    C2 6826   3.102   3.382  16.478 -0.5233 -0.5858  0.8260
  455TMC3    C3 6827   3.167   3.311  16.571  0.0402  0.0650  0.0282
  455TMC3    C4 6828   3.054   3.174  16.370 -0.2869  0.7160 -0.1174
  455TMC3    C5 6829   3.132   3.109  16.463  0.1197  0.4706  0.2915
  455TMC3    C6 6830   3.192   3.175  16.563  0.1627 -0.5520 -0.1850
  455TMC3     C 6831   3.030   3.359  16.240  0.2944  0.0548 -0.4854
  455TMC3     O 6832   2.938   3.318  16.174  0.3049  0.1472  0.2265
  455TMC3     H 6833   3.077   3.486  16.497  3.6283  0.5161  0.1099
  455TMC3    H1 6834   3.015   3.122  16.284 -2.1133  0.2095  1.0053
  455TMC3    H2 6835   3.260   3.127  16.633  0.9507 -1.0921 -1.3331
  455TMC3    C7 6836   3.184   2.970  16.446 -0.0421 -0.3441 -0.0210
  455TMC3    C8 6837   3.222   3.383  16.685  0.3829  0.0889  0.2716
  455TMC3    O1 6838   3.220   2.906  16.547 -0.3766 -0.5562 -0.0082
  455TMC3    O2 6839   3.253   3.316  16.783  0.0434 -0.1733  0.0820
  456MPD2     C 6840   1.127   2.917  16.082  0.2849 -0.1799  0.3742
  456MPD2    C1 6841   1.204   2.850  16.176 -0.3216 -0.4030  0.2095
  456MPD2    C2 6842   1.169   2.861  16.313  0.6522  0.4292  0.3880
  456MPD2    C3 6843   1.086   2.964  16.357 -0.0659 -0.5181  0.4504
  456MPD2    C4 6844   1.014   3.028  16.259 -0.2406  0.3051 -0.1990
  456MPD2    C5 6845   1.027   3.001  16.119  0.0748  0.2103 -0.2750
  456MPD2     H 6846   1.239   2.803  16.373  1.9098 -1.8742 -3.3433
  456MPD2    H1 6847   0.953   3.114  16.282 -1.8669 -1.1758  0.9200
  456MPD2    H2 6848   1.149   2.913  15.976 -0.1190 -0.3639  0.2961
  456MPD2    H3 6849   0.975   3.065  16.049  0.2992  1.8405  1.0317
  456MPD2     N 6850   1.092   3.006  16.496  0.4639 -0.7362 -0.2293
  456MPD2    H5 6851   1.169   2.970  16.550  1.0359  0.5213 -0.1966
  456MPD2    N1 6852   1.309   2.768  16.121  0.2050 -0.1124  0.1403
  456MPD2    H7 6853   1.329   2.789  16.024  0.8423 -1.4081 -0.0015
  457TMC3    C1 6854   1.036   3.106  16.699 -0.4881 -0.1624 -0.9056
  457TMC3    C2 6855   0.961   3.204  16.750 -0.6599  0.1706  0.1179
  457TMC3    C3 6856   0.971   3.224  16.888  0.4063  0.2221  0.0517
  457TMC3    C4 6857   1.096   3.014  16.783 -0.1366 -0.8287 -1.1388
  457TMC3    C5 6858   1.095   3.030  16.916 -0.0253 -0.2543  0.1544
  457TMC3    C6 6859   1.039   3.138  16.973 -0.7583  0.5593  0.9596
  457TMC3     C 6860   1.010   3.091  16.555  0.3004 -0.7103 -0.5889
  457TMC3     O 6861   0.907   3.144  16.509 -0.3597  0.2971 -0.6828
  457TMC3     H 6862   0.915   3.279  16.686  2.8604  2.3441  0.1322
  457TMC3    H1 6863   1.144   2.925  16.743  0.3304 -0.8383 -0.5490
  457TMC3    H2 6864   1.036   3.148  17.081 -1.8637 -2.1095  1.1614
  457TMC3    C7 6865   1.197   2.966  16.994  0.4478  0.1241  0.4339
  457TMC3    C8 6866   0.895   3.329  16.957 -0.1850  0.0244 -0.1630
  457TMC3    O1 6867   1.218   2.846  16.986 -0.4304  0.1480 -0.3804
  457TMC3    O2 6868   0.918   3.339  17.076 -0.0664 -0.3052 -0.7863
  458MPD2     C 6869   4.223   2.693  12.192  0.7606 -0.0718  0.0558
  458MPD2    C1 6870   4.194   2.634  12.316  0.2476  0.6441  0.5025
  458MPD2    C2 6871   4.067   2.583  12.337  0.1406  0.0358 -0.5737
  458MPD2    C3 6872   3.970   2.575  12.240 -0.0407  0.9406 -0.3718
  458MPD2    C4 6873   4.010   2.614  12.115 -0.2455  0.2828 -1.6834
  458MPD2    C5 6874   4.125   2.673  12.098 -0.2379  0.8726  0.3615
  458MPD2     H 6875   4.036   2.550  12.436 -2.0370  2.7198 -0.3417
  458MPD2    H1 6876   3.945   2.611  12.028  0.0360  1.4322 -1.9251
  458MPD2    H2 6877   4.315   2.745  12.168  0.8157 -0.8408 -1.4156
  458MPD2    H3 6878   4.137   2.706  11.996 -3.1617  2.1519  0.4311
  458MPD2     N 6879   3.832   2.527  12.273 -0.3964 -0.4342 -0.2711
  458MPD2    H5 6880   3.804   2.523  12.370  0.8599 -1.3911  0.0621
  458MPD2    N1 6881   4.293   2.644  12.412 -0.2834  0.7272  0.6421
  458MPD2    H7 6882   4.383   2.681  12.384 -0.3307 -1.4472 -2.3219
  459TMC3    C1 6883   4.387   2.645  12.635  0.4082  0.0265  0.5870
  459TMC3    C2 6884   4.514   2.667  12.576 -0.0114  0.5215 -0.3039
  459TMC3    C3 6885   4.621   2.637  12.656  0.8206  0.9097 -1.0515
  459TMC3    C4 6886   4.367   2.606  12.764  0.2604 -0.2649 -0.1920
  459TMC3    C5 6887   4.476   2.588  12.844 -0.1163  0.1773  0.3306
  459TMC3    C6 6888   4.603   2.601  12.789  0.4557 -0.2479 -0.3527
  459TMC3     C 6889   4.272   2.620  12.549  0.1312 -0.2750  0.7137
  459TMC3     O 6890   4.180   2.553  12.596 -0.4384 -0.1866 -1.1662
  459TMC3     H 6891   4.530   2.688  12.471  2.0153  2.4645  0.4031
  459TMC3    H1 6892   4.271   2.585  12.810  1.3015  0.1984  2.2019
  459TMC3    H2 6893   4.687   2.583  12.856 -1.0383  1.0650  1.8750
  459TMC3    C7 6894   4.449   2.508  12.964 -0.4273  0.7795  0.0263
  459TMC3    C8 6895   0.016   2.618  12.590  0.6666 -0.4630 -0.5008
  459TMC3    O1 6896   4.355   2.432  12.947 -0.6814  0.0799 -0.1815
  459TMC3    O2 6897   0.022   2.659  12.475 -0.0427  0.2986  0.2433
  460MPD2     C 6898   2.998   0.560  10.448 -0.8869 -0.1981 -0.0475
  460MPD2    C1 6899   2.920   0.454  10.479 -0.0354 -0.4729 -0.7038
  460MPD2    C2 6900   2.834   0.398  10.388 -0.2904 -0.6567 -0.4975
  460MPD2    C3 6901   2.808   0.472  10.275  0.2446  0.0368  0.0359
  460MPD2    C4 6902   2.879   0.584  10.248  0.5675 -1.0339 -0.2452
  460MPD2    C5 6903   2.977   0.626  10.331 -0.3102  0.7302  0.2054
  460MPD2     H 6904   2.776   0.308  10.406  2.8205 -2.2703  1.3832
  460MPD2    H1 6905   2.855   0.642  10.159 -1.9181 -2.3491 -0.4383
  460MPD2    H2 6906   3.059   0.596  10.530 -2.1237  1.0054  0.3449
  460MPD2    H3 6907   3.043   0.710  10.313 -1.0495  1.0625 -0.9347
  460MPD2     N 6908   2.706   0.421  10.195 -0.8766  0.3662 -0.0265
  460MPD2    H5 6909   2.681   0.324  10.205 -0.8298  0.3703  0.1329
  460MPD2    N1 6910   2.938   0.398  10.609 -0.0877  0.0951  0.1169
  460MPD2    H7 6911   3.002   0.451  10.668 -0.2135 -0.8245  1.0869
  461TMC3    C1 6912   2.525   0.439  10.045  0.0743 -0.4960 -0.2010
  461TMC3    C2 6913   2.531   0.312   9.996  0.9298 -0.0756 -0.1378
  461TMC3    C3 6914   2.425   0.256   9.940  0.4675 -0.1764 -0.2813
  461TMC3    C4 6915   2.416   0.515  10.003 -0.4573 -0.5144 -0.0861
  461TMC3    C5 6916   2.308   0.455   9.940  0.1993 -0.0042  0.2217
  461TMC3    C6 6917   2.308   0.321   9.914 -0.1052 -0.1134 -0.2858
  461TMC3     C 6918   2.627   0.504  10.114 -0.6594 -0.1958  0.2389
  461TMC3     O 6919   2.624   0.628  10.113  0.3351 -0.1918  0.2707
  461TMC3     H 6920   2.623   0.254  10.000  1.1898  0.3942  0.7832
  461TMC3    H1 6921   2.415   0.624   9.996 -1.1930 -0.3891  1.7803
  461TMC3    H2 6922   2.219   0.273   9.874  0.4382 -1.4139  0.0459
  461TMC3    C7 6923   2.190   0.530   9.915  0.2983 -0.0647 -0.2634
  461TMC3    C8 6924   2.452   0.126   9.884  0.1031  0.4437 -0.2537
  461TMC3    O1 6925   2.135   0.511   9.808 -0.8869 -0.4108  0.5572
  461TMC3    O2 6926   2.562   0.101   9.841 -1.0446  0.6735  0.2097
  462TMC3    C1 6927   3.051   0.688   0.162  0.2025 -0.2816  1.1621
  462TMC3    C2 6928   3.091   0.594   0.078 -0.6640 -0.9454 -0.4197
  462TMC3    C3 6929   3.045   0.469   0.105  0.7977 -0.4103  0.8109
  462TMC3    C4 6930   2.962   0.664   0.261  0.5035 -0.1649 -0.4321
  462TMC3    C5 6931   2.925   0.535   0.292 -0.1079  0.2032 -1.2811
  462TMC3    C6 6932   2.972   0.434   0.213 -0.2862 -0.4449 -0.1995
  462TMC3     C 6933   3.055   0.821   0.115  0.2024  0.3283  0.5265
  462TMC3     O 6934   3.026   0.910   0.192  0.5123 -0.6335 -0.2281
  462TMC3     H 6935   3.174   0.609   0.009 -0.6124  4.6311  0.9014
  462TMC3    H1 6936   2.921   0.754   0.305  1.1937  0.4471 -1.0276
  462TMC3    H2 6937   2.927   0.336   0.203 -1.4848  0.2914 -1.8941
  462TMC3    C7 6938   2.830   0.502   0.401  0.4219  0.3402  0.1747
  462TMC3    C8 6939   3.114   0.344   0.051 -0.6425  0.1166 -0.2425
  462TMC3    O1 6940   2.790   0.390   0.399  0.3174  0.2219 -0.2132
  462TMC3    O2 6941   3.112   0.241   0.119 -0.4188  0.7520  0.0109
  463MPD2     C 6942   4.529   3.679   1.408  0.4693 -0.8597 -0.1266
  463MPD2    C1 6943   4.449   3.771   1.469 -0.2539 -0.1115 -0.0293
  463MPD2    C2 6944   4.504   3.865   1.556  0.0437  0.6558  0.7753
  463MPD2    C3 6945   4.640   3.869   1.576 -0.1364 -0.5436  0.4345
  463MPD2    C4 6946   4.721   3.774   1.511  0.4230  0.0210  0.6484
  463MPD2    C5 6947   4.666   3.684   1.425 -0.1788  0.7617  0.6055
  463MPD2     H 6948   4.446   3.950   1.589 -1.4843 -0.8142  1.8564
  463MPD2    H1 6949   0.088   3.775   1.515  0.3413  1.2628  2.2915
  463MPD2    H2 6950   4.501   3.601   1.338 -0.7565 -1.2646  0.8271
  463MPD2    H3 6951   4.721   3.602   1.380  2.1723  2.1537  0.9568
  463MPD2     N 6952   4.715   3.960   1.654  0.1780  0.1757  0.4796
  463MPD2    H5 6953   0.074   3.945   1.647  0.5519  1.9507  1.9880
  463MPD2    N1 6954   4.307   3.767   1.461  0.2661  0.5150  0.2122
  463MPD2    H7 6955   4.254   3.849   1.489  1.5089  0.4436  2.7639
  464TMC3    C1 6956   4.089   3.688   1.381 -0.1425  0.1652 -1.3457
  464TMC3    C2 6957   4.023   3.773   1.466 -0.0026  0.0766  0.3456
  464TMC3    C3 6958   3.883   3.780   1.453  0.7333 -0.1880  0.6924
  464TMC3    C4 6959   4.023   3.613   1.289 -0.3519 -0.5733  0.7442
  464TMC3    C5 6960   3.888   3.633   1.280 -0.0194  0.6567  0.0553
  464TMC3    C6 6961   3.808   3.717   1.354  0.0546  0.2007 -0.3569
  464TMC3     C 6962   4.235   3.674   1.386  0.5649  0.3048 -0.0046
  464TMC3     O 6963   4.276   3.567   1.343 -0.0553  0.0946 -0.1453
  464TMC3     H 6964   4.068   3.839   1.539 -1.7826  0.4344  1.1232
  464TMC3    H1 6965   4.070   3.532   1.234 -0.9948 -0.7245  0.4158
  464TMC3    H2 6966   3.701   3.735   1.342  0.4615  4.1085  1.8770
  464TMC3    C7 6967   3.830   3.553   1.173 -0.6013 -0.1178 -0.2062
  464TMC3    C8 6968   3.828   3.899   1.508  0.4154  0.6985  0.4975
  464TMC3    O1 6969   3.896   3.458   1.136  0.1073  0.3028 -0.3486
  464TMC3    O2 6970   3.901   3.999   1.514 -0.2228 -0.5345 -0.3416
  465MPD2     C 6971   0.524   2.556  17.045 -0.1455  0.2156  0.2343
  465MPD2    C1 6972   0.449   2.582  17.156 -0.8510  0.6558 -0.4068
  465MPD2    C2 6973   0.348   2.674  17.146 -0.1756  0.3930  0.5593
  465MPD2    C3 6974   0.322   2.739  17.028 -0.5550  0.1872 -0.1325
  465MPD2    C4 6975   0.396   2.705  16.912 -0.6810  0.6625 -0.3390
  465MPD2    C5 6976   0.497   2.618  16.931 -0.1304 -0.0991  0.0604
  465MPD2     H 6977   0.283   2.708  17.227 -1.3926 -0.4842 -0.0494
  465MPD2    H1 6978   0.387   2.756  16.817 -1.0840 -0.5857 -0.9733
  465MPD2    H2 6979   0.604   2.484  17.051 -0.2115  0.3204  2.2919
  465MPD2    H3 6980   0.562   2.596  16.847 -0.3748 -1.9389  0.3501
  465MPD2     N 6981   0.233   2.844  17.021 -0.2233 -0.0615 -0.4253
  465MPD2    H5 6982   0.180   2.864  17.105 -0.5491 -0.9057 -0.4299
  465MPD2    N1 6983   0.476   2.519  17.280 -0.1109  0.5305 -0.2191
  465MPD2    H7 6984   0.410   2.543  17.353  1.7395  1.3132  1.1555
  466TMC3    C1 6985   4.644   3.078  17.049 -0.2253  0.4929  0.3666
  466TMC3    C2 6986   4.633   3.179  16.955  0.4033 -0.6243  0.6777
  466TMC3    C3 6987   4.725   3.191  16.855  0.0686 -0.5263 -0.4533
  466TMC3    C4 6988   0.005   2.986  17.037  0.7247  0.0622  0.0603
  466TMC3    C5 6989   0.086   2.996  16.928 -0.4241  0.3593 -0.0966
  466TMC3    C6 6990   0.081   3.098  16.838 -0.1760 -0.4486  0.0904
  466TMC3     C 6991   4.558   3.090  17.164  0.1306 -0.1744  0.1583
  466TMC3     O 6992   4.455   3.148  17.148  0.1848 -0.2124 -0.1635
  466TMC3     H 6993   4.551   3.249  16.959  0.3605 -0.5989 -0.6468
  466TMC3    H1 6994   4.738   2.905  17.109  2.1906  0.9847  1.2614
  466TMC3    H2 6995   0.165   3.118  16.771 -2.0574 -0.4420 -2.2715
  466TMC3    C7 6996   0.193   2.904  16.904  0.0977 -0.7003  0.1203
  466TMC3    C8 6997   4.738   3.315  16.783 -0.5582  0.0984  0.6359
  466TMC3    O1 6998   0.225   2.893  16.786  0.2084 -0.2181 -0.3024
  466TMC3    O2 6999   0.094   3.324  16.706  0.1540  0.0553 -0.7361
  467TMC3    C1 7000   1.463   1.772  14.096  0.1595 -0.1770 -0.1675
  467TMC3    C2 7001   1.412   1.894  14.103  0.7209  0.6345  0.7351
  467TMC3    C3 7002   1.281   1.919  14.092 -0.2811  0.4418  0.0324
  467TMC3    C4 7003   1.384   1.660  14.092 -0.3778  0.0504 -0.6631
  467TMC3    C5 7004   1.249   1.684  14.092  0.1296  0.2978  0.7469
  467TMC3    C6 7005   1.195   1.809  14.079  0.1022 -0.4770  0.1149
  467TMC3     C 7006   1.608   1.761  14.114  1.0850  0.1365 -0.2639
  467TMC3     O 7007   1.665   1.841  14.183  0.5525  0.3740 -0.3442
  467TMC3     H 7008   1.483   1.975  14.106  1.1373  0.2372  1.8325
  467TMC3    H1 7009   1.436   1.570  14.125 -2.8263 -1.0315  0.2355
  467TMC3    H2 7010   1.095   1.832  14.116  0.3502  0.2716  0.3282
  467TMC3    C7 7011   1.171   1.570  14.151  0.1002  0.9135 -0.0051
  467TMC3    C8 7012   1.252   2.040  14.010 -0.0503 -0.3841  0.5619
  467TMC3    O1 7013   1.234   1.485  14.214  0.5291 -0.4407 -0.3680
  467TMC3    O2 7014   1.315   2.142  14.025  0.4097  0.3581  0.5753
  468MPD2     C 7015   0.037   0.643  10.807  0.0684  0.0672 -0.5521
  468MPD2    C1 7016   0.114   0.570  10.894 -0.3481  0.5207 -0.0089
  468MPD2    C2 7017   0.109   0.435  10.892  0.2795 -0.0333 -0.3091
  468MPD2    C3 7018   0.030   0.366  10.797 -0.0613 -0.4063  0.4625
  468MPD2    C4 7019   4.691   0.437  10.711  0.9618 -0.0807  0.3548
  468MPD2    C5 7020   4.699   0.575  10.720 -0.6630  0.2235  0.1150
  468MPD2     H 7021   0.179   0.374  10.947  0.3204 -0.8536 -1.2650
  468MPD2    H1 7022   4.620   0.391  10.643  3.3475 -2.0839 -0.7965
  468MPD2    H2 7023   0.041   0.750  10.793 -0.3268  0.0381 -0.9053
  468MPD2    H3 7024   4.640   0.634  10.650  0.7113  2.1224  0.5677
  468MPD2     N 7025   0.021   0.229  10.800 -0.0790  0.8198 -0.4623
  468MPD2    H5 7026   4.724   0.181  10.719 -2.8658  1.9304  0.1737
  468MPD2    N1 7027   0.212   0.631  10.977  0.3506 -0.1834  0.1497
  468MPD2    H7 7028   0.285   0.567  11.003  0.0636 -0.9282 -0.8460
  469TMC3    C1 7029   0.352   0.804  11.043  0.4305  0.0801 -0.3113
  469TMC3    C2 7030   0.459   0.730  11.001 -0.6598 -0.0623  0.4393
  469TMC3    C3 7031   0.581   0.754  11.060 -0.4046  0.1988 -0.0615
  469TMC3    C4 7032   0.361   0.896  11.143  0.1333  0.6182 -0.1968
  469TMC3    C5 7033   0.486   0.909  11.203  0.0167  0.1652  0.0471
  469TMC3    C6 7034   0.597   0.840  11.168 -0.3383 -0.0719  0.1390
  469TMC3     C 7035   0.217   0.769  11.006  0.3013 -0.7162  0.0430
  469TMC3     O 7036   0.134   0.855  10.983 -0.0434 -0.2994  0.5587
  469TMC3     H 7037   0.444   0.671  10.912  1.8013  1.0429 -0.7048
  469TMC3    H1 7038   0.274   0.946  11.184 -0.3374 -1.0354  0.8184
  469TMC3    H2 7039   0.695   0.877  11.195 -1.0332  2.0073 -0.2157
  469TMC3    C7 7040   0.497   1.012  11.305  0.4319  0.7283  0.0471
  469TMC3    C8 7041   0.682   0.659  11.022  0.4172 -0.7147 -0.7812
  469TMC3    O1 7042   0.418   1.103  11.299  0.3437  0.8031  0.3506
  469TMC3    O2 7043   0.646   0.589  10.928 -0.2122 -0.2984  0.6314
  470TMC3    C1 7044   1.640   1.139   0.577  0.2227  0.8703  0.1302
  470TMC3    C2 7045   1.637   1.275   0.553  0.3477  0.8591  0.2768
  470TMC3    C3 7046   1.713   1.352   0.639 -0.4495  0.2935 -0.2780
  470TMC3    C4 7047   1.718   1.083   0.678  0.8803 -0.8536  0.5284
  470TMC3    C5 7048   1.797   1.167   0.753 -0.6709 -0.0748 -0.4580
  470TMC3    C6 7049   1.796   1.299   0.727  0.3896  0.2047 -0.2422
  470TMC3     C 7050   1.601   1.058   0.470  0.6440  0.5862 -0.0090
  470TMC3     O 7051   1.590   1.102   0.358 -0.2733  0.0582  0.1040
  470TMC3     H 7052   1.585   1.313   0.466 -1.4252  1.0142  1.3964
  470TMC3    H1 7053   1.752   0.981   0.673  1.0782 -0.7974  0.7154
  470TMC3    H2 7054   1.854   1.372   0.783 -0.0505  1.5490 -1.5391
  470TMC3    C7 7055   1.893   1.108   0.846 -0.4199  0.6760 -0.2052
  470TMC3    C8 7056   1.694   1.495   0.643  0.2626  0.0934  0.6655
  470TMC3    O1 7057   1.955   1.199   0.900  0.0299  0.5167  0.2396
  470TMC3    O2 7058   1.779   1.561   0.695 -0.0363 -0.5408 -0.2743
  471MPD2     C 7059   2.418   2.112  16.804 -0.4495 -0.0352  0.1024
  471MPD2    C1 7060   2.535   2.171  16.842  0.0302  1.0904  0.3487
  471MPD2    C2 7061   2.570   2.175  16.978  0.6201 -0.0895  0.0481
  471MPD2    C3 7062   2.496   2.111  17.076  0.2667 -0.0276 -0.3954
  471MPD2    C4 7063   2.385   2.040  17.040 -0.1343  0.3177  0.5170
  471MPD2    C5 7064   2.343   2.049  16.904 -0.0437 -0.4764 -0.2978
  471MPD2     H 7065   2.647   2.246  17.003  1.5955 -1.3755  0.7239
  471MPD2    H1 7066   2.337   1.986  17.121 -0.7724  3.3514  2.1566
  471MPD2    H2 7067   2.389   2.097  16.700 -0.3331 -0.4589  0.1276
  471MPD2    H3 7068   2.253   1.997  16.873 -1.1679  0.6353  1.1546
  471MPD2     N 7069   2.528   2.106  17.212  0.6289  0.1924  0.0322
  471MPD2    H5 7070   2.462   2.049  17.264  0.5153 -0.0491 -0.3755
  471MPD2    N1 7071   2.628   2.228  16.747 -0.0582  0.3786 -0.3573
  471MPD2    H7 7072   2.718   2.261  16.782  0.5902 -0.7685 -0.9551
  472TMC3    C1 7073   2.714   2.290  16.541 -0.1199 -0.4523 -0.1685
  472TMC3    C2 7074   2.664   2.342  16.418 -0.2271  1.1048  0.2621
  472TMC3    C3 7075   2.683   2.259  16.303  0.2607  0.3238 -0.7190
  472TMC3    C4 7076   2.798   2.176  16.533  0.7196  0.1547  1.0076
  472TMC3    C5 7077   2.803   2.095  16.425  0.4315 -0.3112  0.1219
  472TMC3    C6 7078   2.741   2.132  16.304  0.4421 -0.2062  0.4797
  472TMC3     C 7079   2.600   2.255  16.621 -0.4103  0.7344  0.3136
  472TMC3     O 7080   2.496   2.242  16.558 -0.7276  0.2732 -0.0447
  472TMC3     H 7081   2.614   2.437  16.408  0.0470  0.9993 -1.9508
  472TMC3    H1 7082   2.808   2.117  16.623 -1.6744 -1.0928  0.4679
  472TMC3    H2 7083   2.734   2.065  16.219  1.7239  0.6939 -0.3386
  472TMC3    C7 7084   2.766   1.963  16.470  0.3435 -0.2478 -0.1766
  472TMC3    C8 7085   2.565   2.262  16.219 -0.5542  0.4068  1.1648
  472TMC3    O1 7086   2.846   1.905  16.542 -0.3231 -0.1540 -0.7088
  472TMC3    O2 7087   2.594   2.250  16.103 -0.0696 -0.1917  0.3322
  473MPD2     C 7088   2.349   4.101  13.867  0.0720 -0.6687 -1.2551
  473MPD2    C1 7089   2.402   4.197  13.786  0.3556 -0.3167 -0.2280
  473MPD2    C2 7090   2.418   4.324  13.836  0.7908  0.6338  0.0503
  473MPD2    C3 7091   2.383   4.361  13.962  0.4025  0.6708  0.1009
  473MPD2    C4 7092   2.332   4.264  14.046 -0.4348  0.3764 -0.2599
  473MPD2    C5 7093   2.319   4.135  13.999  0.7243 -0.4266 -0.4893
  473MPD2     H 7094   2.469   4.390  13.767 -0.7590  2.7905  0.9619
  473MPD2    H1 7095   2.307   4.288  14.149  0.5548  2.3457 -0.4773
  473MPD2    H2 7096   2.340   3.997  13.840 -2.7620 -0.3739 -1.4050
  473MPD2    H3 7097   2.288   4.059  14.069 -1.3895 -0.6619 -1.6579
  473MPD2     N 7098   2.404   4.493  14.012 -0.1865 -0.2719  0.6976
  473MPD2    H5 7099   2.389   4.504  14.111 -2.2262  0.2760  0.3219
  473MPD2    N1 7100   2.442   4.177  13.651  0.3356  0.3505 -0.1328
  473MPD2    H7 7101   2.498   4.251  13.611 -0.8041  1.8443  1.0291
  474TMC3    C1 7102   2.482   4.712  14.004 -0.2382 -0.1329 -0.1917
  474TMC3    C2 7103   2.483   0.088  13.938 -0.9032  0.0146  1.2045
  474TMC3    C3 7104   2.580   0.178  13.957  0.2181 -0.0436 -0.4316
  474TMC3    C4 7105   2.597   4.675  14.073  0.3908  0.3607  0.1653
  474TMC3    C5 7106   2.698   0.021  14.070  0.5872 -0.0385 -0.8684
  474TMC3    C6 7107   2.691   0.149  14.023  0.5348  0.3125 -0.4701
  474TMC3     C 7108   2.428   4.598  13.934  0.2971 -0.5370  0.5129
  474TMC3     O 7109   2.404   4.610  13.814  0.0679 -0.2442 -0.5892
  474TMC3     H 7110   2.401   0.113  13.871 -0.2384 -0.5339  0.1827
  474TMC3    H1 7111   2.608   4.570  14.095 -2.8947 -0.1211 -0.4125
  474TMC3    H2 7112   2.771   0.217  14.051 -0.1321  0.7078  0.4646
  474TMC3    C7 7113   2.815   4.722  14.138 -0.5224  0.5093  0.2017
  474TMC3    C8 7114   2.584   0.298  13.872 -0.6192  0.4000  0.4089
  474TMC3    O1 7115   2.807   4.641  14.229 -0.5877  0.1759 -0.7147
  474TMC3    O2 7116   2.491   0.318  13.792  0.2404  0.2060  0.8591
  475MPD2     C 7117   1.284   2.678  10.745  0.0435 -0.2633 -0.0437
  475MPD2    C1 7118   1.262   2.783  10.830  0.3420 -0.7788  0.7695
  475MPD2    C2 7119   1.133   2.796  10.875 -0.8262  0.1980 -0.0166
  475MPD2    C3 7120   1.036   2.702  10.855  0.5016 -0.2552 -0.0808
  475MPD2    C4 7121   1.061   2.596  10.783 -0.1907 -0.4890 -0.4660
  475MPD2    C5 7122   1.188   2.585  10.724 -0.0816 -0.5451 -0.0138
  475MPD2     H 7123   1.119   2.882  10.939  0.4435 -0.1010  0.6790
  475MPD2    H1 7124   0.981   2.530  10.753 -0.7438  0.2134 -0.5443
  475MPD2    H2 7125   1.379   2.663  10.694  0.6265 -2.7116  1.7624
  475MPD2    H3 7126   1.196   2.509  10.648 -0.1713  1.6247 -2.2134
  475MPD2     N 7127   0.902   2.725  10.912  0.1929 -0.0245 -0.5770
  475MPD2    H5 7128   0.883   2.814  10.955  0.4983  0.9089 -2.3500
  475MPD2    N1 7129   1.374   2.869  10.849 -0.6483 -0.7332 -0.0215
  475MPD2    H7 7130   1.456   2.841  10.796  0.0044 -0.8965  1.0606
  476TMC3    C1 7131   1.472   3.066  10.912  0.4779 -0.6540  0.1863
  476TMC3    C2 7132   1.459   3.139  10.799  0.3922  0.5639  0.7586
  476TMC3    C3 7133   1.425   3.275  10.800 -0.4322 -0.7600 -0.4770
  476TMC3    C4 7134   1.489   3.137  11.028 -0.2207  0.2852 -0.1922
  476TMC3    C5 7135   1.446   3.270  11.032  0.0871  0.2764 -0.6600
  476TMC3    C6 7136   1.415   3.340  10.921 -0.3079  0.1778  0.4583
  476TMC3     C 7137   1.365   2.979  10.931  0.8855 -0.3995 -0.4038
  476TMC3     O 7138   1.275   3.017  11.005  0.3358 -0.0653  0.0265
  476TMC3     H 7139   1.485   3.081  10.710  0.5747  1.1851  0.4052
  476TMC3    H1 7140   1.521   3.088  11.119  0.0292 -1.6373 -1.3193
  476TMC3    H2 7141   1.388   3.445  10.924 -1.6575 -0.1482 -0.2902
  476TMC3    C7 7142   1.451   3.331  11.158  0.6717 -0.2084 -0.7652
  476TMC3    C8 7143   1.301   3.289  10.721 -0.9945  0.6518  0.2761
  476TMC3    O1 7144   1.508   3.273  11.248 -0.3314  0.5552 -0.3277
  476TMC3    O2 7145   1.223   3.374  10.761 -0.4766 -0.5168  0.8011
  477MPD2     C 7146   3.421   3.762  11.001  0.3691 -0.8174 -0.3008
  477MPD2    C1 7147   3.363   3.819  11.109  0.0433 -0.3123 -0.3760
  477MPD2    C2 7148   3.396   3.763  11.231 -0.8321 -0.1028  0.3984
  477MPD2    C3 7149   3.484   3.660  11.245  0.2935  0.3547  0.2156
  477MPD2    C4 7150   3.547   3.618  11.128  0.2551 -0.2397 -0.2916
  477MPD2    C5 7151   3.508   3.662  11.008  0.3162 -0.0568  0.3520
  477MPD2     H 7152   3.358   3.804  11.323 -0.5192  0.0687  0.4524
  477MPD2    H1 7153   3.619   3.538  11.125  0.3482  0.0169 -4.6534
  477MPD2    H2 7154   3.393   3.785  10.899 -0.8885  0.4673  0.3281
  477MPD2    H3 7155   3.558   3.626  10.918  0.0785 -0.2738  0.3076
  477MPD2     N 7156   3.504   3.607  11.373 -0.3069 -0.6212  0.4862
  477MPD2    H5 7157   3.469   3.652  11.457  1.2119 -0.2286  0.9160
  477MPD2    N1 7158   3.263   3.925  11.104  0.2134  0.0711  0.2857
  477MPD2    H7 7159   3.233   3.961  11.014 -1.5635  1.8443  1.5933
  478TMC3    C1 7160   3.122   4.107  11.184 -0.4330 -0.0611 -0.4736
  478TMC3    C2 7161   3.122   4.214  11.269  0.0883  0.2419  0.0180
  478TMC3    C3 7162   3.028   4.313  11.251 -0.3694 -0.0428 -0.4824
  478TMC3    C4 7163   3.042   4.105  11.071  0.1111 -0.0997 -0.0440
  478TMC3    C5 7164   2.951   4.209  11.055 -0.1641  0.8772  0.1297
  478TMC3    C6 7165   2.942   4.315  11.145 -0.0965  0.3175 -0.3440
  478TMC3     C 7166   3.215   3.996  11.212  0.0777  0.3645  0.4051
  478TMC3     O 7167   3.275   4.005  11.319 -0.1972  0.6691 -0.1114
  478TMC3     H 7168   3.188   4.227  11.354  0.7595  2.2595 -0.8105
  478TMC3    H1 7169   3.043   4.018  11.006  0.8426  0.9028 -1.3527
  478TMC3    H2 7170   2.867   4.394  11.141 -0.0875  0.2778 -1.2828
  478TMC3    C7 7171   2.825   4.182  10.993  0.4489  0.2411 -0.4463
  478TMC3    C8 7172   2.996   4.395  11.369  0.4702 -0.6649 -0.5284
  478TMC3    O1 7173   2.788   4.063  10.978 -0.2685  0.2182 -0.2622
  478TMC3    O2 7174   3.030   4.335  11.474  0.1719  0.8042 -0.6450
  479MPD2     C 7175   2.367   1.686  15.049  0.0471 -0.2983  0.0159
  479MPD2    C1 7176   2.315   1.597  15.139  0.4838 -0.5526  0.3694
  479MPD2    C2 7177   2.396   1.570  15.255 -0.3485  0.2732 -0.4323
  479MPD2    C3 7178   2.505   1.653  15.285  0.4643  0.3674 -0.1407
  479MPD2    C4 7179   2.547   1.745  15.197 -0.4123 -0.5003 -0.0256
  479MPD2    C5 7180   2.486   1.756  15.072 -1.3308  0.1548  0.2653
  479MPD2     H 7181   2.368   1.489  15.321  1.6024  0.3664  0.4916
  479MPD2    H1 7182   2.628   1.814  15.221 -1.5177  1.7764 -2.6948
  479MPD2    H2 7183   2.319   1.707  14.954 -1.5305  1.5543  1.2166
  479MPD2    H3 7184   2.523   1.821  14.993  2.2522  0.7609  2.4221
  479MPD2     N 7185   2.588   1.636  15.405 -0.0453 -0.4199 -0.4501
  479MPD2    H5 7186   2.678   1.679  15.387  0.1516 -0.2373  1.0071
  479MPD2    N1 7187   2.189   1.539  15.109 -0.0650 -0.6108 -0.5301
  479MPD2    H7 7188   2.149   1.568  15.021 -1.3813 -2.7417 -0.6499
  480TMC3    C1 7189   2.261   1.489  15.708  0.8414  0.3161 -0.5326
  480TMC3    C2 7190   2.165   1.583  15.667 -0.6111  0.3834 -0.9100
  480TMC3    C3 7191   2.206   1.687  15.584  0.2053  0.4381 -0.4971
  480TMC3    C4 7192   2.388   1.483  15.667 -0.1731  0.2563 -0.9454
  480TMC3    C5 7193   2.429   1.586  15.578 -0.8521 -0.2352  0.1664
  480TMC3    C6 7194   2.340   1.687  15.540  0.1881  0.1034 -0.5037
  480TMC3     C 7195   2.216   1.380  15.796  0.3475 -0.1287 -0.5514
  480TMC3     O 7196   2.273   1.273  15.784 -0.4513 -0.0242 -0.3009
  480TMC3     H 7197   2.068   1.595  15.715 -0.9208 -0.0392 -1.4268
  480TMC3    H1 7198   2.446   1.394  15.685  0.0269  0.0628 -2.5026
  480TMC3    H2 7199   2.382   1.766  15.479  2.7666 -0.5854  0.3946
  480TMC3    C7 7200   2.559   1.577  15.529 -0.4078 -0.1548  0.1962
  480TMC3    C8 7201   2.101   1.738  15.493  0.2431  0.5147  0.2585
  480TMC3    O1 7202   2.635   1.525  15.612  0.3558  0.2696 -0.2279
  480TMC3    O2 7203   1.984   1.733  15.528 -0.4935 -0.0120  0.3971
  481MPD2     C 7204   4.523   0.706  14.523  0.5788  0.2471  0.7420
  481MPD2    C1 7205   4.399   0.647  14.518  0.5597  0.6353 -0.6158
  481MPD2    C2 7206   4.361   0.547  14.608  0.4643 -0.2118 -0.1922
  481MPD2    C3 7207   4.449   0.515  14.712 -0.4269  0.1356  0.3714
  481MPD2    C4 7208   4.567   0.579  14.719 -0.7538  0.7816  0.4676
  481MPD2    C5 7209   4.603   0.677  14.631  0.7131  0.0283  1.0668
  481MPD2     H 7210   4.260   0.508  14.612  0.6256 -0.5248  1.0100
  481MPD2    H1 7211   4.641   0.560  14.797  0.9060  0.4866 -1.1955
  481MPD2    H2 7212   4.549   0.774  14.443  0.9862  0.3731  0.9817
  481MPD2    H3 7213   4.702   0.721  14.636  0.9972 -0.5412  0.5081
  481MPD2     N 7214   4.415   0.426  14.822  0.0576  0.6898  0.8683
  481MPD2    H5 7215   4.492   0.413  14.887  0.5369 -0.3901  0.0910
  481MPD2    N1 7216   4.319   0.691  14.407  0.3375 -0.0918 -0.4119
  481MPD2    H7 7217   4.357   0.759  14.341 -0.6349  0.5900 -0.2733
  482TMC3    C1 7218   4.126   0.700  14.274  0.0807 -0.1408 -0.0859
  482TMC3    C2 7219   3.993   0.687  14.260 -0.3935 -0.3109  0.2751
  482TMC3    C3 7220   3.928   0.717  14.148  0.1971 -0.6636 -0.4824
  482TMC3    C4 7221   4.188   0.794  14.187 -0.5622 -0.3368  0.2787
  482TMC3    C5 7222   4.121   0.826  14.072  0.9783  0.1161 -0.9513
  482TMC3    C6 7223   3.989   0.789  14.049 -0.2053  0.7251 -1.0842
  482TMC3     C 7224   4.192   0.639  14.384 -0.1000  0.1612 -0.3100
  482TMC3     O 7225   4.116   0.572  14.449 -0.0685 -0.4060 -0.7176
  482TMC3     H 7226   3.932   0.632  14.331 -0.0003 -0.8516  0.1944
  482TMC3    H1 7227   4.291   0.828  14.190 -1.0909  1.3199 -0.4575
  482TMC3    H2 7228   3.944   0.801  13.952 -0.2370 -0.3593 -1.2024
  482TMC3    C7 7229   4.195   0.885  13.963  0.0161 -0.2823 -0.4438
  482TMC3    C8 7230   3.824   0.633  14.090 -0.3049  0.4477  0.7341
  482TMC3    O1 7231   4.305   0.935  13.983  0.8130 -0.0233 -0.3582
  482TMC3    O2 7232   3.839   0.512  14.094 -0.6216 -0.0235  0.2853
  483TMC3    C1 7233   1.206   0.128   1.178 -0.3413  0.0234 -0.3970
  483TMC3    C2 7234   1.250   0.214   1.078 -0.3671 -0.1781 -0.1850
  483TMC3    C3 7235   1.380   0.244   1.071 -0.0360 -0.0308  0.0167
  483TMC3    C4 7236   1.301   0.080   1.263 -0.8283 -0.0411  0.0302
  483TMC3    C5 7237   1.434   0.121   1.251 -0.3759  0.0019  0.5383
  483TMC3    C6 7238   1.477   0.219   1.167 -0.1757 -0.6123  0.2889
  483TMC3     C 7239   1.068   0.083   1.183  0.0244 -0.0731 -0.0444
  483TMC3     O 7240   0.984   0.154   1.129 -0.4963  0.4522 -0.4369
  483TMC3     H 7241   1.174   0.246   1.008 -1.6034 -0.5601  0.9780
  483TMC3    H1 7242   1.274   4.738   1.328 -0.5500 -0.5868 -0.5501
  483TMC3    H2 7243   1.579   0.253   1.155 -0.7988  0.4784 -1.8482
  483TMC3    C7 7244   1.542   0.047   1.313  0.7056  1.1110  0.0904
  483TMC3    C8 7245   1.436   0.293   0.939 -0.2137 -0.8883 -0.1642
  483TMC3    O1 7246   1.653   0.042   1.260 -0.3334 -0.5316  0.3092
  483TMC3    O2 7247   1.552   0.332   0.932  0.5781 -0.0330 -0.5505
  484MPD2     C 7248   0.325   2.513  12.762  0.4357  0.0064 -0.3752
  484MPD2    C1 7249   0.253   2.572  12.658 -0.2798  0.4160 -0.2209
  484MPD2    C2 7250   0.306   2.600  12.536 -0.4047 -0.0859 -0.0951
  484MPD2    C3 7251   0.441   2.594  12.518 -0.0106  0.6200 -0.5139
  484MPD2    C4 7252   0.515   2.529  12.614  0.0026  0.0239 -0.1880
  484MPD2    C5 7253   0.459   2.497  12.737 -0.5096  0.0445 -0.0899
  484MPD2     H 7254   0.236   2.632  12.459 -2.7799 -0.2115  2.0254
  484MPD2    H1 7255   0.622   2.520  12.598 -0.1291 -1.4455 -0.2577
  484MPD2    H2 7256   0.280   2.471  12.851 -2.4209  0.6002 -1.5439
  484MPD2    H3 7257   0.521   2.463  12.819 -2.1540 -2.4558  0.1163
  484MPD2     N 7258   0.500   2.646  12.403  0.2181  0.2978  0.4934
  484MPD2    H5 7259   0.601   2.648  12.405  0.3041 -1.0888 -2.5880
  484MPD2    N1 7260   0.115   2.580  12.685  0.2517  0.5477 -0.6227
  484MPD2    H7 7261   0.082   2.551  12.777  3.1478  2.2123  0.9296
  485TMC3    C1 7262   0.511   2.728  12.175 -1.2438  0.1999  0.5487
  485TMC3    C2 7263   0.640   2.691  12.153 -0.0185 -0.0497  0.0966
  485TMC3    C3 7264   0.690   2.688  12.027 -0.6591  0.2084 -0.3602
  485TMC3    C4 7265   0.437   2.770  12.075 -0.7713 -0.3910 -0.1756
  485TMC3    C5 7266   0.488   2.773  11.944  0.3715 -0.2600  0.2395
  485TMC3    C6 7267   0.612   2.718  11.917 -0.5540 -0.1118  0.6472
  485TMC3     C 7268   0.433   2.714  12.302 -1.1026  0.0339 -0.5984
  485TMC3     O 7269   0.316   2.742  12.300 -0.5099  0.0753 -0.1664
  485TMC3     H 7270   0.708   2.665  12.233  1.1144  0.0537 -0.8300
  485TMC3    H1 7271   0.343   2.820  12.098 -0.7691  0.2708 -1.5902
  485TMC3    H2 7272   0.655   2.726  11.818 -1.9321 -3.2541 -0.2018
  485TMC3    C7 7273   0.475   2.904  11.877  0.1246 -0.1165 -0.8341
  485TMC3    C8 7274   0.820   2.741  12.008  0.2508  0.5518  0.2021
  485TMC3    O1 7275   0.367   2.966  11.886 -0.5238 -0.3016  0.3278
  485TMC3    O2 7276   0.828   2.831  11.926 -0.1214 -0.1452  0.2452
  486MPD2     C 7277   2.043   1.178  12.944 -0.3240  0.1138  0.6084
  486MPD2    C1 7278   2.001   1.162  12.817  0.0315  0.4823  0.3500
  486MPD2    C2 7279   1.969   1.272  12.731 -0.9400  1.2679  0.6086
  486MPD2    C3 7280   1.973   1.400  12.792  0.4295 -0.4591  0.0356
  486MPD2    C4 7281   2.037   1.409  12.916  0.2775 -0.0798  0.9012
  486MPD2    C5 7282   2.074   1.299  12.990  0.3247 -0.1491  0.8924
  486MPD2     H 7283   1.929   1.261  12.631  1.0263  0.1247 -0.0377
  486MPD2    H1 7284   2.062   1.507  12.955 -0.2583 -0.4081  2.0461
  486MPD2    H2 7285   2.073   1.098  13.011  1.0001  0.2589  0.2061
  486MPD2    H3 7286   2.107   1.310  13.093 -2.3145  0.5807  1.6430
  486MPD2     N 7287   1.930   1.517  12.727  0.4336 -0.0147  0.2290
  486MPD2    H5 7288   1.910   1.502  12.629 -0.9963  0.0378  0.5055
  486MPD2    N1 7289   1.997   1.025  12.774 -0.0309 -0.7912  0.2084
  486MPD2    H7 7290   2.021   0.951  12.839 -1.3617 -0.3626  1.1733
  487TMC3    C1 7291   1.917   0.833  12.663 -0.2683  0.1775  0.5721
  487TMC3    C2 7292   1.791   0.777  12.626  0.0727 -0.4164  0.1949
  487TMC3    C3 7293   1.757   0.658  12.683 -0.1917  0.0400  0.2867
  487TMC3    C4 7294   2.001   0.768  12.755 -0.4710  0.7793  0.5437
  487TMC3    C5 7295   1.952   0.651  12.823 -0.4304 -0.0807 -0.2406
  487TMC3    C6 7296   1.823   0.603  12.790 -0.1024  0.0927  0.1609
  487TMC3     C 7297   1.928   0.973  12.664 -0.2494 -0.4775 -0.9225
  487TMC3     O 7298   1.889   1.036  12.570  0.5540 -0.2708  0.0108
  487TMC3     H 7299   1.737   0.817  12.542 -0.2189 -4.3880 -1.5004
  487TMC3    H1 7300   2.099   0.802  12.788 -0.9871  1.1560  1.6874
  487TMC3    H2 7301   1.803   0.497  12.802  1.3633 -0.1043  0.9147
  487TMC3    C7 7302   1.954   0.675  12.965 -0.1964 -0.0808 -0.1815
  487TMC3    C8 7303   1.620   0.609  12.690  0.0473  0.2864 -0.0081
  487TMC3    O1 7304   1.996   0.783  12.998 -0.2613  0.3135  0.1539
  487TMC3    O2 7305   1.555   0.563  12.600  0.1943 -0.6255 -0.6580
  488MPD2     C 7306   1.727   3.535  16.501  0.0677  0.4085 -0.0941
  488MPD2    C1 7307   1.810   3.641  16.533  0.2536 -0.3000  0.0214
  488MPD2    C2 7308   1.810   3.681  16.663 -0.5459 -0.2097  0.1050
  488MPD2    C3 7309   1.721   3.638  16.764  0.3210 -1.0485  0.3348
  488MPD2    C4 7310   1.642   3.527  16.730 -0.3138 -0.2162 -0.4640
  488MPD2    C5 7311   1.647   3.480  16.598  0.1341 -0.2400  0.5908
  488MPD2     H 7312   1.877   3.762  16.688  1.5310 -1.1061 -2.5746
  488MPD2    H1 7313   1.580   3.476  16.803  0.4445 -1.0781 -0.4112
  488MPD2    H2 7314   1.722   3.508  16.396  0.5479  1.7044 -0.4538
  488MPD2    H3 7315   1.577   3.407  16.561 -1.1429 -0.8807  4.2574
  488MPD2     N 7316   1.724   3.706  16.889 -0.2141  0.3673  0.2206
  488MPD2    H5 7317   1.786   3.786  16.888 -0.9860  0.9695  1.0330
  488MPD2    N1 7318   1.892   3.709  16.444  0.3888  0.6015 -0.6700
  488MPD2    H7 7319   1.952   3.777  16.490 -1.2650  0.6131  1.4557
  489TMC3    C1 7320   1.664   3.767  17.106 -0.1266 -0.1979 -0.3046
  489TMC3    C2 7321   1.791   3.802  17.141  0.5409 -0.0870  0.4487
  489TMC3    C3 7322   1.801   3.923  17.207  0.5882 -0.7947  0.4423
  489TMC3    C4 7323   1.551   3.815  17.168  0.8624 -0.4044 -0.2029
  489TMC3    C5 7324   1.573   3.913  17.258  0.1714 -0.2936  0.2652
  489TMC3    C6 7325   1.690   3.981  17.272  0.0579  0.6709 -0.3007
  489TMC3     C 7326   1.647   3.677  16.994  1.0274 -0.4921  0.1514
  489TMC3     O 7327   1.550   3.599  17.002 -0.1126  0.1360 -0.1266
  489TMC3     H 7328   1.878   3.758  17.093  1.5809  1.0020  1.3586
  489TMC3    H1 7329   1.454   3.792  17.126 -0.4229  1.2476  1.8407
  489TMC3    H2 7330   1.688   4.063  17.343 -2.9467  0.8906 -0.6131
  489TMC3    C7 7331   1.459   3.967  17.320  0.3603  0.2338  0.4042
  489TMC3    C8 7332   1.942   3.956  17.240 -0.2533  0.1375  0.4478
  489TMC3    O1 7333   1.466   4.081  17.374  0.4677  0.6360 -0.1002
  489TMC3    O2 7334   2.028   3.890  17.178 -0.1231  0.2253 -1.0985
  490MPD2     C 7335   3.122   2.507  17.410  0.4281  0.3455  0.0748
  490MPD2    C1 7336   3.052   2.616  17.457 -0.0437 -0.0934 -0.1549
  490MPD2    C2 7337   3.098   2.745  17.429 -0.2734  0.5116 -0.1876
  490MPD2    C3 7338   3.216   2.770  17.355  0.1699  0.2498  0.4830
  490MPD2    C4 7339   3.278   2.659  17.298 -0.1241  0.0921 -0.0556
  490MPD2    C5 7340   3.227   2.535  17.325  0.1711  0.1049 -0.0817
  490MPD2     H 7341   3.040   2.825  17.473 -1.8221 -0.7830  0.1084
  490MPD2    H1 7342   3.369   2.661  17.239 -0.0162  1.8782  0.1844
  490MPD2    H2 7343   3.096   2.403  17.426  0.5218  0.2543 -0.3666
  490MPD2    H3 7344   3.270   2.446  17.282 -0.9945 -1.7389  2.5604
  490MPD2     N 7345   3.282   2.895  17.331 -0.0056 -0.1097  0.1300
  490MPD2    H5 7346   3.366   2.889  17.276  0.6619  2.6725  0.8687
  490MPD2    N1 7347   2.934   2.598  17.531 -0.1359 -0.3654 -0.6973
  490MPD2    H7 7348   2.883   2.681  17.558  0.3276  0.1211 -1.3150
  491TMC3    C1 7349   2.755   2.480  17.627 -0.2805 -0.6699 -0.7671
  491TMC3    C2 7350   2.727   2.375  17.702  0.6141  0.0319 -0.2448
  491TMC3    C3 7351   2.599   2.332  17.710 -0.4576 -0.3619  0.7746
  491TMC3    C4 7352   2.665   2.538  17.544  0.0483 -0.2216  0.1421
  491TMC3    C5 7353   2.530   2.496  17.549 -0.5170 -0.2827  0.5578
  491TMC3    C6 7354   2.497   2.403  17.645 -0.0539  0.3365  0.0324
  491TMC3     C 7355   2.892   2.480  17.578  0.1863  0.4918 -0.5106
  491TMC3     O 7356   2.949   2.372  17.586  0.2607  1.0298  0.8415
  491TMC3     H 7357   2.808   2.329  17.757  0.0909  1.8277  2.0267
  491TMC3    H1 7358   2.704   2.596  17.461 -1.2543 -1.3368 -1.2412
  491TMC3    H2 7359   2.402   2.353  17.628 -0.3668  0.5980  1.0726
  491TMC3    C7 7360   2.470   2.472  17.418 -0.0658  0.1634 -0.0643
  491TMC3    C8 7361   2.560   2.205   0.002  0.5492 -0.2817 -0.5077
  491TMC3    O1 7362   2.409   2.370  17.396  0.2296  0.3209  0.4541
  491TMC3    O2 7363   2.439   2.179   0.016  0.5105  0.7347  0.0746
  492MPD2     C 7364   3.098   2.943  11.129  0.2463  0.4253 -0.2365
  492MPD2    C1 7365   3.020   2.832  11.096 -0.1668 -0.7156  0.9521
  492MPD2    C2 7366   3.000   2.728  11.179  0.2931  0.0857  1.1105
  492MPD2    C3 7367   3.066   2.726  11.303  0.0634 -0.3519  0.4262
  492MPD2    C4 7368   3.140   2.832  11.335 -0.3345  0.9350  0.2528
  492MPD2    C5 7369   3.159   2.948  11.256 -0.0730  0.6041  0.5858
  492MPD2     H 7370   2.939   2.647  11.141  0.0492  1.3071 -1.1027
  492MPD2    H1 7371   3.198   2.830  11.426 -1.6387  1.2492  1.0785
  492MPD2    H2 7372   3.120   3.022  11.058  0.2181  1.3791  0.8124
  492MPD2    H3 7373   3.227   3.028  11.283  2.8919 -1.5200 -0.5694
  492MPD2     N 7374   3.068   2.617  11.395  0.1499 -0.1234 -0.1804
  492MPD2    H5 7375   3.137   2.626  11.469 -2.9532  1.8363  2.4673
  492MPD2    N1 7376   2.975   2.834  10.957  0.0388  0.6391 -0.1597
  492MPD2    H7 7377   2.998   2.919  10.905 -0.0759 -0.5618 -2.1954
  493TMC3    C1 7378   2.907   2.751  10.742  0.3589  0.1054 -0.4077
  493TMC3    C2 7379   3.016   2.811  10.680 -0.4717 -0.8062  0.0094
  493TMC3    C3 7380   2.980   2.891  10.568 -0.2413  0.0476 -0.0491
  493TMC3    C4 7381   2.783   2.743  10.683  0.0954  0.0135  0.3187
  493TMC3    C5 7382   2.760   2.807  10.573 -0.3983 -0.0839  0.3313
  493TMC3    C6 7383   2.853   2.889  10.518 -0.6162  0.1670  0.3441
  493TMC3     C 7384   2.904   2.739  10.886 -0.0437 -0.4777 -0.2697
  493TMC3     O 7385   2.816   2.668  10.935  0.2613  0.2905 -0.3273
  493TMC3     H 7386   3.109   2.814  10.734 -1.0799  0.2955  0.9921
  493TMC3    H1 7387   2.696   2.693  10.724  1.5650 -1.3599  1.7646
  493TMC3    H2 7388   2.828   2.960  10.440  2.0601 -0.6422 -1.2575
  493TMC3    C7 7389   2.624   2.808  10.516  0.6019 -0.5421 -0.4610
  493TMC3    C8 7390   3.066   2.998  10.522  0.2545 -0.4712 -0.2885
  493TMC3    O1 7391   2.532   2.776  10.585 -0.7568  0.2960 -0.4853
  493TMC3    O2 7392   3.058   3.026  10.403  0.3684 -0.6362 -0.1655
  494TMC3    C1 7393   3.822   4.471   0.606 -0.9395  0.0195  0.1147
  494TMC3    C2 7394   3.729   4.371   0.589 -0.6184  1.1552  0.3033
  494TMC3    C3 7395   3.714   4.322   0.466 -0.1012 -0.8940 -0.5165
  494TMC3    C4 7396   3.900   4.529   0.506 -0.2370  0.4140  0.4727
  494TMC3    C5 7397   3.873   4.481   0.382 -0.0837  0.6160  0.3934
  494TMC3    C6 7398   3.787   4.371   0.358  0.1158  0.9274  0.3121
  494TMC3     C 7399   3.826   4.522   0.742 -0.0233  0.7982  0.2416
  494TMC3     O 7400   3.746   4.491   0.830  0.0675 -0.4195  0.1175
  494TMC3     H 7401   3.683   4.330   0.678 -0.8589  3.2236  1.1445
  494TMC3    H1 7402   3.952   4.622   0.525  1.1903 -0.3294  0.2127
  494TMC3    H2 7403   3.772   4.339   0.255  1.7061 -1.3486  0.7893
  494TMC3    C7 7404   3.947   4.524   0.265  0.6972  0.1115 -0.0564
  494TMC3    C8 7405   3.659   4.185   0.458 -0.0293 -0.2875  0.3685
  494TMC3    O1 7406   3.988   4.432   0.194  0.0665 -0.0918 -0.1403
  494TMC3    O2 7407   3.648   4.121   0.558 -0.0072 -0.8868  0.3481
  495TMC3    C1 7408   2.548   2.081  14.701 -0.1210  0.1466 -0.2956
  495TMC3    C2 7409   2.478   2.115  14.585  0.7490 -0.2621 -0.5412
  495TMC3    C3 7410   2.345   2.137  14.599 -0.0675  0.4563  0.3541
  495TMC3    C4 7411   2.494   2.088  14.826 -0.0228  0.2470  0.7087
  495TMC3    C5 7412   2.362   2.118  14.836 -0.1501 -0.5080  0.0915
  495TMC3    C6 7413   2.291   2.139  14.725 -0.1389  0.0609 -0.0327
  495TMC3     C 7414   2.627   1.959  14.685  0.3534  0.7678  0.6827
  495TMC3     O 7415   2.582   1.865  14.752 -0.0895  0.2422 -0.2706
  495TMC3     H 7416   2.528   2.130  14.490 -3.1873  1.0459 -2.3949
  495TMC3    H1 7417   2.551   2.056  14.912 -1.1718  0.6916  1.6303
  495TMC3    H2 7418   2.189   2.173  14.729 -0.3403 -0.6140  0.6281
  495TMC3    C7 7419   2.306   2.061  14.958  0.8191 -0.4115 -0.3008
  495TMC3    C8 7420   2.259   2.051  14.515 -0.4607 -0.3165  0.0352
  495TMC3    O1 7421   2.380   2.042  15.055 -0.3963  0.1346  0.1623
  495TMC3    O2 7422   2.139   2.052  14.548  0.1352  0.2299 -0.7814
  496MPD2     C 7423   4.284   1.948  15.476  0.4325 -0.5444 -0.0284
  496MPD2    C1 7424   4.192   1.866  15.414  0.7038  0.1701 -0.4307
  496MPD2    C2 7425   4.055   1.867  15.447  0.0174 -0.0864 -0.0706
  496MPD2    C3 7426   4.018   1.954  15.548  0.4238  0.4442  0.8427
  496MPD2    C4 7427   4.105   2.046  15.604 -0.4751  0.6433 -0.5542
  496MPD2    C5 7428   4.238   2.040  15.569  0.2708  0.0504  0.1831
  496MPD2     H 7429   3.983   1.810  15.389  1.3266 -1.4344 -0.3506
  496MPD2    H1 7430   4.071   2.130  15.664 -1.4277 -1.5535  1.9353
  496MPD2    H2 7431   4.391   1.939  15.459 -0.1518 -1.7920 -2.9521
  496MPD2    H3 7432   4.313   2.101  15.618  1.1097 -0.0192 -1.0160
  496MPD2     N 7433   3.884   1.961  15.597  0.1817 -0.1234  0.1502
  496MPD2    H5 7434   3.871   2.025  15.675  0.1359 -0.8497  0.7350
  496MPD2    N1 7435   4.250   1.767  15.329 -0.1630  0.2019  0.0714
  496MPD2    H7 7436   4.350   1.776  15.312 -0.3461  1.6781 -0.1830
  497TMC3    C1 7437   3.662   1.896  15.662 -1.1476 -0.4123  0.1967
  497TMC3    C2 7438   3.538   1.869  15.620 -0.5203  0.8369  0.2549
  497TMC3    C3 7439   3.432   1.870  15.710 -0.2168  0.4812 -0.1152
  497TMC3    C4 7440   3.679   1.921  15.796 -0.2678 -1.0867 -0.9645
  497TMC3    C5 7441   3.579   1.923  15.886 -0.7605  0.1542 -0.1567
  497TMC3    C6 7442   3.452   1.898  15.842  0.0063 -0.0199 -0.0221
  497TMC3     C 7443   3.776   1.880  15.568  0.0722  0.2305  0.2310
  497TMC3     O 7444   3.766   1.798  15.479  0.2412  0.2803 -0.1628
  497TMC3     H 7445   3.519   1.861  15.513  2.3764  0.0751 -0.1891
  497TMC3    H1 7446   3.776   1.950  15.834 -0.7866  0.3441 -0.7010
  497TMC3    H2 7447   3.367   1.901  15.908 -1.6766  2.1281 -2.2926
  497TMC3    C7 7448   3.605   1.924  16.030  0.1640 -0.0185 -0.1138
  497TMC3    C8 7449   3.307   1.900  15.661  0.4731  0.4624 -0.0034
  497TMC3    O1 7450   3.498   1.930  16.093  0.3462 -0.4547 -0.4320
  497TMC3    O2 7451   3.238   1.985  15.712 -0.0456  0.3132 -0.7009
  498MPD2     C 7452   0.908   2.748  10.064 -1.1246 -0.1181  0.6159
  498MPD2    C1 7453   0.811   2.779  10.163 -0.5214 -0.5600 -0.2877
  498MPD2    C2 7454   0.727   2.681  10.199  0.0175 -0.3767  0.0849
  498MPD2    C3 7455   0.724   2.557  10.133 -1.2032  0.3639 -0.2498
  498MPD2    C4 7456   0.818   2.524  10.046 -0.2369  0.2492  0.2502
  498MPD2    C5 7457   0.911   2.620  10.013  0.1100 -0.0959  0.1852
  498MPD2     H 7458   0.649   2.697  10.272 -1.0824 -2.3628 -0.6586
  498MPD2    H1 7459   0.822   2.430   9.992  0.4555  0.0674  0.6252
  498MPD2    H2 7460   0.975   2.821  10.020 -1.1949  0.1572  0.9641
  498MPD2    H3 7461   0.996   2.594   9.950 -1.3770 -1.4248 -1.2778
  498MPD2     N 7462   0.639   2.457  10.183 -0.6782  0.0272 -0.5789
  498MPD2    H5 7463   0.604   2.484  10.274 -1.7335  1.7112 -1.4892
  498MPD2    N1 7464   0.800   2.907  10.225 -0.4022  0.4936 -0.0788
  498MPD2    H7 7465   0.733   2.921  10.300 -1.5008 -2.0409 -0.5665
  499TMC3    C1 7466   0.835   3.129  10.274 -0.2164 -0.2929 -0.2827
  499TMC3    C2 7467   0.932   3.221  10.304  0.3651  0.9005  0.0341
  499TMC3    C3 7468   0.897   3.342  10.359 -0.7450 -0.3301  0.6145
  499TMC3    C4 7469   0.707   3.153  10.279 -0.6663 -0.0728 -0.1163
  499TMC3    C5 7470   0.676   3.268  10.342 -0.3946 -1.2112  0.5819
  499TMC3    C6 7471   0.763   3.366  10.379 -0.2346 -0.0720 -0.2325
  499TMC3     C 7472   0.885   3.014  10.199 -0.1814  0.1258 -0.0183
  499TMC3     O 7473   0.972   3.034  10.113 -0.2566  0.3559  0.3001
  499TMC3     H 7474   1.037   3.193  10.297 -0.3431 -2.1166  1.5097
  499TMC3    H1 7475   0.638   3.081  10.237  0.5312 -1.7993  0.8833
  499TMC3    H2 7476   0.731   3.466  10.405  0.6062  0.0445  0.3418
  499TMC3    C7 7477   0.541   3.310  10.329 -0.1385  0.4731  0.2714
  499TMC3    C8 7478   0.985   3.454  10.364  0.5327 -0.1688 -0.5403
  499TMC3    O1 7479   0.517   3.427  10.307  0.0423 -0.8739  0.9789
  499TMC3    O2 7480   0.954   3.548  10.438 -0.0549 -0.1925 -0.2103
  500MPD2     C 7481   1.414   4.428  10.618 -0.0310  0.1654 -0.3498
  500MPD2    C1 7482   1.440   4.369  10.489 -0.1796  0.4539 -0.6792
  500MPD2    C2 7483   1.333   4.346  10.406 -0.0544  0.1238 -0.0688
  500MPD2    C3 7484   1.205   4.367  10.451 -0.1784  1.1131  0.1791
  500MPD2    C4 7485   1.181   4.424  10.575 -0.5970  0.3824  0.2892
  500MPD2    C5 7486   1.284   4.464  10.651  0.2470  0.1887 -0.7699
  500MPD2     H 7487   1.353   4.296  10.312  0.4915  0.9439 -0.3860
  500MPD2    H1 7488   1.081   4.440  10.613 -0.6296 -0.3952  0.5326
  500MPD2    H2 7489   1.496   4.442  10.688 -0.3520 -0.0213  0.0617
  500MPD2    H3 7490   1.259   4.523  10.739 -1.1646 -3.3314  1.2020
  500MPD2     N 7491   1.083   4.339  10.377  0.3200  0.1838 -0.2794
  500MPD2    H5 7492   0.992   4.362  10.415  0.9419 -1.1660  2.0535
  500MPD2    N1 7493   1.572   4.339  10.446 -0.0007  0.0725 -0.5410
  500MPD2    H7 7494   1.588   4.321  10.347 -1.0138  0.5246 -0.7886
  501TMC3    C1 7495   1.792   4.262  10.453 -0.0370 -0.8538  0.4172
  501TMC3    C2 7496   1.822   4.319  10.331 -0.4866  0.0732  0.1513
  501TMC3    C3 7497   1.942   4.290  10.275 -0.1980  0.7348  0.0638
  501TMC3    C4 7498   1.862   4.154  10.500 -0.1556 -0.7547  0.3506
  501TMC3    C5 7499   1.974   4.117  10.432  0.4843  0.6207  0.3337
  501TMC3    C6 7500   2.015   4.190  10.322  0.1868 -0.1564  0.4420
  501TMC3     C 7501   1.687   4.325  10.527  0.0075  0.0095 -0.5082
  501TMC3     O 7502   1.692   4.317  10.651  0.0007 -0.6839 -0.1880
  501TMC3     H 7503   1.764   4.401  10.290 -0.6435 -0.6051 -0.9705
  501TMC3    H1 7504   1.825   4.090  10.579  3.1348 -2.4285  0.4942
  501TMC3    H2 7505   2.107   4.161  10.274  0.7522 -0.1781  1.5333
  501TMC3    C7 7506   2.070   4.046  10.518 -0.3947  0.0995 -0.3845
  501TMC3    C8 7507   2.022   4.404  10.247 -0.3314 -0.2294  0.0253
  501TMC3    O1 7508   2.031   4.012  10.630 -0.4123  0.8206  0.3008
  501TMC3    O2 7509   2.132   4.403  10.297 -0.0098  0.5176 -0.4324
  502TMC3    C1 7510   1.805   2.798  14.894  0.1503  0.0315  0.3792
  502TMC3    C2 7511   1.781   2.933  14.909 -0.1246  0.3389  0.4970
  502TMC3    C3 7512   1.658   2.970  14.936  0.5429 -0.3546 -0.3057
  502TMC3    C4 7513   1.699   2.711  14.903  0.3549  0.1746  0.5183
  502TMC3    C5 7514   1.577   2.753  14.934 -0.2263 -0.7759 -0.6932
  502TMC3    C6 7515   1.562   2.880  14.967 -0.1882 -0.4478 -0.6248
  502TMC3     C 7516   1.918   2.759  14.972 -0.6195  0.3340  0.1084
  502TMC3     O 7517   2.025   2.817  14.946  0.2660 -0.1250  0.0209
  502TMC3     H 7518   1.863   3.004  14.918  0.6725 -0.5796  0.3938
  502TMC3    H1 7519   1.723   2.606  14.892 -1.1886  0.0226 -1.4013
  502TMC3    H2 7520   1.464   2.917  14.992  0.6938  0.4740  1.4418
  502TMC3    C7 7521   1.499   2.655  14.999 -0.0818  0.1223  0.4678
  502TMC3    C8 7522   1.638   3.105  14.986  0.8575  0.2342 -0.1312
  502TMC3    O1 7523   1.555   2.565  15.064 -0.1221 -0.1292  0.4494
  502TMC3    O2 7524   1.699   3.201  14.935  0.2041  0.0406  0.0683
  503MPD2     C 7525   3.917   3.373  16.837 -0.5933 -0.1503 -0.5141
  503MPD2    C1 7526   3.965   3.400  16.965  0.2164  0.2132  0.2263
  503MPD2    C2 7527   4.024   3.296  17.032  0.0813 -0.1837  0.0212
  503MPD2    C3 7528   4.048   3.172  16.973  0.8847  0.0376  0.1207
  503MPD2    C4 7529   4.008   3.154  16.843  0.2813 -0.2949 -0.2106
  503MPD2    C5 7530   3.937   3.252  16.780  0.7052  0.0248 -0.0738
  503MPD2     H 7531   4.052   3.302  17.136 -0.8246 -1.1146  0.3144
  503MPD2    H1 7532   4.031   3.067  16.782  1.6957  0.7421 -1.1386
  503MPD2    H2 7533   3.861   3.441  16.775  0.5445 -1.4368 -2.9693
  503MPD2    H3 7534   3.900   3.245  16.678  1.4222 -1.0514 -0.2645
  503MPD2     N 7535   4.118   3.072  17.054  0.7841 -0.3354 -0.3511
  503MPD2    H5 7536   4.150   3.102  17.146 -1.4592 -0.7082  0.5474
  503MPD2    N1 7537   3.937   3.516  17.031  0.1959 -0.3393  0.2819
  503MPD2    H7 7538   3.942   3.503  17.132 -0.5121  0.1504  0.3871
  504TMC3    C1 7539   4.233   2.881  17.115 -0.4486 -0.1464  0.8681
  504TMC3    C2 7540   4.224   2.921  17.245  0.4717 -0.1925 -0.0533
  504TMC3    C3 7541   4.300   2.850  17.330  0.7685 -0.4411 -0.3356
  504TMC3    C4 7542   4.311   2.782  17.074  0.3921 -0.3490  0.0440
  504TMC3    C5 7543   4.389   2.719  17.162  0.1575 -0.6022  0.0457
  504TMC3    C6 7544   4.379   2.747  17.300  0.2330 -0.2808 -0.4157
  504TMC3     C 7545   4.161   2.949  17.012  0.0190  0.1960  0.0579
  504TMC3     O 7546   4.156   2.905  16.897 -0.1983 -0.4726 -0.4959
  504TMC3     H 7547   4.157   3.000  17.278  0.0012 -0.1997 -0.9853
  504TMC3    H1 7548   4.314   2.756  16.969 -1.4193 -0.3919  0.0083
  504TMC3    H2 7549   4.438   2.693  17.373 -0.7065 -0.5763  0.1258
  504TMC3    C7 7550   4.509   2.652  17.101 -0.1057  0.0331 -0.0437
  504TMC3    C8 7551   4.302   2.881  17.474 -0.7042 -0.3823  0.5146
  504TMC3    O1 7552   4.547   2.700  16.996 -0.2581  0.1807  0.4200
  504TMC3    O2 7553   4.310   2.788  17.555 -0.0783 -0.0052  0.3076
  505MPD2     C 7554   4.532   1.424  10.762 -0.3983 -0.4909  0.1420
  505MPD2    C1 7555   4.664   1.386  10.790 -0.2900  0.3047 -0.0239
  505MPD2    C2 7556   4.733   1.446  10.898 -0.0727  0.3847  0.9115
  505MPD2    C3 7557   4.669   1.529  10.981 -0.1034  0.5109 -0.5785
  505MPD2    C4 7558   4.537   1.576  10.955 -0.1340 -0.4207 -0.0305
  505MPD2    C5 7559   4.477   1.524  10.841  0.3348 -0.4476 -0.2099
  505MPD2     H 7560   0.098   1.431  10.913  0.1646 -0.2707 -1.4117
  505MPD2    H1 7561   4.488   1.658  11.007  1.8600  1.4934 -1.1785
  505MPD2    H2 7562   4.470   1.371  10.690  0.0526 -2.0479  0.8952
  505MPD2    H3 7563   4.372   1.550  10.826 -0.0846 -1.2773  1.3121
  505MPD2     N 7564   4.737   1.587  11.090 -0.3496 -0.1377  0.2667
  505MPD2    H5 7565   4.705   1.679  11.121 -2.1020 -0.8373  0.5138
  505MPD2    N1 7566   4.722   1.301  10.701 -0.1337  0.0615 -0.4450
  505MPD2    H7 7567   4.674   1.274  10.616 -1.1993 -2.1682  0.8678
  506TMC3    C1 7568   0.133   1.136  10.627 -0.0120  0.3334  0.1605
  506TMC3    C2 7569   0.177   1.195  10.515  0.2095 -0.2766 -0.0958
  506TMC3    C3 7570   0.298   1.162  10.457  0.0953  1.0885 -0.0113
  506TMC3    C4 7571   0.205   1.041  10.679  0.7494  0.5294  0.3126
  506TMC3    C5 7572   0.330   1.006  10.629  0.8066  0.1312  0.1690
  506TMC3    C6 7573   0.374   1.067  10.516 -0.1902 -0.3275  0.2547
  506TMC3     C 7574   0.096   1.229  10.734 -0.0718  0.4043 -0.0506
  506TMC3     O 7575   0.150   1.219  10.842 -0.1442 -0.3487  0.0073
  506TMC3     H 7576   0.122   1.276  10.467  0.2737 -0.0661  0.1830
  506TMC3    H1 7577   0.167   0.987  10.765  2.8441 -1.3446  0.0755
  506TMC3    H2 7578   0.468   1.033  10.474 -1.3811 -0.3884 -2.3788
  506TMC3    C7 7579   0.436   1.002  10.730 -0.1610 -0.6129 -0.2234
  506TMC3    C8 7580   0.343   1.217  10.336  0.2564  0.2408 -0.1278
  506TMC3    O1 7581   0.542   0.944  10.707  0.2245 -0.2899 -0.2586
  506TMC3    O2 7582   0.419   1.150  10.265  0.2129 -0.0326 -0.5513
  507TMC3    C1 7583   0.389   3.319  15.451 -0.1821 -0.3655 -0.4296
  507TMC3    C2 7584   0.415   3.227  15.361  0.3999 -0.2065  0.6763
  507TMC3    C3 7585   0.487   3.265  15.250 -0.0722 -0.8831  0.0421
  507TMC3    C4 7586   0.419   3.457  15.436 -0.6597  0.6750  0.4875
  507TMC3    C5 7587   0.511   3.486  15.332  0.3558  0.0955  0.5628
  507TMC3    C6 7588   0.539   3.394  15.238 -0.4867 -0.2337  0.8952
  507TMC3     C 7589   0.278   3.281  15.545 -0.3810 -0.8120  0.3370
  507TMC3     O 7590   0.200   3.367  15.586 -0.6325  0.0429 -0.2676
  507TMC3     H 7591   0.390   3.122  15.368  2.5412 -0.8276 -0.7729
  507TMC3    H1 7592   0.395   3.524  15.517 -2.1639  0.8698 -0.1072
  507TMC3    H2 7593   0.599   3.407  15.148  1.1634  3.0975  2.4637
  507TMC3    C7 7594   0.481   3.611  15.261  0.1885 -0.4769  0.1652
  507TMC3    C8 7595   0.428   3.225  15.127  0.2177  0.4573 -0.0412
  507TMC3    O1 7596   0.480   3.606  15.138 -0.1092 -0.1234 -0.3351
  507TMC3    O2 7597   0.396   3.107  15.120  0.0149 -0.0814 -0.3276
  508MPD2     C 7598   0.636   0.446  15.974 -0.5290 -0.1376  0.1976
  508MPD2    C1 7599   0.764   0.484  16.003  0.2267 -0.3276 -0.2449
  508MPD2    C2 7600   0.817   0.596  15.937 -0.3026  0.7146 -0.5146
  508MPD2    C3 7601   0.738   0.663  15.847  0.3452  0.6086  0.8423
  508MPD2    C4 7602   0.616   0.619  15.811  0.2875  0.0321 -0.3395
  508MPD2    C5 7603   0.567   0.506  15.872 -0.1030 -0.0955 -0.2008
  508MPD2     H 7604   0.916   0.629  15.966 -0.5421  1.6023 -0.7068
  508MPD2    H1 7605   0.553   0.678  15.745  1.8361  3.0264  0.8658
  508MPD2    H2 7606   0.589   0.372  16.038  1.1851  0.2309  1.9151
  508MPD2    H3 7607   0.466   0.469  15.855 -0.1330  1.2168 -2.9295
  508MPD2     N 7608   0.801   0.780  15.785  0.2966  0.0059 -0.0754
  508MPD2    H5 7609   0.891   0.801  15.827  1.2589 -2.9514 -0.6581
  508MPD2    N1 7610   0.838   0.410  16.100  0.7027 -0.2548 -0.6185
  508MPD2    H7 7611   0.787   0.350  16.164  1.0302  0.7906  0.6263
  509TMC3    C1 7612   0.810   1.231  15.657  1.0539 -0.1985  0.6800
  509TMC3    C2 7613   0.906   1.258  15.752 -0.4140 -0.5626  0.6422
  509TMC3    C3 7614   0.960   1.147  15.821  0.2872  0.0202  0.3227
  509TMC3    C4 7615   0.750   1.106  15.648  0.1371 -0.2475  0.1307
  509TMC3    C5 7616   0.811   1.003  15.712  0.1122 -0.7187  0.6211
  509TMC3    C6 7617   0.912   1.023  15.795 -0.7038 -0.6331 -0.0466
  509TMC3     C 7618   0.737   1.338  15.597 -0.6507 -0.5692 -0.1453
  509TMC3     O 7619   0.676   1.421  15.663  0.9075  0.3567  0.0075
  509TMC3     H 7620   0.935   1.361  15.768 -0.1926 -0.4892 -0.2320
  509TMC3    H1 7621   0.666   1.104  15.580  1.2498 -4.4932 -1.0875
  509TMC3    H2 7622   0.975   0.945  15.835  1.3680  1.3482  0.5270
  509TMC3    C7 7623   0.740   0.869  15.702  0.3497 -0.3036  0.2300
  509TMC3    C8 7624   1.088   1.159  15.894 -0.0118  0.0644 -0.3551
  509TMC3    O1 7625   0.632   0.864  15.641  0.4962  0.7558 -0.3237
  509TMC3    O2 7626   1.124   1.066  15.964 -0.0639  0.0090  0.1411
  510MPD2     C 7627   3.662   2.204  14.636 -0.0731  0.0611  0.9929
  510MPD2    C1 7628   3.657   2.068  14.666 -0.0260  0.0319 -0.2456
  510MPD2    C2 7629   3.767   1.994  14.623 -0.7538  0.3018  0.7872
  510MPD2    C3 7630   3.875   2.033  14.544  0.3481  0.0450 -0.0144
  510MPD2    C4 7631   3.879   2.177  14.521  0.3436 -0.6507 -0.4352
  510MPD2    C5 7632   3.773   2.258  14.573  0.0173 -0.0290 -0.0130
  510MPD2     H 7633   3.773   1.890  14.653  1.7480  1.1366  3.2009
  510MPD2    H1 7634   3.943   2.232  14.453  0.4090  0.8582  0.8350
  510MPD2    H2 7635   3.594   2.274  14.681  0.6743  2.7474 -2.0694
  510MPD2    H3 7636   3.773   2.361  14.538 -0.7418  0.7609  2.3363
  510MPD2     N 7637   3.969   1.945  14.495  0.5288 -1.0348 -0.0974
  510MPD2    H5 7638   3.966   1.848  14.525  0.3656 -1.5353 -1.7300
  510MPD2    N1 7639   3.540   2.017  14.735 -0.6411 -0.1355  0.3944
  510MPD2    H7 7640   3.473   2.082  14.773  1.6829  2.0185  0.8407
  511TMC3    C1 7641   3.414   1.845  14.841 -0.1723  0.6555  0.1673
  511TMC3    C2 7642   3.363   1.927  14.939  0.2648 -0.5373 -0.6947
  511TMC3    C3 7643   3.262   1.881  15.017 -0.6699  0.0391 -0.0798
  511TMC3    C4 7644   3.374   1.721  14.824 -0.4546  0.1608  0.0097
  511TMC3    C5 7645   3.275   1.680  14.908  0.4455  0.2113  0.3998
  511TMC3    C6 7646   3.213   1.755  15.005  0.5909 -0.1474  0.3936
  511TMC3     C 7647   3.528   1.881  14.755 -0.0243 -0.1718  0.3008
  511TMC3     O 7648   3.573   1.792  14.681 -0.0846 -0.6377  0.3887
  511TMC3     H 7649   3.389   2.032  14.936 -2.2827 -0.0071 -4.2214
  511TMC3    H1 7650   3.407   1.656  14.743  2.5064  0.6751  0.7976
  511TMC3    H2 7651   3.137   1.717  15.072 -1.2859 -2.1934 -2.9203
  511TMC3    C7 7652   3.207   1.560  14.871 -0.6211  0.3219 -0.5572
  511TMC3    C8 7653   3.196   1.986  15.107 -0.6417 -0.3872 -0.0137
  511TMC3    O1 7654   3.221   1.533  14.752  0.4070 -0.0038 -0.4714
  511TMC3    O2 7655   3.261   2.089  15.137  0.8119  0.4548  0.3543
  512TMC3    C1 7656   2.559   1.290  13.231 -0.9533 -0.0239 -0.7354
  512TMC3    C2 7657   2.600   1.314  13.361  0.3813  0.0601 -0.3024
  512TMC3    C3 7658   2.618   1.219  13.455 -0.3392  0.0667 -0.5286
  512TMC3    C4 7659   2.508   1.166  13.203  1.2113 -0.2801  0.3826
  512TMC3    C5 7660   2.517   1.070  13.307  0.5126  0.6411 -0.2489
  512TMC3    C6 7661   2.577   1.094  13.431  0.7463 -0.3153 -0.2623
  512TMC3     C 7662   2.493   1.396  13.162 -0.8652 -0.5242  0.2275
  512TMC3     O 7663   2.432   1.476  13.237 -0.4796  0.5358 -0.3485
  512TMC3     H 7664   2.621   1.419  13.379 -1.7492  0.6808 -1.4511
  512TMC3    H1 7665   2.452   1.157  13.111  1.2425  1.4181  0.1997
  512TMC3    H2 7666   2.601   1.016  13.503 -0.8519  0.3245  0.9426
  512TMC3    C7 7667   2.502   0.939  13.263  0.1168 -0.5622 -0.7207
  512TMC3    C8 7668   2.709   1.238  13.565 -0.6458  0.2810  0.7348
  512TMC3    O1 7669   2.489   0.915  13.145 -0.0871  0.3638 -0.0487
  512TMC3    O2 7670   2.715   1.156  13.649 -0.1145  0.1630  0.1774
  513MPD2     C 7671   0.419   1.563  13.374 -0.9679  0.4011 -0.5157
  513MPD2    C1 7672   0.507   1.500  13.297 -0.2510 -0.4383  0.6971
  513MPD2    C2 7673   0.639   1.539  13.301  0.5102 -0.3041 -0.2402
  513MPD2    C3 7674   0.689   1.635  13.381 -0.4675 -0.3241 -0.3022
  513MPD2    C4 7675   0.598   1.695  13.459 -0.4142  0.3381 -0.1914
  513MPD2    C5 7676   0.464   1.665  13.459 -0.6479 -0.5149  0.1375
  513MPD2     H 7677   0.701   1.496  13.223  1.3875 -0.7615  0.7028
  513MPD2    H1 7678   0.613   1.773  13.532  0.2574 -0.0638  0.0995
  513MPD2    H2 7679   0.314   1.535  13.379 -1.8034  3.2084 -2.0977
  513MPD2    H3 7680   0.386   1.712  13.518 -2.3779 -4.0688  0.6688
  513MPD2     N 7681   0.823   1.673  13.367  0.0218 -0.2050  0.4761
  513MPD2    H5 7682   0.878   1.613  13.306 -0.2066 -0.6163  0.6761
  513MPD2    N1 7683   0.461   1.389  13.225  0.1731  0.1429  0.1228
  513MPD2    H7 7684   0.360   1.376  13.227  0.2122 -0.3967 -2.0683
  514TMC3    C1 7685   0.486   1.184  13.106 -0.2697  0.3617 -0.3169
  514TMC3    C2 7686   0.377   1.207  13.018  0.0779 -0.5801  0.1384
  514TMC3    C3 7687   0.382   1.155  12.893  0.2451 -0.0901 -0.1050
  514TMC3    C4 7688   0.585   1.098  13.070 -0.3293 -0.0744  0.0865
  514TMC3    C5 7689   0.593   1.066  12.938 -0.8233 -0.1732 -1.2902
  514TMC3    C6 7690   0.491   1.085  12.848  0.0989 -0.1846  0.7559
  514TMC3     C 7691   0.553   1.296  13.170  0.2354  0.4649  0.2467
  514TMC3     O 7692   0.675   1.291  13.161 -0.6586  0.4989  0.0427
  514TMC3     H 7693   0.298   1.277  13.044  1.8595  0.5294  2.5605
  514TMC3    H1 7694   0.656   1.067  13.147 -0.6373 -0.5506  0.1771
  514TMC3    H2 7695   0.494   1.034  12.752  0.7918  0.8152  0.2452
  514TMC3    C7 7696   0.721   1.077  12.878 -0.7164  0.7431  0.4286
  514TMC3    C8 7697   0.273   1.172  12.812 -0.0550  0.4334  0.4155
  514TMC3    O1 7698   0.729   1.035  12.765  0.0890  0.4490 -0.2240
  514TMC3    O2 7699   0.178   1.232  12.859 -0.1392  0.1926 -0.0066
  515MPD2     C 7700   2.654   2.959  14.186  0.5151 -0.0313 -0.1015
  515MPD2    C1 7701   2.585   3.042  14.274  0.3761 -0.0693  0.1632
  515MPD2    C2 7702   2.654   3.088  14.383 -0.6716  0.3022 -0.6696
  515MPD2    C3 7703   2.784   3.047  14.420  0.3838  0.1695 -0.1072
  515MPD2    C4 7704   2.850   2.976  14.320  0.2749  0.1718  0.1961
  515MPD2    C5 7705   2.787   2.930  14.204 -0.2561 -0.7543 -0.2974
  515MPD2     H 7706   2.597   3.150  14.451 -1.1105 -1.7198  0.8239
  515MPD2    H1 7707   2.956   2.957  14.332 -0.0233 -0.5490  1.6504
  515MPD2    H2 7708   2.609   2.925  14.093 -0.3987 -0.4754  0.4971
  515MPD2    H3 7709   2.845   2.869  14.136 -1.1031 -2.3747  0.4374
  515MPD2     N 7710   2.843   3.086  14.539  0.5324 -0.4459 -0.6766
  515MPD2    H5 7711   2.933   3.044  14.561  0.4240 -0.5293 -0.3877
  515MPD2    N1 7712   2.443   3.079  14.263 -0.0546  0.1342  0.5297
  515MPD2    H7 7713   2.402   3.154  14.319  0.1258 -0.9891  2.1739
  516TMC3    C1 7714   2.218   3.058  14.191 -0.3168  0.3189  0.2049
  516TMC3    C2 7715   2.203   3.189  14.226  0.3221 -0.6356 -0.8604
  516TMC3    C3 7716   2.094   3.218  14.304  0.4538 -0.9212  0.4564
  516TMC3    C4 7717   2.130   2.961  14.227  0.0771 -0.3197  0.3977
  516TMC3    C5 7718   2.021   2.999  14.304  0.1208 -0.1622  0.2046
  516TMC3    C6 7719   2.003   3.125  14.346  0.0481 -0.0131 -0.0369
  516TMC3     C 7720   2.354   3.011  14.182 -0.0665  0.5515  0.0755
  516TMC3     O 7721   2.368   2.909  14.121  0.2754 -0.4605  0.4117
  516TMC3     H 7722   2.274   3.263  14.193  0.6653 -1.0052 -0.9439
  516TMC3    H1 7723   2.145   2.862  14.185  2.4982  0.3500 -0.3108
  516TMC3    H2 7724   1.910   3.160  14.389  0.2307  0.3977  0.0335
  516TMC3    C7 7725   1.994   2.898  14.411 -0.1107  0.2540  0.0120
  516TMC3    C8 7726   2.045   3.349  14.286 -0.5792  0.1559  0.2174
  516TMC3    O1 7727   2.014   2.932  14.529 -0.0737 -0.8928 -0.0832
  516TMC3    O2 7728   1.925   3.365  14.302 -0.0999  0.1879 -0.5181
  517MPD2     C 7729   1.816   4.671  17.616  0.4755 -0.1942  0.7388
  517MPD2    C1 7730   1.916   4.657  17.716 -0.7002 -0.1786  0.6863
  517MPD2    C2 7731   1.969   0.032   0.021  0.9770  0.1836 -0.6787
  517MPD2    C3 7732   1.897   0.151   0.011 -0.1144 -0.3026 -0.3820
  517MPD2    C4 7733   1.794   0.158  17.677  0.9052  0.4471 -0.6718
  517MPD2    C5 7734   1.758   0.051  17.600  0.3905 -0.2223 -0.2206
  517MPD2     H 7735   2.047   0.024   0.095 -1.1386  0.5884  1.6055
  517MPD2    H1 7736   1.731   0.246  17.680 -0.8602 -0.9188  2.2669
  517MPD2    H2 7737   1.767   4.593  17.559 -1.3256  0.7053  1.0807
  517MPD2    H3 7738   1.676   0.061  17.531  0.3589 -1.8117 -0.4281
  517MPD2     N 7739   1.904   0.261   0.100 -0.2319  0.0952  0.2538
  517MPD2    H5 7740   1.829   0.329   0.103  0.3279  0.6673  1.7659
  517MPD2    N1 7741   1.969   4.531  17.752  0.0903  0.5542  0.1252
  517MPD2    H7 7742   2.050   4.540   0.052  0.8534  3.4748 -1.3000
  518TMC3    C1 7743   2.022   4.308  17.730 -0.4708  0.1962  1.0520
  518TMC3    C2 7744   1.972   4.187  17.699  0.3745 -0.1435  0.4874
  518TMC3    C3 7745   2.061   4.090  17.677  0.4659  0.1364 -0.8797
  518TMC3    C4 7746   2.159   4.335  17.722  0.8229 -0.2325 -0.3256
  518TMC3    C5 7747   2.243   4.230  17.698  0.1639  0.0349 -1.6792
  518TMC3    C6 7748   2.200   4.103  17.680  0.0629 -0.1356  0.4819
  518TMC3     C 7749   1.929   4.411  17.708 -0.1057 -0.6004 -0.3972
  518TMC3     O 7750   1.826   4.386  17.643 -0.0796  0.7509  0.3011
  518TMC3     H 7751   1.865   4.175  17.707  0.1129  0.5814 -1.8534
  518TMC3    H1 7752   2.196   4.436  17.730  2.0701 -0.8549  1.8928
  518TMC3    H2 7753   2.270   4.026  17.649 -1.3567 -1.6756  1.0945
  518TMC3    C7 7754   2.383   4.276  17.699  0.0922  0.3115  0.0986
  518TMC3    C8 7755   2.024   3.953  17.627 -0.7704 -0.0627  0.7352
  518TMC3    O1 7756   2.402   4.395  17.697 -0.1420  0.0092 -0.1426
  518TMC3    O2 7757   2.104   3.885  17.563  0.5284  0.2325 -0.1784
  519MPD2     C 7758   3.844   2.451  14.214 -0.3314  0.4233  0.5057
  519MPD2    C1 7759   3.819   2.535  14.109 -1.0794 -0.2272  0.6689
  519MPD2    C2 7760   3.860   2.492  13.980  0.1653  0.0124  0.0782
  519MPD2    C3 7761   3.922   2.368  13.961  0.0710  0.3388  0.8140
  519MPD2    C4 7762   3.958   2.296  14.072  0.1418 -0.0674  0.0374
  519MPD2    C5 7763   3.916   2.337  14.190 -0.2798  0.5231  0.2516
  519MPD2     H 7764   3.837   2.559  13.898  2.8938  1.4812  0.4943
  519MPD2    H1 7765   4.017   2.205  14.073 -0.7090 -0.6077  1.8641
  519MPD2    H2 7766   3.816   2.467  14.317  1.0159 -2.9676  1.3984
  519MPD2    H3 7767   3.948   2.274  14.273  1.1940  0.2150 -0.5654
  519MPD2     N 7768   3.972   2.326  13.837  0.8369  0.0341  0.2299
  519MPD2    H5 7769   4.041   2.253  13.845 -0.0916 -0.8830 -0.1795
  519MPD2    N1 7770   3.751   2.655  14.133 -0.9198  1.1011  0.1564
  519MPD2    H7 7771   3.713   2.684  14.222  0.2184  1.1654  0.6330
  520TMC3    C1 7772   4.054   2.356  13.626  1.0690  0.0625 -0.0791
  520TMC3    C2 7773   4.035   2.413  13.502 -0.5422  0.1788  0.3840
  520TMC3    C3 7774   4.137   2.455  13.428  0.1277 -0.5377 -0.3483
  520TMC3    C4 7775   4.185   2.333  13.667  0.6884  0.2929  0.0503
  520TMC3    C5 7776   4.289   2.389  13.591 -0.0460 -0.1013 -0.6020
  520TMC3    C6 7777   4.265   2.440  13.465 -0.1775 -0.0921 -0.5222
  520TMC3     C 7778   3.952   2.393  13.719  0.5143  0.3846  0.0437
  520TMC3     O 7779   3.877   2.483  13.686  0.2549  0.4220 -0.2672
  520TMC3     H 7780   3.931   2.416  13.469 -1.0377  0.5691  1.9752
  520TMC3    H1 7781   4.201   2.319  13.773 -1.6325 -1.7621  0.1217
  520TMC3    H2 7782   4.351   2.464  13.404  0.5830  0.4522  0.7608
  520TMC3    C7 7783   4.408   2.400  13.666  0.2717 -0.2165 -1.0423
  520TMC3    C8 7784   4.111   2.563  13.334 -0.2546  0.3491 -0.3868
  520TMC3    O1 7785   4.443   2.303  13.734 -0.1541 -0.1879 -0.3599
  520TMC3    O2 7786   4.199   2.602  13.263 -0.0008 -0.5990 -0.1194
  521MPD2     C 7787   4.592   0.913  17.655 -0.6683 -0.1315 -0.0614
  521MPD2    C1 7788   4.552   0.871  17.530  0.3097 -0.6839 -0.0102
  521MPD2    C2 7789   4.653   0.834  17.444  0.0697  0.0086 -0.0062
  521MPD2    C3 7790   0.048   0.842  17.466 -0.0262 -0.1948  0.7536
  521MPD2    C4 7791   0.091   0.882  17.590 -0.4324 -0.0519 -0.1831
  521MPD2    C5 7792   4.733   0.910  17.683  0.2264  0.5453  0.1876
  521MPD2     H 7793   4.630   0.794  17.346  0.9331 -0.0466 -0.1860
  521MPD2    H1 7794   0.189   0.880  17.636  0.6669 -2.0761 -2.6454
  521MPD2    H2 7795   4.521   0.949  17.728 -1.5908 -0.9715 -0.5400
  521MPD2    H3 7796   0.025   0.942   0.021  2.9140 -0.1420 -0.5016
  521MPD2     N 7797   0.133   0.804  17.364 -0.4297  0.2312 -0.0734
  521MPD2    H5 7798   0.087   0.790  17.274 -0.3254 -0.0101 -0.0896
  521MPD2    N1 7799   4.413   0.875  17.491 -0.7340 -0.5020  0.7757
  521MPD2    H7 7800   4.349   0.892  17.568  0.1166  1.7187  0.9867
  522TMC3    C1 7801   0.329   0.775  17.238 -0.2717  0.4175  0.3594
  522TMC3    C2 7802   0.436   0.684  17.241  0.1391  0.1028 -0.0080
  522TMC3    C3 7803   0.468   0.613  17.130  0.0244 -0.2583 -0.9760
  522TMC3    C4 7804   0.255   0.790  17.120 -0.1035 -0.0588 -0.4833
  522TMC3    C5 7805   0.297   0.718  17.011  0.2790 -0.0371 -0.4475
  522TMC3    C6 7806   0.401   0.626  17.012 -0.5742  0.1396  0.0885
  522TMC3     C 7807   0.267   0.813  17.367  0.3147  0.4395 -0.3878
  522TMC3     O 7808   0.352   0.818  17.460  0.2337 -0.0994 -0.5293
  522TMC3     H 7809   0.491   0.655  17.330 -0.8363 -0.0322  0.5512
  522TMC3    H1 7810   0.168   0.855  17.122  1.4413  1.9962  1.0739
  522TMC3    H2 7811   0.422   0.558  16.931  2.0880  1.1849 -0.0717
  522TMC3    C7 7812   0.234   0.738  16.889  0.1552 -0.2473 -0.0483
  522TMC3    C8 7813   0.587   0.533  17.136  0.5923  1.0673 -0.6923
  522TMC3    O1 7814   0.279   0.670  16.800  0.2027  0.4514 -0.5350
  522TMC3    O2 7815   0.618   0.474  17.239 -0.1424  0.3730  0.2034
  523MPD2     C 7816   2.129   0.807  10.126 -0.0412 -0.4970 -0.4828
  523MPD2    C1 7817   2.118   0.736  10.013 -0.3396 -0.0111  0.2330
  523MPD2    C2 7818   2.052   0.776   9.905 -0.2738  0.3161 -0.7170
  523MPD2    C3 7819   1.998   0.905   9.895 -0.7302 -0.0557  0.0817
  523MPD2    C4 7820   1.993   0.971  10.016  0.6452 -0.6428 -0.3125
  523MPD2    C5 7821   2.057   0.921  10.131 -0.2163 -0.3704 -0.0489
  523MPD2     H 7822   2.050   0.722   9.811  2.9321  2.5055 -2.0391
  523MPD2    H1 7823   1.955   1.072  10.025  0.8870 -0.2888 -3.3674
  523MPD2    H2 7824   2.174   0.776  10.220 -1.8534  0.0442  0.5639
  523MPD2    H3 7825   2.065   0.979  10.222 -0.1423 -3.4730  1.9364
  523MPD2     N 7826   1.947   0.962   9.779 -0.2472  0.4507  0.3739
  523MPD2    H5 7827   1.921   1.060   9.790  1.4034  1.0074 -0.6745
  523MPD2    N1 7828   2.172   0.611  10.017 -0.1881  0.2174  0.1520
  523MPD2    H7 7829   2.220   0.594  10.105 -0.5912 -4.5896 -0.5961
  524TMC3    C1 7830   1.832   0.987   9.579 -0.2720 -0.2253  0.5681
  524TMC3    C2 7831   1.814   0.949   9.446  0.0616 -0.0656  0.2730
  524TMC3    C3 7832   1.811   1.044   9.350 -0.0776 -0.0768  0.0540
  524TMC3    C4 7833   1.815   1.118   9.605 -0.1089 -0.2629 -0.7875
  524TMC3    C5 7834   1.798   1.210   9.504  0.0257 -0.3546  0.2055
  524TMC3    C6 7835   1.795   1.175   9.375  0.3870  0.6284  0.3799
  524TMC3     C 7836   1.916   0.899   9.664  0.2707  0.3406 -0.2405
  524TMC3     O 7837   1.944   0.785   9.630 -0.1561 -0.1965  0.2594
  524TMC3     H 7838   1.831   0.845   9.423 -0.7051  0.2112 -1.5196
  524TMC3    H1 7839   1.796   1.158   9.704 -0.1701 -0.6757 -0.6309
  524TMC3    H2 7840   1.795   1.257   9.304 -2.4584  0.7065  0.4602
  524TMC3    C7 7841   1.840   1.345   9.540 -1.0951 -0.8732 -0.8046
  524TMC3    C8 7842   1.792   1.008   9.208  0.1007  0.0022 -0.1169
  524TMC3    O1 7843   1.906   1.361   9.641  0.2466  0.2251  0.0173
  524TMC3    O2 7844   1.817   1.095   9.122 -0.2988  0.6521 -0.6522
  525MPD2     C 7845   0.520   2.669  14.148 -0.2884  0.1833  0.0403
  525MPD2    C1 7846   0.620   2.705  14.241  0.1656  0.8157 -0.4713
  525MPD2    C2 7847   0.670   2.830  14.246  0.3106 -0.0769 -0.4943
  525MPD2    C3 7848   0.621   2.926  14.160 -0.1824 -0.1207 -0.1470
  525MPD2    C4 7849   0.513   2.892  14.073 -0.4138 -0.3187 -0.2029
  525MPD2    C5 7850   0.469   2.765  14.062 -0.4328  0.5786 -0.6054
  525MPD2     H 7851   0.756   2.853  14.307 -0.1913  3.5517 -1.1454
  525MPD2    H1 7852   0.485   2.955  13.990  2.6746  0.3570 -0.7456
  525MPD2    H2 7853   0.492   2.565  14.137  0.4976 -0.0388  0.1867
  525MPD2    H3 7854   0.390   2.740  13.992 -1.5997 -1.5753  1.5044
  525MPD2     N 7855   0.677   3.058  14.153  0.1249 -0.0998 -0.2985
  525MPD2    H5 7856   0.637   3.129  14.091 -1.0022 -1.5767 -1.2585
  525MPD2    N1 7857   0.681   2.606  14.323 -0.6325  0.6416 -0.7452
  525MPD2    H7 7858   0.771   2.617  14.368 -0.7352  0.9352 -0.6089
  526TMC3    C1 7859   0.705   2.411  14.423  0.0885 -1.1150  0.3808
  526TMC3    C2 7860   0.648   2.339  14.521 -0.1682  0.2170  0.0973
  526TMC3    C3 7861   0.733   2.276  14.610 -0.1296  0.4337 -0.4325
  526TMC3    C4 7862   0.836   2.416  14.395  0.9421  0.3051  0.1377
  526TMC3    C5 7863   0.923   2.353  14.480 -0.0888 -0.5522 -0.6882
  526TMC3    C6 7864   0.874   2.284  14.590  0.4400 -0.5326 -0.3410
  526TMC3     C 7865   0.617   2.490  14.348 -0.6536  0.7018 -0.2723
  526TMC3     O 7866   0.498   2.471  14.341  0.1028 -0.2464  0.4308
  526TMC3     H 7867   0.541   2.349  14.540  0.0941  0.0227  1.6875
  526TMC3    H1 7868   0.872   2.455  14.301 -3.8116 -0.5394 -2.0264
  526TMC3    H2 7869   0.941   2.240  14.663 -0.6863 -2.8769 -0.7135
  526TMC3    C7 7870   1.050   2.319  14.420  0.4543  0.5810  0.3625
  526TMC3    C8 7871   0.688   2.279  14.752  0.4763  0.4251  0.3452
  526TMC3    O1 7872   1.087   2.385  14.323 -0.4495  0.0070  0.3495
  526TMC3    O2 7873   0.775   2.300  14.835 -0.9591  0.3260  0.1598
  527MPD2     C 7874   3.536   0.248   1.251 -0.9520  0.0165  0.0471
  527MPD2    C1 7875   3.593   0.212   1.134 -0.1711  0.3785 -0.2785
  527MPD2    C2 7876   3.724   0.247   1.101 -0.1297  0.0499 -0.5543
  527MPD2    C3 7877   3.807   0.315   1.190 -0.3036  0.1207 -0.2350
  527MPD2    C4 7878   3.764   0.332   1.317  0.3123  1.0880  1.1189
  527MPD2    C5 7879   3.621   0.309   1.341  0.2035 -0.4368 -0.6921
  527MPD2     H 7880   3.761   0.229   1.001  3.2604 -1.0351  0.8798
  527MPD2    H1 7881   3.816   0.404   1.379  3.1760  0.3872 -0.4574
  527MPD2    H2 7882   3.430   0.245   1.274 -0.6993 -0.0920  1.2160
  527MPD2    H3 7883   3.574   0.357   1.426 -0.0270  0.6959 -1.4585
  527MPD2     N 7884   3.925   0.370   1.143  0.1842  0.2386  0.2234
  527MPD2    H5 7885   3.944   0.367   1.043 -1.7950  1.9030 -0.1977
  527MPD2    N1 7886   3.527   0.139   1.038  1.4698  0.1564 -0.4023
  527MPD2    H7 7887   3.580   0.125   0.952  1.6242  1.9872 -0.6091
  528TMC3    C1 7888   3.369   0.007   0.923 -0.0786 -0.0778 -0.8708
  528TMC3    C2 7889   3.456   4.713   0.824  0.0894 -0.3064 -0.1702
  528TMC3    C3 7890   3.405   4.657   0.715 -0.0009 -0.0603 -0.3310
  528TMC3    C4 7891   3.231   4.734   0.912 -0.0808  0.6572  0.2246
  528TMC3    C5 7892   3.187   4.701   0.790  0.3826 -0.5576  0.4091
  528TMC3    C6 7893   3.273   4.656   0.689  0.0041  0.3319 -0.3603
  528TMC3     C 7894   3.403   0.089   1.038 -0.7520  0.4077  0.2739
  528TMC3     O 7895   3.316   0.100   1.120  0.4178  0.1392  1.0478
  528TMC3     H 7896   3.563   4.731   0.832 -0.0071  0.9536 -1.6169
  528TMC3    H1 7897   3.158   0.015   0.989  1.2359  0.5157  1.5090
  528TMC3    H2 7898   3.236   4.616   0.596 -0.6958 -1.9305  0.8996
  528TMC3    C7 7899   3.043   4.711   0.761 -0.2425  0.7433 -0.1717
  528TMC3    C8 7900   3.491   4.669   0.599  0.2926 -0.6967 -0.6761
  528TMC3    O1 7901   3.022   0.002   0.644 -0.4363  0.2960 -0.0387
  528TMC3    O2 7902   3.609   4.711   0.604 -0.2949  0.2731 -0.1174
  529MPD2     C 7903   0.893   4.001   1.641  0.1054 -0.2568  0.1840
  529MPD2    C1 7904   0.911   3.869   1.594  0.0929  0.4450 -0.8686
  529MPD2    C2 7905   0.828   3.825   1.490  0.1760 -0.1620  0.4491
  529MPD2    C3 7906   0.728   3.912   1.434  0.5366  0.7053 -0.1886
  529MPD2    C4 7907   0.712   4.036   1.487 -0.3491 -0.4776 -0.2514
  529MPD2    C5 7908   0.797   4.079   1.591 -0.5624  0.2957 -0.1234
  529MPD2     H 7909   0.843   3.724   1.455  0.5218  0.1189 -0.2113
  529MPD2    H1 7910   0.644   4.105   1.439  0.4474  1.1017  0.8618
  529MPD2    H2 7911   0.951   4.048   1.720  0.7249  0.9853 -0.9947
  529MPD2    H3 7912   0.785   4.181   1.626  0.2125  1.4413 -3.2032
  529MPD2     N 7913   0.645   3.880   1.317 -0.4410  0.3752  0.3517
  529MPD2    H5 7914   0.588   3.957   1.285  0.8906  1.7866  1.3718
  529MPD2    N1 7915   1.009   3.781   1.646  0.6170 -0.0017  0.0063
  529MPD2    H7 7916   1.011   3.689   1.603 -2.5999 -1.1468  2.3347
  530TMC3    C1 7917   1.195   3.702   1.752  0.8507 -0.0332 -0.1203
  530TMC3    C2 7918   1.320   3.742   1.775  0.2858 -0.5602  0.1189
  530TMC3    C3 7919   1.425   3.671   1.723  0.2451 -0.6148 -1.3071
  530TMC3    C4 7920   1.165   3.586   1.684 -0.2044 -0.2455  0.4673
  530TMC3    C5 7921   1.274   3.514   1.632  0.2052 -0.5883  0.0069
  530TMC3    C6 7922   1.405   3.559   1.649  0.5837  0.3530  0.0337
  530TMC3     C 7923   1.102   3.808   1.737 -1.1063 -0.4282  0.5607
  530TMC3     O 7924   1.102   3.906   1.811 -0.6555  0.0239  0.6742
  530TMC3     H 7925   1.337   3.838   1.821  0.9944  0.1515 -1.6512
  530TMC3    H1 7926   1.067   3.543   1.673 -0.4437  1.3959 -3.8598
  530TMC3    H2 7927   1.485   3.507   1.597  0.5450  1.1451 -0.8170
  530TMC3    C7 7928   1.248   3.383   1.575 -0.4182  0.0271 -0.6648
  530TMC3    C8 7929   1.555   3.696   1.784 -0.4588 -0.2445  0.2584
  530TMC3    O1 7930   1.151   3.317   1.615  0.1400 -0.6002  0.3771
  530TMC3    O2 7931   1.562   3.745   1.897 -0.0272 -0.0440 -0.5403
  531MPD2     C 7932   1.201   1.270  12.913  0.6205 -0.2513 -0.3283
  531MPD2    C1 7933   1.124   1.309  13.021 -0.9629  0.2934  0.5504
  531MPD2    C2 7934   1.001   1.248  13.037 -0.5159 -0.6710 -0.6218
  531MPD2    C3 7935   0.941   1.178  12.936  0.1373  0.9619  0.3964
  531MPD2    C4 7936   1.019   1.145  12.824  0.1689 -0.1184  0.6528
  531MPD2    C5 7937   1.151   1.184  12.818  0.8532  0.7070 -0.6239
  531MPD2     H 7938   0.945   1.251  13.129  0.2406  1.5250 -0.2443
  531MPD2    H1 7939   0.970   1.098  12.739 -0.0804  2.2905 -0.5295
  531MPD2    H2 7940   1.305   1.301  12.911  0.0680  1.5847 -0.1674
  531MPD2    H3 7941   1.218   1.150  12.740 -1.1961 -0.2911 -1.9329
  531MPD2     N 7942   0.804   1.142  12.961  0.4035  0.5190  0.4551
  531MPD2    H5 7943   0.765   1.168  13.051 -0.3082  1.8817 -0.2477
  531MPD2    N1 7944   1.170   1.408  13.118  0.2223 -0.1313  0.2109
  531MPD2    H7 7945   1.263   1.445  13.102 -0.3918  2.2092  1.9677
  532TMC3    C1 7946   1.156   1.553  13.303  0.3451 -0.3952 -0.0108
  532TMC3    C2 7947   1.086   1.673  13.308 -0.2560  0.9209  0.4821
  532TMC3    C3 7948   1.038   1.732  13.423 -0.2691 -0.0253 -0.1213
  532TMC3    C4 7949   1.170   1.491  13.428 -0.6863  0.0609 -0.6170
  532TMC3    C5 7950   1.140   1.563  13.545 -0.4318 -0.4221 -0.6407
  532TMC3    C6 7951   1.088   1.686  13.546 -0.6306  0.2159 -0.7140
  532TMC3     C 7952   1.088   1.464  13.211 -0.1867 -0.4256  0.9966
  532TMC3     O 7953   0.962   1.465  13.219 -0.5778  0.1363  0.4970
  532TMC3     H 7954   1.049   1.704  13.211  1.1238 -2.6569 -1.1703
  532TMC3    H1 7955   1.191   1.385  13.428  0.4394  0.2853  1.0058
  532TMC3    H2 7956   1.033   1.719  13.634  0.4472 -0.7845  0.3315
  532TMC3    C7 7957   1.145   1.493  13.674 -0.2734 -0.4648  0.3449
  532TMC3    C8 7958   0.896   1.756  13.445  0.3831  0.1314 -0.3779
  532TMC3    O1 7959   1.197   1.550  13.766 -0.2593  0.4618  0.3422
  532TMC3    O2 7960   0.862   1.819  13.544 -0.1636 -0.5460 -0.3972
  533TMC3    C1 7961   0.786   3.249  14.227 -0.0399  0.0556  0.2894
  533TMC3    C2 7962   0.898   3.306  14.275 -0.1934 -0.2832 -0.5992
  533TMC3    C3 7963   0.906   3.439  14.306 -0.5350  0.4736 -0.4350
  533TMC3    C4 7964   0.669   3.322  14.240  0.6344  0.0959 -0.1795
  533TMC3    C5 7965   0.670   3.445  14.308  0.1169  0.2041 -0.2585
  533TMC3    C6 7966   0.789   3.508  14.326  0.0972 -0.1860 -0.1797
  533TMC3     C 7967   0.770   3.107  14.247  0.7221 -0.6903 -0.0786
  533TMC3     O 7968   0.844   3.052  14.333 -0.0176 -0.0891  0.5803
  533TMC3     H 7969   0.987   3.246  14.259 -1.5241 -2.6558  0.8702
  533TMC3    H1 7970   0.575   3.277  14.210  1.3719 -3.0574  2.1760
  533TMC3    H2 7971   0.807   3.604  14.373  0.6664 -0.8231  0.9218
  533TMC3    C7 7972   0.606   3.416  14.430  0.6310  0.4758 -0.6758
  533TMC3    C8 7973   1.022   3.512  14.350 -0.2569 -0.9457  0.0899
  533TMC3    O1 7974   0.519   3.333  14.433 -0.0395  0.0209 -0.3464
  533TMC3    O2 7975   1.094   3.452  14.429 -0.5037 -1.1758  0.2695
  534MPD2     C 7976   3.664   3.421   0.963  0.4782  0.5293  0.2245
  534MPD2    C1 7977   3.625   3.530   1.035  0.1729  0.1081 -0.6070
  534MPD2    C2 7978   3.503   3.588   1.009  0.1374 -0.5312 -0.2257
  534MPD2    C3 7979   3.424   3.547   0.908  0.7412  0.1886  0.2602
  534MPD2    C4 7980   3.468   3.450   0.824  0.1789  0.1123  0.3587
  534MPD2    C5 7981   3.581   3.378   0.863  0.6850  0.6551  0.1582
  534MPD2     H 7982   3.472   3.665   1.079 -2.3471 -0.6527 -1.2052
  534MPD2    H1 7983   3.403   3.415   0.744 -1.3000  0.4857  1.4152
  534MPD2    H2 7984   3.758   3.368   0.975 -0.1496 -1.2719 -2.8057
  534MPD2    H3 7985   3.614   3.304   0.790 -1.8148  0.4900 -0.8133
  534MPD2     N 7986   3.302   3.611   0.879  0.5083  0.3243  0.3227
  534MPD2    H5 7987   3.258   3.588   0.790  0.7308  0.9154  0.0562
  534MPD2    N1 7988   3.707   3.595   1.126  0.7731 -0.7111  0.6328
  534MPD2    H7 7989   3.674   3.687   1.151 -3.1528 -1.8492 -0.3073
  535TMC3    C1 7990   3.091   3.728   0.912 -0.6633 -0.0093 -1.2236
  535TMC3    C2 7991   3.000   3.732   1.019 -0.3972  0.0096  0.0243
  535TMC3    C3 7992   2.895   3.819   0.989  0.4328  0.1700 -0.2777
  535TMC3    C4 7993   3.090   3.795   0.796  0.1859 -0.3351  0.3695
  535TMC3    C5 7994   2.979   3.876   0.784 -1.0686  0.3267  0.0623
  535TMC3    C6 7995   2.888   3.902   0.884  0.5132 -0.5670 -1.2327
  535TMC3     C 7996   3.227   3.696   0.959  0.5529 -0.5016  0.3814
  535TMC3     O 7997   3.251   3.714   1.076  0.7264  0.4524  0.1721
  535TMC3     H 7998   3.006   3.670   1.107  1.7696 -0.7884 -0.6859
  535TMC3    H1 7999   3.165   3.797   0.718  1.5883 -0.4692  1.7042
  535TMC3    H2 8000   2.800   3.964   0.874  0.8913 -0.2301 -2.4760
  535TMC3    C7 8001   2.960   3.950   0.664 -0.3286  0.8512 -0.3012
  535TMC3    C8 8002   2.782   3.822   1.087 -0.4210  0.1774 -0.3687
  535TMC3    O1 8003   3.018   3.896   0.568  0.3825 -0.2921 -0.4963
  535TMC3    O2 8004   2.680   3.880   1.051  0.4004 -0.2621  0.4938
  536MPD2     C 8005   2.221   2.472  16.322  0.9600 -0.1689  0.1147
  536MPD2    C1 8006   2.112   2.388  16.343  0.5357  0.9753 -0.3623
  536MPD2    C2 8007   2.034   2.347  16.236  0.2517  0.2162  0.0258
  536MPD2    C3 8008   2.051   2.400  16.109 -0.2360  0.2973  0.0112
  536MPD2    C4 8009   2.153   2.490  16.096  0.2554 -0.0141 -0.2481
  536MPD2    C5 8010   2.238   2.518  16.200  0.0715  0.3872 -0.1116
  536MPD2     H 8011   1.956   2.272  16.242  1.5012 -0.9946  1.1586
  536MPD2    H1 8012   2.173   2.557  16.013  0.6410  1.3525  0.9437
  536MPD2    H2 8013   2.287   2.501  16.403 -0.7946  1.1496  1.0811
  536MPD2    H3 8014   2.322   2.584  16.181 -1.5787  1.8969 -2.0868
  536MPD2     N 8015   1.970   2.374  15.995 -0.1871 -0.1065  0.1149
  536MPD2    H5 8016   2.013   2.402  15.908 -1.0318  2.6714  0.5910
  536MPD2    N1 8017   2.091   2.345  16.480 -0.1082  0.2427 -0.3381
  536MPD2    H7 8018   2.164   2.371  16.544 -0.3570 -2.1817  0.9148
  537TMC3    C1 8019   2.010   2.229  16.669 -0.0632  1.2364  0.0842
  537TMC3    C2 8020   2.094   2.305  16.748 -0.2083  0.0150 -0.6522
  537TMC3    C3 8021   2.104   2.270  16.878 -0.3371  0.1966 -0.2140
  537TMC3    C4 8022   1.928   2.131  16.715  0.5191  0.3221 -0.4630
  537TMC3    C5 8023   1.938   2.107  16.848  0.0469  0.2595 -0.9671
  537TMC3    C6 8024   2.028   2.166  16.933  0.6171  0.0316  0.2946
  537TMC3     C 8025   1.992   2.264  16.525  0.5774  0.2836  0.0327
  537TMC3     O 8026   1.906   2.199  16.463 -0.3613  0.1065 -0.2385
  537TMC3     H 8027   2.130   2.401  16.713 -0.3093 -0.1430 -1.1903
  537TMC3    H1 8028   1.850   2.089  16.653  1.1562  2.0386 -2.4116
  537TMC3    H2 8029   2.024   2.147  17.040  1.7495  0.6145  0.4437
  537TMC3    C7 8030   1.862   1.989  16.877 -0.8163 -0.4604 -0.3684
  537TMC3    C8 8031   2.192   2.331  16.972 -0.7503  0.4213  0.5006
  537TMC3    O1 8032   1.779   1.951  16.798 -0.0716 -0.3138 -0.5290
  537TMC3    O2 8033   2.174   2.302  17.092 -0.0109  0.2608  0.1277
  538TMC3    C1 8034   3.448   0.511  10.960 -0.9925  0.3535  0.0556
  538TMC3    C2 8035   3.579   0.548  10.942 -0.3256  0.1755  0.1345
  538TMC3    C3 8036   3.608   0.622  10.835 -0.1530  0.1950  0.3463
  538TMC3    C4 8037   3.351   0.546  10.880  0.9292 -0.3037 -0.0473
  538TMC3    C5 8038   3.384   0.641  10.789  0.3824 -0.3982 -0.1800
  538TMC3    C6 8039   3.514   0.680  10.759 -0.2082 -0.2210 -0.2677
  538TMC3     C 8040   3.402   0.502  11.099 -0.8789 -0.1373  0.4383
  538TMC3     O 8041   3.287   0.470  11.125 -0.4401 -0.5548 -0.0662
  538TMC3     H 8042   3.658   0.503  11.000  1.4286  0.8182 -1.7558
  538TMC3    H1 8043   3.251   0.506  10.891  0.5695  0.6620  0.2024
  538TMC3    H2 8044   3.537   0.764  10.694 -0.7307  1.7191  2.0440
  538TMC3    C7 8045   3.263   0.696  10.727 -0.4330  0.2775 -0.5806
  538TMC3    C8 8046   3.747   0.643  10.809  0.0986  0.1505  0.3380
  538TMC3    O1 8047   3.153   0.653  10.761 -0.1622 -0.2202 -0.1227
  538TMC3    O2 8048   3.830   0.614  10.894 -0.3904  0.1910  0.4338
  539MPD2     C 8049   2.926   4.596  11.578 -1.1076  0.6592 -0.1416
  539MPD2    C1 8050   2.964   4.622  11.448 -0.4017 -0.2477  0.0710
  539MPD2    C2 8051   2.978   0.013  11.413 -0.7188 -0.6708  0.9473
  539MPD2    C3 8052   2.966   0.116  11.501  0.6145  0.2701 -0.2584
  539MPD2    C4 8053   2.940   0.094  11.632  0.2578 -0.5564  0.1716
  539MPD2    C5 8054   2.913   4.701  11.666  0.0973  0.3667  0.7843
  539MPD2     H 8055   3.008   0.031  11.310 -1.4563  2.7328  1.3079
  539MPD2    H1 8056   2.930   0.173  11.705 -3.3846  0.1154 -1.0549
  539MPD2    H2 8057   2.901   4.496  11.611  0.1331 -0.2592 -1.9961
  539MPD2    H3 8058   2.885   4.684  11.769  1.2723 -0.8911  0.8812
  539MPD2     N 8059   2.973   0.249  11.466 -0.1821  0.1783  0.2348
  539MPD2    H5 8060   2.942   0.313  11.539 -3.1774 -2.0382  0.9171
  539MPD2    N1 8061   2.962   4.528  11.348  0.2479  0.8285 -0.0951
  539MPD2    H7 8062   2.963   4.567  11.255 -0.2817 -3.6051 -1.9748
  540TMC3    C1 8063   3.018   0.438  11.335 -0.1298 -0.1446  0.4391
  540TMC3    C2 8064   2.995   0.490  11.212  0.0432  0.1400  0.2228
  540TMC3    C3 8065   2.977   0.632  11.205 -0.2088 -0.4426  0.2261
  540TMC3    C4 8066   3.013   0.517  11.447 -0.1990 -0.3071  0.0055
  540TMC3    C5 8067   2.992   0.650  11.437 -0.6729  0.3838 -0.6847
  540TMC3    C6 8068   2.977   0.710  11.315  0.4087 -0.0299  0.5143
  540TMC3     C 8069   3.032   0.294  11.349 -0.6539 -1.0362 -0.3423
  540TMC3     O 8070   3.087   0.238  11.254  0.0713 -1.0032  0.0790
  540TMC3     H 8071   3.007   0.427  11.125  0.0921 -0.8786  0.9740
  540TMC3    H1 8072   3.028   0.472  11.545  1.1947  2.1343  0.9314
  540TMC3    H2 8073   2.948   0.814  11.302 -1.3658 -0.3593  1.9187
  540TMC3    C7 8074   2.943   0.714  11.557  0.2369  0.6368 -1.0160
  540TMC3    C8 8075   2.941   0.686  11.076 -0.4487  0.5068 -0.1696
  540TMC3    O1 8076   2.906   0.637  11.645  0.1581 -0.2561 -0.3491
  540TMC3    O2 8077   2.949   0.804  11.049  0.5087  0.0902  0.3320
  541MPD2     C 8078   1.487   1.263  13.471 -0.3384  0.0854 -1.0324
  541MPD2    C1 8079   1.428   1.184  13.377  0.0367 -0.6934 -0.3992
  541MPD2    C2 8080   1.475   1.185  13.247 -0.6125 -0.1717  0.6360
  541MPD2    C3 8081   1.580   1.271  13.218 -0.1813  0.5627 -0.2601
  541MPD2    C4 8082   1.632   1.356  13.313 -0.7271  0.1969 -0.0959
  541MPD2    C5 8083   1.585   1.352  13.440  0.1142 -0.1444 -0.5170
  541MPD2     H 8084   1.436   1.115  13.175 -2.4776  1.4888  0.0470
  541MPD2    H1 8085   1.713   1.420  13.283 -1.1785 -0.0780 -1.8985
  541MPD2    H2 8086   1.450   1.277  13.572 -1.1333 -2.6788 -0.9406
  541MPD2    H3 8087   1.623   1.422  13.513 -2.0665  1.4271 -0.9147
  541MPD2     N 8088   1.628   1.301  13.091 -0.3328  0.1226 -0.0732
  541MPD2    H5 8089   1.693   1.380  13.085 -2.6926  2.1931  1.5498
  541MPD2    N1 8090   1.349   1.072  13.404 -0.6100  0.5679 -0.0361
  541MPD2    H7 8091   1.319   1.021  13.321  0.0331  0.8566 -0.4448
  542TMC3    C1 8092   1.624   1.296  12.845  0.6790 -0.8699  0.5412
  542TMC3    C2 8093   1.622   1.214  12.736  0.1585  0.1792 -0.5374
  542TMC3    C3 8094   1.580   1.264  12.619  0.2602 -0.3095 -0.2052
  542TMC3    C4 8095   1.609   1.429  12.842  0.4575 -0.0746  0.1069
  542TMC3    C5 8096   1.580   1.477  12.719 -0.2211  0.4197  0.4145
  542TMC3    C6 8097   1.571   1.401  12.604  0.0427  0.4388  0.9009
  542TMC3     C 8098   1.595   1.234  12.979  0.1154 -0.0172  0.1561
  542TMC3     O 8099   1.551   1.116  12.969  0.1179  0.2531  0.0458
  542TMC3     H 8100   1.643   1.110  12.756 -1.5682 -0.0850 -0.0997
  542TMC3    H1 8101   1.608   1.481  12.936 -1.1376 -2.2993  1.3346
  542TMC3    H2 8102   1.530   1.431  12.508 -0.5637  0.8670  1.2986
  542TMC3    C7 8103   1.557   1.615  12.712  0.0726  0.1110  0.7067
  542TMC3    C8 8104   1.612   1.195  12.497 -0.3196  0.5265 -1.1345
  542TMC3    O1 8105   1.536   1.669  12.820 -0.2473 -0.5056 -0.1733
  542TMC3    O2 8106   1.662   1.257  12.405 -0.1577  0.3716 -0.9163
  543TMC3    C1 8107   0.731   2.831  17.336 -0.5445 -0.9907 -0.8537
  543TMC3    C2 8108   0.760   2.723  17.415  0.7102 -0.0701 -0.2541
  543TMC3    C3 8109   0.754   2.739  17.545  0.5321 -0.2574  0.3081
  543TMC3    C4 8110   0.689   2.949  17.395 -0.5088 -0.6955  0.0853
  543TMC3    C5 8111   0.663   2.944  17.526  0.2252 -0.2611  0.5491
  543TMC3    C6 8112   0.700   2.848  17.611  0.6159  0.6168 -0.2116
  543TMC3     C 8113   0.761   2.816  17.200  0.8967  0.1497 -0.5807
  543TMC3     O 8114   0.835   2.720  17.167 -0.0282  0.4709 -0.2241
  543TMC3     H 8115   0.809   2.635  17.375  1.6624  0.4616 -0.2382
  543TMC3    H1 8116   0.652   3.027  17.329  1.1950  0.0158 -0.0234
  543TMC3    H2 8117   0.682   2.855  17.717 -0.2930  0.3015 -0.3382
  543TMC3    C7 8118   0.540   3.011  17.575  0.2682  0.7057  0.4554
  543TMC3    C8 8119   0.780   2.619  17.609  0.6113  0.2095 -0.4796
  543TMC3    O1 8120   0.461   2.944  17.634 -0.0775  0.0355 -0.0767
  543TMC3    O2 8121   0.837   2.527  17.547 -0.4055 -0.0898  0.6561
  544MPD2     C 8122   0.747   2.304   0.253 -0.5884 -0.3893  0.2934
  544MPD2    C1 8123   0.755   2.272   0.121  0.0604  0.3419  0.7876
  544MPD2    C2 8124   0.744   2.370   0.023 -0.4224  0.3949  0.5760
  544MPD2    C3 8125   0.723   2.500   0.064  0.7793 -0.8815 -0.3744
  544MPD2    C4 8126   0.706   2.533   0.193  0.0011  0.8295  0.4049
  544MPD2    C5 8127   0.726   2.435   0.286 -0.2150 -0.4264 -0.2080
  544MPD2     H 8128   0.762   2.349  17.679 -1.9251  0.0722  0.3793
  544MPD2    H1 8129   0.691   2.636   0.223  0.1550  1.4180 -1.5651
  544MPD2    H2 8130   0.752   2.228   0.330 -0.6154 -1.5192 -0.8263
  544MPD2    H3 8131   0.714   2.467   0.388 -0.3064 -2.6989  0.4845
  544MPD2     N 8132   0.734   2.608  17.739 -0.1876  0.3924 -0.0776
  544MPD2    H5 8133   0.699   2.700   0.006  0.2038  0.7821 -0.8651
  544MPD2    N1 8134   0.776   2.135   0.086  0.0815  0.0545  0.3650
  544MPD2    H7 8135   0.806   2.084   0.169  1.3083  0.6833  0.3154
  545TMC3    C1 8136   0.812   1.943  17.727 -0.5553 -0.2198  0.6227
  545TMC3    C2 8137   0.862   1.883  17.618 -0.1057  0.2230  0.0585
  545TMC3    C3 8138   0.865   1.748  17.615  0.0937 -0.1531 -0.7549
  545TMC3    C4 8139   0.750   1.863   0.059 -0.0521 -0.1481 -0.0831
  545TMC3    C5 8140   0.753   1.726   0.053 -0.1285  0.1203 -0.3570
  545TMC3    C6 8141   0.806   1.668  17.704 -0.4710 -0.0472 -0.1682
  545TMC3     C 8142   0.782   2.087  17.725 -0.3633  0.8230  0.0426
  545TMC3     O 8143   0.770   2.140  17.616 -0.6472 -0.1072 -0.1267
  545TMC3     H 8144   0.894   1.952  17.541  1.0448  1.3756  1.5462
  545TMC3    H1 8145   0.679   1.908   0.128  1.1738  1.4190  0.1772
  545TMC3    H2 8146   0.809   1.561  17.689 -1.3798 -0.1209  0.1484
  545TMC3    C7 8147   0.658   1.657   0.138 -0.2859  0.2273  0.0725
  545TMC3    C8 8148   0.937   1.685  17.511 -1.3275  0.5871  0.9184
  545TMC3    O1 8149   0.565   1.724   0.183  0.3788  0.1099  0.0599
  545TMC3    O2 8150   0.969   1.566  17.522 -0.0117 -0.6407 -0.4804
  546MPD2     C 8151   2.030   2.502  17.492 -0.2296  0.0055 -0.5080
  546MPD2    C1 8152   1.936   2.523  17.391 -0.7170 -0.0459 -0.1198
  546MPD2    C2 8153   1.920   2.652  17.352 -0.1662  0.0363  0.2616
  546MPD2    C3 8154   1.999   2.754  17.408  0.0676  0.3855  0.4164
  546MPD2    C4 8155   2.105   2.720  17.493 -0.6347  0.4631  0.3880
  546MPD2    C5 8156   2.113   2.596  17.544  0.8900  0.1712 -0.6152
  546MPD2     H 8157   1.842   2.669  17.279  1.9217  1.0278 -1.7558
  546MPD2    H1 8158   2.182   2.793  17.516  0.7105 -0.8017 -0.1111
  546MPD2    H2 8159   2.047   2.401  17.528  0.7514  1.0335  1.9197
  546MPD2    H3 8160   2.195   2.572  17.612  0.3703  0.2609  0.0356
  546MPD2     N 8161   1.994   2.894  17.370  0.0100 -0.2994  0.2346
  546MPD2    H5 8162   2.064   2.949  17.420 -0.8553  0.7134  0.3198
  546MPD2    N1 8163   1.879   2.406  17.338  0.5918  0.1418 -0.1110
  546MPD2    H7 8164   1.899   2.324  17.393 -0.1999  0.7645  1.1048
  547TMC3    C1 8165   1.734   2.282  17.196 -0.1131 -0.2589 -0.1637
  547TMC3    C2 8166   1.648   2.280  17.087 -0.0820 -0.0269  0.4018
  547TMC3    C3 8167   1.573   2.171  17.067 -0.2828  0.1064  0.2291
  547TMC3    C4 8168   1.760   2.169  17.258  0.4865 -0.1484 -0.1817
  547TMC3    C5 8169   1.677   2.068  17.238  0.1373  0.3493  0.9421
  547TMC3    C6 8170   1.573   2.059  17.148 -0.3220 -0.2016  0.0560
  547TMC3     C 8171   1.800   2.406  17.225  0.4613  0.0826  0.6609
  547TMC3     O 8172   1.768   2.495  17.149  0.3773 -0.0844  0.5730
  547TMC3     H 8173   1.632   2.374  17.035  1.0790  0.0085  0.1092
  547TMC3    H1 8174   1.847   2.143  17.317  1.6450  0.9192 -1.4133
  547TMC3    H2 8175   1.490   1.989  17.150  0.6598 -1.3907 -1.0689
  547TMC3    C7 8176   1.681   1.964  17.331  1.2078 -0.5807  0.2642
  547TMC3    C8 8177   1.503   2.172  16.937  0.2852 -0.3564  0.0869
  547TMC3    O1 8178   1.731   1.989  17.442 -0.7017 -0.1063  0.0904
  547TMC3    O2 8179   1.499   2.278  16.879 -0.4630 -0.4888 -0.2299
  548MPD2     C 8180   2.280   3.175  12.696  0.4581  0.2430 -0.4016
  548MPD2    C1 8181   2.246   3.047  12.688  0.0358 -0.5988 -0.0334
  548MPD2    C2 8182   2.341   2.960  12.638  0.4012  0.3565 -0.6677
  548MPD2    C3 8183   2.458   3.004  12.579 -0.2148 -0.5501 -0.6651
  548MPD2    C4 8184   2.485   3.142  12.583 -0.0927  0.5881  0.1834
  548MPD2    C5 8185   2.396   3.225  12.640  0.3059  0.1859 -0.7416
  548MPD2     H 8186   2.338   2.851  12.636 -2.3920  0.4117  0.8327
  548MPD2    H1 8187   2.572   3.185  12.536 -0.7259  0.0542 -1.4613
  548MPD2    H2 8188   2.206   3.250  12.721  0.5884 -0.3202  1.6195
  548MPD2    H3 8189   2.422   3.330  12.631 -0.6849  0.4266 -0.8338
  548MPD2     N 8190   2.545   2.907  12.525 -0.6318  0.4836 -0.2176
  548MPD2    H5 8191   2.516   2.809  12.527 -2.7211  1.1079  1.3522
  548MPD2    N1 8192   2.115   3.022  12.725  0.2352  0.1118  0.1556
  548MPD2    H7 8193   2.067   3.108  12.751  1.4544  0.6254  0.7043
  549TMC3    C1 8194   1.911   2.907  12.756  0.0008 -0.0340 -0.3710
  549TMC3    C2 8195   1.843   3.027  12.734  1.0126  0.6458  0.0889
  549TMC3    C3 8196   1.710   3.025  12.766 -0.0201 -0.6076 -0.2796
  549TMC3    C4 8197   1.855   2.789  12.797  0.1001  0.5166  0.3911
  549TMC3    C5 8198   1.722   2.799  12.826 -0.4553  0.9198 -0.5296
  549TMC3    C6 8199   1.647   2.917  12.815 -0.1203  0.1312 -0.0305
  549TMC3     C 8200   2.050   2.900  12.729  0.5774 -0.5695 -0.2142
  549TMC3     O 8201   2.103   2.789  12.729  0.0768 -0.4878  0.0085
  549TMC3     H 8202   1.885   3.105  12.672  4.2926 -1.1087  0.0763
  549TMC3    H1 8203   1.912   2.697  12.798  0.7267  0.9135  0.5688
  549TMC3    H2 8204   1.543   2.918  12.845 -0.7722 -3.2852 -2.1646
  549TMC3    C7 8205   1.644   2.688  12.881 -0.1899  0.7541  0.0449
  549TMC3    C8 8206   1.632   3.147  12.768 -0.7876 -0.2472  0.6956
  549TMC3    O1 8207   1.530   2.694  12.918 -0.3559 -0.2662 -0.1752
  549TMC3    O2 8208   1.512   3.138  12.796  0.5688 -0.2468 -0.0138
  550TMC3    C1 8209   1.230   1.495  12.505 -0.7671  0.6925 -0.1506
  550TMC3    C2 8210   1.170   1.498  12.626 -0.1136  0.5551 -0.1027
  550TMC3    C3 8211   1.131   1.617  12.667 -0.3242  0.5645  0.8300
  550TMC3    C4 8212   1.238   1.612  12.424 -1.1910  0.2976 -0.2352
  550TMC3    C5 8213   1.175   1.732  12.468 -0.3755 -0.3366  0.2459
  550TMC3    C6 8214   1.141   1.736  12.598 -0.5669  0.2047  0.3105
  550TMC3     C 8215   1.247   1.370  12.433 -0.0694 -0.1184  0.5251
  550TMC3     O 8216   1.286   1.280  12.504  0.7051  0.6015 -0.4588
  550TMC3     H 8217   1.174   1.404  12.680  0.7004  0.4316 -0.3786
  550TMC3    H1 8218   1.299   1.619  12.335 -0.9737 -1.7930 -0.2675
  550TMC3    H2 8219   1.094   1.825  12.638 -1.3601 -0.1962  0.2704
  550TMC3    C7 8220   1.071   1.775  12.380 -0.2817  0.4388 -0.3781
  550TMC3    C8 8221   1.045   1.626  12.788 -0.1990  0.5869  0.1166
  550TMC3    O1 8222   0.958   1.778  12.422 -0.3044 -0.2100  0.6545
  550TMC3    O2 8223   1.023   1.735  12.838 -0.5227  0.0499 -0.0851
  551TMC3    C1 8224   3.262   3.968  12.769  0.1065  0.4118 -0.1684
  551TMC3    C2 8225   3.382   4.005  12.711 -0.0778 -0.1012 -0.1841
  551TMC3    C3 8226   3.450   4.107  12.772 -0.5534  0.6524  0.1555
  551TMC3    C4 8227   3.227   4.030  12.889  0.4695 -0.1178  0.6487
  551TMC3    C5 8228   3.304   4.125  12.949  0.0349  0.7299  0.6178
  551TMC3    C6 8229   3.415   4.172  12.886 -0.4668 -0.1515 -0.3947
  551TMC3     C 8230   3.180   3.863  12.704 -0.4697 -0.3593  0.6371
  551TMC3     O 8231   3.215   3.803  12.605  0.2127 -0.4517 -0.3051
  551TMC3     H 8232   3.399   3.954  12.617 -1.9911 -2.6017  0.8051
  551TMC3    H1 8233   3.149   3.987  12.951 -0.0493 -1.0865 -0.6776
  551TMC3    H2 8234   3.497   4.228  12.931 -0.0438 -1.6649  0.7076
  551TMC3    C7 8235   3.269   4.175  13.087  0.3493 -0.0414  0.5637
  551TMC3    C8 8236   3.578   4.138  12.714 -0.0184 -0.3666  0.4096
  551TMC3    O1 8237   3.202   4.100  13.166 -0.1500  0.0978  0.3028
  551TMC3    O2 8238   3.617   4.049  12.640  0.0397  0.1893 -0.8885
  552MPD2     C 8239   0.483   1.300  13.918  0.4438  0.5632 -0.0444
  552MPD2    C1 8240   0.406   1.221  13.995 -0.4669 -0.0300 -0.9763
  552MPD2    C2 8241   0.455   1.162  14.105  0.2208  0.1690 -0.8513
  552MPD2    C3 8242   0.586   1.183  14.143  0.0487 -0.3243  0.1202
  552MPD2    C4 8243   0.674   1.250  14.057 -0.0838 -0.1698  0.6019
  552MPD2    C5 8244   0.620   1.295  13.940 -0.3504  0.3798 -0.4049
  552MPD2     H 8245   0.392   1.103  14.171  1.0351  1.4825  1.0958
  552MPD2    H1 8246   0.774   1.279  14.085  0.2174 -1.5807  1.0068
  552MPD2    H2 8247   0.452   1.351  13.827 -0.4313  1.3329  0.6853
  552MPD2    H3 8248   0.685   1.352  13.874  1.5036  0.4633  1.4785
  552MPD2     N 8249   0.636   1.149  14.269 -0.2246 -0.1798 -0.1124
  552MPD2    H5 8250   0.727   1.188  14.293 -0.0630 -0.4495 -0.2871
  552MPD2    N1 8251   0.282   1.174  13.951 -0.3145 -0.1557 -0.1465
  552MPD2    H7 8252   0.250   1.092  14.002  1.2259  0.2380  1.4342
  553TMC3    C1 8253   0.117   1.111  13.787  0.2794 -0.2344  0.0628
  553TMC3    C2 8254   0.076   1.134  13.658  0.3999 -0.1496  0.1517
  553TMC3    C3 8255   0.022   1.036  13.585 -0.6265 -0.0561  0.4037
  553TMC3    C4 8256   0.118   0.981  13.835 -1.1749  0.3840  0.7226
  553TMC3    C5 8257   0.056   0.886  13.752  0.0463 -0.0207  0.0684
  553TMC3    C6 8258   0.011   0.908  13.627  0.6019 -0.3840  0.3708
  553TMC3     C 8259   0.226   1.206  13.830 -0.2429  0.0666 -0.2203
  553TMC3     O 8260   0.254   1.295  13.748  0.1547 -0.0847 -0.4336
  553TMC3     H 8261   0.107   1.229  13.615 -0.9027  0.3903  0.4000
  553TMC3    H1 8262   0.143   0.958  13.938  0.1563 -2.2052 -0.1871
  553TMC3    H2 8263   4.697   0.837  13.566  1.0894 -0.3363 -0.1200
  553TMC3    C7 8264   0.085   0.747  13.777 -0.1194 -0.4079  0.3634
  553TMC3    C8 8265   4.740   1.068  13.440 -0.3237 -0.4701 -0.8018
  553TMC3    O1 8266   0.043   0.664  13.695 -0.0845 -0.3504 -0.3795
  553TMC3    O2 8267   4.676   1.174  13.417 -0.2029  0.3039  0.4484
  554TMC3    C1 8268   2.518   0.126  11.481  0.3372 -0.5293 -0.2256
  554TMC3    C2 8269   2.426   0.067  11.395  0.5663 -0.8264  0.2129
  554TMC3    C3 8270   2.429   0.114  11.267 -0.2615  0.0591 -0.8985
  554TMC3    C4 8271   2.603   0.224  11.438 -1.0169  0.0591 -0.1931
  554TMC3    C5 8272   2.615   0.252  11.308 -0.2359  0.2291  0.1826
  554TMC3    C6 8273   2.516   0.211  11.223  0.7969  0.0883  0.4388
  554TMC3     C 8274   2.505   0.099  11.625 -0.0909 -0.1404 -0.3381
  554TMC3     O 8275   2.540   0.197  11.692  0.0106  0.4173 -0.8840
  554TMC3     H 8276   2.351   4.736  11.424  0.8797 -0.7264  1.2927
  554TMC3    H1 8277   2.676   0.263  11.509 -0.5117 -0.1813 -0.5826
  554TMC3    H2 8278   2.501   0.252  11.124  1.3195 -0.4179  0.1508
  554TMC3    C7 8279   2.660   0.385  11.281 -0.0929  0.1360 -0.1305
  554TMC3    C8 8280   2.300   0.100  11.190 -0.0731 -0.1718 -0.0337
  554TMC3    O1 8281   2.690   0.410  11.165 -0.3109  0.0003 -0.2448
  554TMC3    O2 8282   2.300   0.143  11.076 -0.3744  0.1237  0.4692
  555TMC3    C1 8283   0.599   4.578  15.150 -0.0424  0.1475 -0.2196
  555TMC3    C2 8284   0.603   4.653  15.270 -0.3847  0.3679  0.4263
  555TMC3    C3 8285   0.693   4.612  15.360  0.6415 -0.3877  0.3661
  555TMC3    C4 8286   0.685   4.480  15.127  0.1797 -0.0603  0.4114
  555TMC3    C5 8287   0.778   4.448  15.219  0.3354 -0.6648  0.5070
  555TMC3    C6 8288   0.780   4.510  15.341 -0.1176 -0.5448  0.4361
  555TMC3     C 8289   0.523   4.631  15.039  0.1036 -0.3715  0.4030
  555TMC3     O 8290   0.423   4.695  15.066  0.0826  0.7462  0.2685
  555TMC3     H 8291   0.526   4.728  15.282 -0.4508  0.9348 -3.5572
  555TMC3    H1 8292   0.663   4.410  15.047  0.6549 -0.5513  0.7098
  555TMC3    H2 8293   0.853   4.481  15.416 -0.8806 -1.1725  0.9277
  555TMC3    C7 8294   0.843   4.317  15.216  1.1592 -0.7421  0.7881
  555TMC3    C8 8295   0.689   4.674  15.492 -0.1482  0.6277 -0.0975
  555TMC3    O1 8296   0.884   4.263  15.318 -0.0598 -0.3370  0.4190
  555TMC3    O2 8297   0.588   0.005  15.512 -0.0714 -0.2772  0.0528
  556MPD2     C 8298   4.005   1.780  10.594  0.0410  0.0808 -0.0134
  556MPD2    C1 8299   4.027   1.659  10.652  0.5722  0.1910 -0.7558
  556MPD2    C2 8300   4.020   1.552  10.571  0.1809 -0.8178 -0.2253
  556MPD2    C3 8301   3.986   1.559  10.442 -1.1721  0.0811  0.0948
  556MPD2    C4 8302   3.964   1.682  10.381  0.0662  0.4996 -0.5053
  556MPD2    C5 8303   3.974   1.791  10.462 -0.1830 -0.0848 -0.3967
  556MPD2     H 8304   4.024   1.456  10.621 -2.0612  0.0564  1.6588
  556MPD2    H1 8305   3.933   1.697  10.278 -0.3164 -0.0528 -0.4703
  556MPD2    H2 8306   4.002   1.875  10.646 -0.8542 -0.3686  0.7379
  556MPD2    H3 8307   3.968   1.889  10.417 -0.7051  0.1794  0.2522
  556MPD2     N 8308   3.979   1.443  10.366 -0.1878 -0.1081  0.3257
  556MPD2    H5 8309   3.995   1.362  10.425  0.2270  0.3267  0.8073
  556MPD2    N1 8310   4.057   1.638  10.785  0.1038  0.3291  0.2871
  556MPD2    H7 8311   4.072   1.546  10.824  2.0792  0.5830  0.1379
  557TMC3    C1 8312   3.953   1.297  10.176  0.4279  0.7819  0.5165
  557TMC3    C2 8313   3.917   1.291  10.050 -0.5906  0.0666 -0.3041
  557TMC3    C3 8314   3.865   1.172  10.001 -0.3612 -0.6005  0.2917
  557TMC3    C4 8315   3.956   1.191  10.259  0.4042 -0.1873  0.1604
  557TMC3    C5 8316   3.911   1.074  10.203 -0.6410  0.3617  0.5373
  557TMC3    C6 8317   3.872   1.054  10.072  0.1059  0.0162  0.8950
  557TMC3     C 8318   3.954   1.435  10.229  0.2756  0.5166 -0.3578
  557TMC3     O 8319   3.947   1.525  10.147 -0.0059  0.0089 -0.3234
  557TMC3     H 8320   3.918   1.380   9.989 -1.4682  0.5944  0.4359
  557TMC3    H1 8321   3.963   1.201  10.367  0.7148 -1.4996  0.2675
  557TMC3    H2 8322   3.830   0.958  10.044 -1.1380  1.2970 -1.6943
  557TMC3    C7 8323   3.933   0.950  10.270  0.2164  0.1515  0.0196
  557TMC3    C8 8324   3.784   1.176   9.881 -0.1010  0.4584 -0.5848
  557TMC3    O1 8325   3.859   0.857  10.242  0.7761  0.3680  0.0575
  557TMC3    O2 8326   3.791   1.279   9.812  0.3482 -0.2179 -0.2908
  558TMC3    C1 8327   0.948   4.216  10.223 -0.0652 -0.4733 -0.0946
  558TMC3    C2 8328   0.846   4.212  10.323 -0.6359 -0.2756 -0.7191
  558TMC3    C3 8329   0.751   4.115  10.298 -0.2495  0.7552 -0.0735
  558TMC3    C4 8330   0.951   4.139  10.109 -0.4531 -0.9164 -0.3846
  558TMC3    C5 8331   0.854   4.039  10.100  0.1482 -0.1844  0.1213
  558TMC3    C6 8332   0.758   4.028  10.192  1.2308 -0.4047  0.0069
  558TMC3     C 8333   1.083   4.255  10.265  0.6124  0.4594 -0.1194
  558TMC3     O 8334   1.176   4.204  10.206  0.0889  0.2514  0.6208
  558TMC3     H 8335   0.837   4.287  10.400 -0.6159 -1.4334  0.3972
  558TMC3    H1 8336   1.038   4.140  10.045 -0.2852 -0.0709 -0.1367
  558TMC3    H2 8337   0.681   3.953  10.179  2.1348 -1.3529  0.1802
  558TMC3    C7 8338   0.851   3.974   9.963  0.4217  0.0268  0.6718
  558TMC3    C8 8339   0.684   4.062  10.410 -0.5724 -0.0491  0.4837
  558TMC3    O1 8340   0.928   4.015   9.879 -0.1069 -0.4104  0.4348
  558TMC3    O2 8341   0.605   3.968  10.397 -0.0825  0.2121  0.1045
  559MPD2     C 8342   1.527   4.682  10.306  0.4316 -0.0724  0.2117
  559MPD2    C1 8343   1.485   4.726  10.431  0.2876 -0.2981 -0.1209
  559MPD2    C2 8344   1.578   0.024  10.520 -0.1856  0.4713 -0.8203
  559MPD2    C3 8345   1.706   4.731  10.505  0.1063  0.4694 -0.5490
  559MPD2    C4 8346   1.757   4.677  10.379  0.0134  0.5421 -0.0050
  559MPD2    C5 8347   1.660   4.657  10.285 -0.0845 -0.4444 -0.0510
  559MPD2     H 8348   1.555   0.046  10.623  1.4325 -1.0496 -0.1250
  559MPD2    H1 8349   1.858   4.644  10.358 -0.4882 -2.1938  1.9365
  559MPD2    H2 8350   1.461   4.642  10.230 -0.8956  1.4309  0.5916
  559MPD2    H3 8351   1.683   4.616  10.188 -1.0479 -1.2800  0.0800
  559MPD2     N 8352   1.785   4.727  10.621  0.1531  0.1547  0.4032
  559MPD2    H5 8353   1.744   0.017  10.708 -2.9268 -0.5765 -0.8041
  559MPD2    N1 8354   1.342   0.009  10.455  0.4614  0.6119  0.2082
  559MPD2    H7 8355   1.281   4.730  10.376 -1.0456  2.7423  0.8595
  560TMC3    C1 8356   1.905   4.602  10.767 -0.7562  0.0389 -0.1069
  560TMC3    C2 8357   1.784   4.565  10.821 -0.3258 -0.1742 -0.5218
  560TMC3    C3 8358   1.784   4.509  10.948 -0.2399 -0.6826  0.2176
  560TMC3    C4 8359   2.018   4.555  10.827  0.1809 -0.3400 -0.2130
  560TMC3    C5 8360   2.018   4.491  10.950 -0.1880 -0.0001  0.1316
  560TMC3    C6 8361   1.896   4.465  11.015 -0.3569 -0.4973 -0.5887
  560TMC3     C 8362   1.903   4.657  10.632 -0.5170  0.5759 -0.3599
  560TMC3     O 8363   1.995   4.629  10.552  0.4853 -0.3136 -0.1185
  560TMC3     H 8364   1.693   4.555  10.763 -1.2053  1.9004  0.5176
  560TMC3    H1 8365   2.117   4.576  10.790 -0.6731  3.0704 -0.5417
  560TMC3    H2 8366   1.896   4.417  11.112 -1.4366 -1.0139 -0.8449
  560TMC3    C7 8367   2.141   4.457  11.018  1.2755 -0.0156 -0.1545
  560TMC3    C8 8368   1.652   4.500  11.006  0.1873  0.3382  0.2801
  560TMC3    O1 8369   2.133   4.373  11.105  0.7148  0.4269  0.4714
  560TMC3    O2 8370   1.642   4.428  11.107 -0.5045  0.5246 -0.4026
  561TMC3    C1 8371   4.600   3.643  11.364  0.2858 -0.7770 -0.2534
  561TMC3    C2 8372   4.565   3.571  11.479 -0.0700 -0.2262 -0.8177
  561TMC3    C3 8373   4.618   3.623  11.593 -0.1542  0.5619 -0.0645
  561TMC3    C4 8374   4.673   3.759  11.370  0.1699  0.3166  0.1091
  561TMC3    C5 8375   4.719   3.800  11.488 -0.1433 -0.4339 -0.4381
  561TMC3    C6 8376   4.703   3.728  11.602  0.4228 -0.5140  0.4397
  561TMC3     C 8377   4.509   3.632  11.252 -0.0314 -0.4138 -0.4064
  561TMC3     O 8378   4.409   3.562  11.273 -0.0498 -0.0496  0.0681
  561TMC3     H 8379   4.508   3.480  11.480 -0.9032  0.2920 -1.6962
  561TMC3    H1 8380   4.704   3.818  11.285  0.9573 -0.4109 -0.0969
  561TMC3    H2 8381   4.735   3.759  11.701 -0.9903 -0.1116  0.7778
  561TMC3    C7 8382   0.019   3.939  11.509 -0.5367  0.5704  0.7178
  561TMC3    C8 8383   4.560   3.579  11.717  0.2513  0.6667  0.3920
  561TMC3    O1 8384   0.053   3.960  11.625 -0.2838 -0.1081 -0.2197
  561TMC3    O2 8385   4.626   3.582  11.819  0.2164 -0.0427 -0.4584
  562TMC3    C1 8386   0.234   0.263  16.583 -0.3581  0.2411 -0.4789
  562TMC3    C2 8387   0.202   0.379  16.506 -1.0742 -0.2912 -0.4748
  562TMC3    C3 8388   0.256   0.391  16.378  0.3130  0.2142  0.5432
  562TMC3    C4 8389   0.306   0.159  16.531  0.3820 -0.6328 -0.0709
  562TMC3    C5 8390   0.353   0.184  16.403  0.8289 -0.4102  0.4642
  562TMC3    C6 8391   0.331   0.294  16.326 -0.4664 -0.2782 -0.5077
  562TMC3     C 8392   0.202   0.255  16.721 -0.3194  0.2730  0.7507
  562TMC3     O 8393   0.243   0.151  16.780  0.0148 -0.2676  0.8522
  562TMC3     H 8394   0.146   0.455  16.558  0.3343  1.4492 -1.5110
  562TMC3    H1 8395   0.336   0.073  16.589  1.4936 -0.1995 -0.0153
  562TMC3    H2 8396   0.393   0.301  16.237 -1.0445  1.3877 -0.7759
  562TMC3    C7 8397   0.407   0.075  16.332 -0.3793 -0.4814  0.6466
  562TMC3    C8 8398   0.229   0.515  16.310  0.4495  0.1605  0.2633
  562TMC3    O1 8399   0.386   0.064  16.214 -0.3678 -0.1598 -0.1409
  562TMC3    O2 8400   0.189   0.609  16.378  0.6294 -0.3093  0.9208
  563MPD2     C 8401   2.967   1.542  15.666 -0.1205 -0.3341  0.1426
  563MPD2    C1 8402   2.956   1.625  15.777  0.3201 -0.1291 -0.2511
  563MPD2    C2 8403   3.069   1.650  15.862 -0.3787 -0.6382 -0.2204
  563MPD2    C3 8404   3.188   1.593  15.829 -0.4247  0.8040  0.0629
  563MPD2    C4 8405   3.202   1.520  15.716 -0.4127  0.0122 -1.0648
  563MPD2    C5 8406   3.092   1.490  15.638 -0.1902  0.1105 -0.3789
  563MPD2     H 8407   3.060   1.704  15.956 -0.0531  0.7828 -1.0050
  563MPD2    H1 8408   3.295   1.471  15.690  0.5330  0.0366  2.2842
  563MPD2    H2 8409   2.886   1.519  15.598  0.5091 -3.0857  0.3445
  563MPD2    H3 8410   3.104   1.430  15.549  0.3458  1.6676 -1.3439
  563MPD2     N 8411   3.289   1.606  15.925  0.6702 -0.5145  0.5128
  563MPD2    H5 8412   3.261   1.648  16.013 -0.5959 -1.1660  0.4246
  563MPD2    N1 8413   2.831   1.676  15.797 -0.5899  0.6503  0.7351
  563MPD2    H7 8414   2.759   1.636  15.738  0.6281 -2.6523  1.4937
  564TMC3    C1 8415   2.698   1.714  15.983  0.2290 -0.3899  1.1135
  564TMC3    C2 8416   2.623   1.610  15.925  0.2380 -0.2406  0.2206
  564TMC3    C3 8417   2.595   1.504  16.004 -0.1647  0.2010 -0.4552
  564TMC3    C4 8418   2.736   1.717  16.120  0.3745 -0.2475  0.1740
  564TMC3    C5 8419   2.715   1.603  16.191  0.4150 -0.1543 -0.3356
  564TMC3    C6 8420   2.635   1.506  16.134  0.3956  0.3149 -0.8471
  564TMC3     C 8421   2.800   1.764  15.903  0.4567  0.5406 -0.1184
  564TMC3     O 8422   2.880   1.832  15.956 -0.2641 -0.5979  0.2808
  564TMC3     H 8423   2.582   1.610  15.825  0.8590  1.4574 -0.0323
  564TMC3    H1 8424   2.805   1.794  16.152  0.7168 -0.1450 -0.8114
  564TMC3    H2 8425   2.624   1.418  16.198  0.4175 -0.0472 -1.3422
  564TMC3    C7 8426   2.846   1.555  16.226  0.0975 -0.7825 -0.2044
  564TMC3    C8 8427   2.597   1.368  15.949  0.5396 -0.2909  0.4111
  564TMC3    O1 8428   2.902   1.586  16.331 -1.0738 -0.6392 -0.2614
  564TMC3    O2 8429   2.586   1.274  16.028  0.1318 -0.0022  0.2138
  565TMC3    C1 8430   3.122   2.837   9.597 -0.0705 -1.0799  0.1699
  565TMC3    C2 8431   3.123   2.751   9.705  0.2895 -0.6417 -0.3788
  565TMC3    C3 8432   3.061   2.631   9.679 -0.7261  0.2022 -0.4812
  565TMC3    C4 8433   3.079   2.806   9.471  0.3101 -0.9602  0.3873
  565TMC3    C5 8434   3.018   2.685   9.463 -0.0801  0.0450  0.5175
  565TMC3    C6 8435   3.021   2.592   9.558 -0.1381 -0.0022  0.4954
  565TMC3     C 8436   3.218   2.950   9.603 -0.1306  0.1676  0.1790
  565TMC3     O 8437   3.242   3.000   9.495 -0.3245 -0.5014 -0.2229
  565TMC3     H 8438   3.147   2.786   9.805  1.2277 -1.3305 -0.3674
  565TMC3    H1 8439   3.086   2.871   9.384 -1.5658  0.5764  1.3844
  565TMC3    H2 8440   2.959   2.505   9.537 -1.0660  0.7355  0.1658
  565TMC3    C7 8441   2.946   2.654   9.338  0.6716  0.3704  0.4027
  565TMC3    C8 8442   3.057   2.540   9.789 -0.4937 -0.0255  0.0590
  565TMC3    O1 8443   2.929   2.539   9.315 -0.1085 -0.4944  0.1943
  565TMC3    O2 8444   3.133   2.566   9.883 -0.0607 -0.1648  0.1570
  566MPD2     C 8445   0.132   3.869  14.088 -0.6847  0.3697  0.0015
  566MPD2    C1 8446   0.226   3.817  13.998  0.4497  0.5097  0.4688
  566MPD2    C2 8447   0.197   3.703  13.925 -0.3999  0.4964  0.5998
  566MPD2    C3 8448   0.074   3.638  13.948 -0.2419 -0.2883  0.2052
  566MPD2    C4 8449   4.731   3.687  14.046  0.1768 -0.1070  0.3324
  566MPD2    C5 8450   0.022   3.795  14.119 -0.4435 -0.1881 -0.1179
  566MPD2     H 8451   0.274   3.650  13.871 -1.6326 -1.0169  0.3551
  566MPD2    H1 8452   4.634   3.643  14.068 -0.3659 -0.3384 -2.4542
  566MPD2    H2 8453   0.158   3.956  14.147  1.0108  0.9295 -1.5492
  566MPD2    H3 8454   4.695   3.834  14.194  0.1918  1.4530 -0.4047
  566MPD2     N 8455   0.024   3.532  13.874 -0.0488 -0.2781  0.3261
  566MPD2    H5 8456   4.687   3.484  13.917 -1.9621  3.3649  0.9106
  566MPD2    N1 8457   0.344   3.894  13.978 -0.2583 -0.2563 -0.4086
  566MPD2    H7 8458   0.357   3.978  14.034 -1.7004 -0.0641 -0.3703
  567TMC3    C1 8459   0.557   3.943  13.904 -0.2146  0.2883 -0.0465
  567TMC3    C2 8460   0.627   3.990  13.797 -0.3209  0.7624 -0.4476
  567TMC3    C3 8461   0.732   4.075  13.808  0.0938 -0.2090 -0.8561
  567TMC3    C4 8462   0.589   3.988  14.030  0.7072  0.7548 -0.1073
  567TMC3    C5 8463   0.702   4.077  14.043 -0.3161  0.3909  0.3467
  567TMC3    C6 8464   0.769   4.118  13.934 -0.0064  0.7928 -0.4398
  567TMC3     C 8465   0.432   3.873  13.875  0.0293  0.0919  0.0330
  567TMC3     O 8466   0.410   3.824  13.767 -0.3894  0.0924  0.4004
  567TMC3     H 8467   0.600   3.960  13.697  0.6934  1.3161 -0.8854
  567TMC3    H1 8468   0.528   3.959  14.115 -0.7490  1.8550 -0.7803
  567TMC3    H2 8469   0.840   4.200  13.943  0.8510  0.0074 -0.0132
  567TMC3    C7 8470   0.740   4.126  14.172 -0.6966  0.2902 -0.4409
  567TMC3    C8 8471   0.758   4.150  13.687  0.4756 -0.0498 -0.7896
  567TMC3    O1 8472   0.858   4.162  14.179 -0.6516  0.3600  0.6491
  567TMC3    O2 8473   0.667   4.139  13.601  0.2017  1.1489  0.1246
  568MPD2     C 8474   3.312   0.035  16.338  0.5450  0.5837 -0.4207
  568MPD2    C1 8475   3.300   0.125  16.439  0.3195  0.0461 -0.7341
  568MPD2    C2 8476   3.234   0.246  16.406  0.2746 -0.6155  0.6247
  568MPD2    C3 8477   3.218   0.281  16.276 -0.2331 -0.1532  0.4221
  568MPD2    C4 8478   3.240   0.190  16.175  0.5365 -0.2538  0.3998
  568MPD2    C5 8479   3.274   0.063  16.210  0.2887  0.3958  0.3782
  568MPD2     H 8480   3.201   0.310  16.488  0.9374  1.4745 -0.7246
  568MPD2    H1 8481   3.220   0.204  16.069  0.0517 -0.5732  0.4540
  568MPD2    H2 8482   3.359   4.683  16.368 -0.3719 -0.7402 -3.1334
  568MPD2    H3 8483   3.281   4.733  16.127  0.9418 -0.1016  0.8570
  568MPD2     N 8484   3.174   0.415  16.241  0.0284 -0.6131  0.4897
  568MPD2    H5 8485   3.149   0.472  16.321 -0.2216  1.5821 -1.1697
  568MPD2    N1 8486   3.326   0.086  16.569 -1.0592 -0.2430  0.3515
  568MPD2    H7 8487   3.363   4.733  16.581 -0.4016  0.2524  2.2553
  569TMC3    C1 8488   3.101   0.603  16.124 -0.7159  0.3365  1.2253
  569TMC3    C2 8489   3.121   0.687  16.231  1.2284 -0.6761 -0.0449
  569TMC3    C3 8490   3.081   0.814  16.213 -0.0984 -0.3787 -0.5727
  569TMC3    C4 8491   3.046   0.651  16.006 -0.6222 -0.4554  0.9050
  569TMC3    C5 8492   3.016   0.782  15.990  0.3962  0.1235  0.1530
  569TMC3    C6 8493   3.031   0.866  16.098  0.5122 -0.1984  0.3028
  569TMC3     C 8494   3.149   0.466  16.117  0.6300  0.3013  0.3488
  569TMC3     O 8495   3.161   0.411  16.007 -0.0706  0.2509  0.0834
  569TMC3     H 8496   3.167   0.657  16.324 -2.8102 -2.4902  1.3705
  569TMC3    H1 8497   3.034   0.578  15.927  0.2049  0.9706 -0.5481
  569TMC3    H2 8498   3.018   0.973  16.085  1.4717  0.0578  1.5043
  569TMC3    C7 8499   2.971   0.832  15.869 -0.4661 -0.0854 -0.7965
  569TMC3    C8 8500   3.106   0.905  16.323  0.0296  0.3631  0.2718
  569TMC3    O1 8501   2.999   0.776  15.763 -0.4023 -0.1812  0.5638
  569TMC3    O2 8502   3.186   0.871  16.410  0.0084  0.0884  0.0161
  570TMC3    C1 8503   2.035   3.738  16.255  0.8512 -0.5964  0.2155
  570TMC3    C2 8504   2.042   3.760  16.119  0.4371 -0.0403  0.3082
  570TMC3    C3 8505   2.137   3.854  16.079  0.8203 -0.2071 -0.1263
  570TMC3    C4 8506   2.128   3.783  16.340 -0.1810  0.2195  0.5339
  570TMC3    C5 8507   2.216   3.876  16.301  0.0960  0.3234  0.4693
  570TMC3    C6 8508   2.218   3.916  16.169  0.1329 -0.6235 -0.0418
  570TMC3     C 8509   1.908   3.688  16.310 -0.1387 -0.7231  0.1526
  570TMC3     O 8510   1.834   3.635  16.224  0.0199  0.1483  0.1561
  570TMC3     H 8511   1.967   3.719  16.053 -1.6931  1.1965  1.9633
  570TMC3    H1 8512   2.131   3.750  16.443  1.8346 -1.4898 -0.0686
  570TMC3    H2 8513   2.301   3.978  16.139 -0.4806  2.0681  3.8479
  570TMC3    C7 8514   2.314   3.923  16.393 -0.2175  0.3653  0.0160
  570TMC3    C8 8515   2.160   3.888  15.942  0.3000 -0.3112 -0.1022
  570TMC3    O1 8516   2.348   3.852  16.483 -0.1654 -0.3827 -0.0423
  570TMC3    O2 8517   2.248   3.972  15.928 -0.4201 -0.1308 -0.0638
  571MPD2     C 8518   3.974   1.089   0.572 -0.8503 -0.3887 -0.5836
  571MPD2    C1 8519   4.068   1.003   0.527 -0.0253 -0.3486  0.2942
  571MPD2    C2 8520   4.202   1.040   0.535  0.3097  1.2725 -0.1914
  571MPD2    C3 8521   4.238   1.167   0.579 -0.1411 -0.1764  0.0043
  571MPD2    C4 8522   4.139   1.250   0.620 -0.2241  0.1222 -0.5758
  571MPD2    C5 8523   4.007   1.218   0.612  0.0752  0.0623 -0.0648
  571MPD2     H 8524   4.275   0.966   0.504 -1.7904 -0.0789 -1.8943
  571MPD2    H1 8525   4.163   1.351   0.651 -1.6830  0.3650 -0.2353
  571MPD2    H2 8526   3.870   1.061   0.562 -1.2220  0.8809 -0.2701
  571MPD2    H3 8527   3.931   1.292   0.633 -1.0945 -1.4055  0.8355
  571MPD2     N 8528   4.370   1.214   0.575 -0.2657  0.2573  0.8122
  571MPD2    H5 8529   4.386   1.313   0.591  5.0124 -0.5272  0.4416
  571MPD2    N1 8530   4.018   0.875   0.483  0.0316  0.0695  0.2796
  571MPD2    H7 8531   3.923   0.843   0.499  0.5786 -1.6728  0.1243
  572TMC3    C1 8532   4.596   1.223   0.562  0.1806  0.5965 -0.3666
  572TMC3    C2 8533   4.713   1.177   0.603 -0.1628 -0.0615 -0.1191
  572TMC3    C3 8534   0.092   1.245   0.571  0.2969  0.1153  0.8889
  572TMC3    C4 8535   4.599   1.325   0.460  0.3551  0.1205 -0.0733
  572TMC3    C5 8536   4.718   1.386   0.431 -0.3975  0.0256 -0.3317
  572TMC3    C6 8537   0.097   1.364   0.496 -0.5529  0.3543  0.0681
  572TMC3     C 8538   4.481   1.139   0.567  0.4120 -0.0646  0.4730
  572TMC3     O 8539   4.490   1.021   0.591 -0.6608 -0.0683 -0.3185
  572TMC3     H 8540   4.724   1.090   0.666 -0.3051 -0.1525 -0.2188
  572TMC3    H1 8541   4.505   1.364   0.422  0.6767  0.9394 -0.0243
  572TMC3    H2 8542   0.195   1.405   0.475 -0.0302 -0.7161  0.4282
  572TMC3    C7 8543   4.731   1.429   0.292 -0.1244  0.1824 -0.0044
  572TMC3    C8 8544   0.217   1.204   0.635 -0.2043 -0.6010  0.0044
  572TMC3    O1 8545   4.656   1.369   0.215 -0.4889 -0.2654  0.1797
  572TMC3    O2 8546   0.296   1.291   0.655  0.3601 -0.5954  0.1610
  573MPD2     C 8547   1.239   1.008   1.101  0.3641 -0.0512  0.5425
  573MPD2    C1 8548   1.152   1.103   1.051  0.0820  0.2097 -0.4587
  573MPD2    C2 8549   1.043   1.067   0.969  1.0326  0.6588 -0.3205
  573MPD2    C3 8550   1.020   0.925   0.936  0.0547 -0.1113  0.2442
  573MPD2    C4 8551   1.107   0.835   0.994  0.4060  0.3144  0.2344
  573MPD2    C5 8552   1.219   0.874   1.071  0.0925 -0.2901 -0.2458
  573MPD2     H 8553   0.973   1.142   0.933  0.0881 -0.5599 -1.0469
  573MPD2    H1 8554   1.090   0.729   0.978  1.4658  0.2790 -0.6084
  573MPD2    H2 8555   1.327   1.027   1.161  0.1585  1.1843  0.4548
  573MPD2    H3 8556   1.283   0.802   1.121 -0.7770 -0.3035  0.8547
  573MPD2     N 8557   0.921   0.883   0.840 -0.1943  0.6056  0.0505
  573MPD2    H5 8558   0.911   0.785   0.817  2.9277  0.3408 -0.1673
  573MPD2    N1 8559   1.162   1.239   1.101 -0.0005 -0.6291  0.1143
  573MPD2    H7 8560   1.217   1.250   1.186  0.1535  0.6719 -0.1640
  574TMC3    C1 8561   0.748   0.897   0.682 -0.0940 -0.1871  0.0695
  574TMC3    C2 8562   0.701   0.966   0.573 -0.0936 -0.2850 -0.1368
  574TMC3    C3 8563   0.614   0.910   0.486  0.1702  0.1982  0.4378
  574TMC3    C4 8564   0.697   0.778   0.711 -0.0988 -0.0288  0.5173
  574TMC3    C5 8565   0.587   0.737   0.642  0.0828 -0.2598  0.7025
  574TMC3    C6 8566   0.552   0.793   0.517  0.0945  0.7155 -0.5365
  574TMC3     C 8567   0.833   0.969   0.776  0.7988 -0.0355 -0.2711
  574TMC3     O 8568   0.828   1.088   0.771 -0.4515 -0.2893  0.6449
  574TMC3     H 8569   0.743   1.064   0.552 -2.0782  1.1217  2.3176
  574TMC3    H1 8570   0.717   0.726   0.804  0.0557 -2.3347 -0.8129
  574TMC3    H2 8571   0.477   0.755   0.448  0.4085  1.4655 -1.2980
  574TMC3    C7 8572   0.522   0.609   0.676 -0.3154  0.4557  1.0967
  574TMC3    C8 8573   0.529   1.000   0.411  0.2972  0.3112 -0.4612
  574TMC3    O1 8574   0.591   0.522   0.732  0.3505 -0.5690 -0.0688
  574TMC3    O2 8575   0.412   0.962   0.386  0.2704 -0.2577 -0.1912
  575TMC3    C1 8576   3.395   2.225  10.502  0.0742  0.2449 -0.0032
  575TMC3    C2 8577   3.336   2.151  10.596  0.6224  0.3953  0.0480
  575TMC3    C3 8578   3.208   2.098  10.560  0.2195 -0.0775 -0.0637
  575TMC3    C4 8579   3.342   2.243  10.380  0.1147  0.1468  0.9347
  575TMC3    C5 8580   3.220   2.187  10.349 -0.4788  0.5115 -0.1012
  575TMC3    C6 8581   3.146   2.120  10.440 -0.1427  0.2138  0.0705
  575TMC3     C 8582   3.512   2.308  10.535 -0.5022  0.1727 -0.7136
  575TMC3     O 8583   3.534   2.344  10.648  0.0336  0.2208  0.3454
  575TMC3     H 8584   3.371   2.153  10.698  1.0860  0.6805 -0.1157
  575TMC3    H1 8585   3.382   2.313  10.307 -2.9745  1.3674  0.4189
  575TMC3    H2 8586   3.058   2.062  10.415 -2.0433  3.6582 -1.1917
  575TMC3    C7 8587   3.159   2.240  10.228  0.3416 -0.4427 -0.2596
  575TMC3    C8 8588   3.133   2.026  10.660 -0.7229 -0.4155 -0.5672
  575TMC3    O1 8589   3.235   2.298  10.151  0.0189 -0.0083 -0.0313
  575TMC3    O2 8590   3.012   2.007  10.651  0.1176  0.3827  0.1351
  576MPD2     C 8591   3.123   3.521  12.003  0.2185  0.2805  0.7115
  576MPD2    C1 8592   3.236   3.602  11.993  1.0174  0.5350  0.0788
  576MPD2    C2 8593   3.240   3.708  12.073  0.4970 -0.6355 -0.7384
  576MPD2    C3 8594   3.141   3.744  12.158 -0.2989  0.5883  0.0387
  576MPD2    C4 8595   3.026   3.673  12.155 -0.7622 -0.9111  0.6870
  576MPD2    C5 8596   3.023   3.556  12.091  0.5701 -0.3415  0.6563
  576MPD2     H 8597   3.310   3.787  12.050 -0.5178  0.9058  1.3893
  576MPD2    H1 8598   2.942   3.695  12.220 -2.2872  0.2388 -1.6648
  576MPD2    H2 8599   3.117   3.423  11.958  2.4417  0.8941 -0.9180
  576MPD2    H3 8600   2.941   3.485  12.102  0.8393 -0.6223  0.8477
  576MPD2     N 8601   3.151   3.866  12.234 -0.0091 -0.6840  0.1708
  576MPD2    H5 8602   3.234   3.923  12.222 -0.8486  0.9697  2.3159
  576MPD2    N1 8603   3.348   3.573  11.918  0.2054  0.2585 -0.0916
  576MPD2    H7 8604   3.432   3.629  11.923  2.2661 -2.8330 -0.0004
  577TMC3    C1 8605   3.484   3.487  11.750 -0.2648 -0.3609  0.5600
  577TMC3    C2 8606   3.598   3.509  11.823 -0.8181 -0.5330 -0.3492
  577TMC3    C3 8607   3.722   3.518  11.751 -0.5269 -1.0987  0.5890
  577TMC3    C4 8608   3.481   3.488  11.614 -0.1481  0.5933  0.3542
  577TMC3    C5 8609   3.603   3.486  11.553 -0.2420  0.1672  0.0104
  577TMC3    C6 8610   3.726   3.503  11.617  0.1438 -0.2454 -0.0306
  577TMC3     C 8611   3.356   3.484  11.816 -0.5768  0.6814  0.2793
  577TMC3     O 8612   3.266   3.417  11.768  0.4426  0.3734  0.2339
  577TMC3     H 8613   3.596   3.513  11.931 -2.1585  0.5939 -0.4245
  577TMC3    H1 8614   3.387   3.498  11.562 -1.0645 -0.8038  1.7305
  577TMC3    H2 8615   3.818   3.488  11.560  1.2739 -0.3209  1.8051
  577TMC3    C7 8616   3.600   3.508  11.410  0.4544  0.0685 -0.1166
  577TMC3    C8 8617   3.840   3.514  11.837  0.0405  0.7384 -0.5660
  577TMC3    O1 8618   3.686   3.459  11.338  0.5972  0.7291  0.3084
  577TMC3    O2 8619   3.815   3.500  11.958 -0.1341 -0.8684 -0.3402
  578MPD2     C 8620   1.310   4.106   1.590  0.2465  0.7915  0.5037
  578MPD2    C1 8621   1.327   4.010   1.490  0.5623  0.5691 -0.2800
  578MPD2    C2 8622   1.449   3.951   1.466 -0.0708  0.0169 -0.0413
  578MPD2    C3 8623   1.560   3.998   1.534 -1.3214  0.3587  0.0238
  578MPD2    C4 8624   1.542   4.105   1.619 -0.3562  0.1115 -0.4183
  578MPD2    C5 8625   1.420   4.154   1.643  0.3767  0.2349  0.2241
  578MPD2     H 8626   1.466   3.886   1.381 -2.1905  1.2018 -1.3809
  578MPD2    H1 8627   1.628   4.149   1.668 -0.7045 -0.3294  0.5881
  578MPD2    H2 8628   1.219   4.163   1.599  1.7757  3.2740  0.1608
  578MPD2    H3 8629   1.409   4.234   1.716  0.2240 -0.8624  1.3988
  578MPD2     N 8630   1.685   3.942   1.496  0.1529  0.6655  0.1714
  578MPD2    H5 8631   1.681   3.863   1.432 -0.3412  1.2874 -0.5731
  578MPD2    N1 8632   1.214   3.967   1.414  0.1723 -0.1238  0.4602
  578MPD2    H7 8633   1.126   4.003   1.450 -0.8444 -2.7405  0.5994
  579TMC3    C1 8634   1.915   3.924   1.442  0.0727  0.0684 -0.5221
  579TMC3    C2 8635   2.040   3.932   1.488  0.4038  0.2241  0.2594
  579TMC3    C3 8636   2.144   3.891   1.405 -0.6141 -0.7725  0.6459
  579TMC3    C4 8637   1.889   3.887   1.314  0.2231  0.0804 -0.2186
  579TMC3    C5 8638   1.992   3.834   1.232 -0.4610 -0.1644 -0.2600
  579TMC3    C6 8639   2.121   3.851   1.272  0.2640 -0.0562 -0.0303
  579TMC3     C 8640   1.813   3.983   1.528  1.1052  0.0646 -0.2616
  579TMC3     O 8641   1.853   4.065   1.615  0.2810 -0.2918  0.2363
  579TMC3     H 8642   2.061   3.955   1.592 -1.1105 -0.1333  0.6518
  579TMC3    H1 8643   1.788   3.903   1.278  0.0482  0.4448  0.4319
  579TMC3    H2 8644   2.200   3.829   1.201 -1.7222 -3.5206 -1.1513
  579TMC3    C7 8645   1.959   3.795   1.099  0.3717 -0.8940  0.0120
  579TMC3    C8 8646   2.264   3.852   1.474 -0.3127 -0.4039  0.5022
  579TMC3    O1 8647   2.054   3.782   1.021  0.2169  0.1633  0.0718
  579TMC3    O2 8648   2.272   3.886   1.591 -0.2328  0.1432  0.4304
  580TMC3    C1 8649   2.192   2.752  12.327  0.3519 -0.2080 -0.6895
  580TMC3    C2 8650   2.238   2.811  12.219  0.4050 -0.2165  0.1977
  580TMC3    C3 8651   2.238   2.745  12.097 -0.1535  0.1288 -0.1130
  580TMC3    C4 8652   2.155   2.620  12.328 -0.2235  0.2774 -0.6614
  580TMC3    C5 8653   2.160   2.556  12.207 -0.5980 -0.2789  0.1857
  580TMC3    C6 8654   2.195   2.615  12.085 -0.9444  0.5861 -0.4908
  580TMC3     C 8655   2.092   2.842  12.388  0.4516  0.0307  0.0979
  580TMC3     O 8656   2.102   2.962  12.369  0.1797  0.2464  0.0393
  580TMC3     H 8657   2.269   2.915  12.224 -1.1470  0.3175 -1.2285
  580TMC3    H1 8658   2.128   2.560  12.414  0.8660  0.6654 -0.0627
  580TMC3    H2 8659   2.175   2.569  11.989 -1.4630  0.0068 -0.1040
  580TMC3    C7 8660   2.087   2.432  12.211 -0.4944 -0.4445  0.4025
  580TMC3    C8 8661   2.158   2.822  12.011 -0.0186 -0.3531  0.0681
  580TMC3    O1 8662   2.003   2.426  12.301 -0.1102  0.2166  0.3644
  580TMC3    O2 8663   2.037   2.810  12.008 -0.5016 -0.0654  0.0789
  581MPD2     C 8664   3.970   2.319  14.974  0.1240 -0.5710 -0.5392
  581MPD2    C1 8665   4.005   2.445  15.007 -0.3766  0.6388 -0.1226
  581MPD2    C2 8666   3.906   2.546  15.003  0.4409  0.5094 -0.3497
  581MPD2    C3 8667   3.783   2.513  14.952 -0.2542 -0.1519  0.4234
  581MPD2    C4 8668   3.756   2.384  14.922 -0.2162  0.5345  0.6573
  581MPD2    C5 8669   3.850   2.289  14.922  0.6024 -0.2405 -0.1721
  581MPD2     H 8670   3.923   2.645  15.044  1.8639 -0.3105  1.0356
  581MPD2    H1 8671   3.662   2.349  14.881  0.7794  0.7829 -1.8415
  581MPD2    H2 8672   4.040   2.236  14.972  1.1835  0.3327 -0.8983
  581MPD2    H3 8673   3.825   2.188  14.891  1.1181 -0.5771  0.5189
  581MPD2     N 8674   3.690   2.617  14.917  0.2692  0.6496 -0.3455
  581MPD2    H5 8675   3.723   2.712  14.928  1.6472 -0.0862  2.0991
  581MPD2    N1 8676   4.134   2.458  15.057  1.0107 -0.3262  0.0480
  581MPD2    H7 8677   4.189   2.372  15.057  1.4193 -0.0660 -0.8675
  582TMC3    C1 8678   4.303   2.540  15.189 -0.3808  0.4514  0.2901
  582TMC3    C2 8679   4.298   2.553  15.321 -0.1075 -0.1488 -0.3241
  582TMC3    C3 8680   4.362   2.460  15.402 -0.2720 -0.8142 -0.1753
  582TMC3    C4 8681   4.381   2.446  15.126 -0.5613 -0.1318 -0.4583
  582TMC3    C5 8682   4.431   2.342  15.205  0.2020 -0.8666  0.2177
  582TMC3    C6 8683   4.414   2.349  15.341  0.7957  0.8868 -0.2630
  582TMC3     C 8684   4.180   2.574  15.117 -0.2112 -0.9010  0.1529
  582TMC3     O 8685   4.116   2.660  15.171  0.2476  0.0816 -0.0392
  582TMC3     H 8686   4.233   2.627  15.367  0.9464  0.4161  0.2554
  582TMC3    H1 8687   4.379   2.449  15.018 -0.9501 -0.9905 -0.4720
  582TMC3    H2 8688   4.462   2.280  15.409  1.0587  1.2959 -0.0282
  582TMC3    C7 8689   4.382   2.221  15.145  0.6361  0.4330 -0.0048
  582TMC3    C8 8690   4.305   2.433  15.538 -0.1206 -0.3105  0.1536
  582TMC3    O1 8691   4.396   2.206  15.026 -0.2303  0.0657 -0.8510
  582TMC3    O2 8692   4.216   2.512  15.567  0.2314  0.3103  0.4915
  583MPD2     C 8693   4.286   3.862  16.872  0.2374  0.3087 -0.1696
  583MPD2    C1 8694   4.285   3.978  16.800 -0.7158 -0.2368  0.0260
  583MPD2    C2 8695   4.227   4.087  16.865 -0.0672  0.4329 -0.3679
  583MPD2    C3 8696   4.197   4.082  16.999  0.6312  0.0989  0.3444
  583MPD2    C4 8697   4.208   3.964  17.075 -0.2079  0.3325  0.2221
  583MPD2    C5 8698   4.238   3.853  17.006 -0.1247  0.5983  0.4321
  583MPD2     H 8699   4.201   4.177  16.810  0.4741  0.8528  0.0577
  583MPD2    H1 8700   4.179   3.953  17.179 -0.2385  0.1909  0.1981
  583MPD2    H2 8701   4.327   3.777  16.819  1.0418  0.3532  0.3689
  583MPD2    H3 8702   4.229   3.754  17.048 -0.5960 -0.1745 -1.4775
  583MPD2     N 8703   4.146   4.203  17.049  0.4103 -0.0432  0.2440
  583MPD2    H5 8704   4.152   4.282  16.986 -0.7304 -1.1903 -1.3007
  583MPD2    N1 8705   4.339   3.991  16.669  0.1076  0.1995  0.2348
  583MPD2    H7 8706   4.350   4.083  16.628 -1.1818 -0.3521 -1.3401
  584TMC3    C1 8707   4.083   4.357  17.217  0.1815  0.2636 -0.1822
  584TMC3    C2 8708   4.021   4.445  17.126  0.0271  0.5102  0.0712
  584TMC3    C3 8709   4.015   4.570  17.182  0.4485 -0.0169  0.1565
  584TMC3    C4 8710   4.116   4.386  17.350  0.1196 -0.1912  0.5754
  584TMC3    C5 8711   4.107   4.516  17.392 -0.0234  0.7163 -0.0396
  584TMC3    C6 8712   4.061   4.613  17.306  0.6312 -0.1979 -0.7334
  584TMC3     C 8713   4.119   4.225  17.181  0.2512  0.5728 -0.1762
  584TMC3     O 8714   4.107   4.144  17.266 -0.3858 -0.0061 -0.1376
  584TMC3     H 8715   3.978   4.418  17.031  2.8768  1.4198 -1.4843
  584TMC3    H1 8716   4.157   4.318  17.422  0.7226 -1.1939 -0.7104
  584TMC3    H2 8717   4.052   4.717  17.333 -1.0812 -1.2615  2.8558
  584TMC3    C7 8718   4.108   4.542  17.536  0.0857  0.5330  0.2693
  584TMC3    C8 8719   3.977   4.665  17.078 -0.1717  0.2576  0.2670
  584TMC3    O1 8720   4.108   4.440  17.609  0.5115  0.2767  0.0225
  584TMC3    O2 8721   3.956   4.628  16.960  0.3730  0.3593 -0.5201
  585MPD2     C 8722   3.126   3.673   0.107 -0.6815 -0.0852 -0.3589
  585MPD2    C1 8723   3.182   3.730  17.759 -0.5587  0.4945  0.2223
  585MPD2    C2 8724   3.253   3.656  17.665 -0.9317  0.0839 -0.0318
  585MPD2    C3 8725   3.268   3.518  17.683  0.3966  0.6392  0.0324
  585MPD2    C4 8726   3.207   3.458   0.030  0.5464 -0.4489 -1.0349
  585MPD2    C5 8727   3.145   3.539   0.122 -0.1160  0.5631  0.2235
  585MPD2     H 8728   3.311   3.704  17.587 -0.5765  0.6276  0.5579
  585MPD2    H1 8729   3.202   3.350   0.040 -2.1251 -0.1208  1.1496
  585MPD2    H2 8730   3.063   3.723   0.180  1.3302  2.0450 -0.0766
  585MPD2    H3 8731   3.100   3.488   0.206 -2.8030  0.1578 -1.4349
  585MPD2     N 8732   3.332   3.425  17.599  0.3795  1.0473 -0.1506
  585MPD2    H5 8733   3.305   3.328  17.617  1.3561  0.3422 -2.5570
  585MPD2    N1 8734   3.149   3.865  17.739  0.6442  0.0499  0.8635
  585MPD2    H7 8735   3.091   3.911   0.047  0.5131  1.2607 -0.0468
  586TMC3    C1 8736   3.405   3.340  17.406  1.1585  0.1235 -0.7628
  586TMC3    C2 8737   3.512   3.333  17.318  0.3058  0.6649  1.1876
  586TMC3    C3 8738   3.534   3.218  17.249 -0.4715  0.4586  0.0628
  586TMC3    C4 8739   3.321   3.238  17.434 -0.4104 -1.0140  0.8895
  586TMC3    C5 8740   3.346   3.119  17.369  0.4388  0.9641 -0.5466
  586TMC3    C6 8741   3.450   3.105  17.276 -0.4900  0.5990 -0.5296
  586TMC3     C 8742   3.402   3.457  17.489 -0.6911  0.5236  0.3011
  586TMC3     O 8743   3.442   3.565  17.448  0.6418 -0.3443 -0.0994
  586TMC3     H 8744   3.575   3.421  17.308 -1.6965  1.8593 -0.6852
  586TMC3    H1 8745   3.226   3.246  17.487 -0.6104  3.5468 -0.1441
  586TMC3    H2 8746   3.469   3.014  17.220  0.8154 -0.6076  1.9177
  586TMC3    C7 8747   3.242   3.018  17.379 -0.7867 -0.7332  0.7168
  586TMC3    C8 8748   3.663   3.163  17.233 -0.2638  0.2440  0.2624
  586TMC3    O1 8749   3.143   3.044  17.444 -0.7625 -0.1703 -0.0095
  586TMC3    O2 8750   3.752   3.185  17.313 -0.3280  0.2230  0.6031
  587TMC3    C1 8751   0.589   1.866  15.720 -0.3024  0.4113  0.3208
  587TMC3    C2 8752   0.632   1.871  15.854  0.2318 -0.0788 -0.2038
  587TMC3    C3 8753   0.770   1.867  15.864  0.7586  0.0550  0.2689
  587TMC3    C4 8754   0.679   1.835  15.618  0.2627 -0.5594  0.4584
  587TMC3    C5 8755   0.810   1.817  15.640 -0.3850 -0.2185 -0.7315
  587TMC3    C6 8756   0.858   1.835  15.765  0.3115 -0.2276 -0.4538
  587TMC3     C 8757   0.451   1.876  15.674  0.6678  0.2549 -0.0626
  587TMC3     O 8758   0.424   1.907  15.560 -0.0976 -0.1704  0.3378
  587TMC3     H 8759   0.568   1.892  15.939 -0.6727 -0.4475 -0.7953
  587TMC3    H1 8760   0.638   1.831  15.519  2.8655  0.7826 -0.6844
  587TMC3    H2 8761   0.965   1.824  15.778  0.2433 -1.9585 -1.3648
  587TMC3    C7 8762   0.896   1.740  15.554  0.5928 -0.1330 -0.1010
  587TMC3    C8 8763   0.828   1.906  15.993 -0.2231  0.5934  0.8086
  587TMC3    O1 8764   0.987   1.675  15.596  0.3058 -0.1407  0.0894
  587TMC3    O2 8765   0.935   1.853  16.026 -0.7539 -0.6502 -0.0261
  588TMC3    C1 8766   2.945   0.141  10.001  0.0503 -0.3327  0.3928
  588TMC3    C2 8767   2.908   0.017   9.971 -0.0281 -0.4559 -0.8340
  588TMC3    C3 8768   2.947   4.659  10.059  0.0472 -0.5755  0.5057
  588TMC3    C4 8769   3.016   0.181  10.112 -0.9797  0.1819 -0.3456
  588TMC3    C5 8770   3.041   0.085  10.206 -0.2134  0.6387  0.7698
  588TMC3    C6 8771   3.016   4.696  10.171  0.3261  0.7382 -0.5728
  588TMC3     C 8772   2.961   0.230   9.882 -0.0573  0.2616  0.3210
  588TMC3     O 8773   2.889   0.222   9.781 -0.0989  0.3997  0.4227
  588TMC3     H 8774   2.843   0.003   9.885 -1.3633 -1.4036  0.3183
  588TMC3    H1 8775   3.024   0.287  10.134 -1.0135  0.3930 -1.3597
  588TMC3    H2 8776   3.059   4.622  10.237  1.7029  1.4901 -0.6223
  588TMC3    C7 8777   3.137   0.118  10.309 -0.5643 -0.0538  0.7582
  588TMC3    C8 8778   2.894   4.525  10.044 -0.2741  0.0885  0.1482
  588TMC3    O1 8779   3.120   0.067  10.416 -0.0386  0.3709  0.1491
  588TMC3    O2 8780   2.785   4.522   9.991 -0.7189 -0.0652 -0.1107
  589TMC3    C1 8781   1.630   2.249   1.099  1.4334 -0.1114  0.0883
  589TMC3    C2 8782   1.744   2.248   1.167 -0.0270 -0.5712 -0.2145
  589TMC3    C3 8783   1.811   2.129   1.175  0.6319 -0.2233 -0.1016
  589TMC3    C4 8784   1.578   2.145   1.034  0.2527 -0.3482  0.3627
  589TMC3    C5 8785   1.651   2.031   1.042 -0.3211 -0.2195 -0.2072
  589TMC3    C6 8786   1.762   2.019   1.118 -0.7922 -0.8018  0.1435
  589TMC3     C 8787   1.585   2.370   1.040 -0.5518 -0.9864  0.4138
  589TMC3     O 8788   1.546   2.355   0.923  0.2020 -0.2664 -0.2438
  589TMC3     H 8789   1.797   2.340   1.190  0.5275 -1.2674  1.3216
  589TMC3    H1 8790   1.474   2.145   1.004  0.8193  0.1613 -1.5908
  589TMC3    H2 8791   1.814   1.925   1.133 -1.9781 -1.6061 -0.7881
  589TMC3    C7 8792   1.622   1.916   0.958  0.1772  0.5440 -0.3333
  589TMC3    C8 8793   1.941   2.123   1.243 -0.7558 -0.3059 -0.3990
  589TMC3    O1 8794   1.706   1.827   0.962 -0.3676  0.0612 -0.3380
  589TMC3    O2 8795   1.976   2.195   1.339 -0.2586 -0.5556  0.3253
  590MPD2     C 8796   1.593   0.239  16.606  0.7474  0.1100 -0.0054
  590MPD2    C1 8797   1.560   0.333  16.505 -0.5165  0.6977  0.1406
  590MPD2    C2 8798   1.654   0.417  16.458 -0.3395  0.0783  0.7270
  590MPD2    C3 8799   1.791   0.417  16.499 -0.4573  0.3948 -0.7826
  590MPD2    C4 8800   1.823   0.321  16.596 -0.2338 -0.4632  0.1888
  590MPD2    C5 8801   1.727   0.226  16.638  0.3067 -0.1084  0.1628
  590MPD2     H 8802   1.619   0.494  16.389 -0.4396  1.7676  2.6496
  590MPD2    H1 8803   1.920   0.309  16.643 -0.0214  0.8301  0.0880
  590MPD2    H2 8804   1.519   0.173  16.649  1.2960 -0.1731  0.5041
  590MPD2    H3 8805   1.751   0.156  16.717 -1.0030  1.3579  1.8770
  590MPD2     N 8806   1.881   0.523  16.464  0.0799 -0.3059  0.0406
  590MPD2    H5 8807   1.844   0.602  16.413 -1.1590 -0.1614  1.1745
  590MPD2    N1 8808   1.422   0.348  16.480 -0.2236  0.1788 -0.7280
  590MPD2    H7 8809   1.370   0.297  16.551  1.2360  0.2835  0.4292
  591TMC3    C1 8810   2.068   0.650  16.453  0.3379 -0.8933  0.5528
  591TMC3    C2 8811   2.206   0.662  16.456  0.0100 -0.1382  0.6921
  591TMC3    C3 8812   2.273   0.739  16.358 -0.3045 -0.7614 -0.4854
  591TMC3    C4 8813   1.990   0.738  16.377 -0.8152  0.0905 -0.1988
  591TMC3    C5 8814   2.065   0.818  16.289  0.0767 -0.1102 -0.3029
  591TMC3    C6 8815   2.198   0.823  16.278  0.1898  0.3813 -0.0505
  591TMC3     C 8816   2.007   0.530  16.512  0.1124  0.3653 -0.5694
  591TMC3     O 8817   2.079   0.449  16.566  0.2058  0.6885  0.4052
  591TMC3     H 8818   2.271   0.591  16.506 -0.1053 -0.6043  0.1793
  591TMC3    H1 8819   1.882   0.744  16.377 -0.8461 -0.4401  0.4378
  591TMC3    H2 8820   2.250   0.905  16.229  0.9613  1.2548  2.2051
  591TMC3    C7 8821   2.002   0.945  16.275  0.7450 -0.6441 -0.3449
  591TMC3    C8 8822   2.399   0.695  16.322 -0.8812 -0.2699 -0.2454
  591TMC3    O1 8823   1.909   0.973  16.350  0.1328 -0.5823  0.7603
  591TMC3    O2 8824   2.465   0.647  16.409  0.2797 -0.3816 -0.2307
  592MPD2     C 8825   2.602   2.301  11.282 -0.5196 -0.3131 -0.4761
  592MPD2    C1 8826   2.577   2.348  11.405  0.2922 -0.7906  0.1758
  592MPD2    C2 8827   2.513   2.267  11.501 -0.3100 -0.0652 -0.6317
  592MPD2    C3 8828   2.466   2.141  11.478  0.6305  0.3382  0.0136
  592MPD2    C4 8829   2.500   2.097  11.349 -0.4643  0.4796 -0.3185
  592MPD2    C5 8830   2.561   2.176  11.252 -0.0683  0.0127 -0.5743
  592MPD2     H 8831   2.500   2.302  11.603 -1.3988 -0.2865 -0.6997
  592MPD2    H1 8832   2.492   1.991  11.329 -1.0871  0.6667 -1.0602
  592MPD2    H2 8833   2.662   2.356  11.210  0.8096 -1.1388  0.0019
  592MPD2    H3 8834   2.597   2.141  11.156 -0.9190  0.7854 -1.1726
  592MPD2     N 8835   2.422   2.071  11.589 -0.0931 -0.2566 -0.0091
  592MPD2    H5 8836   2.451   2.098  11.682 -1.0762 -0.0824  0.2404
  592MPD2    N1 8837   2.632   2.474  11.430 -0.0860 -0.3371  0.3721
  592MPD2    H7 8838   2.667   2.530  11.352 -0.7742 -0.0082  0.2927
  593TMC3    C1 8839   2.697   2.662  11.553 -0.4285  0.3260  0.0628
  593TMC3    C2 8840   2.759   2.705  11.667  1.1176 -0.8940  0.1824
  593TMC3    C3 8841   2.818   2.820  11.671  1.1301 -0.3317 -0.0018
  593TMC3    C4 8842   2.687   2.739  11.443 -0.3167 -0.8823  0.0105
  593TMC3    C5 8843   2.750   2.868  11.451 -0.3013  0.0348  0.5755
  593TMC3    C6 8844   2.813   2.909  11.565  0.2668  0.5640 -0.0289
  593TMC3     C 8845   2.644   2.530  11.553 -0.0230 -0.1196 -0.7185
  593TMC3     O 8846   2.636   2.469  11.659  0.3469 -0.2931  0.2067
  593TMC3     H 8847   2.758   2.645  11.758  0.3570 -0.0400  0.7305
  593TMC3    H1 8848   2.613   2.717  11.367  1.2989  0.5763 -1.9694
  593TMC3    H2 8849   2.843   3.013  11.574  1.0611  0.0910  2.9761
  593TMC3    C7 8850   2.735   2.971  11.354  0.4578  0.1431 -0.4491
  593TMC3    C8 8851   2.815   2.874  11.799  0.5463  0.2408  0.2825
  593TMC3    O1 8852   2.733   3.086  11.391 -0.0484 -0.2458  0.2732
  593TMC3    O2 8853   2.728   2.841  11.880 -0.1351 -0.4201 -0.0462
  594MPD2     C 8854   1.208   0.962  14.243 -0.3095 -0.4859 -0.2821
  594MPD2    C1 8855   1.176   1.026  14.359 -0.5497  0.4171  0.0109
  594MPD2    C2 8856   1.250   1.135  14.399 -0.4396  0.1227  0.3897
  594MPD2    C3 8857   1.353   1.189  14.322 -0.1768  0.5340 -0.1958
  594MPD2    C4 8858   1.386   1.120  14.206 -0.4121  0.4573 -0.3838
  594MPD2    C5 8859   1.313   1.008  14.165  0.4471 -0.4702 -0.0655
  594MPD2     H 8860   1.223   1.203  14.479 -0.1442  1.0141 -0.2576
  594MPD2    H1 8861   1.469   1.141  14.139  1.0572 -1.6479  0.7744
  594MPD2    H2 8862   1.148   0.882  14.202 -0.3316 -0.2566 -0.7004
  594MPD2    H3 8863   1.332   0.957  14.072  1.9300  0.9072 -0.5293
  594MPD2     N 8864   1.428   1.300  14.368  0.2687  0.3929  0.4254
  594MPD2    H5 8865   1.410   1.331  14.463  2.2321  2.2994  0.1702
  594MPD2    N1 8866   1.059   0.995  14.424 -0.1013 -0.4923 -0.1126
  594MPD2    H7 8867   1.008   0.924  14.373  0.3057  0.1105 -1.3609
  595TMC3    C1 8868   1.735   1.630  14.457 -0.2042 -0.1474  0.0828
  595TMC3    C2 8869   1.699   1.519  14.374 -0.1657 -0.4815 -0.1179
  595TMC3    C3 8870   1.571   1.468  14.395 -0.0419 -0.4521 -0.2704
  595TMC3    C4 8871   1.641   1.701  14.527 -0.0076 -0.7001 -0.7285
  595TMC3    C5 8872   1.510   1.662  14.518  0.1132 -0.0430 -1.3664
  595TMC3    C6 8873   1.477   1.544  14.459 -0.1693 -0.0506 -0.3823
  595TMC3     C 8874   1.876   1.682  14.463  0.4051  1.1069 -0.0550
  595TMC3     O 8875   1.892   1.767  14.547  0.4634 -0.3451 -0.0252
  595TMC3     H 8876   1.767   1.448  14.330  0.7114  1.4866 -1.9467
  595TMC3    H1 8877   1.665   1.787  14.588 -3.6727  1.3675 -2.2247
  595TMC3    H2 8878   1.374   1.512  14.472 -0.6639  0.1786 -3.7432
  595TMC3    C7 8879   1.417   1.766  14.495 -0.2512  0.3109 -0.0430
  595TMC3    C8 8880   1.532   1.363  14.308 -0.4026 -0.3967  0.3074
  595TMC3    O1 8881   1.301   1.746  14.478  0.1080 -0.3184  0.1732
  595TMC3    O2 8882   1.587   1.349  14.198  0.7316 -0.5787 -0.5061
  596MPD2     C 8883   0.280   3.811  16.716 -0.2360 -0.8951 -0.3316
  596MPD2    C1 8884   0.270   3.944  16.693  0.5573  0.0507 -0.5168
  596MPD2    C2 8885   0.267   3.991  16.562  0.3820 -0.5075 -0.2772
  596MPD2    C3 8886   0.292   3.904  16.455  0.2963 -0.1757 -0.0354
  596MPD2    C4 8887   0.303   3.775  16.482  0.2909  0.4563 -0.2714
  596MPD2    C5 8888   0.290   3.726  16.611 -0.6799  0.1852  0.1714
  596MPD2     H 8889   0.275   4.096  16.535  0.1418 -0.6147 -0.7605
  596MPD2    H1 8890   0.315   3.700  16.405 -3.1223  0.6092 -0.9481
  596MPD2    H2 8891   0.272   3.772  16.817  0.9351 -0.3888 -0.0469
  596MPD2    H3 8892   0.295   3.619  16.628  2.1938  0.5279  1.4384
  596MPD2     N 8893   0.310   3.941  16.318  0.1924 -0.1464  0.6159
  596MPD2    H5 8894   0.324   3.867  16.250 -3.4296 -0.7673  0.5149
  596MPD2    N1 8895   0.283   4.045  16.802  0.3011 -0.4116  0.2603
  596MPD2    H7 8896   0.317   4.138  16.781 -1.9660  0.2338 -0.6061
  597TMC3    C1 8897   0.316   4.137  17.008 -0.6668 -0.3818 -0.3050
  597TMC3    C2 8898   0.428   4.206  16.962 -0.2703  0.1915 -0.0205
  597TMC3    C3 8899   0.429   4.342  16.983 -0.6461 -0.3064  0.5350
  597TMC3    C4 8900   0.212   4.207  17.059  0.0614  0.3416 -0.4592
  597TMC3    C5 8901   0.217   4.341  17.072 -0.3780  1.1623  0.2664
  597TMC3    C6 8902   0.328   4.409  17.042 -0.2611 -0.7421 -0.5775
  597TMC3     C 8903   0.273   4.020  16.934  0.0186 -0.0910  0.2044
  597TMC3     O 8904   0.236   3.921  16.991 -0.3556 -0.5139  0.7355
  597TMC3     H 8905   0.511   4.142  16.932  0.0268  0.5520  0.0318
  597TMC3    H1 8906   0.133   4.144  17.100  0.3311  0.6205  0.4890
  597TMC3    H2 8907   0.319   4.515  17.066  1.4560 -0.3207 -1.7544
  597TMC3    C7 8908   0.107   4.398  17.154  0.5339 -0.1319 -0.1026
  597TMC3    C8 8909   0.542   4.419  16.928 -0.4818  0.0567 -0.3025
  597TMC3    O1 8910   0.042   4.318  17.222  0.5957  0.3018  0.1703
  597TMC3    O2 8911   0.628   4.360  16.870  0.0117 -0.0028  0.6600
  598TMC3    C1 8912   3.001   0.805  15.412  0.3712 -0.2732  0.1514
  598TMC3    C2 8913   2.896   0.752  15.482 -0.4386  0.3575 -0.3799
  598TMC3    C3 8914   2.772   0.784  15.444 -0.5911 -0.1692 -0.5598
  598TMC3    C4 8915   2.976   0.893  15.306 -0.0508  0.6717  0.0870
  598TMC3    C5 8916   2.844   0.911  15.265 -0.2251 -0.1926  0.0299
  598TMC3    C6 8917   2.743   0.865  15.338  0.4886  0.5336 -0.0951
  598TMC3     C 8918   3.139   0.759  15.419  0.0047  0.5179 -0.6963
  598TMC3     O 8919   3.222   0.817  15.349  0.0433 -0.0213  0.0727
  598TMC3     H 8920   2.914   0.689  15.568 -2.8998 -0.0822 -0.2034
  598TMC3    H1 8921   3.066   0.930  15.258 -0.2148  1.2947  0.2594
  598TMC3    H2 8922   2.643   0.888  15.303 -0.3883 -0.4270  1.7768
  598TMC3    C7 8923   2.821   1.002  15.157  0.9476  0.3288  0.1658
  598TMC3    C8 8924   2.669   0.733  15.530 -0.5541  0.0247 -0.4757
  598TMC3    O1 8925   2.736   0.966  15.074 -0.1487  0.5320  0.2187
  598TMC3    O2 8926   2.695   0.660  15.620 -0.3712 -0.2571  0.0923
  599MPD2     C 8927   2.547   3.467  15.622  0.2594  0.1675  0.4235
  599MPD2    C1 8928   2.621   3.361  15.668  0.2187 -0.1457  0.4322
  599MPD2    C2 8929   2.616   3.328  15.805  0.5167  0.2064  0.4273
  599MPD2    C3 8930   2.537   3.409  15.892 -0.3565 -1.4814  0.1480
  599MPD2    C4 8931   2.470   3.515  15.838  1.0389  0.1569  0.5715
  599MPD2    C5 8932   2.473   3.547  15.706  0.8245  0.1755 -0.4133
  599MPD2     H 8933   2.686   3.251  15.835 -0.5108 -0.2103  1.7838
  599MPD2    H1 8934   2.410   3.573  15.907 -0.5053 -1.5956  0.7162
  599MPD2    H2 8935   2.542   3.495  15.517  1.4386 -1.5767 -0.0967
  599MPD2    H3 8936   2.419   3.630  15.662 -0.7886 -1.4517 -1.5290
  599MPD2     N 8937   2.521   3.377  16.026 -0.2414  0.4685  0.2899
  599MPD2    H5 8938   2.486   3.452  16.086 -1.2771 -0.1587  0.4573
  599MPD2    N1 8939   2.697   3.293  15.574  0.6144 -0.6289  0.7811
  599MPD2    H7 8940   2.682   3.323  15.478 -0.2542 -1.5517  0.6257
  600TMC3    C1 8941   2.518   3.232  16.218  0.3752 -0.1128 -0.1538
  600TMC3    C2 8942   2.460   3.120  16.268 -0.4867 -0.2704  0.1385
  600TMC3    C3 8943   2.495   3.086  16.395 -0.4648  0.6870  0.2820
  600TMC3    C4 8944   2.599   3.310  16.297 -0.4619  0.0159 -0.9671
  600TMC3    C5 8945   2.631   3.274  16.422  0.8658  0.3842  0.1226
  600TMC3    C6 8946   2.575   3.161  16.474  0.0444  0.0702 -0.1229
  600TMC3     C 8947   2.539   3.249  16.073 -0.4079 -0.1911 -0.0573
  600TMC3     O 8948   2.555   3.149  16.009  0.4425 -0.3644 -0.0716
  600TMC3     H 8949   2.411   3.054  16.198  0.1974 -0.0627 -0.5227
  600TMC3    H1 8950   2.636   3.407  16.265  1.7649  0.0973  1.8583
  600TMC3    H2 8951   2.602   3.131  16.575 -1.6546  4.9640  1.7751
  600TMC3    C7 8952   2.677   3.377  16.502  0.4619  0.3289 -0.9239
  600TMC3    C8 8953   2.419   2.985  16.465 -0.5323 -0.5554 -0.5525
  600TMC3    O1 8954   2.631   3.488  16.481  0.3891 -0.6161  0.3858
  600TMC3    O2 8955   2.478   2.946  16.563 -0.5330  0.0625 -0.1178
  601MPD2     C 8956   0.149   1.738  17.667  0.0364 -1.0458 -1.2614
  601MPD2    C1 8957   0.118   1.607  17.663  0.6357 -1.0852 -0.6479
  601MPD2    C2 8958   0.075   1.547   0.021  0.3426 -0.8929 -1.2804
  601MPD2    C3 8959   0.087   1.609   0.143 -0.9458  0.0722 -0.2001
  601MPD2    C4 8960   0.123   1.744   0.136  0.4536  0.3546 -1.1208
  601MPD2    C5 8961   0.143   1.808   0.022 -1.1043 -0.8029 -0.0638
  601MPD2     H 8962   0.061   1.440   0.026 -0.7571 -0.6750  0.5219
  601MPD2    H1 8963   0.137   1.796   0.230 -0.2578  0.8456 -1.2851
  601MPD2    H2 8964   0.185   1.790  17.579  1.0942  0.3280 -0.0157
  601MPD2    H3 8965   0.169   1.913   0.022 -2.4760 -0.4593  2.5355
  601MPD2     N 8966   0.066   1.540   0.267 -0.0898 -0.1486  0.4211
  601MPD2    H5 8967   0.110   1.590   0.343  0.2732  1.0844 -0.6151
  601MPD2    N1 8968   0.129   1.529  17.549 -0.3407  0.3797 -0.0547
  601MPD2    H7 8969   0.093   1.436  17.569 -0.4510  0.0605 -1.7266
  602TMC3    C1 8970   0.137   1.500  17.315  0.5035  0.4597  0.0407
  602TMC3    C2 8971   0.229   1.523  17.213 -0.4206 -1.0471 -0.3262
  602TMC3    C3 8972   0.186   1.535  17.080  0.5274 -0.2976 -0.5612
  602TMC3    C4 8973   0.005   1.483  17.278  0.0552  0.5324 -0.0212
  602TMC3    C5 8974   4.704   1.497  17.146 -0.6368 -0.8425 -0.4270
  602TMC3    C6 8975   0.058   1.527  17.050 -0.5053 -1.0497  1.1670
  602TMC3     C 8976   0.155   1.582  17.429 -0.0590 -0.6698  0.2822
  602TMC3     O 8977   0.203   1.686  17.402 -0.4384 -0.1299  0.1750
  602TMC3     H 8978   0.333   1.547  17.235 -0.1165 -0.0187 -2.9691
  602TMC3    H1 8979   4.674   1.485  17.359  0.5789 -1.5304  0.4756
  602TMC3    H2 8980   0.030   1.523  16.945  0.7034 -2.5319  0.9160
  602TMC3    C7 8981   4.571   1.552  17.136 -0.1960  0.2270  0.1615
  602TMC3    C8 8982   0.280   1.576  16.978  0.2135 -0.9507 -0.1371
  602TMC3    O1 8983   4.476   1.526  17.209  0.4349  0.3570  0.0203
  602TMC3    O2 8984   0.387   1.522  16.954  0.0975  0.2848  0.0280
  603TMC3    C1 8985   2.976   2.057  11.165  0.1072 -0.7004  0.4468
  603TMC3    C2 8986   3.049   2.049  11.282  0.0161  0.8720 -0.3702
  603TMC3    C3 8987   3.166   2.122  11.304 -0.0646 -0.2080 -0.3433
  603TMC3    C4 8988   2.998   2.153  11.078 -0.1126  0.5789  0.0177
  603TMC3    C5 8989   3.119   2.227  11.096 -0.0764 -0.2264 -0.3070
  603TMC3    C6 8990   3.204   2.214  11.206 -0.2115  0.0630  0.1938
  603TMC3     C 8991   2.850   1.986  11.140  0.0382  0.0236 -0.0394
  603TMC3     O 8992   2.808   1.993  11.027 -0.0686  0.0192  0.1530
  603TMC3     H 8993   3.020   1.973  11.354  0.6669  1.2835  0.3181
  603TMC3    H1 8994   2.934   2.159  10.990 -2.3103  2.2497  1.7266
  603TMC3    H2 8995   3.307   2.246  11.207  0.1625 -1.1000 -0.6553
  603TMC3    C7 8996   3.173   2.307  10.990 -0.1658  0.3371 -0.2573
  603TMC3    C8 8997   3.251   2.081  11.417  1.0590 -0.5946  0.0234
  603TMC3    O1 8998   3.293   2.307  10.991 -0.3887 -0.6139  0.3442
  603TMC3    O2 8999   3.241   1.965  11.452  0.7319  0.5541  0.1384
  604MPD2     C 9000   3.828   0.676  16.527  0.2154 -0.0750 -0.4883
  604MPD2    C1 9001   3.760   0.736  16.423  0.1756 -0.4406  0.0548
  604MPD2    C2 9002   3.776   0.693  16.292  0.5815 -0.3363 -0.1540
  604MPD2    C3 9003   3.869   0.595  16.267 -1.3525  0.5214 -0.2283
  604MPD2    C4 9004   3.927   0.528  16.374 -0.2903  0.5550  0.3749
  604MPD2    C5 9005   3.908   0.571  16.503 -0.4532 -0.5388 -0.4617
  604MPD2     H 9006   3.736   0.747  16.207  0.0500 -0.4996 -0.0071
  604MPD2    H1 9007   3.995   0.445  16.358 -1.4355 -0.1119 -1.0043
  604MPD2    H2 9008   3.811   0.707  16.630  1.5677  0.5950 -0.4644
  604MPD2    H3 9009   3.953   0.516  16.584  1.2189 -0.4386 -1.3280
  604MPD2     N 9010   3.895   0.551  16.140  0.0475 -0.0077  0.0870
  604MPD2    H5 9011   3.839   0.585  16.062  0.8093  2.0549  0.4395
  604MPD2    N1 9012   3.681   0.850  16.453 -0.0567  0.3949  0.0019
  604MPD2    H7 9013   3.683   0.875  16.551  0.5021  1.8710 -0.3928
  605TMC3    C1 9014   3.565   1.048  16.438 -0.6699  0.8021  0.6633
  605TMC3    C2 9015   3.646   1.111  16.529  0.2407 -0.5947  0.9486
  605TMC3    C3 9016   3.613   1.235  16.574  0.8852 -0.7911 -0.2402
  605TMC3    C4 9017   3.448   1.107  16.396  0.9899  0.5953 -0.1987
  605TMC3    C5 9018   3.422   1.232  16.444 -0.0909  0.2162 -0.0839
  605TMC3    C6 9019   3.503   1.300  16.531 -0.4993  0.1751 -0.3863
  605TMC3     C 9020   3.612   0.932  16.365 -0.6292 -0.1427  0.1829
  605TMC3     O 9021   3.590   0.927  16.246  0.3027  0.0208  0.5913
  605TMC3     H 9022   3.745   1.070  16.546  0.1409 -0.6146  1.4850
  605TMC3    H1 9023   3.387   1.042  16.334  0.2173 -0.3524  1.5736
  605TMC3    H2 9024   3.483   1.404  16.551 -2.3022 -0.4067  0.7427
  605TMC3    C7 9025   3.321   1.311  16.380  0.1215 -0.3919 -0.5439
  605TMC3    C8 9026   3.721   1.314  16.644  0.1221 -0.3432 -0.1330
  605TMC3    O1 9027   3.282   1.419  16.424 -0.2162  0.3849  0.1689
  605TMC3    O2 9028   3.821   1.255  16.685  0.9355 -0.0845 -0.2745
  606TMC3    C1 9029   0.411   4.728   0.328 -0.1952 -0.1437  0.1796
  606TMC3    C2 9030   0.433   4.639   0.433  0.4472  0.2144  0.1266
  606TMC3    C3 9031   0.391   4.515   0.438  0.2293  0.1541  0.4248
  606TMC3    C4 9032   0.349   4.682   0.213  0.0884 -0.7233 -0.0038
  606TMC3    C5 9033   0.320   4.545   0.211  0.2374  0.0526  0.5306
  606TMC3    C6 9034   0.340   4.461   0.318  0.0455  0.6829 -0.0370
  606TMC3     C 9035   0.466   0.125   0.338 -0.1374  0.4701 -0.0836
  606TMC3     O 9036   0.561   0.135   0.412  0.1061  0.0343  0.4946
  606TMC3     H 9037   0.495   4.670   0.516  0.0524  0.1880  0.4305
  606TMC3    H1 9038   0.338   4.734   0.118  0.3796  1.6266  1.2621
  606TMC3    H2 9039   0.308   4.357   0.314  2.5810 -0.0385 -1.9470
  606TMC3    C7 9040   0.266   4.487   0.095  0.1205  0.3231  0.4645
  606TMC3    C8 9041   0.382   4.438   0.560  0.0169  0.1401 -0.8925
  606TMC3    O1 9042   0.231   4.570   0.009  0.1215  0.0631  0.3855
  606TMC3    O2 9043   0.361   4.317   0.543 -0.5399  0.2088  0.2957
  607MPD2     C 9044   2.719   1.872  11.743 -0.2204  0.1997 -0.0580
  607MPD2    C1 9045   2.755   1.985  11.805  0.5372  1.2803 -0.3435
  607MPD2    C2 9046   2.721   2.001  11.943 -1.2754  0.4443 -0.6842
  607MPD2    C3 9047   2.688   1.892  12.022 -0.6144 -0.3776 -0.3322
  607MPD2    C4 9048   2.655   1.778  11.957  0.2206 -0.0787 -1.0470
  607MPD2    C5 9049   2.673   1.766  11.818 -0.1265  0.3988  0.3384
  607MPD2     H 9050   2.743   2.089  12.003  1.8584 -0.7672 -0.0181
  607MPD2    H1 9051   2.615   1.688  12.002  1.4967  0.4521  1.1442
  607MPD2    H2 9052   2.733   1.849  11.638  0.2728  0.3578 -0.0282
  607MPD2    H3 9053   2.645   1.670  11.778  1.0407  0.7409 -1.2962
  607MPD2     N 9054   2.665   1.919  12.160 -0.3386 -0.4079 -0.3497
  607MPD2    H5 9055   2.702   2.007  12.196 -0.5952 -1.5732  2.7153
  607MPD2    N1 9056   2.816   2.091  11.750  0.2066 -0.0376 -0.4466
  607MPD2    H7 9057   2.828   2.169  11.814 -3.4240 -0.8648  1.2850
  608TMC3    C1 9058   2.952   2.210  11.599 -0.3002  0.3644 -0.1900
  608TMC3    C2 9059   3.022   2.247  11.706  0.1554 -0.2560  0.6043
  608TMC3    C3 9060   3.074   2.370  11.712 -0.4478  0.1528 -0.5900
  608TMC3    C4 9061   2.943   2.288  11.483  0.4934  0.2296 -0.0814
  608TMC3    C5 9062   3.005   2.409  11.491  0.5034  0.1618 -0.3008
  608TMC3    C6 9063   3.081   2.452  11.600  0.6363  0.5318 -0.3666
  608TMC3     C 9064   2.859   2.102  11.614  0.0164  0.6040  0.2049
  608TMC3     O 9065   2.821   2.051  11.509  0.4209 -0.7971 -0.1493
  608TMC3     H 9066   3.039   2.175  11.786 -0.0253  0.0335  0.9035
  608TMC3    H1 9067   2.879   2.256  11.402 -0.1484  0.1702  0.4526
  608TMC3    H2 9068   3.103   2.555  11.624  1.1872  0.4604 -0.5571
  608TMC3    C7 9069   2.992   2.501  11.379  0.6281 -0.9133  0.4385
  608TMC3    C8 9070   3.123   2.425  11.838  0.4004 -0.0900  0.4898
  608TMC3    O1 9071   2.920   2.463  11.284  0.0799  0.4634 -0.0105
  608TMC3    O2 9072   3.227   2.490  11.834 -0.1543  0.1153 -0.8006
  609TMC3    C1 9073   1.085   0.386   9.139  0.0092  0.7217 -0.5520
  609TMC3    C2 9074   1.092   0.263   9.087 -0.2375 -0.5002  0.2307
  609TMC3    C3 9075   1.209   0.186   9.085 -0.0500  0.0607  0.1673
  609TMC3    C4 9076   1.202   0.436   9.194 -0.2632  1.3211  0.3948
  609TMC3    C5 9077   1.315   0.357   9.202 -0.7186 -0.6966  0.3638
  609TMC3    C6 9078   1.328   0.233   9.143  0.2690 -0.1622  0.0609
  609TMC3     C 9079   0.956   0.454   9.166  0.4523  0.7463  0.0217
  609TMC3     O 9080   0.855   0.391   9.203  0.2793  0.2261  0.8046
  609TMC3     H 9081   0.996   0.226   9.054  0.7127 -0.8888 -2.0664
  609TMC3    H1 9082   1.211   0.540   9.223 -3.7545  1.9198 -0.6299
  609TMC3    H2 9083   1.417   0.174   9.161  0.3441  1.0510  3.6030
  609TMC3    C7 9084   1.432   0.416   9.261 -0.3183  0.3705 -0.4909
  609TMC3    C8 9085   1.203   0.051   9.036  0.3511  0.3717 -0.6756
  609TMC3    O1 9086   1.412   0.500   9.345  0.2565  0.0352  0.3078
  609TMC3    O2 9087   1.093   4.734   9.017 -0.4506  0.0980 -0.0524
  610TMC3    C1 9088   3.249   1.990  12.999 -0.0860 -0.3585  0.2879
  610TMC3    C2 9089   3.312   2.067  12.904  0.6064 -0.2256 -0.4056
  610TMC3    C3 9090   3.416   2.005  12.838 -0.2259 -0.0848 -0.2981
  610TMC3    C4 9091   3.299   1.876  13.038  0.2612  0.0653 -0.3763
  610TMC3    C5 9092   3.405   1.820  12.964 -0.2454  0.1245  0.4058
  610TMC3    C6 9093   3.471   1.888  12.870 -0.1515 -1.3577 -0.8231
  610TMC3     C 9094   3.184   2.060  13.106 -0.0741 -0.0952  0.2384
  610TMC3     O 9095   3.124   1.984  13.179  0.3260  0.1802  0.1225
  610TMC3     H 9096   3.262   2.159  12.878 -0.2885 -0.8558 -0.9358
  610TMC3    H1 9097   3.241   1.816  13.108 -0.5270 -1.5141 -2.3834
  610TMC3    H2 9098   3.556   1.849  12.816 -0.0681 -1.5656 -0.5403
  610TMC3    C7 9099   3.462   1.681  12.997 -0.6268  0.3699  0.0204
  610TMC3    C8 9100   3.492   2.099  12.753 -0.8519 -0.3697  0.0649
  610TMC3    O1 9101   3.552   1.629  12.931  0.5963  0.5664  0.3894
  610TMC3    O2 9102   3.501   2.218  12.786  0.0647 -0.1946  0.1156
  611MPD2     C 9103   2.098   2.333  10.616  0.1011 -0.7235 -0.1720
  611MPD2    C1 9104   2.093   2.304  10.479 -0.0331  0.0528 -0.0415
  611MPD2    C2 9105   2.203   2.325  10.405 -0.9025 -0.1630  0.2491
  611MPD2    C3 9106   2.323   2.371  10.464  0.5040 -0.8703 -0.9453
  611MPD2    C4 9107   2.322   2.391  10.601  0.3283  0.0099  0.0989
  611MPD2    C5 9108   2.211   2.371  10.676 -0.7810  0.2515  0.0729
  611MPD2     H 9109   2.204   2.296  10.301  1.9653  0.8789 -0.0019
  611MPD2    H1 9110   2.415   2.411  10.653  0.5056  1.2337 -0.7126
  611MPD2    H2 9111   2.017   2.311  10.685 -0.8232  2.2841 -0.2598
  611MPD2    H3 9112   2.218   2.391  10.783  0.9469  0.6416 -0.1132
  611MPD2     N 9113   2.441   2.390  10.399  0.2498  0.3648 -0.3279
  611MPD2    H5 9114   2.521   2.416  10.456 -1.1228  3.3406  0.2160
  611MPD2    N1 9115   1.978   2.234  10.438 -0.3656 -0.5460  0.3889
  611MPD2    H7 9116   1.920   2.204  10.516  0.1292  0.4077  1.1202
  612TMC3    C1 9117   2.574   2.449  10.212 -0.7178 -0.3414 -0.0655
  612TMC3    C2 9118   2.688   2.446  10.293 -0.7659  0.3162 -0.4305
  612TMC3    C3 9119   2.801   2.504  10.250 -0.9799  0.5023 -0.7568
  612TMC3    C4 9120   2.572   2.504  10.089  0.5500 -0.1002 -0.6012
  612TMC3    C5 9121   2.690   2.559  10.047 -0.8210  0.4487  0.1512
  612TMC3    C6 9122   2.806   2.555  10.125 -0.7837  0.5371  0.2771
  612TMC3     C 9123   2.446   2.406  10.264 -0.5947  0.0032  0.3485
  612TMC3     O 9124   2.366   2.381  10.171 -0.3517  0.0590 -0.3473
  612TMC3     H 9125   2.695   2.381  10.380 -0.8263  0.4606 -0.3187
  612TMC3    H1 9126   2.478   2.507  10.036  0.3049 -3.2590 -0.3456
  612TMC3    H2 9127   2.898   2.597  10.087 -0.9613  2.3516  1.8790
  612TMC3    C7 9128   2.709   2.610   9.914 -0.0444  0.5732 -0.0688
  612TMC3    C8 9129   2.922   2.526  10.334 -0.7152 -0.0718  0.5764
  612TMC3    O1 9130   2.785   2.702   9.899 -0.2269  0.4053  0.3234
  612TMC3    O2 9131   3.023   2.570  10.272  0.1290 -0.2678 -0.2701
  613MPD2     C 9132   1.572   4.618  16.714 -0.0948  0.3458 -0.2567
  613MPD2    C1 9133   1.456   4.619  16.647  0.1797  0.5655 -0.0549
  613MPD2    C2 9134   1.341   4.553  16.679 -0.7169  0.1202 -0.3243
  613MPD2    C3 9135   1.346   4.477  16.795 -0.3184 -0.1222  0.0697
  613MPD2    C4 9136   1.465   4.482  16.866  0.6756  0.6864  0.0936
  613MPD2    C5 9137   1.575   4.550  16.832  0.0565 -0.6110  1.0136
  613MPD2     H 9138   1.258   4.551  16.609 -1.0300 -0.5267  0.0701
  613MPD2    H1 9139   1.489   4.417  16.949 -0.3185 -0.1121 -0.2338
  613MPD2    H2 9140   1.658   4.673  16.677  0.2463 -0.8263 -1.1932
  613MPD2    H3 9141   1.668   4.543  16.887 -1.0290 -1.9485  2.6549
  613MPD2     N 9142   1.243   4.393  16.834 -0.0766  0.1170  0.3298
  613MPD2    H5 9143   1.271   4.319  16.899 -0.2055 -0.9177 -0.7871
  613MPD2    N1 9144   1.470   4.669  16.517 -0.2736  0.1817 -0.2646
  613MPD2    H7 9145   1.566   4.694  16.492  0.3958 -0.5100  1.5644
  614TMC3    C1 9146   1.402   4.668  16.296 -0.1796 -0.8254  0.1437
  614TMC3    C2 9147   1.460   4.547  16.265  0.4170 -0.4936  0.3358
  614TMC3    C3 9148   1.392   4.469  16.177 -0.0984 -0.7942  1.2863
  614TMC3    C4 9149   1.311   4.731  16.218  0.2291  0.2629 -0.2748
  614TMC3    C5 9150   1.257   4.656  16.121 -0.0316 -0.0629  0.0953
  614TMC3    C6 9151   1.290   4.520  16.104 -0.8465 -0.1158  0.1855
  614TMC3     C 9152   1.369   4.692  16.428  0.2328 -0.4987  0.0204
  614TMC3     O 9153   1.253   4.726  16.448 -0.4879 -0.4094  0.4741
  614TMC3     H 9154   1.541   4.503  16.322 -0.3798  0.2419  2.0212
  614TMC3    H1 9155   1.263   0.085  16.240  2.2291  1.5082 -1.2536
  614TMC3    H2 9156   1.223   4.454  16.050 -1.5531 -0.6424  1.7016
  614TMC3    C7 9157   1.114   4.685  16.092  0.3054 -0.5076  0.0618
  614TMC3    C8 9158   1.366   4.344  16.240 -0.1841 -0.8181 -0.6215
  614TMC3    O1 9159   1.042   4.715  16.188  0.3800 -0.2798 -0.2465
  614TMC3    O2 9160   1.368   4.353  16.363  0.1099  0.1215  0.3959
  615MPD2     C 9161   0.750   0.729  16.275 -0.0520  0.1990 -0.4340
  615MPD2    C1 9162   0.809   0.833  16.207 -0.2378  0.0196  0.2202
  615MPD2    C2 9163   0.736   0.904  16.114 -0.3189  0.2075 -0.9932
  615MPD2    C3 9164   0.609   0.863  16.088 -0.0081 -0.4487 -0.0221
  615MPD2    C4 9165   0.554   0.752  16.148  0.3282 -0.1078  0.3939
  615MPD2    C5 9166   0.624   0.685  16.250  0.0843  0.1409 -0.5547
  615MPD2     H 9167   0.775   0.995  16.070  0.1175  0.3849 -0.2558
  615MPD2    H1 9168   0.459   0.710  16.117 -0.4879  0.9252  1.5349
  615MPD2    H2 9169   0.800   0.667  16.348 -0.1219  0.6538  0.0048
  615MPD2    H3 9170   0.581   0.592  16.284  0.5841  0.0224 -0.2483
  615MPD2     N 9171   0.534   0.941  15.992  0.3588  0.1432 -0.0381
  615MPD2    H5 9172   0.443   0.902  15.971  1.2113 -0.9785 -1.5907
  615MPD2    N1 9173   0.940   0.876  16.232 -0.0587 -0.2552 -0.5672
  615MPD2    H7 9174   0.981   0.949  16.175 -0.7941  1.6211  1.2885
  616TMC3    C1 9175   1.159   0.873  16.324  0.2653  0.0920  0.2090
  616TMC3    C2 9176   1.163   1.010  16.303  0.4157  0.4121  0.6083
  616TMC3    C3 9177   1.266   1.073  16.361  0.5940  1.0395 -1.0180
  616TMC3    C4 9178   1.248   0.813  16.407  0.0501  0.4323  0.6059
  616TMC3    C5 9179   1.351   0.879  16.456 -0.0717  0.6721  0.6796
  616TMC3    C6 9180   1.361   1.013  16.441  0.6942 -0.0610 -0.1801
  616TMC3     C 9181   1.028   0.810  16.319 -0.3380  0.2099  1.0577
  616TMC3     O 9182   1.007   0.720  16.404 -0.5846 -0.3360  0.4139
  616TMC3     H 9183   1.099   1.063  16.234 -1.1983 -2.4153 -0.0745
  616TMC3    H1 9184   1.237   0.706  16.418  1.7608  0.1136 -0.7112
  616TMC3    H2 9185   1.425   1.069  16.509  0.1078 -1.9580  1.9534
  616TMC3    C7 9186   1.426   0.802  16.551 -0.2582 -0.0169 -0.0069
  616TMC3    C8 9187   1.284   1.214  16.323 -0.6697 -0.4190 -0.1334
  616TMC3    O1 9188   1.365   0.724  16.622 -0.5292 -0.0385  0.3462
  616TMC3    O2 9189   1.189   1.266  16.272 -0.4087 -0.2871  0.5504
  617MPD2     C 9190   3.741   3.817  13.351  0.0355  0.3151 -0.4000
  617MPD2    C1 9191   3.805   3.820  13.474 -0.0425  0.3732  0.4637
  617MPD2    C2 9192   3.725   3.797  13.590 -0.3112  0.7592  0.4881
  617MPD2    C3 9193   3.589   3.771  13.583 -0.1498  0.1071  0.5304
  617MPD2    C4 9194   3.529   3.770  13.453  0.0238  0.2321  0.4938
  617MPD2    C5 9195   3.610   3.798  13.346  0.1391  0.1877  0.2165
  617MPD2     H 9196   3.768   3.818  13.687  1.2766  2.4361 -0.5662
  617MPD2    H1 9197   3.424   3.744  13.443  0.4399 -1.8100  1.5062
  617MPD2    H2 9198   3.795   3.831  13.258  1.0160  0.2094  0.1550
  617MPD2    H3 9199   3.564   3.782  13.249 -0.1292 -0.2120  0.4102
  617MPD2     N 9200   3.508   3.738  13.699  0.6213  0.0038  0.2814
  617MPD2    H5 9201   3.409   3.730  13.678  0.5400 -0.9472  1.0635
  617MPD2    N1 9202   3.949   3.842  13.463 -0.5138 -0.5834  0.2296
  617MPD2    H7 9203   3.991   3.868  13.374 -3.4613 -0.9838 -1.2944
  618TMC3    C1 9204   4.167   3.862  13.520  0.1773  0.3772 -0.3204
  618TMC3    C2 9205   4.270   3.783  13.559  0.1793  0.5261  0.0918
  618TMC3    C3 9206   4.395   3.802  13.504  0.2479 -0.8159 -0.9169
  618TMC3    C4 9207   4.189   3.958  13.426  0.1242  0.4700  1.0175
  618TMC3    C5 9208   4.319   3.982  13.381  0.3755  0.4112 -0.1270
  618TMC3    C6 9209   4.424   3.905  13.422 -0.0122 -0.0310 -0.6763
  618TMC3     C 9210   4.034   3.821  13.564  0.1034 -0.7503 -0.1629
  618TMC3     O 9211   4.026   3.768  13.673 -0.6187  0.0157 -0.0225
  618TMC3     H 9212   4.249   3.697  13.623 -2.0376  0.1740 -1.0975
  618TMC3    H1 9213   4.102   4.017  13.399  1.4407  1.4310 -1.1138
  618TMC3    H2 9214   4.525   3.921  13.386  0.4195  0.0304  0.5583
  618TMC3    C7 9215   4.350   4.109  13.301  0.6363  0.0428 -0.2744
  618TMC3    C8 9216   4.459   3.677  13.474  0.0409 -0.1921 -0.1478
  618TMC3    O1 9217   4.287   4.209  13.327 -0.0609 -0.1287 -0.0032
  618TMC3    O2 9218   4.402   3.583  13.513 -0.3557 -0.3144 -0.0578
  619MPD2     C 9219   0.577   0.184  13.892 -0.5594 -0.8469  0.1372
  619MPD2    C1 9220   0.535   0.274  13.791 -0.3353 -0.2386  0.3788
  619MPD2    C2 9221   0.444   0.228  13.694  0.1097  0.1200  0.8804
  619MPD2    C3 9222   0.397   0.099  13.704  0.4396  0.0159  0.3071
  619MPD2    C4 9223   0.441   0.014  13.799  0.0939 -0.2451  0.0787
  619MPD2    C5 9224   0.529   0.061  13.888  0.0011 -0.0301 -0.1786
  619MPD2     H 9225   0.393   0.295  13.626 -0.6033  1.2788  2.5582
  619MPD2    H1 9226   0.406   4.653  13.813 -0.5279  0.1745  1.5623
  619MPD2    H2 9227   0.645   0.214  13.970 -1.0525  1.0583 -0.1636
  619MPD2    H3 9228   0.564   4.734  13.965  0.5382  2.5325  1.8401
  619MPD2     N 9229   0.292   0.044  13.624  0.5913 -0.0528  0.5041
  619MPD2    H5 9230   0.233   4.709  13.656  1.7874 -1.8160 -1.4566
  619MPD2    N1 9231   0.573   0.407  13.781 -0.4416 -0.2475 -0.2184
  619MPD2    H7 9232   0.526   0.454  13.705 -1.9853  1.2857  1.6837
  620TMC3    C1 9233   0.655   0.621  13.843  0.0572 -0.5823  0.0305
  620TMC3    C2 9234   0.561   0.677  13.760 -0.5077 -0.4243 -0.0348
  620TMC3    C3 9235   0.537   0.808  13.774  0.2412  0.7082  0.4184
  620TMC3    C4 9236   0.728   0.699  13.931 -0.0396 -0.4035  0.1979
  620TMC3    C5 9237   0.709   0.838  13.925  0.5945 -0.6658  0.4236
  620TMC3    C6 9238   0.614   0.897  13.847 -0.2044  0.7022  0.2082
  620TMC3     C 9239   0.652   0.477  13.869 -0.9902 -0.7578  0.0015
  620TMC3     O 9240   0.732   0.433  13.954  0.2707 -0.0498  0.4196
  620TMC3     H 9241   0.492   0.620  13.699 -0.9384 -1.1065  1.0853
  620TMC3    H1 9242   0.794   0.655  14.005 -1.5943  0.7769  2.2509
  620TMC3    H2 9243   0.609   1.004  13.826  0.6059  1.2018  2.5824
  620TMC3    C7 9244   0.803   0.927  13.980 -0.5115  0.0882 -0.1751
  620TMC3    C8 9245   0.440   0.863  13.674 -0.6325 -0.4553 -0.3032
  620TMC3    O1 9246   0.835   0.905  14.094  0.1417  0.3555  0.4093
  620TMC3    O2 9247   0.400   0.979  13.690  0.1448  0.7958  0.3320
  621MPD2     C 9248   0.539   0.492  10.014  0.6664 -1.1369  0.0979
  621MPD2    C1 9249   0.568   0.439   9.888  0.0908  0.5619  0.0593
  621MPD2    C2 9250   0.663   0.508   9.816  0.4192 -0.5123  0.0780
  621MPD2    C3 9251   0.726   0.624   9.864  0.4391  0.2754 -0.9831
  621MPD2    C4 9252   0.697   0.673   9.989  0.4578  0.4192 -0.2837
  621MPD2    C5 9253   0.603   0.610  10.064  0.4547 -0.3686  0.2635
  621MPD2     H 9254   0.692   0.469   9.719  2.9584  0.5712  0.4080
  621MPD2    H1 9255   0.725   0.771  10.027  1.3675 -0.5324  1.4990
  621MPD2    H2 9256   0.455   0.447  10.064 -0.4255  1.2643  0.4245
  621MPD2    H3 9257   0.567   0.659  10.154  0.0628 -0.6142  0.2420
  621MPD2     N 9258   0.825   0.682   9.777 -0.2322 -0.9957  0.3646
  621MPD2    H5 9259   0.842   0.625   9.695  0.8121 -0.3227  0.1132
  621MPD2    N1 9260   0.506   0.325   9.827  0.1388  0.6664  0.2772
  621MPD2    H7 9261   0.529   0.320   9.729  0.5022  1.4154  0.3237
  622TMC3    C1 9262   0.356   0.134   9.805 -0.6128 -0.3342  0.2100
  622TMC3    C2 9263   0.238   0.091   9.857 -0.3780  0.5298 -0.2084
  622TMC3    C3 9264   0.147   0.049   9.764 -0.2477 -0.3858 -0.1473
  622TMC3    C4 9265   0.394   0.124   9.670 -0.1129  0.5165  0.7306
  622TMC3    C5 9266   0.297   0.079   9.583 -0.1900 -0.1597  0.4319
  622TMC3    C6 9267   0.175   0.042   9.625 -0.1511 -0.5418  0.3499
  622TMC3     C 9268   0.413   0.239   9.887 -0.7922  0.2222  0.1837
  622TMC3     O 9269   0.355   0.259   9.993  0.3465 -0.2601 -0.0738
  622TMC3     H 9270   0.217   0.098   9.963 -1.5617  1.0234 -0.4641
  622TMC3    H1 9271   0.491   0.158   9.635 -0.4673  2.0009  1.1800
  622TMC3    H2 9272   0.103   0.002   9.554  0.2088 -0.9191  0.1964
  622TMC3    C7 9273   0.348   0.046   9.447  0.3961  0.5445 -0.1883
  622TMC3    C8 9274   0.035   4.722   9.818 -0.1154  0.2500  0.6391
  622TMC3    O1 9275   0.466   0.051   9.415  0.7143 -1.0332  0.1346
  622TMC3    O2 9276   4.725   4.624   9.774  0.1202  0.5635  0.1992
  623MPD2     C 9277   4.079   1.499  16.007  0.3413  0.1777  0.5236
  623MPD2    C1 9278   4.007   1.473  16.123  0.1064 -0.3021  0.5481
  623MPD2    C2 9279   4.074   1.450  16.244  0.6740 -0.0719 -0.1805
  623MPD2    C3 9280   4.214   1.463  16.246 -0.1223 -0.2424 -0.3314
  623MPD2    C4 9281   4.288   1.484  16.123  0.4507 -0.0090  0.1119
  623MPD2    C5 9282   4.219   1.498  16.008 -0.1226  0.5604 -0.1284
  623MPD2     H 9283   4.024   1.427  16.337 -0.0201  0.8430 -0.3236
  623MPD2    H1 9284   4.396   1.485  16.120  0.3986  0.8216 -1.4504
  623MPD2    H2 9285   4.029   1.533  15.917  0.0033  2.8958  1.7515
  623MPD2    H3 9286   4.275   1.507  15.915 -1.1781  0.5937 -0.7594
  623MPD2     N 9287   4.269   1.432  16.369 -0.3836 -0.6008 -0.4625
  623MPD2    H5 9288   4.203   1.418  16.445 -0.3994 -1.1747 -0.5883
  623MPD2    N1 9289   3.861   1.470  16.108  0.3542  0.5825 -0.0605
  623MPD2    H7 9290   3.820   1.508  16.023 -0.2830  0.8311  0.3595
  624TMC3    C1 9291   4.470   1.290  16.732  0.3354 -0.1244 -0.3435
  624TMC3    C2 9292   4.391   1.363  16.814 -0.1466  0.2699 -0.2671
  624TMC3    C3 9293   4.319   1.472  16.755 -0.4124 -0.3415  0.4599
  624TMC3    C4 9294   4.489   1.325  16.603 -0.3997 -0.1764 -0.1583
  624TMC3    C5 9295   4.423   1.428  16.552 -0.2769  0.2477 -0.5861
  624TMC3    C6 9296   4.322   1.499  16.616 -0.2685 -0.1777  0.2835
  624TMC3     C 9297   4.515   1.164  16.780  0.1728 -0.8146 -0.4056
  624TMC3     O 9298   4.535   1.157  16.901  0.4934 -0.3330  0.0315
  624TMC3     H 9299   4.371   1.325  16.914 -0.2941 -1.0113 -0.7897
  624TMC3    H1 9300   4.550   1.269  16.533 -1.2177 -0.2932 -0.7837
  624TMC3    H2 9301   4.267   1.583  16.575 -1.5487 -0.9216  0.5008
  624TMC3    C7 9302   4.407   1.439  16.402 -1.2601 -0.6101  1.0486
  624TMC3    C8 9303   4.187   1.489  16.814  0.1971 -0.2974 -1.0819
  624TMC3    O1 9304   4.499   1.437  16.324  0.0464 -0.2471 -0.1687
  624TMC3    O2 9305   4.136   1.389  16.864  0.1219  0.4991 -0.0175
  625MPD2     C 9306   4.708   2.518   0.661  0.2263 -0.2070 -0.3890
  625MPD2    C1 9307   4.734   2.657   0.681  0.3616 -0.5589  0.2823
  625MPD2    C2 9308   0.126   2.688   0.731  0.4372  0.1681  0.2492
  625MPD2    C3 9309   0.221   2.588   0.755  0.0888 -0.8768  0.3786
  625MPD2    C4 9310   0.182   2.462   0.734  0.0832 -0.0137 -0.3738
  625MPD2    C5 9311   0.058   2.425   0.688 -0.0217 -0.2480 -0.3416
  625MPD2     H 9312   0.152   2.792   0.746  0.8100  0.1834 -0.4892
  625MPD2    H1 9313   0.256   2.383   0.745  0.1924  0.3410  1.3647
  625MPD2    H2 9314   4.614   2.471   0.635  1.1323 -1.3427 -1.6776
  625MPD2    H3 9315   0.027   2.321   0.686  1.6881 -0.7777  0.3764
  625MPD2     N 9316   0.351   2.625   0.802  0.3147 -0.2175 -0.0308
  625MPD2    H5 9317   0.381   2.721   0.790  3.9200 -1.4096 -0.7277
  625MPD2    N1 9318   4.632   2.750   0.652 -0.3592  0.5689  0.2932
  625MPD2    H7 9319   4.658   2.845   0.678  0.1289  0.7773 -0.9757
  626TMC3    C1 9320   4.439   2.838   0.557 -0.8781  0.8260 -0.7296
  626TMC3    C2 9321   4.388   2.830   0.429 -0.3188 -0.1316  0.4520
  626TMC3    C3 9322   4.274   2.883   0.397 -0.1154 -0.2933  0.4438
  626TMC3    C4 9323   4.365   2.898   0.654  0.5850 -0.1886 -0.5044
  626TMC3    C5 9324   4.247   2.963   0.617 -0.1565 -0.6383  0.0060
  626TMC3    C6 9325   4.200   2.955   0.485 -0.4892  0.5591  0.3070
  626TMC3     C 9326   4.506   2.721   0.604  0.2593  0.0368 -0.0408
  626TMC3     O 9327   4.467   2.616   0.547  0.5298 -0.2399 -0.4081
  626TMC3     H 9328   4.442   2.781   0.349  2.6341  0.9479  1.7786
  626TMC3    H1 9329   4.392   2.903   0.759  1.1639 -0.4334 -0.6457
  626TMC3    H2 9330   4.103   2.988   0.450  0.9126  2.3615 -1.9151
  626TMC3    C7 9331   4.165   3.007   0.727 -0.8457  0.2387  0.1565
  626TMC3    C8 9332   4.259   2.911   0.257 -0.1104 -0.1284  0.1552
  626TMC3    O1 9333   4.224   3.035   0.830 -0.8657 -0.2537 -1.1013
  626TMC3    O2 9334   4.275   2.818   0.179  0.2677  0.0210  0.4765
  627MPD2     C 9335   2.924   2.723  14.497  0.2837 -0.1826 -0.5052
  627MPD2    C1 9336   3.040   2.644  14.490  0.2092  0.3870  0.3150
  627MPD2    C2 9337   3.031   2.536  14.400 -0.4406 -0.6058  0.5602
  627MPD2    C3 9338   2.907   2.500  14.343  0.5513  0.0408  0.5139
  627MPD2    C4 9339   2.793   2.567  14.374  0.2617 -0.2335 -0.0836
  627MPD2    C5 9340   2.801   2.686  14.447  0.4113 -0.6881  0.6130
  627MPD2     H 9341   3.120   2.477  14.383 -0.2883 -0.2479  0.1381
  627MPD2    H1 9342   2.693   2.540  14.341 -0.4750  1.0115  1.0946
  627MPD2    H2 9343   2.931   2.812  14.558 -1.5071 -1.1641  1.1498
  627MPD2    H3 9344   2.722   2.750  14.485 -0.2128 -0.5402 -0.9007
  627MPD2     N 9345   2.895   2.377  14.267 -0.1206 -0.2821 -0.6569
  627MPD2    H5 9346   2.806   2.359  14.221 -1.3194  1.9008  0.7699
  627MPD2    N1 9347   3.162   2.675  14.552 -1.1952 -0.2615 -0.3307
  627MPD2    H7 9348   3.235   2.606  14.544 -1.2801 -0.6723  2.3780
  628TMC3    C1 9349   3.324   2.802  14.683 -0.0587  0.1693  0.0401
  628TMC3    C2 9350   3.370   2.695  14.753  0.2767 -0.0037 -0.5499
  628TMC3    C3 9351   3.496   2.713  14.802 -0.4593  0.3466 -0.6930
  628TMC3    C4 9352   3.392   2.916  14.649  0.2755 -0.5613 -0.0120
  628TMC3    C5 9353   3.519   2.917  14.702  0.3060 -0.5313 -0.1370
  628TMC3    C6 9354   3.579   2.820  14.781  0.7197  0.0870  0.4621
  628TMC3     C 9355   3.192   2.794  14.620 -0.2865  0.5131  0.7793
  628TMC3     O 9356   3.136   2.902  14.600  0.1830  0.2945  0.1226
  628TMC3     H 9357   3.320   2.601  14.774  0.2382  0.1206 -0.0865
  628TMC3    H1 9358   3.346   2.995  14.590  0.8148 -0.4933 -0.3419
  628TMC3    H2 9359   3.687   2.819  14.793  0.6880  1.2185  0.8084
  628TMC3    C7 9360   3.615   3.025  14.670 -0.3537 -0.5308  0.2250
  628TMC3    C8 9361   3.559   2.597  14.871 -0.0986  0.2893 -0.1353
  628TMC3    O1 9362   3.724   3.032  14.723  0.6280  0.1222  0.0586
  628TMC3    O2 9363   3.490   2.501  14.875 -0.2524 -0.0783 -0.2614
  629MPD2     C 9364   1.540   1.653  16.347 -0.0085 -0.5556 -0.1450
  629MPD2    C1 9365   1.615   1.555  16.402  0.4439  0.1529  0.3570
  629MPD2    C2 9366   1.582   1.423  16.378  0.4252 -0.1069 -0.2063
  629MPD2    C3 9367   1.452   1.390  16.338 -0.4877  0.0787 -0.4046
  629MPD2    C4 9368   1.373   1.502  16.297 -0.1773 -0.3140  0.3123
  629MPD2    C5 9369   1.416   1.635  16.293  0.2276 -0.3659 -0.6516
  629MPD2     H 9370   1.646   1.341  16.406  1.6820  0.6295 -0.9268
  629MPD2    H1 9371   1.276   1.483  16.254  1.3038 -2.1911 -2.1934
  629MPD2    H2 9372   1.580   1.754  16.342 -3.7131  0.8018 -2.1198
  629MPD2    H3 9373   1.359   1.721  16.262  1.6259  0.9710  0.5071
  629MPD2     N 9374   1.416   1.256  16.337 -0.2862 -0.4243 -0.3591
  629MPD2    H5 9375   1.487   1.187  16.358 -0.6257 -0.2277  1.4139
  629MPD2    N1 9376   1.734   1.595  16.467  0.1539  0.0171 -0.4852
  629MPD2    H7 9377   1.748   1.695  16.475 -2.7351  0.3054  1.1797
  630TMC3    C1 9378   1.944   1.581  16.577 -0.4057  0.2789  0.1490
  630TMC3    C2 9379   1.969   1.721  16.548 -0.6562 -0.5743 -0.2158
  630TMC3    C3 9380   2.081   1.774  16.604  0.6400  0.1324  0.1730
  630TMC3    C4 9381   2.026   1.515  16.658  0.3290  0.1637  0.2070
  630TMC3    C5 9382   2.129   1.583  16.715  0.4369 -0.0341 -0.6562
  630TMC3    C6 9383   2.161   1.713  16.693 -0.5845  0.1111 -0.2467
  630TMC3     C 9384   1.828   1.510  16.521  0.4173  0.0717  0.4596
  630TMC3     O 9385   1.810   1.392  16.550  0.2168  0.2124  0.3254
  630TMC3     H 9386   1.914   1.763  16.465  2.0690  0.3970 -1.5499
  630TMC3    H1 9387   1.997   1.418  16.696 -1.3214  0.9851  0.9980
  630TMC3    H2 9388   2.249   1.764  16.729 -0.3240 -1.5778  1.5203
  630TMC3    C7 9389   2.211   1.512  16.813  0.0683 -0.9546  0.0504
  630TMC3    C8 9390   2.143   1.893  16.549 -0.2359  1.1904  0.4167
  630TMC3    O1 9391   2.175   1.400  16.839 -0.4739  0.1984 -0.3586
  630TMC3    O2 9392   2.205   1.960  16.630  0.0644  0.2739 -0.2031
  631MPD2     C 9393   4.555   0.936  15.363 -0.9671  0.4237 -1.0992
  631MPD2    C1 9394   4.579   1.072  15.375  0.0675  0.0379 -0.1253
  631MPD2    C2 9395   4.680   1.114  15.449 -0.2984  0.6357 -0.1695
  631MPD2    C3 9396   0.031   1.025  15.505  0.2548 -0.4063 -0.4778
  631MPD2    C4 9397   0.001   0.887  15.497  0.2723 -0.1310  0.4673
  631MPD2    C5 9398   4.624   0.844  15.434  0.4487 -0.0665 -1.0033
  631MPD2     H 9399   4.697   1.221  15.458  1.1081  0.3897  0.0416
  631MPD2    H1 9400   0.063   0.811  15.541 -1.0140 -0.4180  1.7899
  631MPD2    H2 9401   4.477   0.913  15.292 -0.9063  0.7552 -1.2733
  631MPD2    H3 9402   4.608   0.737  15.430  0.0464  0.0048 -1.1847
  631MPD2     N 9403   0.150   1.080  15.565  0.0741  0.5423  0.5110
  631MPD2    H5 9404   0.152   1.180  15.581  0.7604  0.6712 -0.3509
  631MPD2    N1 9405   4.496   1.159  15.302  0.3156 -0.9292  0.1812
  631MPD2    H7 9406   4.428   1.115  15.241  0.4890  0.0456 -0.7215
  632TMC3    C1 9407   4.393   1.358  15.233 -0.8050 -0.0419  0.1003
  632TMC3    C2 9408   4.318   1.446  15.313  0.5416  0.2803  0.0465
  632TMC3    C3 9409   4.294   1.565  15.250  0.0821  0.2960  0.3637
  632TMC3    C4 9410   4.441   1.396  15.110 -0.4011  0.4530  0.4145
  632TMC3    C5 9411   4.421   1.524  15.059  0.4472  0.3101 -0.1396
  632TMC3    C6 9412   4.339   1.608  15.130  0.2610  0.2024  0.2437
  632TMC3     C 9413   4.485   1.293  15.319 -0.2809 -0.4274  0.1418
  632TMC3     O 9414   4.515   1.362  15.413 -0.4555 -0.0164 -0.5108
  632TMC3     H 9415   4.278   1.423  15.411  1.2036 -0.6640  0.0990
  632TMC3    H1 9416   4.522   1.342  15.062  0.7878  2.3049  0.3685
  632TMC3    H2 9417   4.311   1.702  15.084 -1.3325 -0.2575  0.3012
  632TMC3    C7 9418   4.496   1.555  14.948  0.3935 -0.2831 -1.1438
  632TMC3    C8 9419   4.198   1.644  15.317  0.2982  0.5622  0.8943
  632TMC3    O1 9420   4.537   1.467  14.874  0.1030 -0.0347 -0.2738
  632TMC3    O2 9421   4.105   1.585  15.376 -0.0349  0.3721  0.5534
  633MPD2     C 9422   4.615   4.180  17.724  0.0774 -0.2335  0.0307
  633MPD2    C1 9423   4.590   4.067  17.650 -1.7011 -0.3212 -0.9381
  633MPD2    C2 9424   4.572   3.956  17.727  0.9350  0.1315  0.2966
  633MPD2    C3 9425   4.604   3.950   0.101 -0.1896  0.3859  0.1591
  633MPD2    C4 9426   4.625   4.063   0.171 -0.3163 -0.1517 -0.7450
  633MPD2    C5 9427   4.633   4.177   0.102 -0.6953  0.1300  0.8083
  633MPD2     H 9428   4.536   3.871  17.671 -0.5057  0.5695  0.5745
  633MPD2    H1 9429   4.641   4.060   0.278 -4.9173  0.3265 -0.0527
  633MPD2    H2 9430   4.623   4.277  17.675  0.0006 -0.0443  0.3890
  633MPD2    H3 9431   4.661   4.269   0.152  0.6116 -0.2717  0.8131
  633MPD2     N 9432   4.614   3.828   0.185  0.1808 -0.0468 -0.0536
  633MPD2    H5 9433   4.631   3.844   0.284 -0.4123  0.8132 -0.0884
  633MPD2    N1 9434   4.560   4.069  17.515  0.1464 -0.2756  0.8600
  633MPD2    H7 9435   4.558   3.983  17.462  1.9490 -0.3253  0.8831
  634TMC3    C1 9436   4.522   4.152  17.307 -0.4714 -0.0072  0.1543
  634TMC3    C2 9437   4.555   4.026  17.254  0.0786 -0.6273 -0.3134
  634TMC3    C3 9438   4.557   4.010  17.117 -0.0388  0.2911 -0.5639
  634TMC3    C4 9439   4.488   4.254  17.224  0.4078 -0.8464  0.4169
  634TMC3    C5 9440   4.469   4.227  17.092  0.0252  0.0055 -0.9621
  634TMC3    C6 9441   4.517   4.113  17.033  0.2901  0.1089 -0.0036
  634TMC3     C 9442   4.542   4.184  17.443 -0.2020  0.2735  0.0862
  634TMC3     O 9443   4.528   4.305  17.479 -0.3019 -0.2700  0.1091
  634TMC3     H 9444   4.603   3.947  17.310 -0.3887 -0.6247  0.0852
  634TMC3    H1 9445   4.493   4.353  17.269  3.7428 -2.3136  3.3243
  634TMC3    H2 9446   4.506   4.100  16.926 -2.0971  2.1562  0.0208
  634TMC3    C7 9447   4.455   4.339  17.002 -0.1841 -0.2256 -0.1125
  634TMC3    C8 9448   4.607   3.889  17.060  0.4453  0.1454 -0.7571
  634TMC3    O1 9449   4.479   4.316  16.882  0.4559  0.0589 -0.5829
  634TMC3    O2 9450   4.631   3.799  17.138  0.1500  0.4758 -0.1363
  635TMC3    C1 9451   4.022   0.695   0.314 -0.1091 -0.8356 -0.1377
  635TMC3    C2 9452   4.066   0.666   0.189 -0.4303 -0.3202  0.7024
  635TMC3    C3 9453   4.009   0.561   0.123 -0.3598  0.6926 -0.6583
  635TMC3    C4 9454   3.925   0.621   0.378  0.1967  0.2252  0.1484
  635TMC3    C5 9455   3.874   0.520   0.306 -0.6988 -0.3765  0.3521
  635TMC3    C6 9456   3.908   0.488   0.178 -0.8009 -1.0333  1.5413
  635TMC3     C 9457   4.084   0.817   0.376  0.5215  0.1215 -0.2556
  635TMC3     O 9458   4.191   0.857   0.323 -0.0355  0.6504 -0.5200
  635TMC3     H 9459   4.129   0.738   0.138 -1.7220  0.4778  0.2417
  635TMC3    H1 9460   3.896   0.628   0.482  0.7852  1.2910  0.2299
  635TMC3    H2 9461   3.857   0.401   0.140 -1.0929 -0.4268  0.5337
  635TMC3    C7 9462   3.763   0.447   0.358  0.7164  0.2176  0.4071
  635TMC3    C8 9463   4.068   0.526  17.755 -0.5851  0.0132 -0.5581
  635TMC3    O1 9464   3.732   0.340   0.306  0.0378  0.5403 -0.6632
  635TMC3    O2 9465   4.001   0.461  17.678 -0.9332  0.1561  0.6788
  636MPD2     C 9466   0.539   4.554  16.248  0.1139 -0.0752 -0.0393
  636MPD2    C1 9467   0.540   4.607  16.377 -0.7636  0.1465  0.1770
  636MPD2    C2 9468   0.601   4.537  16.482 -0.9073 -0.2259  0.2443
  636MPD2    C3 9469   0.645   4.409  16.462  0.3536  0.3948 -0.1435
  636MPD2    C4 9470   0.644   4.356  16.335 -0.4783 -0.1962  0.6676
  636MPD2    C5 9471   0.604   4.430  16.226 -0.2447 -0.8257  0.0171
  636MPD2     H 9472   0.598   4.569  16.586  0.0252 -0.0054  0.2036
  636MPD2    H1 9473   0.698   4.264  16.317  0.1615  0.3191 -0.0551
  636MPD2    H2 9474   0.496   4.607  16.164  1.1605 -2.8983 -2.3452
  636MPD2    H3 9475   0.617   4.388  16.127  1.0933 -0.4042  0.0178
  636MPD2     N 9476   0.699   4.343  16.577 -0.3844  0.0480  0.2147
  636MPD2    H5 9477   0.707   4.392  16.665 -0.2069  2.3739 -1.0874
  636MPD2    N1 9478   0.486   4.734  16.412  0.0018  0.3828 -0.2824
  636MPD2    H7 9479   0.490   0.014  16.512 -1.3114 -0.5836 -0.0284
  637TMC3    C1 9480   0.853   4.187  16.672 -0.2520  0.1372 -0.3774
  637TMC3    C2 9481   0.909   4.292  16.740 -0.4765  0.1498 -0.0555
  637TMC3    C3 9482   1.028   4.281  16.806  0.0747 -0.0550 -0.0223
  637TMC3    C4 9483   0.921   4.068  16.662  0.3734 -0.4149  0.5441
  637TMC3    C5 9484   1.045   4.058  16.724  1.0525  0.1675 -0.0507
  637TMC3    C6 9485   1.090   4.160  16.805 -0.5322 -1.0251 -0.4876
  637TMC3     C 9486   0.754   4.216  16.568 -0.4108 -0.2578  0.0153
  637TMC3     O 9487   0.741   4.127  16.486 -0.2727 -0.2010  0.2017
  637TMC3     H 9488   0.861   4.389  16.741 -0.1815  0.2799  1.8978
  637TMC3    H1 9489   0.871   3.981  16.623  0.2417  0.1864 -0.6206
  637TMC3    H2 9490   1.191   4.157  16.845  0.0089 -0.3547 -1.8055
  637TMC3    C7 9491   1.139   4.042  16.617  0.0998  0.0740  1.0950
  637TMC3    C8 9492   1.117   4.394  16.781  0.4189  0.2295 -0.3740
  637TMC3    O1 9493   1.245   4.104  16.631  0.5060  0.5808  0.3041
  637TMC3    O2 9494   1.066   4.473  16.703 -0.7747  0.3880  0.6303
  638MPD2     C 9495   0.721   3.511  14.763 -0.3870 -0.0133  0.4189
  638MPD2    C1 9496   0.677   3.419  14.665  0.3173 -0.2117 -0.6892
  638MPD2    C2 9497   0.656   3.292  14.706  0.4000 -0.2335  0.1876
  638MPD2    C3 9498   0.681   3.248  14.832  0.1917 -0.2815  0.1736
  638MPD2    C4 9499   0.727   3.338  14.929 -1.3262 -0.6072  0.5034
  638MPD2    C5 9500   0.748   3.470  14.890  0.3486  0.7494 -0.8554
  638MPD2     H 9501   0.602   3.221  14.645 -1.8154 -0.6607  2.6139
  638MPD2    H1 9502   0.749   3.311  15.032  2.0054  0.2437  0.0230
  638MPD2    H2 9503   0.745   3.615  14.741  0.4653 -0.2798  0.1007
  638MPD2    H3 9504   0.786   3.545  14.959 -2.0004 -1.0054  2.3558
  638MPD2     N 9505   0.651   3.118  14.867  0.5134  0.1060 -0.1486
  638MPD2    H5 9506   0.616   3.059  14.792 -0.3998  0.4516  0.0152
  638MPD2    N1 9507   0.667   3.474  14.536  0.0905  0.0591 -0.2600
  638MPD2    H7 9508   0.721   3.556  14.509 -1.3740  0.4504 -1.9404
  639TMC3    C1 9509   0.636   2.898  14.980 -0.3284 -0.4291  0.0373
  639TMC3    C2 9510   0.547   2.844  14.889  0.0594 -0.3484 -0.6298
  639TMC3    C3 9511   0.513   2.715  14.909 -0.2046  0.5237  0.0776
  639TMC3    C4 9512   0.696   2.825  15.075  0.9310 -0.1127 -0.3739
  639TMC3    C5 9513   0.664   2.696  15.094 -0.2436 -0.2415  0.5436
  639TMC3    C6 9514   0.561   2.639  15.016 -0.4492 -0.6356  0.3356
  639TMC3     C 9515   0.680   3.043  14.980  0.1651  0.6000 -0.1609
  639TMC3     O 9516   0.742   3.082  15.078  0.6660  0.3594  0.0278
  639TMC3     H 9517   0.520   2.895  14.797  0.5410  2.2842  0.6761
  639TMC3    H1 9518   0.763   2.868  15.149 -1.2176 -1.0942  2.1593
  639TMC3    H2 9519   0.553   2.531  15.012  1.9718 -0.8544  1.0764
  639TMC3    C7 9520   0.778   2.609  15.126 -0.4092  0.2192 -0.1782
  639TMC3    C8 9521   0.431   2.659  14.803 -0.0016  0.2312 -0.1870
  639TMC3    O1 9522   0.740   2.495  15.154 -0.1283 -0.5206  0.1848
  639TMC3    O2 9523   0.440   2.712  14.695  0.6214  0.2536 -0.3927
  640MPD2     C 9524   1.465   2.273   9.723 -0.0300  1.1372  0.5613
  640MPD2    C1 9525   1.434   2.167   9.810  0.1157 -0.2062  0.4076
  640MPD2    C2 9526   1.372   2.195   9.931 -0.0723  0.8495 -0.5081
  640MPD2    C3 9527   1.351   2.330   9.965 -0.4778  0.1656 -0.5019
  640MPD2    C4 9528   1.396   2.433   9.882 -0.4069  0.0390 -0.0657
  640MPD2    C5 9529   1.447   2.404   9.760  0.0870 -0.4123 -0.5664
  640MPD2     H 9530   1.333   2.119   9.997  0.1604  0.3474 -0.9466
  640MPD2    H1 9531   1.400   2.534   9.922 -0.7377 -0.0762  0.2577
  640MPD2    H2 9532   1.504   2.258   9.623 -0.6862  2.4439  0.1212
  640MPD2    H3 9533   1.472   2.486   9.693 -3.7037  1.2203  0.0755
  640MPD2     N 9534   1.280   2.354  10.078 -0.1967 -0.0391 -0.5249
  640MPD2    H5 9535   1.266   2.274  10.139  0.3830  0.0559 -0.2731
  640MPD2    N1 9536   1.456   2.036   9.761 -0.1904 -0.1992 -0.0038
  640MPD2    H7 9537   1.497   2.023   9.670 -2.4004 -4.2198 -0.4019
  641TMC3    C1 9538   1.443   1.804   9.756  0.2029  0.9016 -0.0160
  641TMC3    C2 9539   1.504   1.696   9.799 -0.5292 -0.0513  0.4670
  641TMC3    C3 9540   1.483   1.579   9.734 -0.0172 -0.3799 -0.0297
  641TMC3    C4 9541   1.362   1.812   9.645 -0.3920 -0.3631  0.3444
  641TMC3    C5 9542   1.355   1.697   9.574  0.6323  0.3212  0.6925
  641TMC3    C6 9543   1.410   1.578   9.617  0.8727 -0.6349 -0.3661
  641TMC3     C 9544   1.434   1.921   9.837  0.2144 -0.3731 -0.1895
  641TMC3     O 9545   1.408   1.901   9.958  0.1420  0.4966  0.2532
  641TMC3     H 9546   1.575   1.691   9.881  0.0731  1.1368  0.0104
  641TMC3    H1 9547   1.308   1.902   9.618  0.2440 -0.9394 -2.8038
  641TMC3    H2 9548   1.395   1.481   9.570  0.7021 -0.6076 -0.3672
  641TMC3    C7 9549   1.287   1.701   9.438 -0.3637 -0.0693  0.0217
  641TMC3    C8 9550   1.533   1.449   9.782  0.0721  0.0612 -0.1118
  641TMC3    O1 9551   1.236   1.808   9.406  0.0555  0.0277  0.7525
  641TMC3    O2 9552   1.535   1.354   9.708  0.3263 -0.4041 -0.2721
  642TMC3    C1 9553   2.709   2.823  12.373 -0.5849 -0.5066  0.1779
  642TMC3    C2 9554   2.845   2.840  12.342 -0.7893  0.0232  0.3126
  642TMC3    C3 9555   2.898   2.758  12.245 -0.4916  0.8402  0.8527
  642TMC3    C4 9556   2.623   2.754  12.300 -0.1870 -0.0774  0.2545
  642TMC3    C5 9557   2.685   2.678  12.195  0.1076  0.1479  0.1378
  642TMC3    C6 9558   2.820   2.682  12.162  0.6880  0.1057  0.5649
  642TMC3     C 9559   2.659   2.940  12.449 -0.0572 -0.1650  0.1565
  642TMC3     O 9560   2.726   3.044  12.435  0.0839  0.1938 -0.2697
  642TMC3     H 9561   2.906   2.910  12.398 -0.0270 -0.2261 -0.2030
  642TMC3    H1 9562   2.516   2.751  12.313  0.1143  2.4999  3.3962
  642TMC3    H2 9563   2.855   2.636  12.071  0.0448 -0.4920  0.6232
  642TMC3    C7 9564   2.636   2.541  12.171 -0.7506  0.2031 -0.1526
  642TMC3    C8 9565   3.030   2.787  12.196 -0.1762  0.1199 -0.3293
  642TMC3    O1 9566   2.675   2.479  12.070  0.9799 -0.3120 -0.7786
  642TMC3    O2 9567   3.052   2.773  12.077  0.1574  0.0012  0.3173
  643TMC3    C1 9568   1.491   1.778   0.289 -0.1252  0.0554 -0.3345
  643TMC3    C2 9569   1.370   1.738   0.246  0.6208  0.4451 -0.1005
  643TMC3    C3 9570   1.361   1.634   0.159 -0.0965  0.3882  0.2537
  643TMC3    C4 9571   1.608   1.728   0.238 -0.0049 -0.4259  0.4792
  643TMC3    C5 9572   1.604   1.623   0.147  0.5931  0.5139  0.5557
  643TMC3    C6 9573   1.479   1.566   0.125 -0.3796  0.2279 -0.5489
  643TMC3     C 9574   1.485   1.918   0.319  0.2398 -0.4351 -0.2090
  643TMC3     O 9575   1.390   1.978   0.268 -0.4163 -0.0901 -0.0994
  643TMC3     H 9576   1.278   1.777   0.287 -0.8830 -1.2913 -1.8065
  643TMC3    H1 9577   1.704   1.776   0.258  0.6110 -2.6265  2.7985
  643TMC3    H2 9578   1.467   1.475   0.068  0.6378 -0.5078  0.4238
  643TMC3    C7 9579   1.663   1.657   0.022 -0.6341 -0.2356  0.5508
  643TMC3    C8 9580   1.295   1.676   0.036 -1.0618 -0.5842  0.2677
  643TMC3    O1 9581   1.705   1.769   0.002  0.6741 -0.1820 -0.0187
  643TMC3    O2 9582   1.269   1.590  17.716  0.2484  0.2301  0.0989
  644MPD2     C 9583   1.035   2.535   9.111 -0.0085 -0.4385  0.1303
  644MPD2    C1 9584   1.045   2.455   9.229 -0.4324 -0.1476  0.3664
  644MPD2    C2 9585   0.967   2.484   9.343  0.1252  0.5365  0.3146
  644MPD2    C3 9586   0.877   2.589   9.346 -0.3085 -0.2312 -0.0997
  644MPD2    C4 9587   0.876   2.671   9.239  0.3314 -0.4857 -0.2595
  644MPD2    C5 9588   0.948   2.643   9.121 -0.1189 -0.1038 -0.4260
  644MPD2     H 9589   0.974   2.421   9.431 -4.7637  0.2103  0.4871
  644MPD2    H1 9590   0.811   2.758   9.234 -1.0896 -1.4901  1.2168
  644MPD2    H2 9591   1.090   2.526   9.017 -1.7999 -2.5897 -0.7088
  644MPD2    H3 9592   0.924   2.712   9.040  1.3533  1.0360  0.0950
  644MPD2     N 9593   0.804   2.614   9.467  0.6035  0.1952 -0.2340
  644MPD2    H5 9594   0.828   2.550   9.543  0.2963 -1.1111 -1.2414
  644MPD2    N1 9595   1.145   2.360   9.218  0.7738 -0.2529 -0.0196
  644MPD2    H7 9596   1.190   2.352   9.128  1.2104  0.1030  0.1655
  645TMC3    C1 9597   0.697   2.703   9.645  0.0396 -0.6037 -0.1210
  645TMC3    C2 9598   0.708   2.817   9.726 -0.4345  0.2515  0.1446
  645TMC3    C3 9599   0.637   2.815   9.843  0.0443 -0.1122 -0.9229
  645TMC3    C4 9600   0.607   2.607   9.684 -0.8077 -0.0322 -0.1121
  645TMC3    C5 9601   0.525   2.621   9.793 -0.6119  0.5288 -0.8514
  645TMC3    C6 9602   0.542   2.723   9.876  0.4501  0.1227 -0.4248
  645TMC3     C 9603   0.728   2.720   9.505 -0.1833 -0.2778 -0.7835
  645TMC3     O 9604   0.714   2.829   9.452  0.5548  0.1630  0.4185
  645TMC3     H 9605   0.779   2.892   9.693  1.4693 -1.0460  1.3203
  645TMC3    H1 9606   0.578   2.543   9.602 -1.3287 -0.0751  0.1023
  645TMC3    H2 9607   0.494   2.725   9.974  0.4655 -0.2347 -0.4102
  645TMC3    C7 9608   0.433   2.510   9.823  0.1879 -0.4093 -0.4547
  645TMC3    C8 9609   0.609   2.948   9.899 -0.1814  0.2948  0.0875
  645TMC3    O1 9610   0.409   2.439   9.728  0.3280 -0.5195  0.2557
  645TMC3    O2 9611   0.502   2.958   9.959 -0.3426 -0.4671  0.1837
  646MPD2     C 9612   1.009   1.923  14.338 -0.0636 -0.1931 -0.0785
  646MPD2    C1 9613   0.900   1.871  14.400 -0.0711  0.2989 -0.1131
  646MPD2    C2 9614   0.775   1.932  14.381  0.1160  0.0983  0.2075
  646MPD2    C3 9615   0.759   2.041  14.296  0.0724  0.3668  0.4443
  646MPD2    C4 9616   0.874   2.092  14.233 -0.3526  0.0413  0.3166
  646MPD2    C5 9617   0.994   2.027  14.252  0.7479  0.4096 -0.2053
  646MPD2     H 9618   0.690   1.893  14.436  1.3438  0.5208  2.4207
  646MPD2    H1 9619   0.875   2.178  14.168  1.2838 -0.7956 -0.7752
  646MPD2    H2 9620   1.112   1.888  14.344 -0.3873 -1.2402 -0.5035
  646MPD2    H3 9621   1.091   2.055  14.212 -0.2108  1.3870 -1.8394
  646MPD2     N 9622   0.627   2.079  14.262 -0.2153  0.1345 -0.0821
  646MPD2    H5 9623   0.549   2.044  14.316  0.7536  2.2104  2.6230
  646MPD2    N1 9624   0.923   1.767  14.497 -0.0501  0.1255 -0.6583
  646MPD2    H7 9625   1.020   1.749  14.518 -0.0005  1.1927  0.0111
  647TMC3    C1 9626   0.886   1.601  14.665 -0.0069  0.1271 -0.1458
  647TMC3    C2 9627   0.803   1.537  14.750  0.2815  0.4990  0.2713
  647TMC3    C3 9628   0.846   1.415  14.807  0.0315  0.1370  0.6002
  647TMC3    C4 9629   1.010   1.558  14.645  0.2988 -0.2915  0.1106
  647TMC3    C5 9630   1.055   1.457  14.726 -0.0073 -0.9560  0.1291
  647TMC3    C6 9631   0.978   1.373  14.801 -0.0376 -0.1747  0.4120
  647TMC3     C 9632   0.827   1.703  14.575  0.5549 -0.9524 -0.1405
  647TMC3     O 9633   0.711   1.716  14.579  0.6778 -0.7444 -0.3663
  647TMC3     H 9634   0.698   1.562  14.751 -0.7142 -3.6942 -1.0782
  647TMC3    H1 9635   1.082   1.619  14.590  0.5786  0.5389  1.3906
  647TMC3    H2 9636   1.023   1.297  14.864  0.3145  1.2173  1.8387
  647TMC3    C7 9637   1.196   1.449  14.734  0.8450  0.2281 -0.2084
  647TMC3    C8 9638   0.794   1.373  14.933  0.2119  0.1099  0.0701
  647TMC3    O1 9639   1.258   1.552  14.748  0.2508  0.1150  0.3358
  647TMC3    O2 9640   0.835   1.270  14.986  0.3901  0.5798 -0.2884
  648TMC3    C1 9641   0.311   4.069  16.124  0.6872  0.1640 -0.0152
  648TMC3    C2 9642   0.396   3.989  16.054 -0.1602 -0.1800 -0.6812
  648TMC3    C3 9643   0.400   4.015  15.919 -0.4615  0.3974 -0.1710
  648TMC3    C4 9644   0.228   4.161  16.070  0.5314 -0.1317  0.8896
  648TMC3    C5 9645   0.228   4.175  15.935 -0.5919 -0.6494  0.4651
  648TMC3    C6 9646   0.312   4.107  15.860  0.1224  0.4515  0.4595
  648TMC3     C 9647   0.304   4.067  16.271 -0.5905 -0.7967  0.2170
  648TMC3     O 9648   0.289   4.178  16.318 -0.1402  0.0217 -0.4189
  648TMC3     H 9649   0.451   3.908  16.101  0.0431  1.1043  1.3178
  648TMC3    H1 9650   0.151   4.204  16.133 -0.2928  0.3107 -0.4303
  648TMC3    H2 9651   0.311   4.120  15.752 -0.6495  1.2198  0.5575
  648TMC3    C7 9652   0.130   4.261  15.878 -0.7067  0.4817 -0.4615
  648TMC3    C8 9653   0.515   3.962  15.844  0.0311 -0.6339  0.5900
  648TMC3    O1 9654   0.116   4.250  15.755 -0.4141 -0.4932 -0.0165
  648TMC3    O2 9655   0.499   3.958  15.724 -0.1667  0.6659  0.1261
  649TMC3    C1 9656   4.025   0.554  12.930  0.0796 -0.2152  0.4741
  649TMC3    C2 9657   4.164   0.565  12.900 -0.5288 -0.2514 -0.3248
  649TMC3    C3 9658   4.248   0.484  12.963 -0.4067  0.1260 -0.0956
  649TMC3    C4 9659   3.979   0.455  13.011  0.2121  0.2120  0.1511
  649TMC3    C5 9660   4.073   0.371  13.056  0.1271 -0.1880  0.2254
  649TMC3    C6 9661   4.208   0.373  13.037 -0.4652  0.9988  0.2011
  649TMC3     C 9662   3.917   0.615  12.851 -0.4519 -0.6344  0.1971
  649TMC3     O 9663   3.805   0.628  12.894 -0.7574  0.6228  0.3461
  649TMC3     H 9664   4.189   0.660  12.855  0.2904  0.8517  2.4924
  649TMC3    H1 9665   3.872   0.436  13.012  0.4970 -1.4736 -1.8357
  649TMC3    H2 9666   4.278   0.308  13.089 -1.2421  0.6423  0.8098
  649TMC3    C7 9667   4.029   0.310  13.182  0.0795  0.1371  0.0809
  649TMC3    C8 9668   4.393   0.495  12.969  0.4043 -1.4661 -0.0302
  649TMC3    O1 9669   3.935   0.368  13.235  0.5109 -0.0708 -0.6017
  649TMC3    O2 9670   4.460   0.412  13.033 -0.2677 -0.0636 -0.0838
  650TMC3    C1 9671   1.893   1.746  12.687 -0.2621 -0.2324 -0.2633
  650TMC3    C2 9672   1.812   1.844  12.747  0.1188  0.2548  0.1504
  650TMC3    C3 9673   1.773   1.928  12.651 -0.4931 -0.1286 -0.4923
  650TMC3    C4 9674   1.913   1.731  12.554 -0.2890 -0.6160 -0.5220
  650TMC3    C5 9675   1.856   1.816  12.464  0.1309 -0.3173 -0.0300
  650TMC3    C6 9676   1.787   1.920  12.514  0.2970 -0.3651  0.4319
  650TMC3     C 9677   1.929   1.643  12.783  0.1854 -0.7649  1.4076
  650TMC3     O 9678   1.925   1.678  12.901  0.2309 -0.4700  0.4667
  650TMC3     H 9679   1.795   1.849  12.853  0.1405 -2.6601  0.2798
  650TMC3    H1 9680   1.980   1.652  12.524 -2.1795 -1.7664 -1.6718
  650TMC3    H2 9681   1.743   1.986  12.441  0.2276 -1.1976 -0.2773
  650TMC3    C7 9682   1.905   1.826  12.331  0.4553  0.0157  0.2162
  650TMC3    C8 9683   1.762   2.067  12.688 -0.5727 -0.3397 -0.1343
  650TMC3    O1 9684   1.925   1.729  12.261  0.4636 -0.1026 -0.2221
  650TMC3    O2 9685   1.796   2.157  12.613  0.0292 -0.1828 -0.2889
  651MPD2     C 9686   0.404   4.422  10.442 -0.4714 -0.2371  0.0388
  651MPD2    C1 9687   0.396   4.544  10.508  0.3358 -0.1399 -0.1865
  651MPD2    C2 9688   0.502   4.635  10.510 -0.2980  0.1896 -0.3401
  651MPD2    C3 9689   0.618   4.608  10.441  0.1819  0.4368 -0.4758
  651MPD2    C4 9690   0.627   4.490  10.367  0.2699  0.2578  0.0788
  651MPD2    C5 9691   0.519   4.398  10.366  0.2214 -0.4285  0.1179
  651MPD2     H 9692   0.504   4.730  10.563  0.6466  0.5182 -0.9485
  651MPD2    H1 9693   0.708   4.465  10.300  0.5121  1.7475 -0.1880
  651MPD2    H2 9694   0.321   4.353  10.445 -0.8538  0.4072  4.3024
  651MPD2    H3 9695   0.519   4.307  10.308 -0.2195 -1.5125  1.8161
  651MPD2     N 9696   0.726   4.698  10.451 -0.6424  0.0358  0.6768
  651MPD2    H5 9697   0.708   0.047  10.495 -1.9721 -0.1465  0.5091
  651MPD2    N1 9698   0.296   4.573  10.602  0.1416  0.2133  0.0774
  651MPD2    H7 9699   0.315   4.653  10.663  2.8061  0.4861 -1.1268
  652TMC3    C1 9700   1.148   0.107  10.549 -0.6937  0.3936  0.2240
  652TMC3    C2 9701   1.070   0.012  10.483 -1.0205 -0.6540  1.0146
  652TMC3    C3 9702   0.936   0.037  10.473  0.1715 -0.2448  0.0427
  652TMC3    C4 9703   1.088   0.226  10.593 -0.1052 -0.7710 -0.3832
  652TMC3    C5 9704   0.956   0.244  10.560  0.5449 -0.3908 -0.5625
  652TMC3    C6 9705   0.874   0.152  10.512 -0.3553 -0.2440 -0.4986
  652TMC3     C 9706   1.298   0.092  10.553  0.2308 -0.1224  0.4430
  652TMC3     O 9707   1.355   0.157  10.638  0.2968  0.4118  0.8225
  652TMC3     H 9708   1.105   4.658  10.445 -0.5171  0.1625 -0.5668
  652TMC3    H1 9709   1.147   0.301  10.642 -1.0435 -0.3130  0.0497
  652TMC3    H2 9710   0.784   0.195  10.468 -0.8417 -0.8938 -0.1387
  652TMC3    C7 9711   0.903   0.371  10.598 -0.1471 -0.0331  0.5858
  652TMC3    C8 9712   0.854   4.674  10.408  0.2307  0.1246  0.4124
  652TMC3    O1 9713   0.803   0.361  10.666  0.9296  0.0752  0.3648
  652TMC3    O2 9714   0.903   4.581  10.345  0.1008 -0.3633 -0.3708
  653MPD2     C 9715   4.257   4.014   0.074 -0.1658 -0.3401 -0.7566
  653MPD2    C1 9716   4.227   4.115  17.740  1.0348  0.1951  0.4671
  653MPD2    C2 9717   4.180   4.081  17.616  0.3024  0.1942  0.2094
  653MPD2    C3 9718   4.143   3.951  17.582 -0.8975  0.6431 -0.7914
  653MPD2    C4 9719   4.180   3.847  17.672 -0.2456  0.2560 -0.2794
  653MPD2    C5 9720   4.242   3.885   0.031 -0.7358  0.0759  0.6357
  653MPD2     H 9721   4.145   4.146  17.537 -3.6830 -2.9182 -0.5545
  653MPD2    H1 9722   4.164   3.741  17.655  2.1903 -0.1767  0.1427
  653MPD2    H2 9723   4.300   4.041   0.169 -1.9168 -2.2968  0.6117
  653MPD2    H3 9724   4.270   3.808   0.102 -2.6216 -1.0265  0.1906
  653MPD2     N 9725   4.080   3.924  17.458  0.3058  0.7607 -0.6526
  653MPD2    H5 9726   4.059   4.004  17.400  1.2202  0.3280 -1.5998
  653MPD2    N1 9727   4.258   4.245  17.760  0.4785 -0.3053  0.2926
  653MPD2    H7 9728   4.245   4.310  17.684  0.3018  0.1071  0.6744
  654TMC3    C1 9729   3.947   3.810  17.298 -0.5899 -0.5052  0.1626
  654TMC3    C2 9730   3.885   3.931  17.276 -0.6948  0.2565 -0.6231
  654TMC3    C3 9731   3.814   3.950  17.162  0.7756  0.2879  0.0034
  654TMC3    C4 9732   3.954   3.708  17.204  0.4827  0.0714 -0.5466
  654TMC3    C5 9733   3.875   3.726  17.093 -0.2303 -0.2281  0.4765
  654TMC3    C6 9734   3.811   3.847  17.069  0.1057 -0.2630 -0.2993
  654TMC3     C 9735   4.038   3.796  17.414  0.3191 -0.7571 -0.1159
  654TMC3     O 9736   4.074   3.684  17.439 -0.3142  0.3394  0.1673
  654TMC3     H 9737   3.890   4.014  17.345  0.3289 -0.4639  0.1547
  654TMC3    H1 9738   4.020   3.624  17.216 -2.0656 -1.9715 -0.7779
  654TMC3    H2 9739   3.753   3.861  16.979  0.1616  0.1676 -0.2672
  654TMC3    C7 9740   3.871   3.627  16.987  0.2915 -0.2217  0.2681
  654TMC3    C8 9741   3.748   4.079  17.129  0.6353  0.5258  1.0435
  654TMC3    O1 9742   3.805   3.651  16.885  0.9434 -0.1468  0.0331
  654TMC3    O2 9743   3.674   4.094  17.033  0.0376 -0.4870 -0.4263
  655MPD2     C 9744   0.530   4.248  15.541  0.2185 -0.6130 -0.2198
  655MPD2    C1 9745   0.458   4.368  15.526  0.7529 -0.0423  0.0622
  655MPD2    C2 9746   0.399   4.389  15.398  0.3687  0.5874  0.0829
  655MPD2    C3 9747   0.428   4.305  15.296 -0.4943  0.0674  0.3094
  655MPD2    C4 9748   0.517   4.200  15.313  0.1110  0.3255 -0.4421
  655MPD2    C5 9749   0.562   4.173  15.437  0.1784  0.1670  0.1526
  655MPD2     H 9750   0.333   4.475  15.392 -0.2417 -0.2100 -4.0758
  655MPD2    H1 9751   0.552   4.141  15.229  0.2049  0.8244 -0.7517
  655MPD2    H2 9752   0.560   4.219  15.641  0.7794 -1.0477 -0.5100
  655MPD2    H3 9753   0.627   4.089  15.458 -0.8636 -0.1543  2.1002
  655MPD2     N 9754   0.378   4.326  15.169 -0.2739 -0.0362 -0.2605
  655MPD2    H5 9755   0.414   4.253  15.108  2.2935  0.3997  0.7291
  655MPD2    N1 9756   0.418   4.463  15.618 -0.4193  0.0900 -0.1583
  655MPD2    H7 9757   0.360   4.537  15.580 -2.9577 -0.9135  1.7377
  656TMC3    C1 9758   0.368   4.564  15.824  0.9468 -0.3505  0.3745
  656TMC3    C2 9759   0.328   4.542  15.955 -0.1014 -0.0950  0.3292
  656TMC3    C3 9760   0.253   4.640  16.014 -0.0675  0.5013  0.3844
  656TMC3    C4 9761   0.322   4.668  15.748  0.1583 -0.2063  0.4501
  656TMC3    C5 9762   0.226   0.007  15.804 -0.0316  0.3023 -0.2669
  656TMC3    C6 9763   0.188   4.735  15.934 -0.3070 -0.5273 -0.0295
  656TMC3     C 9764   0.446   4.460  15.758 -0.7876  0.5556 -0.3948
  656TMC3     O 9765   0.518   4.384  15.821 -0.4246 -0.1693  0.1399
  656TMC3     H 9766   0.369   4.454  16.003  1.1328 -0.5194 -1.4884
  656TMC3    H1 9767   0.367   4.698  15.653  0.7022  0.1830  0.8300
  656TMC3    H2 9768   0.121   0.066  15.980  0.1940  0.0552 -0.2093
  656TMC3    C7 9769   0.135   0.062  15.707 -0.1866  0.3329 -0.7162
  656TMC3    C8 9770   0.201   4.598  16.138  0.5956 -1.0263 -0.3435
  656TMC3    O1 9771   0.163   0.038  15.590  0.0577 -0.3083 -0.3158
  656TMC3    O2 9772   0.244   4.489  16.175 -0.1834  0.0971  0.4532
  657TMC3    C1 9773   3.816   2.974  15.205 -0.3740  0.2929  0.0099
  657TMC3    C2 9774   3.900   3.004  15.308  0.2466  1.0246  0.2164
  657TMC3    C3 9775   3.835   3.081  15.405  0.3781 -0.3657 -0.8602
  657TMC3    C4 9776   3.684   3.000  15.196  0.2996  0.2803  0.4177
  657TMC3    C5 9777   3.626   3.083  15.281  0.0512  0.1979 -0.5195
  657TMC3    C6 9778   3.703   3.124  15.388  0.1346 -0.1678 -0.5838
  657TMC3     C 9779   3.877   2.933  15.082 -0.6309 -0.0887 -0.4122
  657TMC3     O 9780   3.813   2.858  15.006 -0.0685  0.3179  0.2475
  657TMC3     H 9781   4.001   2.968  15.316 -0.2177  0.0800  1.9000
  657TMC3    H1 9782   3.637   2.970  15.102  1.4186 -1.1382  0.3048
  657TMC3    H2 9783   3.667   3.197  15.459 -2.8911 -1.5579 -0.6808
  657TMC3    C7 9784   3.554   3.188  15.220 -0.2087 -0.1405  0.6777
  657TMC3    C8 9785   3.912   3.150  15.510  0.0075  0.1731  0.1435
  657TMC3    O1 9786   3.557   3.304  15.267  0.3456  0.4881 -0.4546
  657TMC3    O2 9787   3.855   3.209  15.599  0.4053  0.1980  0.2481
  658MPD2     C 9788   0.675   4.207  14.671  0.3581 -0.2862  0.2528
  658MPD2    C1 9789   0.552   4.223  14.615 -0.6764  0.2150  0.0984
  658MPD2    C2 9790   0.546   4.208  14.480  0.2352 -0.2696  0.2304
  658MPD2    C3 9791   0.657   4.178  14.398  0.1723 -0.5043 -0.4252
  658MPD2    C4 9792   0.779   4.167  14.451  0.0768 -0.2000 -0.6162
  658MPD2    C5 9793   0.786   4.175  14.590  0.1537 -0.0320 -0.0095
  658MPD2     H 9794   0.454   4.217  14.423  0.6818 -2.1864 -0.7982
  658MPD2    H1 9795   0.866   4.134  14.396 -1.5407 -1.5967 -2.3475
  658MPD2    H2 9796   0.690   4.210  14.778 -1.4097  1.1471  0.4639
  658MPD2    H3 9797   0.883   4.158  14.635  0.7388 -0.2942 -1.3622
  658MPD2     N 9798   0.639   4.147  14.259  0.6026 -0.2873  0.2438
  658MPD2    H5 9799   0.543   4.128  14.232  0.5587 -1.3443  1.1369
  658MPD2    N1 9800   0.449   4.253  14.703  0.3392 -0.1904  0.2555
  658MPD2    H7 9801   0.463   4.249  14.803 -0.3583  0.3694  0.3745
  659TMC3    C1 9802   0.239   4.332  14.783 -0.3818  0.3793  0.2502
  659TMC3    C2 9803   0.296   4.351  14.901  0.5073 -0.0062 -0.8862
  659TMC3    C3 9804   0.211   4.378  14.999  0.4807  0.2241  0.5782
  659TMC3    C4 9805   0.106   4.370  14.753 -0.3366  0.1598  0.2642
  659TMC3    C5 9806   0.028   4.419  14.860 -0.0424 -0.3545 -0.0888
  659TMC3    C6 9807   0.083   4.424  14.984 -0.4015 -0.2045 -0.6018
  659TMC3     C 9808   0.320   4.282  14.669 -0.1239  0.8020 -0.7076
  659TMC3     O 9809   0.264   4.273  14.560 -0.0308  0.5640 -0.2986
  659TMC3     H 9810   0.399   4.346  14.933  0.4021 -0.0666 -0.5598
  659TMC3    H1 9811   0.076   4.350  14.651  2.0682 -1.3050 -0.1612
  659TMC3    H2 9812   0.022   4.441  15.072 -0.8627  1.8326 -1.3144
  659TMC3    C7 9813   4.620   4.411  14.864 -0.0368 -0.6704  0.2453
  659TMC3    C8 9814   0.265   4.402  15.131  0.3011 -0.7187 -0.3927
  659TMC3    O1 9815   4.568   4.416  14.977 -0.2291  0.2431  0.2084
  659TMC3    O2 9816   0.195   4.480  15.201 -0.6505  0.0380 -0.5682
  660MPD2     C 9817   3.965   2.967  12.492  0.2160 -0.3624 -0.2566
  660MPD2    C1 9818   3.852   3.043  12.502  0.1773  0.0152 -0.2889
  660MPD2    C2 9819   3.788   3.048  12.618  0.3513 -0.2889  0.5046
  660MPD2    C3 9820   3.823   2.962  12.720  1.2594  0.3089 -0.5205
  660MPD2    C4 9821   3.936   2.889  12.710 -0.2025 -0.8012  0.0329
  660MPD2    C5 9822   4.002   2.886  12.590 -0.0340  0.3883 -0.2996
  660MPD2     H 9823   3.693   3.098  12.625 -0.2045 -1.0591 -1.5391
  660MPD2    H1 9824   3.976   2.819  12.782  0.2827 -1.1407 -0.5634
  660MPD2    H2 9825   4.022   2.958  12.400  2.6828 -2.2254  1.4767
  660MPD2    H3 9826   4.087   2.821  12.573  2.6305  3.9259 -0.4483
  660MPD2     N 9827   3.743   2.953  12.842 -0.7053 -0.6127  0.2470
  660MPD2    H5 9828   3.754   2.864  12.891  1.5088  0.3004  1.4003
  660MPD2    N1 9829   3.808   3.119  12.388 -0.1191 -0.6883 -0.2855
  660MPD2    H7 9830   3.856   3.096  12.302 -1.1363  0.4605 -1.1639
  661TMC3    C1 9831   3.668   3.261  12.257  0.0089 -0.1255  0.2932
  661TMC3    C2 9832   3.736   3.228  12.138  0.1114 -0.6397  0.4842
  661TMC3    C3 9833   3.664   3.220  12.022  0.6044 -0.3234 -1.1836
  661TMC3    C4 9834   3.537   3.288  12.255 -0.6075 -0.3265 -0.0108
  661TMC3    C5 9835   3.469   3.271  12.137  0.0464 -0.5648 -0.0405
  661TMC3    C6 9836   3.530   3.247  12.014  0.6592  0.0687  0.9317
  661TMC3     C 9837   3.714   3.225  12.387 -0.2363 -0.4261 -0.1743
  661TMC3     O 9838   3.650   3.280  12.475 -0.0982 -0.0956 -0.1508
  661TMC3     H 9839   3.843   3.210  12.144 -0.1453 -2.5947 -0.5950
  661TMC3    H1 9840   3.487   3.332  12.340  0.6155  0.7598  0.1424
  661TMC3    H2 9841   3.472   3.215  11.928  1.9322  1.2369 -0.3578
  661TMC3    C7 9842   3.324   3.269  12.146 -0.2629  0.6456  0.5250
  661TMC3    C8 9843   3.730   3.189  11.896 -0.7097  0.1360  0.7079
  661TMC3    O1 9844   3.273   3.294  12.256  0.2860 -0.1215  0.9020
  661TMC3    O2 9845   3.665   3.208  11.793  0.4264  0.0559 -0.0667
  662MPD2     C 9846   3.862   2.749  17.017 -0.0062 -0.4147 -0.0685
  662MPD2    C1 9847   3.883   2.803  17.147  0.0608 -0.1799  0.7196
  662MPD2    C2 9848   3.817   2.923  17.183  0.6727  0.1729  1.0461
  662MPD2    C3 9849   3.740   2.987  17.089 -0.1918 -0.1159  0.0008
  662MPD2    C4 9850   3.715   2.933  16.958  0.5551 -0.3132  0.2254
  662MPD2    C5 9851   3.790   2.821  16.922 -0.4220 -0.2849 -1.1870
  662MPD2     H 9852   3.824   2.954  17.287  0.2349 -1.9553  1.6990
  662MPD2    H1 9853   3.639   2.971  16.891 -1.3724  0.3339  2.7949
  662MPD2    H2 9854   3.908   2.657  16.983  2.3795  0.9320 -0.4643
  662MPD2    H3 9855   3.773   2.789  16.820 -0.6040  1.0849 -1.5889
  662MPD2     N 9856   3.662   3.099  17.114 -0.1424  0.3922  0.2323
  662MPD2    H5 9857   3.582   3.121  17.057 -0.1108  2.4305  0.9589
  662MPD2    N1 9858   3.942   2.720  17.241  0.3203 -0.4922 -0.1806
  662MPD2    H7 9859   3.927   2.756  17.334 -3.7171 -0.0280 -1.0262
  663TMC3    C1 9860   4.040   2.532  17.338  0.2140  0.6195 -0.1264
  663TMC3    C2 9861   3.963   2.543  17.451 -0.4476 -0.8630  0.1854
  663TMC3    C3 9862   3.970   2.451  17.554  0.2476  0.6880 -0.4575
  663TMC3    C4 9863   4.133   2.431  17.338 -0.3336  0.3535  0.0418
  663TMC3    C5 9864   4.154   2.358  17.448 -0.3648  0.5071 -0.4913
  663TMC3    C6 9865   4.075   2.366  17.558 -0.4239 -0.1694  0.1756
  663TMC3     C 9866   4.013   2.603  17.221 -0.0263  0.5169  0.4855
  663TMC3     O 9867   4.071   2.557  17.122 -0.5240 -0.5016  0.5000
  663TMC3     H 9868   3.871   2.598  17.435  0.2440  0.1919 -0.1743
  663TMC3    H1 9869   4.213   2.443  17.265  0.9014 -1.7772  1.0529
  663TMC3    H2 9870   4.064   2.280  17.622  1.3235 -1.0985 -0.7758
  663TMC3    C7 9871   4.193   2.224  17.415  0.3364  0.4083 -0.5768
  663TMC3    C8 9872   3.847   2.372  17.581  0.8215  0.0373 -0.0458
  663TMC3    O1 9873   4.306   2.204  17.374  0.0307 -0.3421  0.0957
  663TMC3    O2 9874   3.861   2.251  17.574 -0.3455 -0.2818 -0.2330
  664MPD2     C 9875   1.620   1.128  17.517  0.2808 -0.5347 -1.0197
  664MPD2    C1 9876   1.684   1.142  17.635 -0.4520  0.5437 -0.4330
  664MPD2    C2 9877   1.620   1.139  17.756 -0.4463  0.4138  0.0940
  664MPD2    C3 9878   1.483   1.109  17.759 -0.8701  0.0283 -0.1097
  664MPD2    C4 9879   1.423   1.101  17.635  0.0102 -0.5609 -0.3299
  664MPD2    C5 9880   1.485   1.118  17.519 -0.3299 -0.3666  0.4004
  664MPD2     H 9881   1.675   1.165   0.085  0.9194 -0.0715 -0.6117
  664MPD2    H1 9882   1.315   1.087  17.631 -0.0008 -0.8171  0.7378
  664MPD2    H2 9883   1.659   1.140  17.416  2.0967 -2.8078 -0.6063
  664MPD2    H3 9884   1.432   1.108  17.425 -2.8596  0.2885  1.7654
  664MPD2     N 9885   1.416   1.098   0.119  0.0556  0.3816 -0.1249
  664MPD2    H5 9886   1.466   1.133   0.201 -0.7913 -0.3207  0.6856
  664MPD2    N1 9887   1.820   1.181  17.635 -0.2022  0.8714 -0.3998
  664MPD2    H7 9888   1.856   1.213  17.725 -0.3053 -1.3716  0.4323
  665TMC3    C1 9889   1.246   1.030   0.274 -0.6652 -0.0820  0.2544
  665TMC3    C2 9890   1.162   0.925   0.305 -0.1404 -0.7394 -0.0385
  665TMC3    C3 9891   1.130   0.917   0.439 -0.2061 -0.1819 -0.4053
  665TMC3    C4 9892   1.277   1.139   0.350 -0.0371  0.2786 -0.6791
  665TMC3    C5 9893   1.231   1.127   0.478 -0.3961 -0.0642 -0.0803
  665TMC3    C6 9894   1.165   1.019   0.522  0.2278 -0.5572 -0.2304
  665TMC3     C 9895   1.304   1.025   0.139 -0.4789 -0.1058 -0.9387
  665TMC3     O 9896   1.249   0.951   0.057  0.1485 -0.1915 -1.1049
  665TMC3     H 9897   1.146   0.844   0.234  2.3061 -1.1862 -0.0714
  665TMC3    H1 9898   1.330   1.219   0.301  0.1673 -0.4269 -1.5979
  665TMC3    H2 9899   1.140   1.019   0.628  1.2599 -1.2417  0.0160
  665TMC3    C7 9900   1.274   1.238   0.565  0.5250  0.7341  0.2786
  665TMC3    C8 9901   1.101   0.787   0.497 -0.0862 -0.0132 -0.6964
  665TMC3    O1 9902   1.307   1.342   0.508 -0.0958 -0.0802 -0.0513
  665TMC3    O2 9903   1.131   0.771   0.614 -0.8065 -0.1129 -0.2595
  666TMC3    C1 9904   0.931   0.851   9.661 -0.0526 -0.4568  0.1001
  666TMC3    C2 9905   1.014   0.766   9.589 -0.2821  0.1919  0.4091
  666TMC3    C3 9906   1.113   0.826   9.515 -0.1455  0.4327 -0.4455
  666TMC3    C4 9907   0.946   0.983   9.654 -0.3293  0.0788 -0.6843
  666TMC3    C5 9908   1.031   1.036   9.561 -0.6432 -0.1372 -0.3751
  666TMC3    C6 9909   1.118   0.959   9.493  0.0359 -0.1518 -0.1874
  666TMC3     C 9910   0.881   0.805   9.791 -0.0813 -0.3289  0.1091
  666TMC3     O 9911   0.867   0.884   9.884 -0.4440  0.3361 -0.3932
  666TMC3     H 9912   1.021   0.659   9.606  0.1992 -0.0071 -1.0709
  666TMC3    H1 9913   0.887   1.052   9.713  0.7413  0.9252 -0.6009
  666TMC3    H2 9914   1.186   1.006   9.423 -1.2194  0.1367 -1.2025
  666TMC3    C7 9915   1.054   1.181   9.553  0.1020  0.5285 -0.0785
  666TMC3    C8 9916   1.224   0.757   9.463  0.3527  0.1054  0.3793
  666TMC3    O1 9917   1.103   1.213   9.452 -0.2782 -0.0470 -0.2245
  666TMC3    O2 9918   1.242   0.775   9.343 -0.5698  0.9545 -0.3893
  667MPD2     C 9919   2.631   1.095  14.488 -0.1083 -0.0647 -0.0154
  667MPD2    C1 9920   2.535   1.133  14.585  0.0091 -0.0660  0.6643
  667MPD2    C2 9921   2.429   1.047  14.613  0.0509 -0.1811  0.1318
  667MPD2    C3 9922   2.409   0.932  14.529 -0.9582 -0.4612  0.2718
  667MPD2    C4 9923   2.504   0.896  14.436 -0.6371  0.2874  0.4856
  667MPD2    C5 9924   2.613   0.981  14.414 -0.1453  0.3789 -0.0338
  667MPD2     H 9925   2.356   1.083  14.684  0.3741  1.7058 -0.5051
  667MPD2    H1 9926   2.484   0.815  14.366 -0.3771 -1.3337  2.2803
  667MPD2    H2 9927   2.717   1.157  14.466 -0.6602  0.8081  0.2916
  667MPD2    H3 9928   2.677   0.957  14.330 -0.7521 -0.3976 -0.2775
  667MPD2     N 9929   2.288   0.862  14.532 -0.0917 -0.5535  0.0677
  667MPD2    H5 9930   2.286   0.769  14.492  1.4350  0.0284 -1.3773
  667MPD2    N1 9931   2.539   1.243  14.668  0.6369  0.1800  0.1522
  667MPD2    H7 9932   2.472   1.247  14.744 -0.2577  1.0094 -0.6850
  668TMC3    C1 9933   2.643   1.419  14.786 -0.6040  0.2584 -0.1494
  668TMC3    C2 9934   2.720   1.532  14.776  0.3536 -0.5478 -1.0808
  668TMC3    C3 9935   2.763   1.594  14.893  0.1246  0.0528  0.2460
  668TMC3    C4 9936   2.622   1.351  14.911 -0.2085 -0.1621 -0.6974
  668TMC3    C5 9937   2.674   1.409  15.022 -0.5703  0.9494  0.1348
  668TMC3    C6 9938   2.742   1.532  15.014  0.2441  0.0767  1.0080
  668TMC3     C 9939   2.640   1.342  14.666  0.0366 -0.1637  0.3331
  668TMC3     O 9940   2.718   1.375  14.578 -0.0797 -0.1997 -0.2017
  668TMC3     H 9941   2.736   1.582  14.681 -1.3292  0.1143 -1.0133
  668TMC3    H1 9942   2.585   1.250  14.919 -0.2621 -0.1571 -0.8873
  668TMC3    H2 9943   2.789   1.585  15.096  2.9039  0.2617 -0.6419
  668TMC3    C7 9944   2.653   1.355  15.152 -0.4298  1.1519  0.2063
  668TMC3    C8 9945   2.858   1.707  14.883 -0.1228 -0.1339 -0.0117
  668TMC3    O1 9946   2.740   1.378  15.233  0.3740 -0.0734 -0.3174
  668TMC3    O2 9947   2.901   1.760  14.986  0.1811  0.1028  0.2222
  669TMC3    C1 9948   0.682   1.008  14.682  0.3577  0.2383  0.1789
  669TMC3    C2 9949   0.613   0.969  14.565  0.3110 -0.0396  0.2460
  669TMC3    C3 9950   0.670   0.996  14.447 -0.0869 -0.4551 -0.1813
  669TMC3    C4 9951   0.815   1.035  14.670  0.6345 -0.0066 -0.5440
  669TMC3    C5 9952   0.871   1.041  14.546  0.0138  0.2007 -0.0329
  669TMC3    C6 9953   0.800   1.028  14.433  0.8656 -0.3852  0.6898
  669TMC3     C 9954   0.618   0.967  14.803  0.5800  0.7409  0.1911
  669TMC3     O 9955   0.553   0.863  14.799 -0.0990  0.3280  0.1534
  669TMC3     H 9956   0.508   0.944  14.563  0.4860 -0.5862 -1.8903
  669TMC3    H1 9957   0.870   1.055  14.762  0.2027  0.1074 -0.3086
  669TMC3    H2 9958   0.846   1.044  14.337 -0.3169  1.5067  0.4303
  669TMC3    C7 9959   1.012   1.055  14.538  0.2592  0.1377  0.0705
  669TMC3    C8 9960   0.582   1.043  14.344  0.2139  0.0123  0.1472
  669TMC3    O1 9961   1.063   1.118  14.625 -0.2729  0.2668  0.1393
  669TMC3    O2 9962   0.475   0.982  14.330 -0.6284  0.1921 -0.3854
  670MPD2     C 9963   3.682   3.434  13.489 -0.7172 -0.2864 -0.4429
  670MPD2    C1 9964   3.785   3.350  13.517 -0.1313  0.0531 -0.3624
  670MPD2    C2 9965   3.778   3.267  13.627 -0.3036  0.0344 -0.1090
  670MPD2    C3 9966   3.678   3.274  13.723  0.3552  0.2678 -0.4554
  670MPD2    C4 9967   3.579   3.368  13.695 -0.7485 -0.2389  0.2738
  670MPD2    C5 9968   3.579   3.443  13.579 -0.5433 -0.4637 -0.5522
  670MPD2     H 9969   3.851   3.187  13.630  0.9172  1.1750  0.2338
  670MPD2    H1 9970   3.490   3.375  13.756 -0.2514 -0.1133  0.9874
  670MPD2    H2 9971   3.665   3.484  13.394 -1.3126 -1.6549 -1.0641
  670MPD2    H3 9972   3.492   3.505  13.558 -0.5582 -0.5093 -0.6237
  670MPD2     N 9973   3.675   3.186  13.837 -0.0998  0.2089  0.2724
  670MPD2    H5 9974   3.758   3.128  13.839  0.8043  1.4706 -0.7060
  670MPD2    N1 9975   3.894   3.329  13.428  0.4129  0.0942 -0.7941
  670MPD2    H7 9976   3.972   3.275  13.462  0.1545 -1.0050 -1.9369
  671TMC3    C1 9977   3.619   3.101  14.046 -0.5278 -0.2568  0.1007
  671TMC3    C2 9978   3.686   2.985  14.013  0.4986  0.0631  0.0990
  671TMC3    C3 9979   3.673   2.871  14.094  0.0066 -0.1448  0.1020
  671TMC3    C4 9980   3.524   3.095  14.141 -0.5122 -0.1387 -0.1381
  671TMC3    C5 9981   3.498   2.981  14.209 -0.6512  0.1388 -0.0134
  671TMC3    C6 9982   3.582   2.870  14.197 -0.4830 -0.0760  0.2507
  671TMC3     C 9983   3.607   3.209  13.951  0.3567  0.1561  0.2635
  671TMC3     O 9984   3.514   3.290  13.966  0.0400  0.0224  0.0466
  671TMC3     H 9985   3.760   2.990  13.934  1.1739  3.0825  0.9249
  671TMC3    H1 9986   3.467   3.185  14.163  0.3142  0.6294 -1.1505
  671TMC3    H2 9987   3.545   2.781  14.246 -0.3666 -0.4297 -0.3071
  671TMC3    C7 9988   3.366   2.972  14.275  0.6043 -0.0034 -0.0194
  671TMC3    C8 9989   3.730   2.756  14.038  0.2389  0.3835  0.8962
  671TMC3    O1 9990   3.362   3.044  14.377 -0.2723 -0.0378  0.2663
  671TMC3    O2 9991   3.779   2.762  13.924  0.6371  0.0451  0.1582
  672MPD2     C 9992   3.852   3.861   1.034 -0.3744  0.2308 -0.1437
  672MPD2    C1 9993   3.966   3.809   0.976  0.5697  0.4237  0.7553
  672MPD2    C2 9994   4.090   3.860   1.027  0.8452 -0.5215 -0.5726
  672MPD2    C3 9995   4.103   3.951   1.135  0.3296 -0.3294 -0.3370
  672MPD2    C4 9996   3.986   3.994   1.181  0.3376  0.4702  0.5966
  672MPD2    C5 9997   3.868   3.948   1.136  0.3902 -0.3278 -0.5951
  672MPD2     H 9998   4.184   3.830   0.981  0.3614 -1.7956 -0.7235
  672MPD2    H1 9999   3.976   4.071   1.256 -1.8334  0.2004  0.5881
  672MPD2    H210000   3.752   3.840   0.996 -0.7696  0.3893  0.8138
  672MPD2    H310001   3.776   3.991   1.173  0.2682 -1.6306  0.6152
  672MPD2     N10002   4.221   4.012   1.189 -0.6031  0.3215  0.2297
  672MPD2    H510003   4.199   4.063   1.274  1.1620  0.3392  0.6726
  672MPD2    N110004   3.969   3.721   0.865 -0.8891 -0.5452  0.6617
  672MPD2    H710005   4.053   3.675   0.833 -1.5758 -3.8734  3.6877
  673TMC3    C110006   3.873   3.595   0.673 -0.1044  0.2841 -0.1714
  673TMC3    C210007   3.984   3.527   0.640 -0.2619  0.4607 -0.6774
  673TMC3    C310008   3.984   3.431   0.541  0.2280 -0.2217  0.2638
  673TMC3    C410009   3.755   3.579   0.608 -0.3275 -0.6098 -0.8072
  673TMC3    C510010   3.757   3.485   0.504 -0.1132 -0.0056 -0.7143
  673TMC3    C610011   3.867   3.406   0.475  0.1657  0.2072  0.6810
  673TMC3     C10012   3.853   3.692   0.786 -0.1033  0.0161  0.2418
  673TMC3     O10013   3.753   3.755   0.782  0.1412  0.0920  0.0409
  673TMC3     H10014   4.076   3.528   0.698 -0.5060 -1.8193 -0.2270
  673TMC3    H110015   3.662   3.611   0.652 -0.5411 -1.8550 -0.3448
  673TMC3    H210016   3.866   3.337   0.392 -1.1083 -0.4292  1.2182
  673TMC3    C710017   3.699   3.546   0.387 -0.5877  0.0820  0.4271
  673TMC3    C810018   4.106   3.357   0.500 -0.2581  0.4888 -0.1646
  673TMC3    O110019   3.675   3.485   0.282 -0.5870 -0.2005 -0.3091
  673TMC3    O210020   4.088   3.262   0.427  0.5646  0.6975  0.1516
  674MPD2     C10021   3.852   4.222  17.731 -0.7320 -0.1934  0.9095
  674MPD2    C110022   3.785   4.107  17.692  0.4603  0.5769  0.2743
  674MPD2    C210023   3.660   4.117  17.644 -0.1646 -0.3559 -0.4918
  674MPD2    C310024   3.584   4.234  17.640  0.0151  0.5031  0.1487
  674MPD2    C410025   3.652   4.350  17.667 -0.1254 -0.3141  0.4226
  674MPD2    C510026   3.787   4.340  17.702  0.5020  0.2372 -0.5999
  674MPD2     H10027   3.607   4.025  17.619 -1.3284  0.5501 -1.3697
  674MPD2    H110028   3.620   4.452  17.650  1.9284  0.5398  1.6500
  674MPD2    H210029   3.956   4.225   0.001 -0.1650  1.5381 -1.1049
  674MPD2    H310030   3.833   4.434  17.730  0.1678 -0.0856  1.0589
  674MPD2     N10031   3.451   4.229  17.592 -0.3913  0.1888 -0.1668
  674MPD2    H510032   3.406   4.138  17.582  1.0789 -0.4759 -0.7900
  674MPD2    N110033   3.842   3.987  17.732 -0.2401  0.1724 -0.2429
  674MPD2    H710034   3.923   3.996   0.032 -1.1816  3.1221  0.5753
  675TMC3    C110035   3.874   3.749  17.725 -0.5404  0.4698 -0.2574
  675TMC3    C210036   3.840   3.634  17.652 -0.3219  0.6035  0.3392
  675TMC3    C310037   3.852   3.518  17.713 -0.5454  0.8070 -1.6716
  675TMC3    C410038   3.929   3.744   0.096  0.4052  0.4086 -0.5156
  675TMC3    C510039   3.967   3.619   0.146  0.3495  0.1853 -0.1850
  675TMC3    C610040   3.909   3.503   0.080  0.0987 -0.5638  1.0532
  675TMC3     C10041   3.804   3.865  17.678  0.3865 -0.3547  0.0632
  675TMC3     O10042   3.725   3.845  17.589 -0.1210 -0.0115  0.7473
  675TMC3     H10043   3.794   3.635  17.554 -0.6971  0.1653  0.5092
  675TMC3    H110044   3.970   3.827   0.152  0.4074 -0.3967  0.6671
  675TMC3    H210045   3.937   3.404   0.112 -0.4148 -0.6218  1.3372
  675TMC3    C710046   4.102   3.603   0.212 -0.1400  0.2111  0.5026
  675TMC3    C810047   3.760   3.416  17.668 -0.1158  0.3648 -0.9492
  675TMC3    O110048   4.154   3.503   0.172 -0.1348 -0.0899 -0.3972
  675TMC3    O210049   3.755   3.391  17.553 -0.0059 -0.2529 -0.3833
  676MPD2     C10050   2.320   2.126  10.879  0.1239 -0.2150 -0.9096
  676MPD2    C110051   2.252   2.039  10.953  0.2897 -0.3119 -0.3250
  676MPD2    C210052   2.243   1.905  10.910 -0.1644 -0.7237  0.3121
  676MPD2    C310053   2.285   1.863  10.787 -0.0745  0.4176  1.1036
  676MPD2    C410054   2.341   1.955  10.703 -0.2750  0.2200 -0.3104
  676MPD2    C510055   2.351   2.083  10.748  0.4549  0.4610  0.3720
  676MPD2     H10056   2.193   1.838  10.979 -0.0759  0.2819  1.3543
  676MPD2    H110057   2.364   1.920  10.603  3.3353  1.2146  0.1466
  676MPD2    H210058   2.325   2.232  10.899 -0.4699 -0.5046  0.7644
  676MPD2    H310059   2.379   2.161  10.678  2.1199  0.8731  1.4980
  676MPD2     N10060   2.283   1.731  10.737 -0.2361 -0.1085  1.0447
  676MPD2    H510061   2.279   1.716  10.636 -2.9532  0.2580  1.1041
  676MPD2    N110062   2.194   2.071  11.075  0.0452 -0.6264 -0.1225
  676MPD2    H710063   2.156   1.990  11.123 -1.8718 -0.2002 -0.9555
  677TMC3    C110064   2.128   2.195  11.271 -0.1814 -0.1293 -0.1877
  677TMC3    C210065   2.058   2.085  11.305  0.2368  0.2429 -0.0138
  677TMC3    C310066   2.031   2.076  11.443  0.1295  0.0637 -0.1664
  677TMC3    C410067   2.170   2.290  11.354 -0.1494 -0.4502 -0.0507
  677TMC3    C510068   2.147   2.271  11.486  0.3861 -0.2900 -0.5418
  677TMC3    C610069   2.080   2.168  11.533 -0.3523  0.2502  0.2273
  677TMC3     C10070   2.195   2.192  11.139  0.0352  0.2009 -0.0243
  677TMC3     O10071   2.239   2.296  11.099  0.1393 -0.3693  0.2857
  677TMC3     H10072   2.019   2.007  11.241  0.4075 -1.3817  1.8856
  677TMC3    H110073   2.238   2.364  11.315 -0.3228 -0.9274 -1.2566
  677TMC3    H210074   2.059   2.153  11.638 -0.9104  0.4988  0.1477
  677TMC3    C710075   2.204   2.360  11.584  0.1467 -0.2580  0.1289
  677TMC3    C810076   1.979   1.949  11.489  0.2437  0.2002  0.1377
  677TMC3    O110077   2.214   2.326  11.699 -0.2630 -0.1808  0.2146
  677TMC3    O210078   2.011   1.849  11.420  0.5375  0.3992  0.1168
  678MPD2     C10079   2.438   2.037   1.236  0.1052  0.8162  0.0259
  678MPD2    C110080   2.387   2.022   1.109 -0.0402 -0.2125  0.6147
  678MPD2    C210081   2.254   2.047   1.087  1.0423 -0.3895  0.4523
  678MPD2    C310082   2.173   2.066   1.194  0.5482 -0.2755 -0.2997
  678MPD2    C410083   2.225   2.061   1.321 -0.8930  0.7155  0.1196
  678MPD2    C510084   2.356   2.061   1.341 -0.3452  0.1993  0.6389
  678MPD2     H10085   2.218   2.031   0.986 -0.3461  0.0162  0.8890
  678MPD2    H110086   2.158   2.068   1.406  0.0324  2.3476  0.7239
  678MPD2    H210087   2.543   2.024   1.257 -0.2693  0.4582  1.6135
  678MPD2    H310088   2.394   2.070   1.442 -1.3098 -1.2375  1.1243
  678MPD2     N10089   2.037   2.056   1.176 -0.1982  0.2693 -0.0173
  678MPD2    H510090   2.008   2.027   1.084 -0.5831  1.6146 -0.3155
  678MPD2    N110091   2.468   2.000   0.996 -0.1204 -0.0657  0.6490
  678MPD2    H710092   2.427   2.018   0.904 -0.9307 -1.2336  0.7821
  679TMC3    C110093   2.783   1.789   0.729 -0.1415  0.6019 -0.3732
  679TMC3    C210094   2.754   1.836   0.853 -0.3022  0.3493  0.5611
  679TMC3    C310095   2.659   1.938   0.865  0.0274 -0.4349  0.0064
  679TMC3    C410096   2.720   1.838   0.621  0.2183  0.1133 -0.3843
  679TMC3    C510097   2.633   1.945   0.635 -0.2578  0.0983  0.2076
  679TMC3    C610098   2.599   1.996   0.756  0.3959  0.5028  0.1839
  679TMC3     C10099   2.907   1.714   0.711 -1.2561  0.1953 -0.2619
  679TMC3     O10100   2.907   1.632   0.622 -0.1435 -0.1515  0.0646
  679TMC3     H10101   2.809   1.815   0.944 -0.0352  0.4011  0.4108
  679TMC3    H110102   2.752   1.804   0.523 -1.0824  1.6333 -1.3358
  679TMC3    H210103   2.534   2.082   0.767 -0.0265  0.4473 -1.9036
  679TMC3    C710104   2.653   2.048   0.535 -0.4635 -0.1993  0.3512
  679TMC3    C810105   2.603   1.970   0.997  0.8285 -0.5137 -0.5259
  679TMC3    O110106   2.763   2.066   0.489  0.3752  0.0724 -0.1528
  679TMC3    O210107   2.668   1.933   1.091 -0.0554  0.2754 -0.3080
  680MPD2     C10108   3.415   0.592  13.791  0.5684  0.2693 -0.1070
  680MPD2    C110109   3.503   0.499  13.834 -0.4750  0.7731  0.7876
  680MPD2    C210110   3.602   0.542  13.920  0.7892 -0.5854 -1.0245
  680MPD2    C310111   3.623   0.670  13.947  0.0500 -0.1597  0.0412
  680MPD2    C410112   3.536   0.759  13.896  0.0671 -0.1212  0.0150
  680MPD2    C510113   3.433   0.726  13.812  0.3898 -0.4667 -0.1777
  680MPD2     H10114   3.666   0.462  13.956  0.4265 -0.6401 -0.4941
  680MPD2    H110115   3.550   0.866  13.906 -1.8433  0.2284 -0.9318
  680MPD2    H210116   3.342   0.566  13.715  2.6189 -2.4570 -1.1241
  680MPD2    H310117   3.367   0.799  13.766  1.2727 -0.8650 -2.0879
  680MPD2     N10118   3.732   0.721  14.024  1.1009  0.3379 -0.1704
  680MPD2    H510119   3.744   0.821  14.019 -1.0486  0.5853 -0.3881
  680MPD2    N110120   3.495   0.365  13.805  0.0548 -0.1836  0.4094
  680MPD2    H710121   3.563   0.304  13.849  1.2186 -0.8539 -2.3218
  681TMC3    C110122   3.428   0.151  13.711 -0.6533 -0.7727 -0.1139
  681TMC3    C210123   3.342   0.060  13.759  0.4731 -0.2299  0.1010
  681TMC3    C310124   3.374   4.668  13.758  0.2995  0.4324  0.2328
  681TMC3    C410125   3.548   0.120  13.668 -0.1611  0.1655  0.7123
  681TMC3    C510126   3.586   4.728  13.667  0.9211  0.4606 -0.1112
  681TMC3    C610127   3.505   4.636  13.723  0.6999 -0.5893  0.4667
  681TMC3     C10128   3.399   0.296  13.731  0.1490 -0.9736  0.2895
  681TMC3     O10129   3.296   0.326  13.679 -0.9302 -0.2798 -0.5966
  681TMC3     H10130   3.240   0.094  13.770  0.6288  0.3096 -0.1512
  681TMC3    H110131   3.608   0.202  13.630 -0.7758  0.4660  0.4009
  681TMC3    H210132   3.534   4.536  13.751 -1.2502 -0.2542  3.7181
  681TMC3    C710133   3.720   4.691  13.628  0.4828  1.2701 -0.0665
  681TMC3    C810134   3.281   4.583  13.828 -0.3767 -0.6033  0.4763
  681TMC3    O110135   3.760   4.585  13.667  0.4650  0.0226 -0.5023
  681TMC3    O210136   3.167   4.572  13.788 -0.2817  0.1668 -0.2155
  682MPD2     C10137   1.392   2.265  10.458  0.1509  0.2705 -0.7194
  682MPD2    C110138   1.307   2.182  10.523  0.1423  0.0982  0.0224
  682MPD2    C210139   1.289   2.195  10.657  0.1821 -0.6665 -0.1931
  682MPD2    C310140   1.348   2.296  10.733  0.0025  0.2590 -0.4524
  682MPD2    C410141   1.435   2.375  10.663 -0.1976 -0.1374  0.5349
  682MPD2    C510142   1.451   2.366  10.524 -0.7548 -0.3471  0.4293
  682MPD2     H10143   1.229   2.128  10.717 -2.4423  0.4888 -1.5214
  682MPD2    H110144   1.483   2.453  10.720 -0.8034  1.9256 -1.8183
  682MPD2    H210145   1.416   2.266  10.352  2.1817 -1.3615 -0.2950
  682MPD2    H310146   1.508   2.445  10.477  1.1582 -1.2672  1.1808
  682MPD2     N10147   1.307   2.322  10.868 -0.7013 -0.8903 -0.0318
  682MPD2    H510148   1.363   2.394  10.912  2.8644 -2.3821 -2.1384
  682MPD2    N110149   1.238   2.071  10.469 -0.4998 -0.5673 -0.5314
  682MPD2    H710150   1.173   2.031  10.536 -1.3822 -0.3707 -1.2735
  683TMC3    C110151   1.116   2.550  11.166  0.5471  0.5044 -0.4698
  683TMC3    C210152   1.013   2.499  11.242 -0.0541 -0.4727  1.0832
  683TMC3    C310153   0.987   2.365  11.227 -0.4922  0.2034 -0.0584
  683TMC3    C410154   1.188   2.478  11.068  0.3729 -0.3809  0.1215
  683TMC3    C510155   1.159   2.345  11.055  0.0342 -0.1089  0.7960
  683TMC3    C610156   1.057   2.288  11.134 -0.0572 -0.0058 -0.6861
  683TMC3     C10157   1.158   2.679  11.202  0.5357  0.1804 -0.7070
  683TMC3     O10158   1.080   2.753  11.263  0.0007  0.2687 -0.0309
  683TMC3     H10159   0.963   2.558  11.319  0.2135 -0.3771  1.1832
  683TMC3    H110160   1.257   2.531  11.004  2.5673 -1.5813  1.4874
  683TMC3    H210161   1.038   2.184  11.114  1.1929 -0.2226 -0.7309
  683TMC3    C710162   1.184   2.276  10.927  0.1327 -0.4163 -0.4874
  683TMC3    C810163   0.882   2.309  11.320 -0.3353  0.5054 -0.1116
  683TMC3    O110164   1.106   2.192  10.883  0.0768 -0.3497 -0.2948
  683TMC3    O210165   0.828   2.392  11.390 -0.4553  0.3769 -0.2848
  684MPD2     C10166   3.459   1.936  16.566  0.7188  0.3736 -0.2490
  684MPD2    C110167   3.422   1.935  16.433  0.1000 -0.2835 -0.6246
  684MPD2    C210168   3.402   2.052  16.366 -0.1925 -0.4036  0.9222
  684MPD2    C310169   3.433   2.173  16.427 -0.4132  0.5897  0.0711
  684MPD2    C410170   3.464   2.176  16.557 -0.3365 -0.4763  0.2632
  684MPD2    C510171   3.465   2.060  16.629 -0.8305  1.1096 -0.2497
  684MPD2     H10172   3.374   2.052  16.261  0.6930 -0.0126  0.6814
  684MPD2    H110173   3.495   2.264  16.613 -1.1920  0.4935 -0.8060
  684MPD2    H210174   3.495   1.848  16.618 -4.1848 -1.2439  0.4114
  684MPD2    H310175   3.502   2.061  16.731  1.0702  0.5399 -0.9435
  684MPD2     N10176   3.447   2.295  16.363 -0.0803  0.3120  0.2827
  684MPD2    H510177   3.501   2.360  16.420 -0.2538  0.3789  0.3692
  684MPD2    N110178   3.424   1.823  16.349  0.1437 -0.5828 -0.1866
  684MPD2    H710179   3.418   1.833  16.249 -1.4346 -4.5137 -0.5074
  685TMC3    C110180   3.489   1.613  16.288  0.0667  0.6449 -0.4704
  685TMC3    C210181   3.431   1.633  16.161  0.2034  0.2147  0.5933
  685TMC3    C310182   3.482   1.553  16.058 -0.0140  0.0461  0.3050
  685TMC3    C410183   3.598   1.537  16.307 -0.5811 -0.0135 -0.6550
  685TMC3    C510184   3.643   1.469  16.196 -0.0943  0.3092 -0.4055
  685TMC3    C610185   3.591   1.474  16.067  0.8178  0.2047 -0.3211
  685TMC3     C10186   3.470   1.702  16.390 -0.3669  1.1456  0.4971
  685TMC3     O10187   3.499   1.660  16.503 -0.4435  0.0003 -0.1458
  685TMC3     H10188   3.353   1.706  16.143  0.8662  0.6594 -0.4206
  685TMC3    H110189   3.646   1.521  16.402  0.2033 -1.2297 -1.2506
  685TMC3    H210190   3.642   1.423  15.986 -1.1900 -1.5290 -0.4787
  685TMC3    C710191   3.780   1.421  16.204 -0.2048  0.5443 -0.4392
  685TMC3    C810192   3.410   1.543  15.930  0.3775  0.0519  0.1224
  685TMC3    O110193   3.805   1.374  16.314  0.6719  0.9153  0.2641
  685TMC3    O210194   3.463   1.473  15.844 -0.3567 -0.1620 -0.5752
  686MPD2     C10195   0.049   1.471  16.192 -0.3950 -0.7577 -0.3457
  686MPD2    C110196   0.008   1.399  16.082 -0.1399 -0.0824  0.0986
  686MPD2    C210197   0.093   1.391  15.975  0.0863  0.3251 -0.4990
  686MPD2    C310198   0.215   1.448  15.977 -0.0660  0.1298  0.1255
  686MPD2    C410199   0.261   1.522  16.086  0.3371  0.7488 -0.1227
  686MPD2    C510200   0.177   1.526  16.195  0.1760  0.5707 -0.1407
  686MPD2     H10201   0.066   1.333  15.887  0.6201  0.4310 -0.7314
  686MPD2    H110202   0.352   1.581  16.081  1.5137 -1.1199 -1.0595
  686MPD2    H210203   4.726   1.499  16.275  0.5319  1.0144 -0.2251
  686MPD2    H310204   0.205   1.582  16.283  0.3261 -1.4680  1.1121
  686MPD2     N10205   0.300   1.447  15.869 -0.1024 -0.1914  0.0650
  686MPD2    H510206   0.389   1.493  15.887  0.2793 -1.2205  0.8611
  686MPD2    N110207   4.628   1.342  16.087  0.1883 -0.8396  0.7100
  686MPD2    H710208   4.589   1.347  16.181 -1.3862  1.2922 -0.0651
  687TMC3    C110209   0.400   1.297  15.716 -0.8464 -0.1724 -0.9506
  687TMC3    C210210   0.363   1.211  15.622 -0.7680 -0.2636  0.5094
  687TMC3    C310211   0.375   1.076  15.636  0.3938  0.1783 -0.3286
  687TMC3    C410212   0.461   1.251  15.829 -0.2314 -0.0339  0.2649
  687TMC3    C510213   0.469   1.111  15.851  0.4441 -1.1289  0.6012
  687TMC3    C610214   0.434   1.025  15.751  0.2261  0.3175 -0.1300
  687TMC3     C10215   0.281   1.376  15.752 -0.8177 -0.3271 -0.1687
  687TMC3     O10216   0.176   1.346  15.699  0.5124 -0.1836  0.4020
  687TMC3     H10217   0.308   1.260  15.543 -0.4314  0.4887  0.7379
  687TMC3    H110218   0.505   1.318  15.903 -0.6154  0.2999  0.1936
  687TMC3    H210219   0.439   0.917  15.760 -0.8221  0.2338 -0.5201
  687TMC3    C710220   0.570   1.066  15.944 -0.7136  0.1711  0.0245
  687TMC3    C810221   0.262   1.003  15.605  0.4437 -0.2882 -0.2733
  687TMC3    O110222   0.647   1.151  15.981  0.4246  0.3320  0.1813
  687TMC3    O210223   0.280   0.883  15.591 -0.0465  0.2240 -0.2916
  688MPD2     C10224   4.581   0.041  17.360  0.0824 -0.4359  0.5500
  688MPD2    C110225   4.587   4.651  17.401 -0.5142 -0.1471 -0.0606
  688MPD2    C210226   4.668   4.563  17.331 -0.8442 -0.6194  0.1275
  688MPD2    C310227   0.004   4.609  17.225 -0.0260 -0.1307  0.1000
  688MPD2    C410228   0.000   0.005  17.194 -0.2324 -0.4347  0.3532
  688MPD2    C510229   4.655   0.089  17.256  0.2342 -0.3551  0.4786
  688MPD2     H10230   4.673   4.460  17.366  0.3461 -0.1725  1.2946
  688MPD2    H110231   0.057   0.052  17.115  0.8909 -1.9584  0.2453
  688MPD2    H210232   4.522   0.117  17.410  1.0680  1.3269 -1.0127
  688MPD2    H310233   4.646   0.194  17.233  1.1167 -0.7068 -1.4569
  688MPD2     N10234   0.091   4.535  17.145 -0.4535  0.0863  0.4431
  688MPD2    H510235   0.136   4.574  17.062  0.6999  1.1694  1.5696
  688MPD2    N110236   4.511   4.599  17.512 -0.7843  0.4993 -0.7274
  688MPD2    H710237   4.526   4.499  17.526 -1.9610  0.8166  2.8784
  689TMC3    C110238   4.425   4.613  17.729 -1.1936  0.5887 -0.9423
  689TMC3    C210239   4.424   4.697   0.079  0.1572  0.4119  0.8718
  689TMC3    C310240   4.378   4.652   0.200 -0.4445  0.0483 -0.1383
  689TMC3    C410241   4.382   4.488  17.742 -0.7887  1.3388 -0.1450
  689TMC3    C510242   4.321   4.452   0.100  0.3940  0.1985 -0.3295
  689TMC3    C610243   4.309   4.530   0.214 -0.4615  1.0345  0.6921
  689TMC3     C10244   4.449   4.673  17.608 -0.6602  0.7486 -0.6324
  689TMC3     O10245   4.418   0.048  17.601  0.6779 -0.2410 -0.0518
  689TMC3     H10246   4.485   0.045   0.065  0.8673  0.0768  1.8669
  689TMC3    H110247   4.384   4.424  17.654 -0.7386  0.3901  0.5432
  689TMC3    H210248   4.285   4.485   0.309 -0.3182  2.1041  1.2349
  689TMC3    C710249   4.298   4.301   0.118 -0.7921  0.9868 -1.1621
  689TMC3    C810250   4.376   4.740   0.315 -0.3810  0.1909  0.2184
  689TMC3    O110251   4.303   4.270   0.236  0.1264  0.5388 -0.0945
  689TMC3    O210252   4.368   4.690   0.431  0.3070 -0.3475 -0.9225
  690MPD2     C10253   2.194   2.048  15.679 -0.3894  0.4879  2.3327
  690MPD2    C110254   2.076   2.077  15.609 -0.6230  0.4210 -0.1813
  690MPD2    C210255   2.076   2.158  15.497  0.9823 -0.2185  0.5455
  690MPD2    C310256   2.194   2.226  15.457  0.3847 -0.6505  0.5966
  690MPD2    C410257   2.304   2.213  15.543  0.5781  0.0329  0.0734
  690MPD2    C510258   2.298   2.137  15.653 -0.2750  0.4760  0.6238
  690MPD2     H10259   1.986   2.179  15.440  0.6849 -0.5783  0.8825
  690MPD2    H110260   2.395   2.270  15.528  0.9270 -0.1299  1.6341
  690MPD2    H210261   2.200   1.977  15.760  1.4532 -2.3945 -0.3248
  690MPD2    H310262   2.385   2.139  15.718  0.5989 -1.4514 -0.4900
  690MPD2     N10263   2.196   2.301  15.334 -0.0909  0.1715 -0.2043
  690MPD2    H510264   2.105   2.316  15.291 -0.4745 -0.1049  0.5153
  690MPD2    N110265   1.947   2.033  15.654 -0.1879 -0.3436 -0.1858
  690MPD2    H710266   1.871   2.058  15.591 -0.8606 -0.5393  0.5410
  691TMC3    C110267   1.787   1.936  15.790 -0.1070 -0.2309  0.2030
  691TMC3    C210268   1.690   2.003  15.720 -0.4251 -0.3761 -0.6269
  691TMC3    C310269   1.562   1.963  15.731 -0.4380 -0.7358 -0.2612
  691TMC3    C410270   1.757   1.838  15.881  0.3461  0.0546 -0.5976
  691TMC3    C510271   1.619   1.802  15.889 -0.1097  0.4930  0.0628
  691TMC3    C610272   1.522   1.859  15.809 -0.2185  0.8015 -0.2709
  691TMC3     C10273   1.925   1.968  15.774 -0.6246 -0.3649  0.2701
  691TMC3     O10274   2.007   1.926  15.854  0.4060 -0.3865  0.1946
  691TMC3     H10275   1.720   2.091  15.663 -0.9871 -0.2109 -0.6633
  691TMC3    H110276   1.838   1.789  15.935  1.6501  0.1460 -2.4626
  691TMC3    H210277   1.420   1.827  15.825  0.1725  0.2079  1.0267
  691TMC3    C710278   1.599   1.666  15.941  0.8064 -0.1494 -0.1066
  691TMC3    C810279   1.476   1.989  15.622  0.2092 -0.5038  0.0735
  691TMC3    O110280   1.708   1.619  15.982  0.5052  0.0872  0.5491
  691TMC3    O210281   1.536   2.002  15.514  0.0976 -1.0240  0.0356
  692TMC3    C110282   2.889   3.176  15.506 -0.5307 -0.1227  0.1501
  692TMC3    C210283   2.987   3.268  15.541 -0.2184 -0.4852 -0.6908
  692TMC3    C310284   3.116   3.254  15.511 -0.4190  0.2430  0.5987
  692TMC3    C410285   2.925   3.049  15.495 -0.7544 -0.0317 -0.2851
  692TMC3    C510286   3.058   3.024  15.484  0.4900  0.5892 -0.6996
  692TMC3    C610287   3.152   3.122  15.479 -0.1486 -0.2098 -0.4084
  692TMC3     C10288   2.775   3.182  15.592 -0.1691  0.2913  0.1169
  692TMC3     O10289   2.776   3.105  15.688 -0.8623  0.3567 -0.0168
  692TMC3     H10290   2.946   3.368  15.545  1.1966  0.0602  0.0258
  692TMC3    H110291   2.848   2.973  15.493 -0.0554 -0.7623  0.4177
  692TMC3    H210292   3.258   3.098  15.479  0.4300  2.3062 -2.3117
  692TMC3    C710293   3.090   2.882  15.479  0.0365 -0.7964  0.7827
  692TMC3    C810294   3.210   3.305  15.610 -0.2217 -0.2419  0.1248
  692TMC3    O110295   3.017   2.809  15.409  0.0013  0.2460 -0.3825
  692TMC3    O210296   3.327   3.273  15.590  0.5441  0.0516  0.1802
  693MPD2     C10297   3.016   1.045  10.436  0.3096  0.5163  0.0629
  693MPD2    C110298   2.992   1.010  10.568 -0.9565  0.1041  0.7161
  693MPD2    C210299   3.078   0.915  10.620 -0.3432 -0.1929 -0.0785
  693MPD2    C310300   3.190   0.862  10.547 -0.3645  0.5231 -0.2983
  693MPD2    C410301   3.214   0.914  10.419  0.0881 -0.4140  0.2726
  693MPD2    C510302   3.130   1.008  10.370 -0.0448  0.4853  0.0220
  693MPD2     H10303   3.071   0.886  10.724 -0.8327 -1.8637 -0.5815
  693MPD2    H110304   3.300   0.879  10.362  0.1977 -0.4408  0.4537
  693MPD2    H210305   2.957   1.124  10.391 -0.9998 -0.8897 -0.6727
  693MPD2    H310306   3.150   1.046  10.271 -1.5715  1.8533  0.2489
  693MPD2     N10307   3.285   0.771  10.607 -0.2483 -0.2883 -0.0237
  693MPD2    H510308   3.374   0.763  10.558  0.1221  0.0811  0.5847
  693MPD2    N110309   2.879   1.043  10.650 -0.1343  0.8113  0.0821
  693MPD2    H710310   2.894   1.001  10.741  1.1084  0.4517 -0.2800
  694TMC3    C110311   2.663   1.102  10.708  0.4407 -0.5381 -0.4011
  694TMC3    C210312   2.554   1.041  10.654  0.0489 -0.1433  0.4504
  694TMC3    C310313   2.491   0.947  10.736 -0.3102 -0.3496  0.2956
  694TMC3    C410314   2.707   1.073  10.838 -0.5865 -0.0656  0.1053
  694TMC3    C510315   2.638   0.992  10.906 -0.0384  0.3754 -0.2281
  694TMC3    C610316   2.537   0.913  10.858 -0.4549  0.7910  0.2486
  694TMC3     C10317   2.774   1.122  10.614 -0.6312 -0.1157  0.0315
  694TMC3     O10318   2.760   1.178  10.508  0.2465 -0.0512 -0.1920
  694TMC3     H10319   2.535   1.044  10.548 -0.4147  0.3946  0.5482
  694TMC3    H110320   2.789   1.132  10.879 -2.8094  3.0588  0.0285
  694TMC3    H210321   2.488   0.835  10.915  0.7468  0.1750  0.4335
  694TMC3    C710322   2.667   0.983  11.045 -0.4210 -0.6301 -0.1441
  694TMC3    C810323   2.368   0.887  10.684 -0.1299 -0.3660 -0.2754
  694TMC3    O110324   2.741   1.066  11.098 -0.5805 -0.0285 -0.2950
  694TMC3    O210325   2.331   0.780  10.728 -0.0822  0.2025  0.0593
  695MPD2     C10326   4.001   2.799  13.190 -0.0987 -0.2531  0.1164
  695MPD2    C110327   3.935   2.739  13.297 -0.0266  0.5719  0.4327
  695MPD2    C210328   3.821   2.797  13.347 -0.5631  0.5682 -0.1898
  695MPD2    C310329   3.774   2.919  13.292 -0.2495  0.0508 -0.3732
  695MPD2    C410330   3.840   2.979  13.188  0.2975  1.1674  0.3476
  695MPD2    C510331   3.948   2.913  13.135  0.4463 -0.2697 -0.0913
  695MPD2     H10332   3.766   2.746  13.425 -1.6966  0.0587 -1.3148
  695MPD2    H110333   3.809   3.078  13.155 -1.4770  0.9551  1.3663
  695MPD2    H210334   4.095   2.759  13.152 -0.3144  1.7188 -2.4933
  695MPD2    H310335   3.998   2.959  13.050  0.5668 -0.3360 -0.0560
  695MPD2     N10336   3.665   2.977  13.358 -0.0476  0.2608 -0.2317
  695MPD2    H510337   3.625   2.918  13.430  0.4057 -0.8193 -0.8579
  695MPD2    N110338   3.991   2.629  13.370 -0.7525  0.0222 -0.0845
  695MPD2    H710339   3.952   2.591  13.455 -0.8188 -0.7369 -0.4612
  696TMC3    C110340   3.505   3.137  13.428 -0.1717  0.2451  0.1274
  696TMC3    C210341   3.475   3.067  13.539  0.4555  0.1143 -0.1870
  696TMC3    C310342   3.352   3.081  13.596 -0.6826 -0.3153 -0.3232
  696TMC3    C410343   3.426   3.239  13.381  0.3686  0.0255 -0.5288
  696TMC3    C510344   3.305   3.261  13.449  0.1940 -0.1576 -0.1856
  696TMC3    C610345   3.277   3.188  13.565 -0.2551 -0.4985 -0.2317
  696TMC3     C10346   3.608   3.103  13.333  0.0059  0.0974  0.0997
  696TMC3     O10347   3.621   3.173  13.230  0.1236  0.0889  0.1170
  696TMC3     H10348   3.543   2.997  13.586  0.5301 -0.1934 -0.7541
  696TMC3    H110349   3.452   3.306  13.300  0.1351 -0.7666 -1.2512
  696TMC3    H210350   3.182   3.195  13.617 -0.3567 -0.7342 -0.3901
  696TMC3    C710351   3.244   3.391  13.426 -0.5033 -0.2204  0.0547
  696TMC3    C810352   3.344   3.039  13.731 -0.1822  0.2548  0.7120
  696TMC3    O110353   3.262   3.444  13.317  0.1379  0.2278  0.0637
  696TMC3    O210354   3.322   3.133  13.804 -0.5365  0.3655 -0.1411
  697MPD2     C10355   2.948   4.559  15.484 -0.5031 -0.5753  0.7102
  697MPD2    C110356   2.879   4.549  15.363  0.5379  0.1900 -0.8476
  697MPD2    C210357   2.940   4.604  15.255 -0.3644 -0.3162  0.3941
  697MPD2    C310358   3.073   4.649  15.260  0.3399 -0.4768 -0.5909
  697MPD2    C410359   3.145   4.652  15.385  0.1901 -0.8943 -0.4127
  697MPD2    C510360   3.076   4.608  15.491 -0.4274  0.4947 -0.1358
  697MPD2     H10361   2.887   4.605  15.161 -1.4207  1.5608  1.0141
  697MPD2    H110362   3.249   4.679  15.398  0.6488 -2.5640 -0.6307
  697MPD2    H210363   2.892   4.517  15.566 -1.7388 -1.7065 -0.7108
  697MPD2    H310364   3.114   4.603  15.593 -0.6085  2.5459  0.0255
  697MPD2     N10365   3.157   4.685  15.149  0.2911  0.1599  1.3519
  697MPD2    H510366   3.253   4.703  15.175  0.8795 -0.5161 -0.4269
  697MPD2    N110367   2.751   4.493  15.344  0.1809  0.0422  0.4427
  697MPD2    H710368   2.715   4.494  15.250 -0.8607  0.8670  0.8532
  698TMC3    C110369   3.226   4.704  14.922 -0.0446  0.3906  0.6213
  698TMC3    C210370   3.341   4.626  14.935 -0.0822 -0.1473  0.4953
  698TMC3    C310371   3.409   4.583  14.825  0.2125 -0.1449 -1.2719
  698TMC3    C410372   3.182   4.740  14.798 -0.1353  0.3119 -0.4723
  698TMC3    C510373   3.237   4.671  14.691  0.2866  0.1137 -0.4023
  698TMC3    C610374   3.355   4.604  14.704 -0.3242 -0.2610 -0.3726
  698TMC3     C10375   3.120   4.680  15.019 -0.6579  0.2861  0.0791
  698TMC3     O10376   3.004   4.688  14.982 -0.1238  0.5336  0.0408
  698TMC3     H10377   3.367   4.588  15.033 -0.3218 -0.2962  0.5010
  698TMC3    H110378   3.084   0.043  14.786  0.4696  1.2587 -1.8685
  698TMC3    H210379   3.400   4.555  14.618  0.7842 -1.4754  0.9072
  698TMC3    C710380   3.174   4.690  14.564  0.2235  0.1551 -0.2349
  698TMC3    C810381   3.545   4.543  14.827 -0.5236  0.3710  0.0520
  698TMC3    O110382   3.049   4.694  14.575 -0.0724  0.0363  0.5545
  698TMC3    O210383   3.588   4.493  14.722 -0.0507 -0.0239 -0.1241
  699TMC3    C110384   3.549   2.963  12.974 -0.3791 -0.4708 -0.6424
  699TMC3    C210385   3.577   2.837  13.025  0.1133 -0.3782  0.1258
  699TMC3    C310386   3.488   2.780  13.114  0.0711 -0.3845  0.7809
  699TMC3    C410387   3.446   3.043  13.019 -0.6245  0.4595  0.1485
  699TMC3    C510388   3.356   2.983  13.100 -0.2595  0.4318 -0.0069
  699TMC3    C610389   3.375   2.855  13.154  0.1785 -0.9315 -0.5612
  699TMC3     C10390   3.632   3.026  12.877 -0.0648 -0.3827 -0.9143
  699TMC3     O10391   3.600   3.136  12.839  0.1974  0.7603 -0.3315
  699TMC3     H10392   3.674   2.790  13.010 -0.3944 -0.7910 -1.8170
  699TMC3    H110393   3.409   3.129  12.965  0.0523  0.6492 -0.0109
  699TMC3    H210394   3.322   2.817  13.241  2.8541 -0.9365  1.0538
  699TMC3    C710395   3.245   3.048  13.143  0.0534  0.0255 -0.6387
  699TMC3    C810396   3.521   2.652  13.168 -0.5099  0.1561  0.2162
  699TMC3    O110397   3.196   3.001  13.243  0.1702  0.2868  0.3512
  699TMC3    O210398   3.451   2.620  13.265 -0.8059 -0.3105 -0.0043
  700TMC3    C110399   2.334   0.370  17.253  0.2511 -0.3030 -0.5736
  700TMC3    C210400   2.453   0.296  17.246  0.4850  0.7113  0.3328
  700TMC3    C310401   2.510   0.263  17.361 -0.0754  0.5037  0.2878
  700TMC3    C410402   2.266   0.380  17.369 -0.0883 -0.1149  0.6287
  700TMC3    C510403   2.318   0.334  17.487 -0.0373  0.3337  0.1240
  700TMC3    C610404   2.444   0.283  17.484 -0.4989 -0.7085 -0.1245
  700TMC3     C10405   2.265   0.429  17.147  0.1468  0.5913  0.2501
  700TMC3     O10406   2.154   0.395  17.116 -0.9332 -0.1834 -0.6993
  700TMC3     H10407   2.516   0.304  17.158  0.0859  0.7121  0.0450
  700TMC3    H110408   2.171   0.432  17.365  0.4084  0.6401 -1.0252
  700TMC3    H210409   2.496   0.258  17.577 -0.9011  1.9342  0.8073
  700TMC3    C710410   2.281   0.408  17.611 -0.0252  0.2800  0.6740
  700TMC3    C810411   2.657   0.247  17.357 -0.0510 -0.0883  0.3251
  700TMC3    O110412   2.372   0.457  17.679 -0.1544  0.5262  0.2987
  700TMC3    O210413   2.716   0.308  17.264 -0.3523 -0.0144  0.2914
  701TMC3    C110414   2.070   4.226  15.829  0.1059  0.3938  0.2717
  701TMC3    C210415   2.045   4.249  15.697 -0.3210  0.4793  0.0525
  701TMC3    C310416   2.127   4.342  15.629 -0.7473  0.0342  0.5817
  701TMC3    C410417   2.186   4.269  15.885  0.1827  0.3891  0.2828
  701TMC3    C510418   2.268   4.348  15.809  0.2404 -0.5342 -0.0332
  701TMC3    C610419   2.237   4.395  15.686  0.0133 -0.0065  0.4627
  701TMC3     C10420   1.980   4.162  15.921 -0.0264  0.1018 -0.4273
  701TMC3     O10421   2.009   4.169  16.040  0.5381  0.1860 -0.7040
  701TMC3     H10422   1.957   4.204  15.653 -0.1788  0.7988 -0.5560
  701TMC3    H110423   2.210   4.254  15.990  3.0720 -0.1131 -0.4571
  701TMC3    H210424   2.307   4.461  15.637 -0.1685 -0.9130 -0.9978
  701TMC3    C710425   2.399   4.370  15.855 -0.3838  0.0020 -0.3884
  701TMC3    C810426   2.123   4.339  15.479 -0.2307  0.3626 -0.0058
  701TMC3    O110427   2.442   4.480  15.831 -0.0409 -0.5163 -0.2446
  701TMC3    O210428   2.200   4.412  15.421  1.0525  0.2510 -0.2081
  702MPD2     C10429   2.052   1.602  10.128  0.9844  0.5477  0.0383
  702MPD2    C110430   1.961   1.588  10.232  0.0200 -0.0839  0.4991
  702MPD2    C210431   1.841   1.654  10.218  0.4450  0.7265  0.4079
  702MPD2    C310432   1.828   1.746  10.117  0.6942  0.3313  0.6069
  702MPD2    C410433   1.906   1.732  10.003  0.2133 -0.0750  0.2291
  702MPD2    C510434   2.026   1.659  10.008  0.4752 -1.2853 -0.0218
  702MPD2     H10435   1.777   1.649  10.305 -1.5013  2.8683 -0.9408
  702MPD2    H110436   1.889   1.792   9.914 -5.3062 -1.8752  0.0130
  702MPD2    H210437   2.145   1.546  10.135  0.8019  0.1949 -0.3423
  702MPD2    H310438   2.096   1.648   9.927 -0.4023 -0.7897 -0.8489
  702MPD2     N10439   1.716   1.832  10.118 -0.1744  0.3045  0.0072
  702MPD2    H510440   1.654   1.822  10.198  0.1921 -1.0828  0.1268
  702MPD2    N110441   1.991   1.531  10.353  0.7655  0.0967  0.1307
  702MPD2    H710442   1.924   1.534  10.429  0.0659  4.7620 -0.7108
  703TMC3    C110443   1.666   2.056  10.136 -0.6031  0.0025  0.5545
  703TMC3    C210444   1.592   2.007  10.240  0.1984  0.0524 -0.4605
  703TMC3    C310445   1.630   2.037  10.366  0.1387 -0.2099 -0.9552
  703TMC3    C410446   1.780   2.137  10.154  0.9519  0.0387  0.0544
  703TMC3    C510447   1.825   2.142  10.281  0.2127  0.9270  0.0452
  703TMC3    C610448   1.755   2.091  10.388  0.8831  0.6579  0.6418
  703TMC3     C10449   1.702   1.946  10.044  0.8366 -0.4365 -0.6016
  703TMC3     O10450   1.769   1.990   9.950  0.1760 -0.2272 -0.5590
  703TMC3     H10451   1.504   1.949  10.216  0.1344 -0.5241  1.1477
  703TMC3    H110452   1.844   2.162  10.071 -0.5468  0.2780 -1.0274
  703TMC3    H210453   1.796   2.087  10.488 -1.7274  0.6997  1.7291
  703TMC3    C710454   1.945   2.223  10.306 -0.8749  0.6101  0.1804
  703TMC3    C810455   1.571   1.961  10.470 -0.3601 -0.3273  0.0164
  703TMC3    O110456   1.997   2.271  10.206  0.1369  0.5000 -1.0406
  703TMC3    O210457   1.491   1.885  10.425 -0.1074 -0.0701  0.0740
  704TMC3    C110458   4.238   3.933  12.583 -0.0563 -0.5273 -0.0381
  704TMC3    C210459   4.340   4.018  12.603  0.7901 -0.4054  0.0911
  704TMC3    C310460   4.434   3.988  12.699  0.5881 -0.8994  0.2513
  704TMC3    C410461   4.232   3.809  12.640  0.0796 -0.4225 -0.0916
  704TMC3    C510462   4.334   3.779  12.729  0.5332  0.5206 -0.8031
  704TMC3    C610463   4.434   3.863  12.757 -0.6292  0.2033 -0.5067
  704TMC3     C10464   4.144   3.952  12.476 -0.0432 -0.1941  0.1727
  704TMC3     O10465   4.030   3.916  12.493 -0.4891 -0.9087 -0.2164
  704TMC3     H10466   4.334   4.121  12.570  0.3652  0.9540  4.3294
  704TMC3    H110467   4.157   3.735  12.615 -1.5880  0.4605  2.2902
  704TMC3    H210468   4.508   3.831  12.830 -0.2865  0.6842 -0.6450
  704TMC3    C710469   4.370   3.645  12.742 -0.3262  0.5455 -0.6577
  704TMC3    C810470   4.566   4.043  12.688  0.0506  0.7854 -0.2194
  704TMC3    O110471   4.488   3.623  12.723 -0.2780  0.1668  0.1909
  704TMC3    O210472   4.656   3.959  12.702 -0.9821  0.6954  0.4027
  705MPD2     C10473   3.671   2.565  16.705  0.3319  0.1174 -0.3184
  705MPD2    C110474   3.613   2.645  16.607 -0.0940 -0.1513  0.4548
  705MPD2    C210475   3.487   2.703  16.629  1.8942 -0.1135  0.2043
  705MPD2    C310476   3.413   2.667  16.740 -0.2689  0.5369  0.5735
  705MPD2    C410477   3.471   2.573  16.826  0.1260 -0.5642  0.0747
  705MPD2    C510478   3.595   2.519  16.807 -0.6573 -0.4765 -0.4718
  705MPD2     H10479   3.450   2.777  16.559  0.4025 -0.9247  0.1321
  705MPD2    H110480   3.418   2.538  16.914 -2.8992  2.1959 -0.6224
  705MPD2    H210481   3.777   2.543  16.702  0.7630  2.1445  0.4428
  705MPD2    H310482   3.635   2.470  16.894 -3.0443 -1.1001  0.2799
  705MPD2     N10483   3.290   2.727  16.761  0.1479  0.5610  0.1318
  705MPD2    H510484   3.268   2.789  16.683 -0.1942 -2.6393 -2.2834
  705MPD2    N110485   3.685   2.680  16.486 -0.6939 -0.3046 -0.1392
  705MPD2    H710486   3.642   2.744  16.420 -1.1739 -1.0908 -0.5806
  706TMC3    C110487   4.073   2.655  16.219  0.2718 -0.0872 -0.3244
  706TMC3    C210488   4.028   2.750  16.131  0.0741  0.4516  0.8491
  706TMC3    C310489   3.911   2.823  16.161  0.0273 -0.5509  0.1011
  706TMC3    C410490   3.996   2.614  16.327  0.1507 -0.2926 -0.1937
  706TMC3    C510491   3.872   2.671  16.341  1.0439  0.3480 -0.0250
  706TMC3    C610492   3.834   2.785  16.270  0.0378  0.2516 -0.4054
  706TMC3     C10493   4.182   2.568  16.182 -0.9165 -0.3488 -0.4089
  706TMC3     O10494   4.241   2.527  16.285  0.4307  0.1011 -0.0045
  706TMC3     H10495   4.085   2.781  16.045 -1.2308  2.4752  0.7303
  706TMC3    H110496   4.032   2.534  16.392 -0.4838  1.5536  2.4143
  706TMC3    H210497   3.747   2.843  16.297 -1.2259 -1.0148 -1.7093
  706TMC3    C710498   3.804   2.612  16.453  0.0035  0.0634 -0.7905
  706TMC3    C810499   3.886   2.950  16.104 -0.8350  0.2532  0.2062
  706TMC3    O110500   3.856   2.512  16.503 -0.4001  0.0889  0.5020
  706TMC3    O210501   3.768   2.983  16.086 -0.0164 -0.3923  0.0780
  707TMC3    C110502   0.239   1.228   1.114 -0.3583 -0.1771 -0.1211
  707TMC3    C210503   0.238   1.102   1.174  0.3859  0.7653 -0.3553
  707TMC3    C310504   0.118   1.039   1.159 -0.0302  0.2817 -0.2190
  707TMC3    C410505   0.141   1.273   1.025  0.5115  0.7810 -0.4689
  707TMC3    C510506   0.030   1.197   1.010 -0.2764  0.0716 -0.1125
  707TMC3    C610507   0.012   1.081   1.081 -0.0111  0.0886  0.3686
  707TMC3     C10508   0.357   1.302   1.120 -0.4701  0.3838 -0.4388
  707TMC3     O10509   0.460   1.242   1.153 -0.3257 -0.2349 -0.5805
  707TMC3     H10510   0.316   1.078   1.245  0.3625  0.0464 -0.5751
  707TMC3    H110511   0.142   1.369   0.976 -1.0372 -0.1397 -2.3491
  707TMC3    H210512   4.667   1.015   1.074  0.7425 -0.7708 -0.6040
  707TMC3    C710513   4.656   1.258   0.941 -0.1269  0.7948 -0.1069
  707TMC3    C810514   0.104   0.913   1.229 -0.2936  0.3389 -0.4123
  707TMC3    O110515   4.665   1.376   0.911  0.2040 -0.4494  0.8008
  707TMC3    O210516   4.735   0.861   1.246  0.0098 -0.5337 -0.0890
  708MPD2     C10517   2.280   1.332  13.633  0.0954 -0.4365  0.6189
  708MPD2    C110518   2.195   1.271  13.722 -0.4365  0.5011  0.5150
  708MPD2    C210519   2.241   1.241  13.848  0.4634 -0.2484  0.3175
  708MPD2    C310520   2.360   1.282  13.896 -0.0054  0.0591  0.4109
  708MPD2    C410521   2.441   1.357  13.810 -0.9106 -0.3399  0.1644
  708MPD2    C510522   2.401   1.379  13.683 -0.1541  0.1749  0.2253
  708MPD2     H10523   2.179   1.170  13.901 -0.2777  0.8676  0.9206
  708MPD2    H110524   2.537   1.399  13.838 -1.4923  1.2481 -0.2394
  708MPD2    H210525   2.248   1.367  13.536  1.1019 -1.3362 -0.0293
  708MPD2    H310526   2.468   1.431  13.616  0.2341 -2.3156 -1.3076
  708MPD2     N10527   2.405   1.248  14.030 -0.1010 -0.6653 -0.5208
  708MPD2    H510528   2.486   1.300  14.062 -0.8115  0.2058 -0.1604
  708MPD2    N110529   2.068   1.228  13.690 -0.7505  0.1343  0.5340
  708MPD2    H710530   2.011   1.197  13.769 -0.8237 -0.0384  0.4139
  709TMC3    C110531   1.863   1.192  13.587 -0.2366 -0.3682 -0.2423
  709TMC3    C210532   1.831   1.074  13.530 -0.2849 -0.0724 -0.7596
  709TMC3    C310533   1.745   0.994  13.598  0.5898  0.0676 -0.2637
  709TMC3    C410534   1.816   1.232  13.705 -0.7150 -0.1229 -1.3176
  709TMC3    C510535   1.737   1.147  13.777  0.7277  0.2301  0.1230
  709TMC3    C610536   1.709   1.028  13.726 -0.0389 -1.1104  0.2970
  709TMC3     C10537   2.004   1.226  13.567  0.1197 -0.6914  0.3879
  709TMC3     O10538   2.040   1.252  13.457  0.6377 -0.2575  0.6745
  709TMC3     H10539   1.880   1.039  13.440  2.1316 -0.9361  0.8835
  709TMC3    H110540   1.835   1.331  13.743 -0.9542 -1.1292  1.4017
  709TMC3    H210541   1.640   0.963  13.779 -1.2832 -1.2020 -1.4188
  709TMC3    C710542   1.789   1.146  13.909  0.5849 -1.1003  0.2690
  709TMC3    C810543   1.684   0.876  13.540  0.0371 -0.2757  0.5776
  709TMC3    O110544   1.902   1.184  13.919 -0.3071 -0.1446  0.9396
  709TMC3    O210545   1.619   0.804  13.614  0.1506 -0.3699 -0.1330
  710TMC3    C110546   2.995   2.796   0.177 -0.4945  0.9145 -1.0035
  710TMC3    C210547   3.111   2.761   0.125 -0.4848  0.1067  0.3019
  710TMC3    C310548   3.141   2.624   0.113  0.1206 -0.5475  1.1966
  710TMC3    C410549   2.900   2.706   0.210  0.5815 -0.1526  0.0553
  710TMC3    C510550   2.931   2.575   0.196 -0.0866 -0.4412  0.4688
  710TMC3    C610551   3.047   2.530   0.141 -0.0185 -0.8516 -0.1665
  710TMC3     C10552   2.978   2.934   0.230 -0.3351 -0.3859  0.0118
  710TMC3     O10553   3.046   3.021   0.174  0.0487  0.3474  0.7296
  710TMC3     H10554   3.189   2.832   0.101  0.8534 -1.4903 -0.0509
  710TMC3    H110555   2.802   2.738   0.247  0.7444  0.7676 -0.3082
  710TMC3    H210556   3.047   2.427   0.109  0.1084 -0.9563  0.1695
  710TMC3    C710557   2.841   2.475   0.240  0.4534 -0.5782  0.1400
  710TMC3    C810558   3.266   2.584   0.051  0.2330 -0.2777  0.4419
  710TMC3    O110559   2.889   2.367   0.270  0.4917 -0.4800  0.2149
  710TMC3    O210560   3.355   2.666   0.041  0.4454 -0.0194  0.0944
  711TMC3    C110561   2.850   3.147  14.773  0.1902  1.0897  0.4090
  711TMC3    C210562   2.872   3.257  14.849  0.2564  0.5309 -0.2001
  711TMC3    C310563   2.960   3.250  14.949  0.2763  0.4709 -1.1245
  711TMC3    C410564   2.915   3.031  14.791 -0.3224 -0.1841 -0.5803
  711TMC3    C510565   3.013   3.037  14.893  0.6034 -1.1354  0.5108
  711TMC3    C610566   3.037   3.141  14.975 -0.1640  0.4732 -0.3271
  711TMC3     C10567   2.787   3.161  14.638  0.8136 -0.2511 -0.5593
  711TMC3     O10568   2.700   3.245  14.635  0.1543  0.4427 -0.5494
  711TMC3     H10569   2.807   3.342  14.835 -1.8448 -0.7407  1.8027
  711TMC3    H110570   2.910   2.938  14.736 -1.2498  0.5121 -1.6655
  711TMC3    H210571   3.100   3.136  15.063 -0.2840 -2.4545 -0.4273
  711TMC3    C710572   3.073   2.905  14.937  0.5170 -0.4538 -0.2116
  711TMC3    C810573   2.965   3.370  15.031 -0.2668 -0.1456  0.1547
  711TMC3    O110574   3.157   2.921  15.019  0.0130 -0.1920  0.9377
  711TMC3    O210575   2.866   3.440  15.040  0.6929  0.2390  0.4646
  712MPD2     C10576   4.576   4.277  12.953  0.4229  0.5695  0.8792
  712MPD2    C110577   4.485   4.353  13.026 -0.1831  1.1703  0.6138
  712MPD2    C210578   4.525   4.464  13.091  0.3797  0.5005  0.0534
  712MPD2    C310579   4.655   4.506  13.094 -0.9692 -0.3385 -0.2892
  712MPD2    C410580   0.004   4.417  13.031 -0.4523  0.0453 -0.5229
  712MPD2    C510581   4.702   4.307  12.967  0.2750 -0.1658 -0.2081
  712MPD2     H10582   4.452   4.531  13.137 -1.3729 -1.0698 -0.4133
  712MPD2    H110583   0.110   4.432  13.046 -0.6275  0.9883 -0.2210
  712MPD2    H210584   4.552   4.178  12.918  0.5831  1.4661 -1.7472
  712MPD2    H310585   0.030   4.232  12.929 -0.7705 -1.6771  0.9341
  712MPD2     N10586   4.699   4.627  13.161  0.3966  0.8463 -0.1739
  712MPD2    H510587   0.058   4.643  13.165  0.5536  0.7042 -3.8252
  712MPD2    N110588   4.354   4.312  13.032 -0.6507  0.0211 -0.0324
  712MPD2    H710589   4.307   4.352  13.112  2.4006  2.2037  0.6906
  713TMC3    C110590   4.682   0.059  13.319 -0.6589  0.3482  0.4555
  713TMC3    C210591   0.073   0.049  13.351  0.5673 -0.6897  0.1450
  713TMC3    C310592   0.108   0.087  13.481 -0.0004  0.1809 -0.2882
  713TMC3    C410593   4.595   0.128  13.402  0.4331 -0.2870  0.3476
  713TMC3    C510594   4.647   0.179  13.524  0.6895 -0.8207 -0.4864
  713TMC3    C610595   0.026   0.145  13.567  0.2021 -0.2748 -0.1881
  713TMC3     C10596   4.622   4.714  13.226  0.2563 -0.2348  0.1039
  713TMC3     O10597   4.505   4.724  13.209  0.5415 -0.2330  0.1102
  713TMC3     H10598   0.160   0.030  13.290  0.6440  0.2412 -0.0277
  713TMC3    H110599   4.487   0.122  13.395  0.3796  1.9369 -0.8116
  713TMC3    H210600   0.061   0.166  13.667  1.0061  0.7128 -0.6710
  713TMC3    C710601   4.563   0.257  13.616  0.3798 -0.0740  0.0012
  713TMC3    C810602   0.242   0.112  13.512  0.8029  0.0665 -0.0563
  713TMC3    O110603   4.614   0.269  13.726 -0.2335  0.6052  0.6426
  713TMC3    O210604   0.291   0.197  13.438  0.1106 -0.0376 -0.0178
  714MPD2     C10605   2.069   3.651   1.812 -0.6460 -0.4489  0.2303
  714MPD2    C110606   2.025   3.599   1.687  0.2564  0.4152 -0.8986
  714MPD2    C210607   1.890   3.595   1.659  0.4286 -0.3134  0.0375
  714MPD2    C310608   1.796   3.638   1.753  0.6616  0.3913 -0.4158
  714MPD2    C410609   1.843   3.705   1.861 -0.0466  0.4059 -0.4156
  714MPD2    C510610   1.976   3.707   1.893  0.4815  0.0031 -0.3014
  714MPD2     H10611   1.844   3.574   1.563  0.7183  1.3004 -0.4681
  714MPD2    H110612   1.783   3.764   1.929  1.1926  2.1766 -0.8695
  714MPD2    H210613   2.174   3.650   1.838 -0.2442 -3.0647 -1.5049
  714MPD2    H310614   2.007   3.744   1.989 -1.7647 -0.1305  0.4860
  714MPD2     N10615   1.662   3.637   1.716 -1.1620  0.0719 -0.0466
  714MPD2    H510616   1.646   3.582   1.632 -2.8537  0.5958 -0.0502
  714MPD2    N110617   2.119   3.561   1.591  0.8483  0.4477  0.0016
  714MPD2    H710618   2.215   3.545   1.621  0.0029 -2.1227  1.3137
  715TMC3    C110619   2.213   3.482   1.396 -0.4166  0.5749 -0.6420
  715TMC3    C210620   2.189   3.379   1.309 -0.3089 -0.1742  1.0598
  715TMC3    C310621   2.283   3.299   1.255  0.1127 -0.3438  0.3149
  715TMC3    C410622   2.334   3.492   1.459 -0.0030  0.3972 -0.2478
  715TMC3    C510623   2.428   3.398   1.415  0.3780 -0.2635  0.0097
  715TMC3    C610624   2.405   3.304   1.321  0.4184  0.3198 -0.4297
  715TMC3     C10625   2.094   3.531   1.463 -0.2549 -0.6391 -0.6055
  715TMC3     O10626   1.997   3.535   1.394  0.0832  0.8649  0.3035
  715TMC3     H10627   2.087   3.360   1.277 -0.1489 -0.3107  0.6271
  715TMC3    H110628   2.348   3.576   1.525  1.4153  2.0031 -2.6013
  715TMC3    H210629   2.486   3.246   1.280  2.8998  2.0197  2.0580
  715TMC3    C710630   2.559   3.406   1.466 -0.0840  0.5779 -0.6499
  715TMC3    C810631   2.246   3.186   1.177 -0.3520  0.3686 -0.8754
  715TMC3    O110632   2.648   3.349   1.402 -0.0544  0.3334 -0.1028
  715TMC3    O210633   2.299   3.077   1.205 -0.5106 -0.0408 -0.3817
  716MPD2     C10634   1.666   1.379  10.111 -0.1496 -0.6926 -0.4020
  716MPD2    C110635   1.618   1.351   9.988 -0.2146  0.1922 -0.2378
  716MPD2    C210636   1.616   1.217   9.947  0.0098  0.9007 -0.2231
  716MPD2    C310637   1.647   1.114  10.032 -0.4754 -0.7975  0.1880
  716MPD2    C410638   1.694   1.144  10.159  0.4262 -1.2556 -0.3550
  716MPD2    C510639   1.713   1.276  10.192 -0.4979 -0.0937  0.0891
  716MPD2     H10640   1.580   1.195   9.847  1.2057 -0.5242 -0.3353
  716MPD2    H110641   1.739   1.069  10.224  3.5490  0.2939 -0.7409
  716MPD2    H210642   1.674   1.481  10.146 -1.3899  0.3408 -3.1295
  716MPD2    H310643   1.743   1.295  10.294  0.9889  0.3012 -0.4207
  716MPD2     N10644   1.633   0.978   9.988 -0.0253 -0.2930 -0.4286
  716MPD2    H510645   1.590   0.972   9.897 -0.0758 -1.3720 -0.3254
  716MPD2    N110646   1.577   1.462   9.913  0.6525  0.4634  0.1329
  716MPD2    H710647   1.574   1.552   9.959  0.5946  1.3260 -1.5298
  717TMC3    C110648   1.640   0.738   9.997  0.1686 -0.9380 -0.1671
  717TMC3    C210649   1.676   0.732   9.860  0.1928  0.1230  0.1193
  717TMC3    C310650   1.711   0.610   9.815 -0.0495  0.3252  0.7940
  717TMC3    C410651   1.659   0.626  10.074  0.1378  0.2700  0.2360
  717TMC3    C510652   1.699   0.510  10.019 -0.1301  0.4731 -0.0737
  717TMC3    C610653   1.724   0.495   9.888  0.6558  0.4086 -0.3148
  717TMC3     C10654   1.635   0.868  10.064 -0.2950 -0.1268  0.2097
  717TMC3     O10655   1.632   0.866  10.186  0.3821 -0.7394 -0.1632
  717TMC3     H10656   1.675   0.816   9.792 -2.0550  1.2262  1.5154
  717TMC3    H110657   1.637   0.629  10.180  1.9203  0.0499  0.6140
  717TMC3    H210658   1.731   0.396   9.845 -0.0682  0.5772 -0.8253
  717TMC3    C710659   1.748   0.411  10.110 -0.1530 -0.0445 -0.4238
  717TMC3    C810660   1.697   0.586   9.679  0.1749  0.9556 -0.2351
  717TMC3    O110661   1.732   0.295  10.077 -0.4368 -0.4758  0.4402
  717TMC3    O210662   1.601   0.640   9.624 -0.2765  0.9980  0.6561
  718MPD2     C10663   1.604   4.611  13.038 -0.6010  0.0780  0.7774
  718MPD2    C110664   1.615   4.603  12.901  0.1866  0.1254 -0.0717
  718MPD2    C210665   1.510   4.556  12.831  0.3151 -0.1508 -0.3907
  718MPD2    C310666   1.387   4.533  12.890  0.0978 -0.1903  0.5480
  718MPD2    C410667   1.376   4.557  13.022  0.1717  0.0670  0.5870
  718MPD2    C510668   1.483   4.591  13.098 -0.4947  0.0788 -0.0339
  718MPD2     H10669   1.516   4.547  12.724  1.9936  1.8276 -0.4506
  718MPD2    H110670   1.280   4.538  13.069 -0.1369 -0.9697 -0.4622
  718MPD2    H210671   1.686   4.654  13.093 -0.3027  0.1800  0.2474
  718MPD2    H310672   1.480   4.621  13.202  1.4726  0.1107  0.0190
  718MPD2     N10673   1.293   4.473  12.808  0.4281 -0.3168 -0.8739
  718MPD2    H510674   1.329   4.447  12.716  0.1371 -2.9980 -0.2313
  718MPD2    N110675   1.739   4.632  12.838  0.6121 -0.7287 -0.1711
  718MPD2    H710676   1.738   4.612  12.738  0.9358 -2.2010  0.1093
  719TMC3    C110677   1.946   4.731  12.789  0.3559  0.1801  0.0618
  719TMC3    C210678   1.911   4.657  12.677  0.1095 -0.5872  0.4713
  719TMC3    C310679   1.884   4.726  12.563  0.1407 -1.1011 -1.0555
  719TMC3    C410680   1.982   0.124  12.782  0.3545 -0.2922  0.0089
  719TMC3    C510681   1.988   0.175  12.651  0.4579 -0.2453  0.4770
  719TMC3    C610682   1.919   0.117  12.548 -0.2551  0.7268  0.2620
  719TMC3     C10683   1.845   4.707  12.886 -0.0509  0.0012 -0.7388
  719TMC3     O10684   1.838   0.049  12.975  0.0642 -0.1157 -0.4282
  719TMC3     H10685   1.900   4.549  12.677  0.9994 -0.6818  0.6745
  719TMC3    H110686   2.020   0.177  12.868 -0.8298  2.0930 -0.9400
  719TMC3    H210687   1.922   0.169  12.453  2.4128  1.3788  0.6993
  719TMC3    C710688   2.054   0.306  12.628  0.5945  0.1064  0.8751
  719TMC3    C810689   1.767   4.681  12.495  0.2677 -0.0905 -0.9076
  719TMC3    O110690   2.055   0.344  12.511  0.2531  0.2623  0.5554
  719TMC3    O210691   1.711   4.580  12.544  0.1248 -0.6211  0.1944
  720MPD2     C10692   4.556   1.345  13.693  0.0314 -0.1618 -0.0692
  720MPD2    C110693   4.595   1.476  13.680  0.7382 -0.3555 -0.1318
  720MPD2    C210694   4.676   1.528  13.780 -0.0517 -0.0057 -0.0665
  720MPD2    C310695   4.701   1.462  13.894  0.2068 -0.0842  0.4247
  720MPD2    C410696   4.659   1.328  13.910  0.0242  0.1281 -0.3692
  720MPD2    C510697   4.588   1.269  13.807  0.0592 -0.2331  0.7754
  720MPD2     H10698   4.712   1.630  13.767 -1.4084  0.3036 -1.4277
  720MPD2    H110699   4.664   1.273  14.004 -1.2371  1.6401  0.5797
  720MPD2    H210700   4.504   1.296  13.612  2.4301 -2.6750 -0.1274
  720MPD2    H310701   4.539   1.175  13.827 -1.8068  0.7386  0.7504
  720MPD2     N10702   0.041   1.525  13.989  0.2486 -1.0703  0.0776
  720MPD2    H510703   0.090   1.610  13.963  0.0056 -0.9517  0.0178
  720MPD2    N110704   4.560   1.563  13.573  0.2557  0.0467 -0.8801
  720MPD2    H710705   4.597   1.657  13.580 -0.8356  0.2227  2.4975
  721TMC3    C110706   0.167   1.578  14.170  0.3304 -0.1731  0.0348
  721TMC3    C210707   0.153   1.601  14.306 -0.0753  0.0566  1.0450
  721TMC3    C310708   0.249   1.666  14.380  0.4171 -0.5808 -0.4855
  721TMC3    C410709   0.282   1.608  14.108  0.7952  0.9420 -0.1872
  721TMC3    C510710   0.380   1.669  14.186 -0.2558  0.2497  0.2089
  721TMC3    C610711   0.365   1.704  14.315  0.7358 -0.1882  0.7357
  721TMC3     C10712   0.067   1.493  14.119 -0.5519  0.5592 -0.4474
  721TMC3     O10713   0.010   1.409  14.193  0.0290  0.2405  0.3849
  721TMC3     H10714   0.063   1.568  14.358 -0.3418  1.6090  1.5992
  721TMC3    H110715   0.295   1.569  14.007  0.7601  1.0960 -0.2508
  721TMC3    H210716   0.432   1.776  14.360  0.2986 -0.0840  1.2184
  721TMC3    C710717   0.517   1.639  14.147 -0.0968  0.2220 -0.0495
  721TMC3    C810718   0.225   1.752  14.497  0.9325 -0.0459 -0.4767
  721TMC3    O110719   0.550   1.638  14.028 -0.4263 -0.2717  0.5499
  721TMC3    O210720   0.302   1.844  14.527 -0.0252 -0.1376 -0.0826
  722MPD2     C10721   3.489   0.167  13.213 -0.9062  0.3705  0.0308
  722MPD2    C110722   3.413   0.274  13.258 -0.3316 -0.7345  0.0280
  722MPD2    C210723   3.283   0.297  13.206 -0.2199  0.1549  0.7790
  722MPD2    C310724   3.235   0.226  13.102  0.0736  0.1627  0.4918
  722MPD2    C410725   3.312   0.111  13.062  0.7387  0.5214 -0.1619
  722MPD2    C510726   3.433   0.088  13.123  0.6199 -0.4234  0.0251
  722MPD2     H10727   3.227   0.379  13.249 -1.7227  0.7325 -2.2281
  722MPD2    H110728   3.285   0.048  12.978  2.2816 -0.3967  0.0320
  722MPD2    H210729   3.588   0.136  13.245 -0.2362  1.8421 -0.6157
  722MPD2    H310730   3.495   0.006  13.087  1.3497  1.2323 -2.4713
  722MPD2     N10731   3.116   0.258  13.039  0.4103  0.1111  0.5933
  722MPD2    H510732   3.064   0.329  13.089 -0.8654  0.3960 -1.1238
  722MPD2    N110733   3.463   0.374  13.341 -0.3373 -0.6527  0.4334
  722MPD2    H710734   3.400   0.454  13.352 -0.7849 -0.6305 -2.4357
  723TMC3    C110735   2.931   0.245  12.897  0.5860  0.4590  0.0976
  723TMC3    C210736   2.859   0.152  12.826 -0.3606 -0.9376 -0.0094
  723TMC3    C310737   2.722   0.158  12.845  0.2213 -0.2726  0.2874
  723TMC3    C410738   2.887   0.358  12.951  0.2679  0.3793  0.4683
  723TMC3    C510739   2.753   0.369  12.960 -0.5583 -0.4956 -0.2598
  723TMC3    C610740   2.674   0.270  12.911 -0.3298  0.0311 -0.0521
  723TMC3     C10741   3.066   0.208  12.926  0.4073 -0.5226  0.5108
  723TMC3     O10742   3.123   0.142  12.837 -0.2972 -0.4390 -0.0673
  723TMC3     H10743   2.904   0.059  12.792  1.8333 -1.2062  3.6772
  723TMC3    H110744   2.951   0.441  12.976  1.8224  0.3379 -3.3877
  723TMC3    H210745   2.570   0.264  12.942 -0.4372 -0.7348 -0.5446
  723TMC3    C710746   2.694   0.481  13.033 -0.1615 -0.7319  0.4467
  723TMC3    C810747   2.663   0.029  12.877  0.5671 -0.5221 -0.4845
  723TMC3    O110748   2.714   0.593  12.995  0.4537 -0.4178 -0.1500
  723TMC3    O210749   2.605   0.018  12.985  0.3058  0.0476 -0.3646
  724TMC3    C110750   3.069   3.225   9.981  0.1993  0.7117 -0.0423
  724TMC3    C210751   3.044   3.287   9.860  0.5457 -0.9326 -0.5348
  724TMC3    C310752   3.133   3.373   9.807  0.3278 -0.3800  0.1237
  724TMC3    C410753   3.191   3.249  10.040 -0.1535 -0.6848 -0.1463
  724TMC3    C510754   3.292   3.309   9.971 -0.1784 -0.3925  0.3251
  724TMC3    C610755   3.260   3.380   9.855  0.7045  0.4202  0.0254
  724TMC3     C10756   2.952   3.193  10.059 -0.4571  0.1937 -0.3959
  724TMC3     O10757   2.865   3.133   9.995 -0.5127  0.0879 -0.9192
  724TMC3     H10758   2.940   3.303   9.837  0.2261  0.3350  1.7386
  724TMC3    H110759   3.206   3.210  10.140 -1.0229 -1.6127 -0.3745
  724TMC3    H210760   3.341   3.436   9.810  1.0766  0.1375  0.3411
  724TMC3    C710761   3.409   3.359  10.034 -0.0450  0.3101 -0.1809
  724TMC3    C810762   3.087   3.440   9.695 -1.0101 -0.2500  0.0806
  724TMC3    O110763   3.459   3.466   9.995  0.7612  0.5567  0.3340
  724TMC3    O210764   3.000   3.387   9.627 -0.8021 -0.0812  0.1029
  725TMC3    C110765   0.589   2.099  13.299 -0.3601  0.2001  0.4255
  725TMC3    C210766   0.475   2.157  13.251 -0.3047 -0.6704  0.2684
  725TMC3    C310767   0.421   2.087  13.146 -0.5028 -0.2307 -0.4868
  725TMC3    C410768   0.626   1.972  13.272 -0.1956 -0.0452 -0.1706
  725TMC3    C510769   0.557   1.903  13.183 -0.3253  0.1797  0.5619
  725TMC3    C610770   0.451   1.956  13.114 -0.1031 -0.1700 -0.0544
  725TMC3     C10771   0.694   2.192  13.310 -0.3735 -0.3651 -0.4279
  725TMC3     O10772   0.662   2.308  13.346  0.2567 -0.0984 -0.1433
  725TMC3     H10773   0.451   2.261  13.270  1.5620  0.2282 -2.1204
  725TMC3    H110774   0.700   1.913  13.325 -0.2097 -0.2463 -0.3752
  725TMC3    H210775   0.378   1.897  13.060 -0.7495  1.2697 -0.7576
  725TMC3    C710776   0.645   1.813  13.109 -0.8970 -0.0831 -0.5647
  725TMC3    C810777   0.296   2.131  13.097  0.3320  0.5267  0.2978
  725TMC3    O110778   0.763   1.842  13.113 -0.3861  0.3381 -0.3661
  725TMC3    O210779   0.216   2.188  13.174  0.0212  0.4389 -0.2107
  726MPD2     C10780   3.119   3.772  10.780 -0.5106  0.3835 -0.1025
  726MPD2    C110781   3.035   3.843  10.685  0.2622  0.0988  0.5806
  726MPD2    C210782   2.938   3.780  10.605  0.0589 -0.7408 -0.1027
  726MPD2    C310783   2.935   3.640  10.599 -0.1806  0.1997 -0.7923
  726MPD2    C410784   3.026   3.572  10.683 -0.0863  0.7124  0.3379
  726MPD2    C510785   3.111   3.634  10.768 -0.2383  0.2374  0.2121
  726MPD2     H10786   2.871   3.839  10.543  0.0933 -0.2921  0.2825
  726MPD2    H110787   3.031   3.463  10.680 -1.3624  0.6846 -0.5794
  726MPD2    H210788   3.190   3.817  10.849 -0.4744 -2.3417  1.6100
  726MPD2    H310789   3.173   3.567  10.826 -0.6420 -1.3878 -1.2663
  726MPD2     N10790   2.850   3.568  10.525 -0.3691  0.3374  0.1815
  726MPD2    H510791   2.835   3.470  10.547 -4.2924  1.2462  1.4987
  726MPD2    N110792   3.041   3.983  10.667  0.2784  0.1674  0.5898
  726MPD2    H710793   2.982   4.019  10.593  0.7562 -1.4416 -0.5705
  727TMC3    C110794   3.143   4.190  10.649  0.0363 -0.2140 -0.2570
  727TMC3    C210795   3.267   4.245  10.637 -0.3759 -0.0946 -0.3104
  727TMC3    C310796   3.284   4.365  10.570  0.4176  0.3341 -0.2466
  727TMC3    C410797   3.031   4.258  10.607 -0.5817 -0.3275  0.0141
  727TMC3    C510798   3.047   4.378  10.545 -0.3467  0.9161  0.7624
  727TMC3    C610799   3.172   4.429  10.516 -0.5843  0.0084  0.2470
  727TMC3     C10800   3.132   4.063  10.722  0.1926 -0.0318 -0.2324
  727TMC3     O10801   3.216   4.033  10.808 -0.5814  0.0116  0.5533
  727TMC3     H10802   3.344   4.180  10.676  0.4727  0.9426 -0.2816
  727TMC3    H110803   2.937   4.215  10.639 -0.2894 -1.1060 -0.1808
  727TMC3    H210804   3.170   4.523  10.463 -0.7545 -0.7142 -1.0363
  727TMC3    C710805   2.932   4.435  10.484  0.1018 -0.0852 -0.1944
  727TMC3    C810806   3.417   4.403  10.542  0.1883  0.4676 -0.1923
  727TMC3    O110807   2.937   4.554  10.458 -0.3823  0.0097 -0.7978
  727TMC3    O210808   3.506   4.319  10.564  0.6187  0.2760  0.0957
  728TMC3    C110809   2.294   2.436  15.159  0.0150  0.0543 -0.5314
  728TMC3    C210810   2.396   2.524  15.138  0.4383  0.3713 -1.0756
  728TMC3    C310811   2.370   2.609  15.035  0.4482  0.2496 -0.5320
  728TMC3    C410812   2.184   2.405  15.078  0.0470 -0.1894 -0.1286
  728TMC3    C510813   2.180   2.486  14.969  0.3340  0.1104  0.3994
  728TMC3    C610814   2.263   2.597  14.954 -0.5288 -1.0769 -0.1406
  728TMC3     C10815   2.309   2.354  15.282 -0.5519 -0.3736  0.0253
  728TMC3     O10816   2.423   2.363  15.327  0.2460 -0.3528  0.0615
  728TMC3     H10817   2.460   2.555  15.220 -1.1836 -1.0911  0.7699
  728TMC3    H110818   2.116   2.322  15.091 -1.9466  1.7051  1.5572
  728TMC3    H210819   2.248   2.672  14.876  0.6902 -1.3999 -0.6907
  728TMC3    C710820   2.087   2.444  14.863  0.4417  0.6227  0.1040
  728TMC3    C810821   2.424   2.744  15.024 -0.2098  0.0251 -0.1265
  728TMC3    O110822   2.045   2.328  14.865 -0.0045  0.0624  0.4629
  728TMC3    O210823   2.374   2.827  14.952  0.0129  0.3904  0.7888
  729MPD2     C10824   4.612   2.981  17.509 -0.4247 -0.6256  0.3035
  729MPD2    C110825   4.591   3.059  17.401  0.0625  0.2897  0.8327
  729MPD2    C210826   4.558   3.189  17.426  1.1988  0.3028  0.5202
  729MPD2    C310827   4.556   3.243  17.554  0.2173  0.6479 -0.7124
  729MPD2    C410828   4.569   3.158  17.663  0.4175  0.0369 -0.0042
  729MPD2    C510829   4.597   3.027  17.639  0.3110  0.5650  0.0192
  729MPD2     H10830   4.549   3.262  17.346 -2.1929 -0.3578  0.2952
  729MPD2    H110831   4.554   3.193   0.003  0.1182 -1.4909  0.4795
  729MPD2    H210832   4.646   2.878  17.500 -1.2171 -0.7657 -1.1309
  729MPD2    H310833   4.603   2.954  17.719 -0.5728  0.1420 -0.3056
  729MPD2     N10834   4.554   3.384  17.584 -0.0932 -0.1049  0.0596
  729MPD2    H510835   4.555   3.411  17.682 -2.5457 -0.3558  0.1350
  729MPD2    N110836   4.603   3.016  17.270 -0.2781 -0.0374  0.9566
  729MPD2    H710837   4.679   2.951  17.255  1.1687  1.5402  1.4061
  730TMC3    C110838   4.619   3.602  17.549 -0.6485  0.3914 -0.4650
  730TMC3    C210839   4.737   3.662  17.506 -0.5982  0.3276 -0.1866
  730TMC3    C310840   0.077   3.726  17.592  0.3138 -0.4436  0.2970
  730TMC3    C410841   4.583   3.607  17.682  0.6912 -0.0204 -0.8842
  730TMC3    C510842   4.659   3.678   0.004  0.0478 -0.4561 -0.0914
  730TMC3    C610843   0.039   3.735  17.722  0.5048  0.0553  0.1590
  730TMC3     C10844   4.576   3.483  17.480  0.1577  0.3577 -0.6205
  730TMC3     O10845   4.626   3.472  17.371  0.9082  0.2077  1.0929
  730TMC3     H10846   0.025   3.658  17.402 -0.4634 -0.7506 -0.1037
  730TMC3    H110847   4.486   3.581  17.723  0.3021  0.7472 -1.3121
  730TMC3    H210848   0.095   3.790   0.036 -1.7245 -0.3086  2.1209
  730TMC3    C710849   4.629   3.697   0.142 -0.3682 -0.2397 -0.8949
  730TMC3    C810850   0.153   3.833  17.525  0.4957  0.5633  0.0128
  730TMC3    O110851   4.635   3.590   0.204 -0.0358 -0.4768 -0.4184
  730TMC3    O210852   0.149   3.841  17.401  0.0130  0.0441  0.3848
  731MPD2     C10853   0.055   1.252  12.358  0.9309 -0.1117 -0.3220
  731MPD2    C110854   0.191   1.288  12.349  0.9466 -0.1786 -0.1032
  731MPD2    C210855   0.274   1.269  12.459 -0.3030  0.5143  0.4095
  731MPD2    C310856   0.230   1.221  12.580  0.1008  0.9574  0.2773
  731MPD2    C410857   0.088   1.182  12.588  0.3993  0.1809  0.4211
  731MPD2    C510858   0.011   1.203  12.479 -0.2534  0.9517  0.9052
  731MPD2     H10859   0.382   1.280  12.454 -0.4766  1.3405 -1.7995
  731MPD2    H110860   0.058   1.136  12.681  0.0981 -2.8341 -1.1665
  731MPD2    H210861   4.721   1.260  12.280  0.1748  2.1085  0.6174
  731MPD2    H310862   4.650   1.165  12.481 -0.3109  1.0731  0.2708
  731MPD2     N10863   0.317   1.191  12.681  0.0061  0.0162  0.3464
  731MPD2    H510864   0.417   1.185  12.665  0.0702  3.6970 -0.5832
  731MPD2    N110865   0.242   1.343  12.222 -0.4096  0.3033 -0.0977
  731MPD2    H710866   0.172   1.336  12.149  0.8702 -0.5597 -1.2199
  732TMC3    C110867   0.396   1.433  12.059  0.2488  0.6075 -0.0458
  732TMC3    C210868   0.299   1.429  11.960 -0.7827  0.3216 -0.4175
  732TMC3    C310869   0.336   1.483  11.836 -0.2292  0.8628  0.5413
  732TMC3    C410870   0.519   1.499  12.033 -0.3926 -0.4063 -0.2360
  732TMC3    C510871   0.542   1.555  11.912 -0.0748 -0.4848  0.0828
  732TMC3    C610872   0.453   1.549  11.811  0.3558 -0.2536  0.0418
  732TMC3     C10873   0.374   1.383  12.197 -0.2919 -0.1420 -0.3073
  732TMC3     O10874   0.467   1.410  12.271  0.1144 -0.5479 -0.4289
  732TMC3     H10875   0.206   1.376  11.978 -1.4371  2.5921  2.8699
  732TMC3    H110876   0.597   1.481  12.106 -0.1120  0.2631 -0.3714
  732TMC3    H210877   0.466   1.595  11.714  1.1858  2.1203  1.2842
  732TMC3    C710878   0.660   1.626  11.894 -0.9807  0.0010  0.1407
  732TMC3    C810879   0.243   1.491  11.732 -0.7384 -0.0234 -0.1987
  732TMC3    O110880   0.689   1.637  11.778 -0.3590 -0.2239 -0.6635
  732TMC3    O210881   0.277   1.533  11.624  0.2672  0.1728 -0.1040
  733TMC3    C110882   0.876   4.516  12.636  0.6532  0.5571  0.7269
  733TMC3    C210883   0.944   4.464  12.743  0.2875  0.5003 -0.2988
  733TMC3    C310884   1.074   4.439  12.721 -0.5605 -0.2281  0.0346
  733TMC3    C410885   0.932   4.552  12.520 -0.1058 -0.0121 -0.5059
  733TMC3    C510886   1.060   4.529  12.498  0.0938 -0.4420  0.2579
  733TMC3    C610887   1.137   4.468  12.594 -0.1859  0.1347  0.2671
  733TMC3     C10888   0.738   4.557  12.651  0.5090 -0.3882  0.8812
  733TMC3     O10889   0.703   4.650  12.581  0.2523 -0.4234 -0.0747
  733TMC3     H10890   0.895   4.458  12.840  0.5019  1.3129 -0.1466
  733TMC3    H110891   0.876   4.618  12.455 -2.1275 -1.2931 -0.0532
  733TMC3    H210892   1.242   4.446  12.578  0.3926  2.3916  0.8965
  733TMC3    C710893   1.130   4.609  12.391  0.0325  0.3342 -0.1630
  733TMC3    C810894   1.160   4.450  12.838 -0.4710  0.9184 -0.5813
  733TMC3    O110895   1.057   4.686  12.328  0.1574  0.0500  0.1518
  733TMC3    O210896   1.101   4.454  12.948  0.4344  0.0030 -0.4124
  734MPD2     C10897   3.109   2.415  12.364 -0.1860  0.6433  0.4806
  734MPD2    C110898   3.010   2.336  12.307  1.0621 -0.2566 -0.2991
  734MPD2    C210899   2.994   2.340  12.171  0.6965 -1.2401  0.2384
  734MPD2    C310900   3.083   2.397  12.085 -0.2794  0.7288 -0.2637
  734MPD2    C410901   3.190   2.470  12.144 -0.1948 -0.1161  0.6358
  734MPD2    C510902   3.195   2.488  12.279 -0.1889 -0.6260 -0.4263
  734MPD2     H10903   2.909   2.291  12.126 -0.3527  0.4596  0.3580
  734MPD2    H110904   3.254   2.531  12.081  0.3661 -0.4670  0.8667
  734MPD2    H210905   3.118   2.409  12.472  0.4832 -1.5852  0.2823
  734MPD2    H310906   3.261   2.556  12.332 -0.4117  0.5326 -1.6430
  734MPD2     N10907   3.050   2.375  11.948  0.4148  0.0196 -0.4089
  734MPD2    H510908   2.961   2.327  11.942  1.1906 -1.5101  0.1500
  734MPD2    N110909   2.928   2.253  12.391  0.6021 -0.1544  0.7913
  734MPD2    H710910   2.956   2.252  12.488  0.7850  3.6726  0.7731
  735TMC3    C110911   2.788   2.073  12.445 -0.4147  0.1776  0.0257
  735TMC3    C210912   2.679   2.006  12.401 -0.0383  0.5295 -0.0263
  735TMC3    C310913   2.688   1.871  12.388 -0.1134 -0.0737 -0.0145
  735TMC3    C410914   2.895   1.997  12.482  0.2650 -0.2982  0.3322
  735TMC3    C510915   2.891   1.855  12.494  0.0528 -0.3717  0.0614
  735TMC3    C610916   2.784   1.788  12.445 -0.3240  0.3482  0.3335
  735TMC3     C10917   2.825   2.175  12.347 -0.0800 -0.4413  0.2878
  735TMC3     O10918   2.775   2.160  12.233 -0.2142  0.3158 -0.0814
  735TMC3     H10919   2.595   2.053  12.352 -0.5113  1.6519  1.8410
  735TMC3    H110920   2.983   2.053  12.513 -0.7837 -0.3060  3.2852
  735TMC3    H210921   2.779   1.685  12.413  0.7778  0.1222  0.8875
  735TMC3    C710922   3.016   1.787  12.509 -0.1513  0.0135 -0.2817
  735TMC3    C810923   2.642   1.826  12.256 -0.0662  0.3524 -0.3929
  735TMC3    O110924   3.117   1.861  12.499 -0.2445 -0.2769  0.0358
  735TMC3    O210925   2.613   1.708  12.245  0.0578 -0.4479 -0.0167
  736MPD2     C10926   3.092   1.430  12.548 -0.7376 -0.2643  0.5659
  736MPD2    C110927   3.112   1.561  12.501  0.3009 -0.4435  0.1386
  736MPD2    C210928   3.220   1.589  12.426  0.6444  0.5042  0.8030
  736MPD2    C310929   3.317   1.491  12.396  0.4840 -0.4389  0.4697
  736MPD2    C410930   3.304   1.360  12.441 -0.1582 -0.4008 -0.1877
  736MPD2    C510931   3.190   1.331  12.519  0.3376 -0.4196 -0.1612
  736MPD2     H10932   3.230   1.689  12.384  1.1831  0.5644  1.0611
  736MPD2    H110933   3.378   1.284  12.418 -0.6705 -0.9327 -0.0473
  736MPD2    H210934   3.008   1.398  12.609 -0.7030 -2.0013 -0.3033
  736MPD2    H310935   3.184   1.228  12.552 -0.1570  0.1492  1.5620
  736MPD2     N10936   3.430   1.523  12.319  0.4883 -0.5151  0.4143
  736MPD2    H510937   3.472   1.445  12.269  1.4668  0.3739 -0.1495
  736MPD2    N110938   3.007   1.646  12.509 -0.1081  0.4902 -0.1483
  736MPD2    H710939   2.915   1.606  12.527  1.2707 -2.6778 -0.1887
  737TMC3    C110940   3.534   1.684  12.162 -0.0155 -1.3071  0.9049
  737TMC3    C210941   3.549   1.811  12.115  0.4062  0.7597  0.0118
  737TMC3    C310942   3.611   1.821  11.997  0.4383 -0.3932  0.5595
  737TMC3    C410943   3.585   1.578  12.096  0.1155  0.0737 -0.0905
  737TMC3    C510944   3.631   1.592  11.971 -0.4000 -0.5467 -0.1453
  737TMC3    C610945   3.654   1.719  11.918  0.5172 -0.3835 -0.0913
  737TMC3     C10946   3.461   1.656  12.288 -0.6550 -0.0937  0.5389
  737TMC3     O10947   3.450   1.754  12.361  0.2255  0.1392 -0.6592
  737TMC3     H10948   3.501   1.898  12.158 -2.0003 -0.1550 -0.8420
  737TMC3    H110949   3.608   1.486  12.149 -0.0255 -0.3537 -0.7618
  737TMC3    H210950   3.669   1.744  11.813 -0.2969 -2.4447 -0.6876
  737TMC3    C710951   3.696   1.472  11.908  0.1472 -0.0101 -0.0965
  737TMC3    C810952   3.614   1.953  11.939  0.1881  0.1103 -0.3242
  737TMC3    O110953   3.684   1.365  11.965  0.4652  0.1600  0.2460
  737TMC3    O210954   3.661   2.036  12.021  0.0334  0.4208  0.1861
  738MPD2     C10955   3.810   4.444  14.883 -0.2920 -0.0404  0.0087
  738MPD2    C110956   3.752   4.559  14.946 -0.3583 -0.2358  0.0895
  738MPD2    C210957   3.834   4.645  15.011 -0.1283  0.1852 -0.7746
  738MPD2    C310958   3.971   4.639  15.002 -0.4530 -0.4039  0.6278
  738MPD2    C410959   4.027   4.531  14.935 -0.5761 -0.1879  0.0034
  738MPD2    C510960   3.948   4.436  14.875 -0.4952  0.5503  0.6942
  738MPD2     H10961   3.791   4.731  15.063  1.8970  0.4068  0.5113
  738MPD2    H110962   4.135   4.529  14.924 -0.6141 -1.4725 -0.1815
  738MPD2    H210963   3.752   4.362  14.844 -2.0709  2.1007 -1.8685
  738MPD2    H310964   3.993   4.356  14.817 -1.3804 -0.8021  1.8647
  738MPD2     N10965   4.066   4.727  15.049 -0.7087 -0.5312 -0.0875
  738MPD2    H510966   4.165   4.711  15.030 -0.6065  0.3250 -0.2590
  738MPD2    N110967   3.616   4.584  14.938 -0.1266  0.2296 -0.5043
  738MPD2    H710968   3.577   4.666  14.984 -0.4165  1.4624 -2.9618
  739TMC3    C110969   4.152   0.180  15.117 -0.2110  0.9675 -0.0931
  739TMC3    C210970   4.208   0.198  14.995  0.2945 -0.2578  0.1979
  739TMC3    C310971   4.303   0.297  14.976 -0.0299 -0.2793 -0.5267
  739TMC3    C410972   4.184   0.262  15.225  0.2034 -0.4040  0.1654
  739TMC3    C510973   4.276   0.363  15.196  0.6309  0.9956  0.8486
  739TMC3    C610974   4.344   0.379  15.083 -0.1154 -0.3854 -0.2064
  739TMC3     C10975   4.039   0.096  15.127  0.8369  0.5801 -0.7654
  739TMC3     O10976   3.944   0.119  15.204  0.3772 -0.0833  0.1529
  739TMC3     H10977   4.145   0.172  14.911 -0.1205  1.4303 -0.0193
  739TMC3    H110978   4.139   0.251  15.323 -0.7016  0.0620 -0.2001
  739TMC3    H210979   4.413   0.462  15.076 -0.5932 -0.0860 -1.4978
  739TMC3    C710980   4.296   0.470  15.297 -0.2929  0.4878  0.3456
  739TMC3    C810981   4.305   0.354  14.845 -0.1060  0.3018 -0.1220
  739TMC3    O110982   4.399   0.534  15.282  0.2561 -0.6070  0.0977
  739TMC3    O210983   4.208   0.339  14.769  0.2557  0.0116  0.1538
  740TMC3    C110984   4.136   1.851  14.366  0.9786 -0.1924  0.4127
  740TMC3    C210985   4.065   1.733  14.372 -0.1246  0.2350 -0.5740
  740TMC3    C310986   4.135   1.617  14.342 -0.6577  0.2055  0.6546
  740TMC3    C410987   4.265   1.858  14.326  0.0673 -0.3201  0.6331
  740TMC3    C510988   4.322   1.743  14.277 -0.0529  0.8384 -0.5397
  740TMC3    C610989   4.257   1.622  14.280  0.2654  0.3460 -0.0798
  740TMC3     C10990   4.064   1.972  14.403 -0.5667  0.6257 -0.1789
  740TMC3     O10991   4.097   2.080  14.353 -0.1375  1.1806  0.5305
  740TMC3     H10992   3.959   1.725  14.393 -0.1741 -1.4101 -1.4341
  740TMC3    H110993   4.316   1.951  14.307 -0.1058 -0.4870 -0.6548
  740TMC3    H210994   4.306   1.531  14.248 -2.3755 -1.6990  1.7430
  740TMC3    C710995   4.434   1.763  14.188 -0.0259  0.4934 -0.3486
  740TMC3    C810996   4.066   1.499  14.364 -0.6269 -0.1803 -0.1535
  740TMC3    O110997   4.447   1.686  14.096  0.4365  0.0754 -0.3348
  740TMC3    O210998   3.948   1.507  14.369  0.6496 -0.5313 -0.3801
  741TMC3    C110999   4.013   0.639  14.797  0.0273 -0.1629 -0.3220
  741TMC3    C211000   3.953   0.671  14.681  0.2345  0.3497  0.1610
  741TMC3    C311001   3.829   0.607  14.657  0.3228 -0.4314 -0.0235
  741TMC3    C411002   3.965   0.548  14.886  0.5177 -0.3762  0.2537
  741TMC3    C511003   3.841   0.493  14.862 -0.0089  0.3045  0.1753
  741TMC3    C611004   3.774   0.519  14.742 -0.3342 -0.3287 -0.0151
  741TMC3     C11005   4.146   0.690  14.832  0.2225  0.4296  0.3576
  741TMC3     O11006   4.203   0.621  14.916 -0.3465  0.3332  0.0424
  741TMC3     H11007   3.986   0.743  14.606  1.0478  0.4157  0.5876
  741TMC3    H111008   4.009   0.534  14.983 -1.8285  2.2799  1.7116
  741TMC3    H211009   3.683   0.463  14.724 -2.7676  3.4720  0.6382
  741TMC3    C711010   3.780   0.435  14.981 -0.2601  0.5094  0.0618
  741TMC3    C811011   3.741   0.659  14.548 -0.4747  0.2734 -0.5979
  741TMC3    O111012   3.846   0.373  15.065  0.3673 -0.6424 -0.1208
  741TMC3    O211013   3.771   0.766  14.497  0.3987  0.5671  0.5000
  742TMC3    C111014   2.828   3.677  14.787 -0.1828  0.4189  0.3118
  742TMC3    C211015   2.796   3.703  14.659 -0.9780  0.4819  0.6728
  742TMC3    C311016   2.875   3.793  14.590 -0.2034  0.0682  0.7736
  742TMC3    C411017   2.936   3.729  14.857 -1.0108 -0.3792 -0.3416
  742TMC3    C511018   3.023   3.805  14.782 -0.7051 -0.1164 -0.5959
  742TMC3    C611019   2.992   3.835  14.649  0.2552  0.7513  1.0126
  742TMC3     C11020   2.715   3.644  14.870 -0.7060 -0.5673 -0.3423
  742TMC3     O11021   2.643   3.554  14.825  0.4304  0.0119  0.0584
  742TMC3     H11022   2.696   3.669  14.636 -0.9654 -0.1472  1.5236
  742TMC3    H111023   2.962   3.684  14.952 -0.4115 -0.7295 -0.6700
  742TMC3    H211024   3.041   3.924  14.611 -0.6857  0.5157 -0.7333
  742TMC3    C711025   3.154   3.827  14.830 -0.7509 -0.0659  0.0691
  742TMC3    C811026   2.843   3.830  14.461 -0.0213 -0.5362 -0.1532
  742TMC3    O111027   3.244   3.838  14.752 -0.2595  0.1857  0.0112
  742TMC3    O211028   2.901   3.929  14.422  0.4904  0.3644 -0.1457
  743MPD2     C11029   1.103   0.337   1.630  0.1075  0.0562 -0.1271
  743MPD2    C111030   1.138   0.383   1.504 -0.6631  0.0554  0.2691
  743MPD2    C211031   1.272   0.401   1.474  0.8983  0.0368 -0.2663
  743MPD2    C311032   1.373   0.380   1.562  0.3939 -0.4143  0.0229
  743MPD2    C411033   1.341   0.330   1.686 -0.0527  0.0009  0.0299
  743MPD2    C511034   1.204   0.322   1.713  0.4750 -0.1618  0.4723
  743MPD2     H11035   1.317   0.420   1.377 -0.7107  0.7447 -0.8623
  743MPD2    H111036   1.418   0.309   1.759  0.8481  0.4293 -0.8014
  743MPD2    H211037   0.999   0.321   1.656  0.2456 -3.3689 -1.7708
  743MPD2    H311038   1.187   0.284   1.813 -0.0424  0.5631  0.6553
  743MPD2     N11039   1.505   0.407   1.513 -0.3976  0.1442 -0.3716
  743MPD2    H511040   1.517   0.450   1.422 -0.7763  0.1799 -0.4059
  743MPD2    N111041   1.027   0.404   1.410  0.3343 -0.1648 -0.4661
  743MPD2    H711042   0.936   0.363   1.426 -0.0507 -0.0262 -2.2984
  744TMC3    C111043   0.919   0.453   1.200  0.1954  0.3601 -0.3867
  744TMC3    C211044   0.791   0.433   1.251  0.0205 -0.0657  0.6479
  744TMC3    C311045   0.689   0.428   1.161 -0.0963  0.0611 -0.5170
  744TMC3    C411046   0.944   0.447   1.069  0.0272 -0.3892  0.1247
  744TMC3    C511047   0.846   0.423   0.981  0.8965 -0.1848 -0.6560
  744TMC3    C611048   0.715   0.414   1.025 -0.8903 -0.6619  0.3304
  744TMC3     C11049   1.039   0.470   1.287  0.3705  0.7349  0.4890
  744TMC3     O11050   1.139   0.527   1.241 -0.2763 -0.1142 -0.0260
  744TMC3     H11051   0.778   0.447   1.358 -2.4266 -1.7363  0.5664
  744TMC3    H111052   1.042   0.450   1.024  0.4736 -2.4049  0.9626
  744TMC3    H211053   0.631   0.426   0.957 -1.4062  1.1495  1.2957
  744TMC3    C711054   0.865   0.488   0.854  0.1612  0.3077 -0.2897
  744TMC3    C811055   0.573   0.510   1.190 -0.2198 -0.4557 -0.0964
  744TMC3    O111056   0.918   0.599   0.856 -0.2847  0.5489  0.1517
  744TMC3    O211057   0.509   0.561   1.094  0.3878 -0.5000  0.2633
  745TMC3    C111058   4.142   4.272  12.951  0.3488 -0.3172 -0.1854
  745TMC3    C211059   4.095   4.250  13.075 -0.2461  0.5611 -0.1480
  745TMC3    C311060   3.968   4.302  13.097  0.1221 -0.1832  0.2009
  745TMC3    C411061   4.086   4.363  12.870 -0.0359  0.2595 -0.5698
  745TMC3    C511062   3.974   4.434  12.905  0.2478  0.2529  0.4207
  745TMC3    C611063   3.908   4.394  13.018  0.0192  1.0167  0.3090
  745TMC3     C11064   4.283   4.260  12.926  0.9195 -0.3740  1.0049
  745TMC3     O11065   4.322   4.248  12.809  0.6196  0.0739  0.5902
  745TMC3     H11066   4.143   4.180  13.143 -0.9744 -0.7427 -0.9734
  745TMC3    H111067   4.118   4.369  12.767  0.9416 -2.5448 -0.4298
  745TMC3    H211068   3.826   4.455  13.056 -0.8038  2.1218 -3.2501
  745TMC3    C711069   3.962   4.569  12.865  0.4653 -0.3983  0.3416
  745TMC3    C811070   3.896   4.277  13.226  0.1578 -0.1101  0.1583
  745TMC3    O111071   3.865   4.634  12.899  0.3177 -0.1320 -0.2190
  745TMC3    O211072   3.775   4.286  13.233 -0.0804 -0.1361  0.0183
  746TMC3    C111073   2.219   1.509  10.743  0.4541 -0.0823  0.3974
  746TMC3    C211074   2.215   1.531  10.613  0.6373 -0.3511 -0.1371
  746TMC3    C311075   2.115   1.470  10.532  0.4011  0.2536 -0.1010
  746TMC3    C411076   2.121   1.442  10.802  0.2123  0.6157  0.1598
  746TMC3    C511077   2.012   1.401  10.723  0.3077  0.1954  0.0077
  746TMC3    C611078   2.005   1.411  10.585  0.0198  0.0224  0.3676
  746TMC3     C11079   2.257   1.628  10.820  0.9766 -0.0694 -0.1580
  746TMC3     O11080   2.252   1.633  10.945 -0.1763  0.0252  0.2694
  746TMC3     H11081   2.311   1.555  10.568  0.9251 -0.3170  0.4873
  746TMC3    H111082   2.142   1.417  10.906  3.1459  0.9691 -0.3561
  746TMC3    H211083   1.929   1.355  10.532 -0.7948  1.9548 -0.4664
  746TMC3    C711084   1.906   1.327  10.789 -0.0011  0.5402  0.4846
  746TMC3    C811085   2.117   1.489  10.393  0.5390  0.5198 -0.1336
  746TMC3    O111086   1.816   1.292  10.715 -0.1404 -0.0634  0.4275
  746TMC3    O211087   2.228   1.484  10.336 -0.8026  0.8037 -0.2147
  747TMC3    C111088   4.108   1.689  11.008  0.4025  0.4355  0.2385
  747TMC3    C211089   4.026   1.588  11.060  0.4380  0.9862  0.0359
  747TMC3    C311090   4.057   1.545  11.182  0.5519  0.1785 -0.1323
  747TMC3    C411091   4.218   1.735  11.073  0.4124 -0.2119  0.4624
  747TMC3    C511092   4.249   1.677  11.195  0.0357 -0.2026  0.9316
  747TMC3    C611093   4.163   1.589  11.253 -0.0641  0.1753 -0.3354
  747TMC3     C11094   4.087   1.743  10.873 -0.3503 -0.1579 -0.5046
  747TMC3     O11095   4.073   1.866  10.868 -0.0202  0.4129 -0.1580
  747TMC3     H11096   3.941   1.556  11.001  0.8271  0.1841 -0.0886
  747TMC3    H111097   4.273   1.817  11.026 -1.0714 -0.8375 -2.3522
  747TMC3    H211098   4.194   1.550  11.350 -3.4195 -1.8727 -0.0757
  747TMC3    C711099   4.342   1.746  11.283  1.0894  0.4768 -0.2332
  747TMC3    C811100   3.952   1.461  11.245 -0.5988 -0.0543 -0.1766
  747TMC3    O111101   4.334   1.711  11.401 -0.0543 -0.1011 -0.3159
  747TMC3    O211102   3.897   1.367  11.188  0.3468 -0.0248 -0.1960
  748MPD2     C11103   0.799   1.665   0.751  0.3175 -0.4153  0.1570
  748MPD2    C111104   0.731   1.762   0.817 -0.0062 -0.9308 -0.6716
  748MPD2    C211105   0.809   1.855   0.897  0.4949  0.4388  0.3097
  748MPD2    C311106   0.943   1.843   0.894 -0.2375 -0.4185 -0.7092
  748MPD2    C411107   1.006   1.741   0.822 -0.6113 -0.5868  0.9954
  748MPD2    C511108   0.935   1.653   0.746  0.3977  0.0176  0.1983
  748MPD2     H11109   0.764   1.930   0.961 -0.0167  1.9104 -1.7686
  748MPD2    H111110   1.113   1.737   0.803 -0.9724  0.3480 -1.1932
  748MPD2    H211111   0.753   1.591   0.687 -3.0344  0.8004  1.1833
  748MPD2    H311112   0.983   1.579   0.683  0.1131 -0.8322  0.9902
  748MPD2     N11113   1.015   1.933   0.970  0.5362 -0.4991 -0.5520
  748MPD2    H511114   0.966   1.997   1.030  0.7417 -0.4770 -0.4062
  748MPD2    N111115   0.592   1.757   0.823  0.3707  0.1588  0.4734
  748MPD2    H711116   0.554   1.681   0.768  0.6308 -1.8376  3.0288
  749TMC3    C111117   1.173   2.054   1.085 -1.0195  0.0008 -0.6914
  749TMC3    C211118   1.254   2.027   1.188 -0.9708 -0.8493  0.8058
  749TMC3    C311119   1.296   2.131   1.269 -0.5688 -0.0629 -0.5344
  749TMC3    C411120   1.151   2.182   1.041  0.1184  0.4567 -0.4507
  749TMC3    C511121   1.208   2.281   1.118 -0.3274  0.4987 -0.5102
  749TMC3    C611122   1.270   2.261   1.233  0.5950  0.2968 -0.3346
  749TMC3     C11123   1.144   1.947   0.987  0.5255  0.0114 -0.2892
  749TMC3     O11124   1.229   1.865   0.955 -0.0519  0.4854  0.2809
  749TMC3     H11125   1.270   1.922   1.207  0.1447 -1.0212 -1.0717
  749TMC3    H111126   1.090   2.202   0.954  0.8013 -1.1634 -1.3045
  749TMC3    H211127   1.318   2.343   1.285 -0.4053  0.1686  0.7873
  749TMC3    C711128   1.191   2.418   1.070 -0.1662 -0.4774 -0.0339
  749TMC3    C811129   1.419   2.111   1.346 -0.5338  0.3425  0.1267
  749TMC3    O111130   1.169   2.506   1.155  0.4203  0.1299 -0.0109
  749TMC3    O211131   1.464   2.206   1.407 -0.2111 -0.1744 -0.1898
  750MPD2     C11132   1.656   3.687  11.765  0.0960  0.3018  0.1308
  750MPD2    C111133   1.667   3.556  11.809  0.6632 -0.3015 -0.2965
  750MPD2    C211134   1.725   3.461  11.726 -0.0558  0.1524 -0.4433
  750MPD2    C311135   1.777   3.502  11.604 -0.2060  0.2209  0.9390
  750MPD2    C411136   1.766   3.634  11.563 -0.7362  0.3375  0.2661
  750MPD2    C511137   1.700   3.729  11.641  0.1882  0.1290  0.4894
  750MPD2     H11138   1.725   3.355  11.748  0.1209  0.3979  0.7434
  750MPD2    H111139   1.779   3.666  11.461 -2.3729  0.4629  0.0829
  750MPD2    H211140   1.608   3.760  11.828  0.4429 -0.0915  0.8455
  750MPD2    H311141   1.678   3.827  11.600 -1.9351 -1.3497 -1.8169
  750MPD2     N11142   1.849   3.421  11.513 -0.0470  0.5056 -0.2056
  750MPD2    H511143   1.890   3.460  11.428  1.2205 -0.0451  0.1454
  750MPD2    N111144   1.624   3.528  11.942  0.1269  0.4992  0.8438
  750MPD2    H711145   1.588   3.613  11.985  1.0706  2.0536 -1.4357
  751TMC3    C111146   1.934   3.224  11.419  0.1700  0.5286 -0.3597
  751TMC3    C211147   1.986   3.103  11.449 -0.2555 -0.1391  0.2502
  751TMC3    C311148   1.991   3.012  11.352 -0.5948  0.1210  0.0611
  751TMC3    C411149   1.903   3.267  11.293 -0.2896  0.2475 -0.0074
  751TMC3    C511150   1.905   3.166  11.197  0.4853  0.0365 -0.2301
  751TMC3    C611151   1.952   3.040  11.226  0.4111 -0.3929 -0.9959
  751TMC3     C11152   1.876   3.290  11.530 -0.5498 -0.8590 -0.5735
  751TMC3     O11153   1.852   3.219  11.627 -0.3619  0.2926  0.0337
  751TMC3     H11154   2.038   3.085  11.543  0.3744 -3.5097 -0.7400
  751TMC3    H111155   1.882   3.372  11.274 -0.2392 -0.0466 -1.6668
  751TMC3    H211156   1.961   2.971  11.143  1.3395  1.3439 -2.3354
  751TMC3    C711157   1.887   3.202  11.055  0.1203 -0.1324 -0.0210
  751TMC3    C811158   1.996   2.866  11.375 -0.1777  0.0929 -0.1410
  751TMC3    O111159   1.930   3.119  10.978  0.1028  0.1036 -0.4862
  751TMC3    O211160   1.970   2.793  11.286 -0.0916 -0.6480 -0.1060
  752TMC3    C111161   0.527   2.359  17.433 -0.4359 -0.3639 -0.5882
  752TMC3    C211162   0.515   2.223  17.440 -0.0412  0.2318  0.3567
  752TMC3    C311163   0.454   2.163  17.548  0.0091  1.4617 -0.0548
  752TMC3    C411164   0.473   2.439  17.527  0.4026 -0.5521 -0.8732
  752TMC3    C511165   0.415   2.375  17.638  0.6791  0.6293 -0.0578
  752TMC3    C611166   0.400   2.239  17.645  0.1838  0.3442  0.2157
  752TMC3     C11167   0.560   2.416  17.301  0.0760 -0.3956  0.1222
  752TMC3     O11168   0.624   2.346  17.226  0.6990 -0.3683  0.4013
  752TMC3     H11169   0.560   2.171  17.356  1.1234 -0.4399  1.3976
  752TMC3    H111170   0.484   2.546  17.518  1.5761 -0.6760 -0.8638
  752TMC3    H211171   0.348   2.199  17.732 -3.7761  1.3348 -1.7050
  752TMC3    C711172   0.314   2.465  17.699 -0.6108  0.5457 -0.5551
  752TMC3    C811173   0.429   2.024  17.547  0.3864  0.1877 -0.4594
  752TMC3    O111174   0.355   2.582  17.717 -0.2287 -0.2480  0.3444
  752TMC3    O211175   0.352   1.984  17.632 -1.0824  0.3059  0.0389
  753TMC3    C111176   2.549   4.218  13.278 -0.2325 -0.3292  0.1807
  753TMC3    C211177   2.498   4.214  13.402 -0.0169  0.8570  0.1004
  753TMC3    C311178   2.453   4.094  13.442 -0.1145  0.5334  0.0405
  753TMC3    C411179   2.555   4.108  13.192 -0.5828  0.3578 -0.4250
  753TMC3    C511180   2.486   3.998  13.234  0.5764 -0.1930 -0.3094
  753TMC3    C611181   2.436   3.987  13.362 -0.0876  0.5261  0.3305
  753TMC3     C11182   2.640   4.329  13.262  0.4281 -0.0616  0.1970
  753TMC3     O11183   2.601   4.432  13.321  0.1420  0.6145  0.2752
  753TMC3     H11184   2.496   4.305  13.461  0.6979  0.6061  0.4989
  753TMC3    H111185   2.593   4.106  13.091 -0.3671  1.1693 -0.3644
  753TMC3    H211186   2.392   3.895  13.399 -0.1246  0.6533  0.6049
  753TMC3    C711187   2.458   3.892  13.136 -0.6980 -0.1682  0.0166
  753TMC3    C811188   2.424   4.067  13.579  0.0470 -0.2857  0.3874
  753TMC3    O111189   2.447   3.912  13.017  0.3189  0.4653  0.9010
  753TMC3    O211190   2.394   3.947  13.607  0.0788 -0.1891  0.1985
  754MPD2     C11191   1.897   2.793  13.158 -0.1738 -0.4754 -0.3699
  754MPD2    C111192   1.834   2.685  13.207  0.2248 -0.0367  0.0696
  754MPD2    C211193   1.717   2.707  13.275  0.0728 -0.3047  0.7601
  754MPD2    C311194   1.657   2.830  13.273  0.1912 -0.3016  0.4362
  754MPD2    C411195   1.716   2.943  13.216  0.0612  0.1194  0.1065
  754MPD2    C511196   1.839   2.920  13.153 -0.3901  0.4543  0.1590
  754MPD2     H11197   1.659   2.621  13.306 -1.4287  0.3444 -0.2454
  754MPD2    H111198   1.671   3.041  13.224  2.0006  0.9357  0.9445
  754MPD2    H211199   1.992   2.784  13.108 -0.4160  1.4317 -1.1792
  754MPD2    H311200   1.888   3.001  13.101  0.2676  1.5581  2.4723
  754MPD2     N11201   1.529   2.863  13.323  1.2621  0.2554  0.0420
  754MPD2    H511202   1.491   2.955  13.304  0.2197 -0.4663 -1.3546
  754MPD2    N111203   1.894   2.554  13.194 -0.0951  0.3129 -0.1089
  754MPD2    H711204   1.976   2.547  13.135  1.7096  1.6496  2.2083
  755MPD2     C11205   1.082   3.570  13.232  0.3716 -0.1482 -0.2868
  755MPD2    C111206   0.978   3.477  13.224 -0.1686  0.2098  0.7227
  755MPD2    C211207   1.008   3.348  13.243  0.4255  0.0870  0.3215
  755MPD2    C311208   1.133   3.303  13.286 -0.0056  0.4539  0.3256
  755MPD2    C411209   1.231   3.395  13.305 -0.4185 -0.1491  0.2044
  755MPD2    C511210   1.209   3.525  13.276  0.0207  0.5386 -0.0660
  755MPD2     H11211   0.924   3.279  13.234  0.9545 -0.3481 -1.3937
  755MPD2    H111212   1.330   3.366  13.339 -1.1959 -1.4896  1.2977
  755MPD2    H211213   1.061   3.676  13.216  1.2361  0.2791  1.4006
  755MPD2    H311214   1.292   3.595  13.269  1.3504 -1.1677 -1.1208
  755MPD2     N11215   1.160   3.171  13.324 -0.6450  0.1048  0.0674
  755MPD2    H511216   1.253   3.157  13.363 -1.0256 -1.4042  0.4400
  755MPD2    N111217   0.850   3.513  13.177  0.3127 -0.1867 -0.3184
  755MPD2    H711218   0.790   3.432  13.169 -1.1053  0.8546 -0.4700
  756MPD2     C11219   0.778   3.829   9.709  0.3687 -0.2626 -0.2283
  756MPD2    C111220   0.701   3.833   9.825  0.2457 -0.0162 -0.0544
  756MPD2    C211221   0.572   3.785   9.823  0.6446  0.2678  0.5025
  756MPD2    C311222   0.511   3.736   9.707 -0.0047 -0.1052  0.3251
  756MPD2    C411223   0.586   3.744   9.590  0.5103  0.0883 -0.1351
  756MPD2    C511224   0.715   3.788   9.596  0.1901 -0.5592 -0.0254
  756MPD2     H11225   0.517   3.772   9.915 -0.4615  2.6543  0.1612
  756MPD2    H111226   0.552   3.716   9.491 -0.1858  1.2078 -0.2119
  756MPD2    H211227   0.878   3.869   9.699  0.3550  0.5486  2.8969
  756MPD2    H311228   0.773   3.797   9.505 -0.1061 -2.0300 -0.3522
  756MPD2     N11229   0.381   3.685   9.722 -0.0495 -0.0977 -0.2412
  756MPD2    H511230   0.341   3.674   9.814 -1.1106  1.5396 -0.5121
  756MPD2    N111231   0.743   3.889   9.945 -0.0552 -0.1550  0.0169
  756MPD2    H711232   0.699   3.866  10.033 -2.8841  0.6831 -1.1988
  757MPD2     C11233   0.230   3.110  10.309 -0.2571  0.5590 -0.1546
  757MPD2    C111234   0.322   3.200  10.272  0.0146  0.0610 -0.2116
  757MPD2    C211235   0.287   3.298  10.179  0.2998 -0.0157 -0.1569
  757MPD2    C311236   0.168   3.302  10.111  0.2719  0.2543  0.1077
  757MPD2    C411237   0.086   3.196  10.144  0.0261 -0.1391  0.8616
  757MPD2    C511238   0.115   3.107  10.238  0.5154  0.5655  0.2711
  757MPD2     H11239   0.367   3.369  10.159 -0.2444  0.6145 -0.1136
  757MPD2    H111240   4.736   3.173  10.089  1.4989 -0.1900 -1.5569
  757MPD2    H211241   0.245   3.045  10.395  1.3545  2.7471  1.2123
  757MPD2    H311242   0.043   3.027  10.254 -0.4408  1.8962  2.5485
  757MPD2     N11243   0.145   3.401  10.015  1.2666 -0.3058 -0.7486
  757MPD2    H511244   0.224   3.460   9.994  3.0601 -3.0463 -1.7719
  757MPD2    N111245   0.453   3.205  10.336  0.3961  0.3404  0.2575
  757MPD2    H711246   0.483   3.120  10.383  1.6976  1.6155  1.6759
  758MPD2     C11247   1.157   2.602  15.731  0.6093 -0.5904 -0.5237
  758MPD2    C111248   1.224   2.518  15.823  0.6408 -0.6292 -0.3558
  758MPD2    C211249   1.159   2.489  15.940  0.0789  0.0431 -0.0910
  758MPD2    C311250   1.043   2.555  15.979 -0.1509  0.2038 -0.0587
  758MPD2    C411251   0.987   2.645  15.895 -0.0918  0.2872  0.1835
  758MPD2    C511252   1.046   2.667  15.776 -0.6749 -0.2611  0.7376
  758MPD2     H11253   1.216   2.416  15.997 -2.7425 -2.3764 -0.3689
  758MPD2    H111254   0.906   2.707  15.932  0.3103 -0.5135  2.4087
  758MPD2    H211255   1.196   2.635  15.635 -1.0805  2.4267 -0.1658
  758MPD2    H311256   1.004   2.746  15.715 -1.5981 -2.5661 -1.6122
  758MPD2     N11257   0.996   2.539  16.109 -0.6128 -0.8611  0.0964
  758MPD2    H511258   0.924   2.602  16.142  0.6379 -0.7711  2.6751
  758MPD2    N111259   1.349   2.459  15.782  0.3043  0.4605  0.0832
  758MPD2    H711260   1.378   2.496  15.692  1.6551  1.3410  0.8879
  759MPD2     C11261   4.719   0.905  10.326  0.7718  0.1105  0.1851
  759MPD2    C111262   4.699   0.774  10.285 -0.5517 -0.0073 -0.0333
  759MPD2    C211263   0.032   0.719  10.186 -0.2682  0.7585  0.3468
  759MPD2    C311264   0.130   0.798  10.125 -0.5681 -0.2036  0.5095
  759MPD2    C411265   0.148   0.930  10.161 -0.4472 -0.3295  0.8263
  759MPD2    C511266   0.074   0.985  10.266  0.9258  0.4320 -0.0969
  759MPD2     H11267   4.738   0.625  10.145 -0.1739  2.3225 -3.3327
  759MPD2    H111268   0.226   0.989  10.115 -1.3380  0.7663  0.7131
  759MPD2    H211269   4.671   0.949  10.412 -0.6658  2.2054 -1.6998
  759MPD2    H311270   0.086   1.089  10.293  0.0891  0.6136 -0.4228
  759MPD2     N11271   0.212   0.744  10.018 -0.1897 -0.0353  0.6145
  759MPD2    H511272   0.227   0.643  10.019  2.2722  0.2540 -3.3803
  759MPD2    N111273   4.588   0.697  10.326  0.4257  0.1608 -0.5624
  759MPD2    H711274   4.566   0.606  10.287  1.7079 -0.3882 -0.0079
  760MPD2     C11275   4.596   2.980  11.891 -0.2404  0.1259  0.2477
  760MPD2    C111276   4.733   2.959  11.894  0.6347 -0.1487  0.1037
  760MPD2    C211277   0.047   2.851  11.951 -0.0276  0.5038 -0.3639
  760MPD2    C311278   4.697   2.758  12.001  0.4832  0.0034 -0.5291
  760MPD2    C411279   4.567   2.784  12.016  0.4154  0.2014 -0.1681
  760MPD2    C511280   4.513   2.891  11.956  1.0611 -0.1072  0.8962
  760MPD2     H11281   0.155   2.842  11.947  0.1459  1.5893  2.1025
  760MPD2    H111282   4.496   2.718  12.066 -1.5485  1.0092 -1.9288
  760MPD2    H211283   4.553   3.073  11.856  0.9557  0.7040  0.2919
  760MPD2    H311284   4.408   2.918  11.960  0.8017 -1.4672  3.3507
  760MPD2     N11285   0.002   2.633  12.045 -0.0249  0.5362 -0.4851
  760MPD2    H511286   4.678   2.581  12.103 -0.4440  0.8001 -0.7110
  760MPD2    N111287   0.086   3.055  11.841  0.6688  0.6022 -0.4310
  760MPD2    H711288   0.185   3.044  11.860  0.5998  4.0978  2.0275
  761MPD2     C11289   1.899   2.467  11.689 -0.5359  0.5375  0.3150
  761MPD2    C111290   1.842   2.497  11.570 -0.3484  0.5248 -0.4446
  761MPD2    C211291   1.885   2.614  11.510  0.1042  0.9409  0.1755
  761MPD2    C311292   1.969   2.710  11.569  0.2545  0.1174 -0.0954
  761MPD2    C411293   2.001   2.693  11.701 -0.2581  0.0576  0.5116
  761MPD2    C511294   1.961   2.571  11.757  0.1196  0.3445  1.0022
  761MPD2     H11295   1.853   2.628  11.408 -1.3085 -1.9836  0.2118
  761MPD2    H111296   2.063   2.766  11.750 -0.6319 -1.2655  2.9675
  761MPD2    H211297   1.875   2.375  11.740 -0.9857  0.7848  0.5514
  761MPD2    H311298   1.993   2.557  11.860  1.7481 -1.4290  0.2484
  761MPD2     N11299   2.004   2.840  11.513  1.0633  0.1097 -0.8848
  761MPD2    H511300   2.040   2.910  11.577 -1.8914  0.8881 -0.0529
  761MPD2    N111301   1.760   2.400  11.497  0.3073  0.5882  0.5105
  761MPD2    H711302   1.717   2.429  11.410 -1.6623 -0.4946  1.1250
  762MPD2     C11303   1.410   1.843  10.936 -0.8203 -0.1740  0.3856
  762MPD2    C111304   1.502   1.944  10.951 -0.0983 -0.2443  0.4467
  762MPD2    C211305   1.562   2.000  10.841 -0.4856  0.0519 -0.4519
  762MPD2    C311306   1.532   1.946  10.715  0.5278 -0.0753 -0.1675
  762MPD2    C411307   1.431   1.853  10.702 -0.2186  0.7259 -0.6898
  762MPD2    C511308   1.372   1.796  10.813  0.1990  0.0584  0.2792
  762MPD2     H11309   1.629   2.083  10.859  0.9589 -1.5170  1.4100
  762MPD2    H111310   1.384   1.835  10.607  0.8645 -0.4733 -1.0040
  762MPD2    H211311   1.356   1.805  11.023 -0.0712 -1.7497  0.1583
  762MPD2    H311312   1.306   1.711  10.805 -0.4697  0.1828  4.3123
  762MPD2     N11313   1.594   2.004  10.603 -0.2968  0.8658 -0.4454
  762MPD2    H511314   1.646   2.089  10.618  1.7797 -0.5660  0.3723
  762MPD2    N111315   1.516   1.989  11.082  0.6129  0.4023  0.1634
  762MPD2    H711316   1.472   1.927  11.150  1.4164 -0.4056 -0.0463
  763MPD2     C11317   3.153   2.531  16.168 -0.0296  0.3083 -0.0611
  763MPD2    C111318   3.135   2.638  16.084 -0.1949 -0.0146 -0.4906
  763MPD2    C211319   3.133   2.766  16.140  1.2517  0.6746 -0.0846
  763MPD2    C311320   3.167   2.787  16.277 -0.2029  0.7651 -0.4353
  763MPD2    C411321   3.197   2.682  16.358  0.0987  0.0480 -0.2320
  763MPD2    C511322   3.184   2.553  16.299  0.0236 -0.9097 -0.2133
  763MPD2     H11323   3.114   2.848  16.072 -0.2910  0.2879 -0.1207
  763MPD2    H111324   3.206   2.689  16.465  1.2883  1.0747 -0.4034
  763MPD2    H211325   3.146   2.427  16.136  0.4379  0.6903 -1.4124
  763MPD2    H311326   3.188   2.472  16.371  1.0957 -1.5897 -1.0455
  763MPD2     N11327   3.151   2.923  16.324  0.0677  0.5759  0.8743
  763MPD2    H511328   3.121   2.998  16.262 -1.1378 -0.6897 -0.0493
  763MPD2    N111329   3.100   2.639  15.946 -0.1192  0.1660 -0.8997
  763MPD2    H711330   3.082   2.728  15.902  1.8810 -0.6173 -3.2617
  764MPD2     C11331   0.868   3.669   0.305  0.0937  0.1603 -0.2630
  764MPD2    C111332   0.732   3.703   0.292  0.1502  0.3891 -0.1173
  764MPD2    C211333   0.655   3.733   0.406 -0.0961  0.2925  0.4813
  764MPD2    C311334   0.711   3.699   0.528  0.5259  0.1061  0.1579
  764MPD2    C411335   0.848   3.661   0.536 -0.5386 -0.4270 -0.3593
  764MPD2    C511336   0.928   3.645   0.423 -0.3346  0.0561  0.0287
  764MPD2     H11337   0.552   3.767   0.398  1.1421  3.5088 -1.6380
  764MPD2    H111338   0.897   3.638   0.630  0.1799  1.5252 -0.2583
  764MPD2    H211339   0.926   3.648   0.216 -0.0417 -0.0357 -0.3055
  764MPD2    H311340   1.030   3.609   0.424  0.0172  1.0830  1.1180
  764MPD2     N11341   0.631   3.713   0.646  0.9717  0.1564 -0.3159
  764MPD2    H511342   0.535   3.741   0.630  1.0120  0.8191  0.6365
  764MPD2    N111343   0.681   3.733   0.164  0.1537 -0.3217  0.1176
  764MPD2    H711344   0.584   3.764   0.160  1.1373  2.5119 -1.6424
  765MPD2     C11345   1.022   2.043  15.390 -0.5445  0.5587  0.4056
  765MPD2    C111346   1.009   2.087  15.521  0.3274 -0.2962  0.3221
  765MPD2    C211347   1.115   2.054  15.607 -0.1272  0.0165  0.4831
  765MPD2    C311348   1.235   2.008  15.563 -0.1115  1.0812 -0.3783
  765MPD2    C411349   1.249   1.970  15.433 -0.4637 -0.5632  0.3508
  765MPD2    C511350   1.144   1.996  15.344 -0.0854 -0.5409 -0.2702
  765MPD2     H11351   1.099   2.074  15.712  0.8428  3.0393  0.0322
  765MPD2    H111352   1.341   1.931  15.392 -0.0552  0.5932  0.1563
  765MPD2    H211353   0.941   2.039  15.319 -0.2051  0.9023 -0.0056
  765MPD2    H311354   1.160   1.968  15.241  0.5478 -0.0023 -0.3152
  765MPD2     N11355   1.343   1.995  15.653  0.6214 -0.1456  0.0546
  765MPD2    H511356   1.319   2.000  15.752 -0.8899 -0.5703 -0.2889
  765MPD2    N111357   0.877   2.131  15.552  0.0676  0.0174  0.1452
  765MPD2    H711358   0.813   2.132  15.473  1.2188  2.0361 -0.7541
  766MPD2     C11359   0.358   2.197  15.126  0.4754 -0.6118  0.1995
  766MPD2    C111360   0.482   2.259  15.135 -0.4125 -0.6398  0.0827
  766MPD2    C211361   0.556   2.265  15.013 -0.8624  0.1723 -0.0973
  766MPD2    C311362   0.499   2.212  14.892 -0.3082  0.5255  0.3275
  766MPD2    C411363   0.374   2.164  14.891 -0.1089  0.8706  0.1601
  766MPD2    C511364   0.309   2.155  15.005  0.0303  0.2776 -0.2385
  766MPD2     H11365   0.653   2.313  15.011 -1.0335  0.6272  2.3928
  766MPD2    H111366   0.321   2.130  14.803  2.7356  1.0417 -1.6289
  766MPD2    H211367   0.287   2.192  15.208 -0.7979  0.4357 -0.8563
  766MPD2    H311368   0.217   2.099  15.015 -0.7379  1.7885  1.0704
  766MPD2     N11369   0.558   2.232  14.767  0.0380  0.7287 -0.1921
  766MPD2    H511370   0.498   2.205  14.689 -0.2564  2.6566 -0.6282
  766MPD2    N111371   0.532   2.320  15.245  0.0565  0.0096  0.4105
  766MPD2    H711372   0.620   2.371  15.240  0.2926 -0.0947  3.1114
  767MPD2     C11373   0.150   2.418  14.849  0.0170  0.6520  0.3631
  767MPD2    C111374   0.250   2.489  14.792 -0.9188  0.1575 -0.3479
  767MPD2    C211375   0.294   2.452  14.665 -0.6107 -0.0628 -0.4951
  767MPD2    C311376   0.213   2.372  14.594  0.4832 -0.1123  0.2078
  767MPD2    C411377   0.098   2.303  14.643  0.5344 -0.4529 -0.3722
  767MPD2    C511378   0.082   2.315  14.781 -0.0500 -0.3790 -0.3713
  767MPD2     H11379   0.391   2.486  14.630 -0.9694  2.5701  1.1029
  767MPD2    H111380   0.027   2.245  14.584 -2.1288  0.7619  1.6195
  767MPD2    H211381   0.136   2.434  14.955  3.2481 -0.0341  0.8794
  767MPD2    H311382   4.733   2.266  14.819  1.9621 -2.5797  1.5701
  767MPD2     N11383   0.249   2.350  14.457  0.0920 -0.9191 -0.4713
  767MPD2    H511384   0.327   2.404  14.420 -0.0615 -1.1623 -1.1479
  767MPD2    N111385   0.336   2.584  14.864  0.0854  0.7588  0.1091
  767MPD2    H711386   0.348   2.577  14.965 -1.7713  0.6664  0.3101
  768MPD2     C11387   1.237   0.485  10.943  0.1174  0.2312  0.6496
  768MPD2    C111388   1.246   0.563  11.052 -0.9125 -0.0434 -0.2837
  768MPD2    C211389   1.336   0.523  11.150  0.5318  0.5148 -0.2186
  768MPD2    C311390   1.426   0.414  11.132 -0.5306 -0.1653 -0.3201
  768MPD2    C411391   1.413   0.347  11.015  0.5587 -0.2034 -0.1830
  768MPD2    C511392   1.303   0.364  10.924 -1.0035  0.7722  0.1108
  768MPD2     H11393   1.327   0.589  11.236  1.0419  0.6402 -0.2646
  768MPD2    H111394   1.471   0.258  10.998  0.8586  0.2153 -1.3763
  768MPD2    H211395   1.152   0.511  10.881  1.2172 -1.8054 -1.7171
  768MPD2    H311396   1.279   0.311  10.832 -1.5337  1.1747  0.0173
  768MPD2     N11397   1.536   0.398  11.220 -0.5354 -0.0561  0.1108
  768MPD2    H511398   1.604   0.325  11.201 -0.1334  0.6495 -1.1288
  768MPD2    N111399   1.185   0.684  11.072 -0.3601  0.5397  0.2474
  768MPD2    H711400   1.189   0.725  11.165  1.1361  0.8347  0.0601
  769MPD2     C11401   1.849   4.339  15.043 -0.1434 -0.3527  0.5013
  769MPD2    C111402   1.804   4.231  15.122  0.0956 -0.0959  0.4432
  769MPD2    C211403   1.855   4.214  15.249 -0.4622  0.4864  0.6505
  769MPD2    C311404   1.953   4.302  15.293  0.0831 -0.5011 -1.2367
  769MPD2    C411405   2.000   4.401  15.209  0.5594 -0.3935 -0.0428
  769MPD2    C511406   1.951   4.417  15.086 -0.5177  1.0871 -0.3797
  769MPD2     H11407   1.817   4.134  15.312 -0.5596  2.4831  3.1369
  769MPD2    H111408   2.069   4.475  15.248 -0.4411 -0.4947  1.9705
  769MPD2    H211409   1.824   4.354  14.938 -1.1875  1.5053  1.0259
  769MPD2    H311410   1.994   4.495  15.023  1.4268  1.2528  1.1424
  769MPD2     N11411   2.008   4.280  15.425 -0.1448  0.4716 -0.3168
  769MPD2    H511412   1.961   4.215  15.487  1.1342 -1.9272 -1.8587
  769MPD2    N111413   1.695   4.157  15.070  0.3864 -0.3311  0.7093
  769MPD2    H711414   1.640   4.194  14.993  1.3182  1.4795  0.8947
  770MPD2     C11415   1.434   3.200  15.279 -0.2609 -0.4048  1.0289
  770MPD2    C111416   1.485   3.215  15.155  0.0926 -0.6408 -0.5605
  770MPD2    C211417   1.479   3.341  15.094  0.4898  0.3176  0.1846
  770MPD2    C311418   1.416   3.438  15.162 -0.7259  0.8621  0.2264
  770MPD2    C411419   1.349   3.414  15.277  0.7730  0.2385  0.0439
  770MPD2    C511420   1.360   3.295  15.341 -0.0654  0.1616  0.0459
  770MPD2     H11421   1.530   3.352  14.999  0.3375  3.0012  0.3954
  770MPD2    H111422   1.278   3.485  15.317  1.9376  1.2749  0.2903
  770MPD2    H211423   1.430   3.096  15.311 -1.6496 -1.0109 -1.0602
  770MPD2    H311424   1.296   3.265  15.423 -0.6427  1.8228  0.2149
  770MPD2     N11425   1.403   3.557  15.092 -0.3854  0.1498  0.0921
  770MPD2    H511426   1.431   3.568  14.995  0.5567  0.7010  0.4250
  770MPD2    N111427   1.545   3.107  15.092 -0.0589 -0.7211  0.1572
  770MPD2    H711428   1.517   3.018  15.132 -0.3303  0.3205  2.2448
  771MPD2     C11429   3.181   1.423  13.700 -0.0899  0.2684 -0.0299
  771MPD2    C111430   3.117   1.518  13.620 -1.0526  0.9291  0.1455
  771MPD2    C211431   2.988   1.486  13.581 -0.4804  0.2546 -0.2235
  771MPD2    C311432   2.920   1.368  13.604 -0.4513  0.3130 -0.0133
  771MPD2    C411433   2.992   1.275  13.679  0.1525  0.3190  0.7150
  771MPD2    C511434   3.120   1.300  13.731 -0.1867  0.1190 -0.3472
  771MPD2     H11435   2.941   1.559  13.516 -1.3645  0.1578  0.3037
  771MPD2    H111436   2.956   1.173  13.691 -0.6648  0.8788  2.9661
  771MPD2    H211437   3.281   1.432  13.742 -1.7549  0.8276  3.8361
  771MPD2    H311438   3.162   1.215  13.784 -0.9737  0.5863  1.0309
  771MPD2     N11439   2.793   1.345  13.546 -0.0976 -0.0660  0.2354
  771MPD2    H511440   2.753   1.407  13.476  1.9433  0.6828 -0.2584
  771MPD2    N111441   3.167   1.648  13.589 -0.1559  0.3521 -0.1226
  771MPD2    H711442   3.112   1.713  13.535  0.9085  1.8937  0.6349
  772MPD2     C11443   3.028   2.311  13.851  0.1434  0.7200 -0.3768
  772MPD2    C111444   2.971   2.216  13.779  0.7651  0.8860  0.0668
  772MPD2    C211445   2.834   2.212  13.777  0.7707  0.1393  0.0312
  772MPD2    C311446   2.750   2.292  13.856 -0.4185  0.4286 -0.2825
  772MPD2    C411447   2.812   2.392  13.928  0.5848  0.1647 -0.2855
  772MPD2    C511448   2.950   2.401  13.920  0.1163 -0.0369 -0.7985
  772MPD2     H11449   2.789   2.144  13.705 -0.6486  1.3382 -0.2107
  772MPD2    H111450   2.758   2.458  13.995  0.0134 -0.2511 -0.3262
  772MPD2    H211451   3.136   2.304  13.863  0.2259  0.1011 -1.4426
  772MPD2    H311452   3.002   2.469  13.987 -2.6014  1.9617 -0.7241
  772MPD2     N11453   2.611   2.283  13.849  0.1100 -0.1246  0.6804
  772MPD2    H511454   2.552   2.347  13.902 -1.6600 -1.2120  0.0355
  772MPD2    N111455   3.044   2.126  13.700  0.2930 -0.1474 -0.2471
  772MPD2    H711456   2.998   2.048  13.653  0.4905 -0.3348 -0.1314
  773MPD2     C11457   1.909   2.418   0.328 -0.1338 -0.6550  0.5268
  773MPD2    C111458   1.869   2.319   0.243  0.0227 -0.6463 -1.1606
  773MPD2    C211459   1.889   2.189   0.279 -0.0567 -0.5992  0.3697
  773MPD2    C311460   1.978   2.160   0.384  0.3666 -0.2361  0.3388
  773MPD2    C411461   2.029   2.262   0.455  0.4204 -0.0472 -0.1539
  773MPD2    C511462   1.988   2.395   0.436  0.4424  0.2961  0.2639
  773MPD2     H11463   1.840   2.118   0.213  1.0928  1.0679 -2.2793
  773MPD2    H111464   2.078   2.236   0.548  0.5138 -1.4316 -0.5885
  773MPD2    H211465   1.882   2.523   0.322  0.6625 -0.6014 -1.8847
  773MPD2    H311466   2.007   2.471   0.511  0.3631 -1.3650  1.9466
  773MPD2     N11467   2.022   2.041   0.438  0.4908 -0.2328  0.1295
  773MPD2    H511468   2.104   2.043   0.498  0.5312  3.3987 -0.0534
  773MPD2    N111469   1.806   2.351   0.120 -0.2373 -0.0013 -0.1248
  773MPD2    H711470   1.771   2.274   0.064  0.4400 -0.6647  0.3733
  774MPD2     C11471   1.064   2.061  13.697  0.1640 -0.5209  0.1419
  774MPD2    C111472   1.168   2.082  13.787  0.8541  0.0142  0.1973
  774MPD2    C211473   1.275   2.170  13.747  0.3922  0.4650 -0.2405
  774MPD2    C311474   1.278   2.216  13.619 -0.0502  0.1573  0.1283
  774MPD2    C411475   1.173   2.183  13.532 -0.3649 -0.1295 -0.7468
  774MPD2    C511476   1.060   2.111  13.569 -0.2057  0.2275  0.3081
  774MPD2     H11477   1.364   2.184  13.807  0.5891  1.2984 -0.7333
  774MPD2    H111478   1.178   2.201  13.425 -1.9114  1.2713 -0.5731
  774MPD2    H211479   0.984   1.993  13.723  0.9705 -1.3051  0.6039
  774MPD2    H311480   0.981   2.079  13.502  2.8779 -3.1074 -1.6931
  774MPD2     N11481   1.398   2.284  13.587  0.3922  0.0324  0.2024
  774MPD2    H511482   1.457   2.307  13.666 -0.7009 -1.1680  1.3625
  774MPD2    N111483   1.164   2.010  13.905 -0.1762 -0.5192  0.4139
  774MPD2    H711484   1.108   1.926  13.911  1.4495 -1.5953  0.7626
  775MPD2     C11485   2.085   3.688  15.641  0.8310 -0.5587  0.0232
  775MPD2    C111486   2.138   3.790  15.715 -0.8397  0.5198 -0.4798
  775MPD2    C211487   2.206   3.894  15.657 -0.0120 -0.5945 -0.3762
  775MPD2    C311488   2.232   3.887  15.522 -0.3668 -0.5532 -0.0479
  775MPD2    C411489   2.179   3.782  15.447 -0.2341 -0.1728 -0.3712
  775MPD2    C511490   2.110   3.675  15.507  0.2573  0.0440  0.5395
  775MPD2     H11491   2.244   3.977  15.714 -0.9287 -0.7894  0.5141
  775MPD2    H111492   2.188   3.788  15.339  0.9253  0.2498 -0.2458
  775MPD2    H211493   2.027   3.605  15.680  0.3291 -0.2939 -0.1637
  775MPD2    H311494   2.069   3.591  15.452 -1.5008  1.1665  0.1437
  775MPD2     N11495   2.305   3.992  15.452  0.7091 -0.0278 -0.0936
  775MPD2    H511496   2.301   3.994  15.351  2.1028 -0.5310 -0.1625
  775MPD2    N111497   2.121   3.789  15.855  0.0494  0.2696  0.0373
  775MPD2    H711498   2.085   3.702  15.891  1.3701 -0.0906  0.4753
  776MPD2     C11499   0.934   3.353  12.133  0.0832  0.2560  0.0423
  776MPD2    C111500   1.015   3.459  12.155  0.0548  0.1303 -0.5788
  776MPD2    C211501   0.982   3.581  12.107 -0.4743 -0.1301 -0.3694
  776MPD2    C311502   0.873   3.598  12.024 -0.1583 -0.3360 -0.2721
  776MPD2    C411503   0.790   3.490  12.002 -0.8693 -0.0056  0.6385
  776MPD2    C511504   0.825   3.371  12.061 -0.2736 -0.1946 -0.4641
  776MPD2     H11505   1.045   3.663  12.138  0.3619 -0.4405 -1.2301
  776MPD2    H111506   0.697   3.490  11.946 -0.6202  0.9416  0.2304
  776MPD2    H211507   0.949   3.256  12.179  2.6359  0.8337  0.4605
  776MPD2    H311508   0.768   3.280  12.043  0.7767 -0.7027 -1.2121
  776MPD2     N11509   0.850   3.715  11.953 -0.0949 -0.7423  0.4504
  776MPD2    H511510   0.772   3.705  11.889 -0.8947  0.3347  1.2780
  776MPD2    N111511   1.143   3.436  12.217  0.2321 -0.0737  0.6272
  776MPD2    H711512   1.175   3.340  12.232 -1.9689 -0.8340  0.3912
  777MPD2     C11513   1.463   1.466   0.969  0.4824  0.1547 -0.0126
  777MPD2    C111514   1.502   1.334   0.974 -0.0566 -1.1339  0.4129
  777MPD2    C211515   1.447   1.243   0.883  0.0150 -0.4589 -0.7150
  777MPD2    C311516   1.360   1.288   0.791 -0.1987  0.3171  0.1784
  777MPD2    C411517   1.320   1.412   0.795  0.3099 -0.6162  0.4112
  777MPD2    C511518   1.369   1.501   0.880  0.3050 -0.1395  0.6582
  777MPD2     H11519   1.472   1.138   0.879 -1.2554 -0.8678  2.0704
  777MPD2    H111520   1.244   1.451   0.729 -2.3250  0.5495  4.1154
  777MPD2    H211521   1.497   1.534   1.047  1.1878 -1.9148  1.4877
  777MPD2    H311522   1.333   1.603   0.884 -1.8005 -0.9090  1.3994
  777MPD2     N11523   1.314   1.202   0.689  0.4099 -0.0046 -0.6409
  777MPD2    H511524   1.312   1.102   0.704  0.0292 -0.3905 -3.1090
  777MPD2    N111525   1.583   1.300   1.089 -0.8578  0.5686 -0.4060
  777MPD2    H711526   1.610   1.374   1.152 -2.1769  1.2196 -0.6096
  778MPD2     C11527   2.978   1.959  14.803  0.2202  0.2268  0.3153
  778MPD2    C111528   2.998   1.842  14.738  0.1143  0.1373 -0.6069
  778MPD2    C211529   3.094   1.842  14.647  0.1594 -0.0261 -0.2043
  778MPD2    C311530   3.165   1.953  14.612 -0.0624 -0.3869 -0.4183
  778MPD2    C411531   3.157   2.072  14.684 -0.0578 -0.2863 -0.2312
  778MPD2    C511532   3.068   2.065  14.783 -0.0856  0.9306  0.1776
  778MPD2     H11533   3.106   1.757  14.580  0.3961  1.0107 -1.4710
  778MPD2    H111534   3.223   2.156  14.667  1.8839 -2.0965 -1.5451
  778MPD2    H211535   2.897   1.972  14.874 -0.7301  0.1445 -0.7469
  778MPD2    H311536   3.044   2.149  14.848  0.4248  1.2660 -0.0645
  778MPD2     N11537   3.264   1.935  14.510  0.0476  0.0290 -0.5495
  778MPD2    H511538   3.263   1.847  14.459  1.5223 -1.3904  1.8257
  778MPD2    N111539   2.926   1.726  14.767  0.2249 -0.6127  0.9072
  778MPD2    H711540   2.919   1.654  14.696  1.3087  0.4306 -0.2795
  779MPD2     C11541   2.680   0.544  13.731  0.5791  0.2570  0.9517
  779MPD2    C111542   2.722   0.504  13.857 -0.1420 -0.6177 -0.3703
  779MPD2    C211543   2.813   0.576  13.929 -0.6717 -0.2126  0.2893
  779MPD2    C311544   2.861   0.696  13.873 -0.1472  0.0821  0.5901
  779MPD2    C411545   2.812   0.736  13.754  0.3563 -0.0161 -0.4992
  779MPD2    C511546   2.722   0.663  13.676  0.3962  0.3948  0.1921
  779MPD2     H11547   2.845   0.548  14.029  3.9088 -2.6966 -1.8938
  779MPD2    H111548   2.850   0.827  13.711 -1.9357 -0.3513 -3.1575
  779MPD2    H211549   2.614   0.483  13.670  1.3893 -0.4651  0.7970
  779MPD2    H311550   2.694   0.695  13.576  0.7890  0.0673 -0.0251
  779MPD2     N11551   2.949   0.776  13.949  0.5025 -0.3091  0.4921
  779MPD2    H511552   2.970   0.740  14.042 -0.1063 -0.1040  0.7018
  779MPD2    N111553   2.686   0.381  13.915  0.6030  0.3143  0.1907
  779MPD2    H711554   2.728   0.359  14.005 -0.4602 -0.6740  0.4516
  780MPD2     C11555   1.252   0.257   0.625  0.3874  0.1413 -0.1936
  780MPD2    C111556   1.358   0.299   0.706  0.5992 -0.5195 -0.6161
  780MPD2    C211557   1.472   0.366   0.658  0.0641 -0.3731  0.6802
  780MPD2    C311558   1.491   0.371   0.521  0.3959 -0.5951 -0.4987
  780MPD2    C411559   1.391   0.329   0.434 -0.0936 -0.3922 -0.1074
  780MPD2    C511560   1.273   0.273   0.485  0.9415 -0.6088 -0.5693
  780MPD2     H11561   1.555   0.392   0.723 -0.9541  4.1122  0.2108
  780MPD2    H111562   1.399   0.329   0.326  0.6306  0.6256 -0.0602
  780MPD2    H211563   1.157   0.219   0.659  1.0807 -1.6189 -0.2363
  780MPD2    H311564   1.206   0.219   0.420 -1.4543  0.8027  0.7583
  780MPD2     N11565   1.606   0.415   0.448 -0.3066 -0.7412 -0.0057
  780MPD2    H511566   1.606   0.409   0.347  1.4516 -0.2441 -0.0272
  780MPD2    N111567   1.343   0.268   0.839 -0.5052  0.3870 -0.3919
  780MPD2    H711568   1.260   0.216   0.864 -0.4550 -0.0081 -1.0573
  781MPD2     C11569   4.305   2.314  12.215  0.0035 -0.4629  0.5493
  781MPD2    C111570   4.380   2.230  12.300 -0.0929 -0.5845  0.0314
  781MPD2    C211571   4.485   2.158  12.251  0.3793  0.0443  0.3356
  781MPD2    C311572   4.538   2.183  12.126 -0.1759  0.4788 -0.8181
  781MPD2    C411573   4.475   2.277  12.047  0.2384 -0.2337  0.0368
  781MPD2    C511574   4.363   2.339  12.091 -0.6073 -0.0209  0.1042
  781MPD2     H11575   4.540   2.093  12.318  2.6252  0.4227 -1.1564
  781MPD2    H111576   4.515   2.299  11.949  3.1775 -0.3020  1.1978
  781MPD2    H211577   4.218   2.369  12.250  0.0228  0.8770 -1.5171
  781MPD2    H311578   4.321   2.411  12.021 -0.5039 -0.3017 -0.2457
  781MPD2     N11579   4.646   2.110  12.069  0.0241 -0.4921  0.6059
  781MPD2    H511580   4.671   2.114  11.971  0.2122 -2.0165  0.5910
  781MPD2    N111581   4.348   2.194  12.429  0.0488 -0.3146  0.0779
  781MPD2    H711582   4.409   2.125  12.470 -1.4990  0.3605  3.4614
  782MPD2     C11583   1.948   3.443   9.916 -0.3963 -0.7396  0.9163
  782MPD2    C111584   1.992   3.333   9.979 -0.2414  0.2831 -0.5456
  782MPD2    C211585   2.105   3.339  10.058  0.1733  0.4325  0.3484
  782MPD2    C311586   2.177   3.455  10.065  0.2380 -0.4153  0.0118
  782MPD2    C411587   2.133   3.564   9.990  0.3879  0.2715 -0.4350
  782MPD2    C511588   2.023   3.558   9.914  0.0523  0.0432  0.0590
  782MPD2     H11589   2.148   3.256  10.114 -1.8484 -0.9697 -0.1987
  782MPD2    H111590   2.185   3.659   9.991  0.3217  0.2819  1.1188
  782MPD2    H211591   1.855   3.436   9.861 -0.7809 -1.1043  1.6049
  782MPD2    H311592   1.991   3.653   9.872  0.2360 -0.8062 -2.0429
  782MPD2     N11593   2.283   3.460  10.162 -0.3661  0.1639 -0.5548
  782MPD2    H511594   2.290   3.381  10.225  0.8747  0.7339  0.0272
  782MPD2    N111595   1.917   3.212   9.971 -0.4105 -0.1140 -0.4584
  782MPD2    H711596   1.819   3.231   9.949 -0.2593  1.9311  0.6374
  783MPD2     C11597   1.713   3.476  10.869  0.2033 -0.0123 -0.2283
  783MPD2    C111598   1.791   3.360  10.891  0.2239  0.1788  0.0389
  783MPD2    C211599   1.825   3.295  10.778 -1.0390  0.3636 -0.5139
  783MPD2    C311600   1.799   3.332  10.649  0.2934 -0.3580 -1.0174
  783MPD2    C411601   1.747   3.457  10.629 -0.6678  0.1096 -0.1455
  783MPD2    C511602   1.686   3.521  10.738  0.0444  0.1615  0.0903
  783MPD2     H11603   1.891   3.209  10.790 -1.9638 -0.0664  1.3243
  783MPD2    H111604   1.729   3.503  10.533 -0.8990 -0.2426 -0.2698
  783MPD2    H211605   1.694   3.547  10.948  0.5076  0.9671 -1.0441
  783MPD2    H311606   1.651   3.623  10.725 -1.6964 -0.5834 -1.0220
  783MPD2     N11607   1.841   3.244  10.547 -0.5080 -0.7710 -0.7945
  783MPD2    H511608   1.851   3.146  10.574  1.5323 -0.6197 -0.9819
  783MPD2    N111609   1.818   3.322  11.030 -0.8383  0.0564 -0.4525
  783MPD2    H711610   1.787   3.382  11.106 -2.5597 -2.1847  0.6021
  784MPD2     C11611   4.566   3.134   0.518  0.1386  0.0160 -0.1385
  784MPD2    C111612   4.536   3.187   0.641 -0.3502  0.9690  0.9647
  784MPD2    C211613   4.426   3.273   0.648  0.1313  0.2628 -0.2465
  784MPD2    C311614   4.338   3.299   0.550 -0.0034 -0.3377  0.4561
  784MPD2    C411615   4.377   3.251   0.421  0.2020 -0.2491  0.4087
  784MPD2    C511616   4.487   3.168   0.412 -0.8059  0.8450  0.5869
  784MPD2     H11617   4.407   3.309   0.749 -1.6740  2.1303 -1.2631
  784MPD2    H111618   4.320   3.265   0.330  0.5059  0.1792  0.2814
  784MPD2    H211619   4.649   3.065   0.506 -0.9208 -1.4947  1.1440
  784MPD2    H311620   4.502   3.128   0.312 -0.5980  4.1816 -0.7496
  784MPD2     N11621   4.219   3.377   0.574 -0.0517 -0.1686 -0.4190
  784MPD2    H511622   4.219   3.440   0.654 -0.4407 -0.6969 -0.0036
  784MPD2    N111623   4.625   3.173   0.750 -0.2012  0.4311 -0.5113
  784MPD2    H711624   4.603   3.232   0.831  1.4242  0.9642 -0.4554
  785MPD2     C11625   0.655   1.263  11.119  0.2305  0.5440 -0.3952
  785MPD2    C111626   0.521   1.305  11.090  0.2059  0.4650 -0.7957
  785MPD2    C211627   0.448   1.241  11.001 -0.4253  0.8246 -0.3844
  785MPD2    C311628   0.498   1.136  10.928 -0.4091  0.5224 -0.7550
  785MPD2    C411629   0.627   1.087  10.955  0.0732  0.1888  0.5448
  785MPD2    C511630   0.701   1.155  11.048 -0.7623  0.0760  0.7843
  785MPD2     H11631   0.345   1.270  10.984 -0.4937 -1.4988 -3.9893
  785MPD2    H111632   0.672   1.003  10.903 -1.2342  1.3101 -2.3315
  785MPD2    H211633   0.714   1.312  11.195 -0.2486 -1.1277  1.0520
  785MPD2    H311634   0.805   1.131  11.069 -0.2992  1.2992 -0.0951
  785MPD2     N11635   0.408   1.090  10.834 -0.6120 -0.3819  0.0829
  785MPD2    H511636   0.313   1.126  10.842 -1.1895 -1.4359 -2.0011
  785MPD2    N111637   0.456   1.410  11.157  0.1275 -0.7748 -0.2525
  785MPD2    H711638   0.358   1.422  11.135  0.2597 -0.6244 -0.7531
  786MPD2     C11639   2.579   3.818  14.022  0.3917 -0.7587 -0.5584
  786MPD2    C111640   2.684   3.893  14.059  0.2171  0.4008  0.7086
  786MPD2    C211641   2.736   3.871  14.191 -0.0358 -0.5066 -0.4885
  786MPD2    C311642   2.695   3.769  14.275  0.3825 -0.9810  0.0321
  786MPD2    C411643   2.592   3.690  14.224 -0.0673  0.6147 -0.2627
  786MPD2    C511644   2.528   3.725  14.108  0.0861 -0.2669  0.0996
  786MPD2     H11645   2.820   3.930  14.226 -0.2072 -0.0687 -0.8148
  786MPD2    H111646   2.556   3.601  14.274 -1.3402  0.4856 -1.4049
  786MPD2    H211647   2.519   3.843  13.935  0.9276  0.6455 -0.5250
  786MPD2    H311648   2.441   3.670  14.072  1.5648 -1.2215 -2.0212
  786MPD2     N11649   2.749   3.749  14.410  0.7014  0.1156 -0.0691
  786MPD2    H511650   2.733   3.668  14.469 -0.2891 -0.6600 -1.3958
  786MPD2    N111651   2.750   3.987  13.985  0.4332  0.0380 -0.0591
  786MPD2    H711652   2.812   4.046  14.040 -0.1108 -0.4123  1.0336
  787MPD2     C11653   3.240   3.962  14.253  0.0081 -0.1722  0.3311
  787MPD2    C111654   3.291   4.019  14.141  0.0771  0.1047  0.5310
  787MPD2    C211655   3.427   4.007  14.103  0.1900 -0.4551  0.2389
  787MPD2    C311656   3.509   3.927  14.174  0.1585  0.2761  0.9795
  787MPD2    C411657   3.467   3.872  14.294  1.0566  0.7872 -0.4199
  787MPD2    C511658   3.332   3.902  14.335  0.0258 -0.2268  0.3680
  787MPD2     H11659   3.470   4.059  14.018 -0.4167  1.7975  1.3058
  787MPD2    H111660   3.529   3.828  14.371  0.4123 -2.2574 -1.6344
  787MPD2    H211661   3.137   3.971  14.286  0.1301  0.7831  0.4426
  787MPD2    H311662   3.291   3.858  14.425 -0.7918 -2.3693 -1.0466
  787MPD2     N11663   3.646   3.923  14.134  0.2612 -0.3083 -0.2914
  787MPD2    H511664   3.672   3.977  14.052 -0.3421  0.0614 -0.2349
  787MPD2    N111665   3.195   4.085  14.064  0.0295  0.1887 -0.0609
  787MPD2    H711666   3.107   4.100  14.113 -1.0176  0.2864 -2.0026
  788MPD2     C11667   0.593   3.202   0.873  0.6064 -0.0140 -0.2861
  788MPD2    C111668   0.679   3.119   0.804  0.1319 -0.1453 -0.0286
  788MPD2    C211669   0.742   3.164   0.686  0.2281  0.7117  0.5319
  788MPD2    C311670   0.698   3.278   0.623 -0.4355  0.0421 -0.1029
  788MPD2    C411671   0.623   3.362   0.699  0.0093 -0.4796 -0.2256
  788MPD2    C511672   0.570   3.331   0.822 -0.3772 -0.2348  0.8766
  788MPD2     H11673   0.816   3.101   0.636  0.4383  1.1395  0.3095
  788MPD2    H111674   0.589   3.449   0.645 -1.1040  0.0853  1.3847
  788MPD2    H211675   0.547   3.175   0.967  0.7499  0.1780 -0.1628
  788MPD2    H311676   0.508   3.401   0.876 -0.8430  1.4591 -1.8175
  788MPD2     N11677   0.734   3.324   0.492 -0.0649 -0.2282 -0.0527
  788MPD2    H511678   0.677   3.400   0.457  1.2459  0.7935  0.0680
  788MPD2    N111679   0.685   2.990   0.853 -0.2925  0.7655  0.1502
  788MPD2    H711680   0.628   2.971   0.935 -0.4919  0.2943 -0.0933
  789MPD2     C11681   0.820   1.916  16.295  0.0989 -0.3722 -0.1653
  789MPD2    C111682   0.750   2.000  16.213 -0.4204 -1.2266  0.6789
  789MPD2    C211683   0.689   2.109  16.265  0.3884  0.1448 -0.7631
  789MPD2    C311684   0.697   2.135  16.397 -0.5944 -0.4339  0.1628
  789MPD2    C411685   0.757   2.051  16.481  0.3795  0.5843 -0.0851
  789MPD2    C511686   0.818   1.942  16.432  0.2279 -0.1353  0.3896
  789MPD2     H11687   0.621   2.162  16.199 -0.0182 -2.0153 -2.0888
  789MPD2    H111688   0.759   2.064  16.589 -1.2821  0.6371 -0.0726
  789MPD2    H211689   0.875   1.829  16.259 -0.2228 -0.3338 -0.7467
  789MPD2    H311690   0.865   1.874  16.502  1.7494  1.5085  0.9657
  789MPD2     N11691   0.627   2.239  16.459 -0.6487  0.1533 -0.2040
  789MPD2    H511692   0.646   2.258  16.557  1.9192  1.5959 -0.9640
  789MPD2    N111693   0.738   1.979  16.073 -0.0902 -0.1945  0.2429
  789MPD2    H711694   0.681   2.046  16.023 -0.1354  1.1015  2.0625
  790MPD2     C11695   2.226   4.412  13.439 -0.4503  0.1809  0.4711
  790MPD2    C111696   2.129   4.334  13.496 -0.2183 -0.3083  0.2959
  790MPD2    C211697   2.076   4.233  13.422  0.4304 -1.1622  0.2428
  790MPD2    C311698   2.128   4.215  13.295 -0.0158  0.5961  0.4863
  790MPD2    C411699   2.211   4.306  13.236 -0.1376 -0.3295  0.5611
  790MPD2    C511700   2.256   4.409  13.312 -0.2601  0.7456  0.7475
  790MPD2     H11701   2.012   4.155  13.461  0.1792 -1.1922 -0.2228
  790MPD2    H111702   2.258   4.297  13.138  1.0009  0.8170  0.9916
  790MPD2    H211703   2.271   4.494  13.493  1.7161 -1.0623  0.5122
  790MPD2    H311704   2.333   4.469  13.266  0.1311 -0.8400 -0.6341
  790MPD2     N11705   2.074   4.107  13.219 -0.4516 -0.4462  0.3308
  790MPD2    H511706   2.004   4.051  13.266  0.6053 -1.6268  0.4820
  790MPD2    N111707   2.085   4.364  13.626 -0.0733 -0.2522  0.2414
  790MPD2    H711708   2.130   4.441  13.676  0.1933 -1.4930  1.9051
  791MPD2     C11709   1.489   3.923  13.071  0.1492 -0.1050 -0.6803
  791MPD2    C111710   1.559   3.808  13.064  0.4717 -0.0480  0.0678
  791MPD2    C211711   1.501   3.688  13.019  0.1504 -0.0354 -0.1605
  791MPD2    C311712   1.373   3.686  12.981 -0.1437  0.2058  0.1252
  791MPD2    C411713   1.295   3.794  12.987  0.4905  0.4795 -0.2969
  791MPD2    C511714   1.353   3.907  13.038 -0.3669  0.6170 -0.5706
  791MPD2     H11715   1.559   3.598  13.002 -1.2294 -1.1240  0.9846
  791MPD2    H111716   1.189   3.802  12.963 -0.5177 -1.2391  3.4779
  791MPD2    H211717   1.529   4.011  13.119  0.6417 -0.9496  0.4774
  791MPD2    H311718   1.284   3.990  13.052  0.0037  1.0660 -1.4148
  791MPD2     N11719   1.322   3.558  12.950 -0.6768 -0.2957  0.3885
  791MPD2    H511720   1.385   3.481  12.969  1.0531  0.7412 -1.2150
  791MPD2    N111721   1.699   3.824  13.093 -0.0675  0.2358 -0.2299
  791MPD2    H711722   1.731   3.919  13.112 -1.6742  0.9933 -1.2271
  792MPD2     C11723   1.368   4.717  10.935  0.0320 -0.4482  0.4387
  792MPD2    C111724   1.431   4.605  10.992 -0.0233  0.1406 -0.1662
  792MPD2    C211725   1.360   4.509  11.065  0.4821  0.3015  0.1482
  792MPD2    C311726   1.229   4.540  11.100  0.8101 -0.7434 -0.0924
  792MPD2    C411727   1.173   4.661  11.059  0.2911 -1.2837 -0.2319
  792MPD2    C511728   1.242   0.007  10.979  0.7481 -0.3016  0.0114
  792MPD2     H11729   1.411   4.421  11.102  2.0962  0.9089 -0.6689
  792MPD2    H111730   1.071   4.682  11.088  1.5297  0.7270  2.6771
  792MPD2    H211731   1.411   0.050  10.868 -0.6557 -2.4623 -2.1978
  792MPD2    H311732   1.190   0.095  10.942  1.1387 -0.9498 -2.0713
  792MPD2     N11733   1.149   4.458  11.189  0.5048  0.0558  0.0032
  792MPD2    H511734   1.054   4.485  11.209  0.6172  1.9383 -2.0586
  792MPD2    N111735   1.562   4.589  10.958 -0.4887 -0.0196  0.3595
  792MPD2    H711736   1.590   4.660  10.890  1.2838 -0.9678  0.1014
  793MPD2     C11737   0.560   4.006  10.679  0.0828  0.9197 -0.7976
  793MPD2    C111738   0.682   4.067  10.662 -0.1381 -0.6515  0.0204
  793MPD2    C211739   0.762   4.107  10.764 -0.0261 -0.1884 -0.0313
  793MPD2    C311740   0.732   4.079  10.891  0.1686 -0.3792 -0.0823
  793MPD2    C411741   0.608   4.019  10.915  0.4637  0.0090  0.5004
  793MPD2    C511742   0.526   3.984  10.813  0.2469  0.0727 -0.0810
  793MPD2     H11743   0.857   4.153  10.743  0.4141 -1.5693 -1.1016
  793MPD2    H111744   0.565   3.986  11.009  1.5704 -2.8151  0.0443
  793MPD2    H211745   0.489   3.976  10.603 -1.3456  1.5711  0.2688
  793MPD2    H311746   0.433   3.934  10.834  0.6629 -0.1494  1.2790
  793MPD2     N11747   0.829   4.106  10.991 -0.0476  0.2438 -0.4876
  793MPD2    H511748   0.909   4.161  10.962 -0.0919  1.0166  0.8461
  793MPD2    N111749   0.733   4.105  10.537 -0.3338 -0.0727  0.6505
  793MPD2    H711750   0.819   4.159  10.530 -1.4948  1.5433 -1.1929
  794MPD2     C11751   1.518   3.030  17.398 -0.2965  0.2601  0.1479
  794MPD2    C111752   1.486   2.913  17.332 -0.3867 -0.3285 -1.2954
  794MPD2    C211753   1.400   2.916  17.224  0.0000  0.1616  0.3662
  794MPD2    C311754   1.362   3.039  17.167 -0.8812  0.3512 -0.1943
  794MPD2    C411755   1.412   3.151  17.224  1.6322  0.0765 -0.3197
  794MPD2    C511756   1.486   3.147  17.337 -0.4441  0.6106  0.1355
  794MPD2     H11757   1.371   2.821  17.180 -0.2898  0.1524  0.5776
  794MPD2    H111758   1.388   3.251  17.188 -2.5018 -1.0964 -0.8011
  794MPD2    H211759   1.576   3.045  17.488  0.1810 -0.3475 -0.0624
  794MPD2    H311760   1.518   3.238  17.385 -1.3609  0.6178  0.7295
  794MPD2     N11761   1.272   3.063  17.065  0.2772 -0.3107  0.1434
  794MPD2    H511762   1.254   3.161  17.047 -0.5456 -0.5908 -0.5252
  794MPD2    N111763   1.525   2.784  17.387  0.7255  0.4979 -0.5837
  794MPD2    H711764   1.497   2.704  17.331  0.1336  0.0083  0.4131
  795MPD2     C11765   4.177   0.530  13.788 -0.4281 -0.2133 -0.5017
  795MPD2    C111766   4.139   0.467  13.671 -0.2723  0.3403  0.5751
  795MPD2    C211767   4.229   0.393  13.599  0.4004 -0.0465 -0.0878
  795MPD2    C311768   4.360   0.383  13.644  0.5955 -0.5915 -0.0374
  795MPD2    C411769   4.400   0.450  13.760  0.3626 -0.1423  0.8008
  795MPD2    C511770   4.313   0.535  13.823 -0.3592  0.1974 -0.6351
  795MPD2     H11771   4.200   0.342  13.507  0.0601 -0.8323  0.4594
  795MPD2    H111772   4.502   0.460  13.797  0.3710 -0.1750  0.7866
  795MPD2    H211773   4.109   0.586  13.851  1.6523  0.3637  1.2225
  795MPD2    H311774   4.326   0.585  13.919 -1.4778 -0.8106  0.0423
  795MPD2     N11775   4.449   0.306  13.564  0.1741  0.6569 -0.1313
  795MPD2    H511776   4.425   0.282  13.468  0.3300  1.3824 -0.3546
  795MPD2    N111777   4.014   0.501  13.615  0.2072  0.8692 -0.3415
  795MPD2    H711778   3.999   0.469  13.520 -0.2650  2.2200 -0.7181
  796MPD2     C11779   3.394   2.489  15.590 -0.2571 -0.2175 -0.3346
  796MPD2    C111780   3.422   2.592  15.675  0.3767 -0.2691 -0.5341
  796MPD2    C211781   3.358   2.712  15.660 -0.1826 -0.3256  0.0909
  796MPD2    C311782   3.264   2.729  15.558 -0.3718  0.0367 -0.0779
  796MPD2    C411783   3.241   2.629  15.462  0.1515 -0.3027 -0.3336
  796MPD2    C511784   3.314   2.512  15.477  0.0147 -0.8412 -0.0472
  796MPD2     H11785   3.374   2.792  15.731 -1.2516  0.2114 -0.2666
  796MPD2    H111786   3.178   2.642  15.374 -0.0576 -2.1276 -0.4471
  796MPD2    H211787   3.454   2.399  15.587  0.6609  0.4460 -1.9906
  796MPD2    H311788   3.317   2.430  15.407 -1.1595 -0.6404 -0.3222
  796MPD2     N11789   3.197   2.852  15.557 -0.3901 -0.2512 -0.3509
  796MPD2    H511790   3.223   2.917  15.631  0.7097 -2.9144  1.6357
  796MPD2    N111791   3.499   2.565  15.793 -0.1634  0.2819 -0.3133
  796MPD2    H711792   3.490   2.638  15.862  1.1521 -0.6460  0.8371
  797MPD2     C11793   4.351   1.711  17.030  0.0220 -0.6612 -0.5206
  797MPD2    C111794   4.475   1.732  16.992  0.0726  0.0217  0.0907
  797MPD2    C211795   4.510   1.828  16.899  0.1777 -0.3239 -0.6767
  797MPD2    C311796   4.412   1.917  16.863  0.6050 -0.3175  0.3136
  797MPD2    C411797   4.286   1.897  16.899 -0.0998 -0.2721  0.0433
  797MPD2    C511798   4.252   1.793  16.979  0.3211 -0.1231  0.2774
  797MPD2     H11799   4.609   1.836  16.858 -0.6179  3.1567 -1.9395
  797MPD2    H111800   4.203   1.959  16.866  0.1671  0.6064  1.0469
  797MPD2    H211801   4.319   1.628  17.092  2.7229 -1.4459 -0.1924
  797MPD2    H311802   4.154   1.757  17.009 -0.3618  1.5938  0.0966
  797MPD2     N11803   4.436   2.025  16.774 -0.7155 -0.4464 -0.4155
  797MPD2    H511804   4.360   2.075  16.730 -2.3602 -0.4390  2.4297
  797MPD2    N111805   4.578   1.644  17.031  0.4664 -0.0105 -0.2671
  797MPD2    H711806   4.673   1.660  16.996 -0.0454 -1.2802 -2.2303
  798MPD2     C11807   0.362   1.942  16.596  0.3687  0.4111 -0.2607
  798MPD2    C111808   0.248   1.969  16.667 -0.1784  0.2440  0.4031
  798MPD2    C211809   0.214   1.888  16.777  0.4288  0.2292 -0.8428
  798MPD2    C311810   0.289   1.779  16.816 -0.0640  0.3931 -0.1019
  798MPD2    C411811   0.411   1.756  16.758 -0.7711  0.6697 -0.1716
  798MPD2    C511812   0.434   1.832  16.641 -0.6015 -0.0733 -0.5409
  798MPD2     H11813   0.120   1.908  16.827  0.7004 -0.6720  0.0297
  798MPD2    H111814   0.476   1.671  16.773 -0.8386  0.8820  1.3241
  798MPD2    H211815   0.393   1.986  16.502  1.7246 -0.6355 -0.3070
  798MPD2    H311816   0.529   1.818  16.591 -0.1544  2.6740 -0.4529
  798MPD2     N11817   0.233   1.690  16.912 -0.3333 -0.1843 -0.2881
  798MPD2    H511818   0.152   1.729  16.958  0.1379  0.1343  0.2650
  798MPD2    N111819   0.160   2.071  16.634  0.4686  0.1859  0.0468
  798MPD2    H711820   0.074   2.072  16.688  0.1095 -0.7843 -0.5103
  799MPD2     C11821   3.752   3.251  14.538 -0.6194  0.5877 -0.1282
  799MPD2    C111822   3.627   3.221  14.509 -0.0092 -0.4999  0.0184
  799MPD2    C211823   3.556   3.301  14.419  0.1078  0.7163  0.0851
  799MPD2    C311824   3.614   3.413  14.358  0.2586 -0.6577 -0.3411
  799MPD2    C411825   3.742   3.437  14.388  0.3119  1.1084  0.2104
  799MPD2    C511826   3.811   3.354  14.474  0.5959  0.4451 -1.1197
  799MPD2     H11827   3.449   3.283  14.420  0.2497 -0.1211  0.1137
  799MPD2    H111828   3.796   3.512  14.332 -1.5673  0.2853 -2.6829
  799MPD2    H211829   3.816   3.207  14.614 -1.6044  2.1006  1.5689
  799MPD2    H311830   3.914   3.380  14.499 -0.2570  1.2755  1.5247
  799MPD2     N11831   3.547   3.506  14.281 -0.1803 -0.4693  0.2839
  799MPD2    H511832   3.601   3.585  14.246 -1.4774 -0.5864 -2.0056
  799MPD2    N111833   3.561   3.113  14.573  0.1801  0.3786 -0.4345
  799MPD2    H711834   3.469   3.106  14.533  0.3024 -2.0903 -0.2771
  800MPD2     C11835   3.891   4.192  13.726 -0.3882  0.5232  0.8282
  800MPD2    C111836   4.018   4.231  13.689 -0.2478 -0.3759  0.2132
  800MPD2    C211837   4.040   4.258  13.554 -0.2034 -0.0023  0.5074
  800MPD2    C311838   3.948   4.237  13.456  0.4144  0.1518 -0.2051
  800MPD2    C411839   3.819   4.217  13.498  0.3859  0.4074  0.3193
  800MPD2    C511840   3.798   4.196  13.632  0.2413  0.7467 -0.0888
  800MPD2     H11841   4.135   4.302  13.526  0.0185 -1.1352 -0.5362
  800MPD2    H111842   3.738   4.208  13.427  0.4112  5.2799 -0.3679
  800MPD2    H211843   3.861   4.166  13.826 -2.2384  2.3282  0.7543
  800MPD2    H311844   3.703   4.152  13.659  0.1867  1.5668  1.0181
  800MPD2     N11845   3.989   4.273  13.323  0.2637  0.3676 -0.2213
  800MPD2    H511846   4.088   4.279  13.299 -0.1270 -1.3768 -2.2568
  800MPD2    N111847   4.124   4.255  13.783  0.0080  0.2280 -0.1484
  800MPD2    H711848   4.097   4.250  13.881  1.0558 -0.9556  0.0740
  801MPD2     C11849   4.071   4.600  14.396  0.1567  0.1679 -0.5309
  801MPD2    C111850   4.059   4.470  14.338  0.4055  0.3456 -0.0283
  801MPD2    C211851   3.965   4.383  14.379  0.0333  0.0860  0.1746
  801MPD2    C311852   3.893   4.412  14.493 -0.0900  0.4233 -0.3150
  801MPD2    C411853   3.901   4.543  14.553  0.0610 -0.5143 -0.2167
  801MPD2    C511854   3.994   4.636  14.507  0.2764 -0.0956 -0.1605
  801MPD2     H11855   3.962   4.289  14.326  1.5925 -0.1706  0.5514
  801MPD2    H111856   3.845   4.562  14.644 -3.7887  1.8233 -3.0758
  801MPD2    H211857   4.134   4.677  14.352  2.0480  0.2774  2.4112
  801MPD2    H311858   4.011   4.727  14.564 -1.4992 -0.7652  1.4360
  801MPD2     N11859   3.795   4.328  14.543  0.1576  0.7481  0.0843
  801MPD2    H511860   3.738   4.374  14.613 -1.1342  0.8222 -1.0256
  801MPD2    N111861   4.129   4.437  14.218 -0.1672 -0.6715  0.4026
  801MPD2    H711862   4.101   4.356  14.165 -1.2554 -0.2004  0.2618
  802MPD2     C11863   3.289   0.168  17.668 -0.0165  0.4433  0.1787
  802MPD2    C111864   3.243   0.289  17.617  0.4055 -0.2240  0.2876
  802MPD2    C211865   3.280   0.334  17.494 -0.1741 -0.6999 -0.0457
  802MPD2    C311866   3.360   0.257  17.410 -0.4822  0.0789  0.3098
  802MPD2    C411867   3.397   0.139  17.460 -0.0933 -0.3357 -0.5744
  802MPD2    C511868   3.364   0.095  17.581 -0.0690 -0.1262 -0.2371
  802MPD2     H11869   3.256   0.431  17.450  0.1412 -0.5543  0.1024
  802MPD2    H111870   3.474   0.082  17.408  0.8818  0.4318  0.0178
  802MPD2    H211871   3.296   0.142   0.012  0.0514  0.3382  0.1479
  802MPD2    H311872   3.399   4.738  17.610 -0.2370 -0.1857 -0.2364
  802MPD2     N11873   3.410   0.305  17.285 -0.1135 -0.6674  0.3195
  802MPD2    H511874   3.390   0.400  17.255 -0.7748 -0.4230  1.5097
  802MPD2    N111875   3.155   0.369  17.683  1.2942 -0.3946 -0.2080
  802MPD2    H711876   3.115   0.453  17.642 -0.7436 -0.9894  0.5425
  803MPD2     C11877   0.035   3.467  12.082 -0.1398 -0.2577  0.0098
  803MPD2    C111878   0.131   3.467  12.183  0.2099  0.4923  0.6838
  803MPD2    C211879   0.128   3.359  12.272 -0.1129  0.1704  0.1679
  803MPD2    C311880   0.036   3.251  12.260  0.0323 -0.0921  0.3073
  803MPD2    C411881   4.673   3.254  12.164  0.5813 -0.2442  0.0817
  803MPD2    C511882   4.685   3.365  12.077  0.1366  0.3922 -0.4874
  803MPD2     H11883   0.199   3.350  12.354  0.5331  2.1178 -0.1731
  803MPD2    H111884   4.594   3.182  12.147 -0.1786  0.5571  0.2576
  803MPD2    H211885   0.026   3.547  12.009  0.5833  1.2550  1.5786
  803MPD2    H311886   4.617   3.367  11.993 -0.5928 -0.4878  0.0855
  803MPD2     N11887   0.045   3.142  12.350 -0.2082  0.6273 -0.0862
  803MPD2    H511888   4.706   3.079  12.345  0.8746 -0.8596  1.2985
  803MPD2    N111889   0.226   3.570  12.202  0.1931 -0.0970  0.3696
  803MPD2    H711890   0.295   3.558  12.276  2.1928 -1.8698 -1.7903
  804MPD2     C11891   3.970   0.181  16.908 -1.3408  0.1309  0.9664
  804MPD2    C111892   3.964   0.168  17.049  0.0910 -0.3388 -0.2825
  804MPD2    C211893   3.955   0.281  17.123  0.1207 -0.0388 -0.4149
  804MPD2    C311894   3.961   0.407  17.059  0.3800  0.1175 -0.0789
  804MPD2    C411895   3.966   0.416  16.925 -0.0321  0.2861 -0.0596
  804MPD2    C511896   3.979   0.303  16.850  0.0190  0.1858  0.1394
  804MPD2     H11897   3.956   0.267  17.231 -2.2995  0.7748 -0.2916
  804MPD2    H111898   3.975   0.517  16.885 -0.5358  0.7015  0.8663
  804MPD2    H211899   3.996   0.099  16.842  0.2033  0.6181  0.9865
  804MPD2    H311900   3.971   0.312  16.743  2.4282 -1.2343 -0.1769
  804MPD2     N11901   3.964   0.524  17.139  0.2454 -0.1117  0.0425
  804MPD2    H511902   3.948   0.512  17.238  1.8401 -1.1824  0.1642
  804MPD2    N111903   3.978   0.052  17.120 -0.3411 -0.0773 -0.2975
  804MPD2    H711904   3.983   0.071  17.219  1.2043 -1.2883 -0.1422
  805MPD2     C11905   3.021   3.590  15.235  0.4036  0.1634 -0.1953
  805MPD2    C111906   3.106   3.489  15.196 -0.3859  0.3380  0.5557
  805MPD2    C211907   3.230   3.489  15.259  0.6825 -0.2928 -0.3694
  805MPD2    C311908   3.264   3.564  15.364  0.4379  0.0513 -0.1589
  805MPD2    C411909   3.173   3.657  15.410 -0.6861 -0.3555  0.0862
  805MPD2    C511910   3.053   3.671  15.341 -0.1204 -0.2654 -0.3579
  805MPD2     H11911   3.314   3.425  15.235 -0.4463 -1.9427  0.0810
  805MPD2    H111912   3.198   3.733  15.482 -2.1816  0.8331 -0.6564
  805MPD2    H211913   2.922   3.608  15.196  1.5482  1.5803 -2.4396
  805MPD2    H311914   2.973   3.740  15.365  1.3353  1.9491 -1.8778
  805MPD2     N11915   3.392   3.540  15.425  0.3197  0.3652 -0.4526
  805MPD2    H511916   3.451   3.472  15.379 -0.5187 -0.3775 -0.4258
  805MPD2    N111917   3.081   3.387  15.098 -0.1639 -0.3316 -0.0587
  805MPD2    H711918   3.146   3.310  15.087  0.4645  0.1063  0.5785
  806MPD2     C11919   3.423   3.056   0.032  0.2774 -0.7532  0.0498
  806MPD2    C111920   3.436   3.140   0.145 -0.0692 -0.3468 -0.4639
  806MPD2    C211921   3.521   3.252   0.140 -0.0643 -1.4032  0.6997
  806MPD2    C311922   3.591   3.273   0.019  0.2097 -0.3536  0.2894
  806MPD2    C411923   3.567   3.191  17.673  0.6141  0.6159 -0.1367
  806MPD2    C511924   3.488   3.083  17.677  0.0331 -0.1156 -0.3159
  806MPD2     H11925   3.535   3.317   0.225  0.6148 -0.0382 -0.4631
  806MPD2    H111926   3.628   3.198  17.583  2.5188 -0.0440  1.1110
  806MPD2    H211927   3.382   2.957   0.047 -1.6277  0.3258  1.9292
  806MPD2    H311928   3.482   3.016  17.591  0.3029  1.9938 -1.9753
  806MPD2     N11929   3.680   3.381   0.017  0.1952 -0.2034 -0.0193
  806MPD2    H511930   3.701   3.433   0.102  2.1705 -2.8138  1.0554
  806MPD2    N111931   3.363   3.104   0.268 -0.4398 -0.3642 -0.4586
  806MPD2    H711932   3.310   3.018   0.269  0.0508 -0.6502  0.6636
  807MPD2     C11933   2.968   2.554   0.611 -1.0154  0.2911  0.5836
  807MPD2    C111934   2.977   2.649   0.707 -0.2259  0.5113 -0.0223
  807MPD2    C211935   2.920   2.622   0.830 -0.2371 -0.3606 -0.4307
  807MPD2    C311936   2.867   2.497   0.853 -0.1374  0.1571 -0.3913
  807MPD2    C411937   2.854   2.410   0.740 -0.0446 -0.0135 -0.2148
  807MPD2    C511938   2.898   2.439   0.625  0.4942  0.0225 -0.6132
  807MPD2     H11939   2.917   2.701   0.904  0.3857 -2.5191  1.9120
  807MPD2    H111940   2.803   2.314   0.746  1.5867 -0.8788 -0.3738
  807MPD2    H211941   3.008   2.565   0.510  0.6358  0.5805  1.2687
  807MPD2    H311942   2.884   2.364   0.548  0.2048  0.6482 -1.1704
  807MPD2     N11943   2.816   2.460   0.981  0.0067  0.1228 -0.4332
  807MPD2    H511944   2.835   2.531   1.051 -1.5539  0.8509 -0.7603
  807MPD2    N111945   3.044   2.771   0.685 -0.0609 -0.0744  0.0046
  807MPD2    H711946   3.032   2.839   0.760  1.6379 -0.0461  0.2433
  808MPD2     C11947   3.340   4.714   9.249  0.2588 -0.3425 -0.2476
  808MPD2    C111948   3.424   4.716   9.359  0.2616  0.5784 -0.2700
  808MPD2    C211949   3.494   0.091   9.378 -0.6511 -0.2663  0.1323
  808MPD2    C311950   3.485   0.204   9.303 -0.5684  1.0767 -0.3959
  808MPD2    C411951   3.383   0.202   9.204  0.3742 -0.0364  0.0853
  808MPD2    C511952   3.313   0.084   9.179 -0.0349  0.2859  0.7501
  808MPD2     H11953   3.578   0.091   9.447  0.6800 -0.7589 -1.4762
  808MPD2    H111954   3.369   0.279   9.130 -0.5113  0.3744  0.6812
  808MPD2    H211955   3.285   4.630   9.209 -0.9983  0.2267  0.2947
  808MPD2    H311956   3.242   0.078   9.097 -0.0409  0.4931  0.7401
  808MPD2     N11957   3.566   0.322   9.315 -0.0362  0.4156  0.2256
  808MPD2    H511958   3.548   0.399   9.251  1.9632  0.0981 -0.7103
  808MPD2    N111959   3.454   4.600   9.429 -0.1693  0.3641 -0.1012
  808MPD2    H711960   3.537   4.603   9.488 -0.5515  0.2006  0.4460
  809MPD2     C11961   4.355   0.784   8.885 -0.5324 -0.4974  0.0521
  809MPD2    C111962   4.329   0.657   8.920 -0.3236  0.4247 -1.1949
  809MPD2    C211963   4.217   0.628   8.996  0.2774 -0.0974 -0.4177
  809MPD2    C311964   4.143   0.736   9.056 -0.5184  0.3823  0.2477
  809MPD2    C411965   4.183   0.859   9.031  0.1496 -0.2006  0.0689
  809MPD2    C511966   4.277   0.884   8.943  0.1197  0.8178  0.1402
  809MPD2     H11967   4.202   0.530   9.038  0.7509  0.8135  1.8665
  809MPD2    H111968   4.127   0.937   9.081 -0.2527 -0.1527 -0.4589
  809MPD2    H211969   4.424   0.824   8.811 -1.7904  1.9382  0.1884
  809MPD2    H311970   4.300   0.988   8.920 -5.3081  1.5020 -2.2472
  809MPD2     N11971   4.033   0.720   9.140 -0.4547  0.1183  0.2936
  809MPD2    H511972   4.001   0.802   9.191 -0.2384 -0.1130  0.7999
  809MPD2    N111973   4.406   0.555   8.865 -0.5926 -0.6326  0.2409
  809MPD2    H711974   4.391   0.460   8.896 -2.1973 -1.0145 -1.7034
  810MPD2     C11975   3.631   3.708   9.880 -0.1066  0.0337 -0.4706
  810MPD2    C111976   3.649   3.765  10.004  0.9329 -0.0710 -0.3075
  810MPD2    C211977   3.743   3.872  10.011 -0.7683 -0.4877 -0.2482
  810MPD2    C311978   3.793   3.937   9.898 -0.1820  0.4811  0.1286
  810MPD2    C411979   3.766   3.879   9.773 -0.4952 -0.7244  0.0209
  810MPD2    C511980   3.698   3.763   9.775 -0.1802  0.0617 -0.7473
  810MPD2     H11981   3.775   3.905  10.109 -0.9993 -2.8170  0.6081
  810MPD2    H111982   3.797   3.915   9.676 -1.7469 -0.4073 -0.2614
  810MPD2    H211983   3.567   3.621   9.867 -1.9284  1.0127  1.9808
  810MPD2    H311984   3.669   3.713   9.683  0.6395 -1.0772 -0.3746
  810MPD2     N11985   3.877   4.048   9.901  0.7961 -0.0071  0.3198
  810MPD2    H511986   3.898   4.094   9.814  1.0775  0.8789  0.8547
  810MPD2    N111987   3.565   3.721  10.110 -0.7379  0.3753 -0.0632
  810MPD2    H711988   3.494   3.653  10.085 -0.3935 -0.5220  1.4200
  811MPD2     C11989   2.800   4.044  10.181  1.2191 -0.1079 -0.1117
  811MPD2    C111990   2.926   4.069  10.221 -0.5499  0.0359  0.1842
  811MPD2    C211991   2.980   4.197  10.200  0.0414  0.6628  0.1477
  811MPD2    C311992   2.899   4.294  10.140 -0.3704  0.5230  0.0249
  811MPD2    C411993   2.770   4.265  10.106 -0.8493 -0.1069 -0.3921
  811MPD2    C511994   2.718   4.142  10.136 -0.5030  0.1134  0.1623
  811MPD2     H11995   3.079   4.237  10.220  0.9255 -1.8869  0.8654
  811MPD2    H111996   2.700   4.344  10.084  1.5686  1.7935 -1.2838
  811MPD2    H211997   2.763   3.944  10.200  0.0328  0.2277 -0.6278
  811MPD2    H311998   2.610   4.137  10.125 -0.4501 -2.2125  0.7684
  811MPD2     N11999   2.952   4.430  10.122 -0.1541 -0.7139  0.0769
  811MPD2    H512000   3.044   4.453  10.159  0.5760 -1.4470 -1.2559
  811MPD2    N112001   3.004   3.966  10.269  0.6676 -0.0439 -0.5013
  811MPD2    H712002   2.976   3.870  10.251 -0.6506  0.1865  0.2636
  812MPD2     C12003   2.453   3.979  11.677  0.4075  0.6362 -0.1611
  812MPD2    C112004   2.338   3.914  11.729 -0.2427 -0.0281  0.0298
  812MPD2    C212005   2.351   3.805  11.809 -0.1607  0.0065 -0.2123
  812MPD2    C312006   2.479   3.753  11.834  0.5937  0.0253 -0.5839
  812MPD2    C412007   2.588   3.811  11.770  0.0225  0.1939  0.0938
  812MPD2    C512008   2.577   3.923  11.693  0.0762 -0.2325 -0.3764
  812MPD2     H12009   2.273   3.758  11.868 -0.6310  1.0165 -0.0372
  812MPD2    H112010   2.687   3.771  11.788 -0.9908 -1.9750  0.8494
  812MPD2    H212011   2.433   4.067  11.616 -1.0570 -0.0831 -0.7033
  812MPD2    H312012   2.664   3.958  11.640  0.2971 -0.1573  0.0399
  812MPD2     N12013   2.497   3.654  11.934 -0.4855 -0.4270  0.4249
  812MPD2    H512014   2.411   3.610  11.964 -1.2408 -0.3159 -1.5750
  812MPD2    N112015   2.220   3.991  11.709 -0.2575  0.2077  0.2595
  812MPD2    H712016   2.221   4.085  11.670 -1.0869  0.1150  0.0177
  813MPD2     C12017   1.366   0.494  12.815 -0.0028 -0.0274  0.0380
  813MPD2    C112018   1.450   0.593  12.870 -0.3978 -0.6154 -0.6833
  813MPD2    C212019   1.414   0.645  12.992 -0.0801  0.0069 -0.4855
  813MPD2    C312020   1.310   0.602  13.071 -0.0898  0.7723 -0.5300
  813MPD2    C412021   1.228   0.499  13.011 -0.0292  0.0176 -0.6885
  813MPD2    C512022   1.256   0.451  12.885 -0.3418 -0.4782 -0.2161
  813MPD2     H12023   1.493   0.705  13.035  1.1452 -0.4594 -2.1085
  813MPD2    H112024   1.133   0.478  13.057 -0.4704  2.2911 -0.5221
  813MPD2    H212025   1.390   0.461  12.715 -2.3941  1.1932 -0.9462
  813MPD2    H312026   1.188   0.387  12.830 -0.2926 -0.2494 -0.5461
  813MPD2     N12027   1.275   0.668  13.188  0.3578  0.5991 -0.4369
  813MPD2    H512028   1.314   0.759  13.209  1.4572  0.0962 -0.3295
  813MPD2    N112029   1.574   0.640  12.815 -0.7031 -0.1363 -0.1733
  813MPD2    H712030   1.628   0.708  12.866  0.3693 -0.8727 -0.3298
  814MPD2     C12031   2.338   2.136  12.302  1.0026 -0.6765 -0.6097
  814MPD2    C112032   2.413   2.155  12.194  0.0435 -0.1033  0.4623
  814MPD2    C212033   2.485   2.275  12.182 -0.4990 -0.6644  0.5996
  814MPD2    C312034   2.490   2.370  12.277  0.1071 -0.0409  0.1609
  814MPD2    C412035   2.412   2.352  12.390 -0.5584  0.2666  0.1503
  814MPD2    C512036   2.343   2.235  12.400  0.0748  0.2387 -0.2694
  814MPD2     H12037   2.535   2.297  12.088  0.8676  0.0180  1.4927
  814MPD2    H112038   2.396   2.425  12.469  0.0057  0.0886  0.4289
  814MPD2    H212039   2.261   2.060  12.310  0.1801  0.0319 -1.6887
  814MPD2    H312040   2.290   2.235  12.494 -0.5157  0.7340 -0.5991
  814MPD2     N12041   2.549   2.499  12.269  0.1218 -0.0237  0.4289
  814MPD2    H512042   2.532   2.563  12.346 -0.5911 -1.2122  1.2714
  814MPD2    N112043   2.388   2.082  12.073  0.4060 -0.4340  0.4868
  814MPD2    H712044   2.427   2.110  11.983  2.9682 -2.5022  0.9404
  815MPD2     C12045   3.002   1.037  11.715  0.5701 -0.8850 -0.5978
  815MPD2    C112046   2.936   0.916  11.687  0.0640  0.5918 -0.1922
  815MPD2    C212047   2.831   0.885  11.776  0.9189 -0.0289 -0.4390
  815MPD2    C312048   2.785   0.970  11.871 -0.1250 -0.2484 -0.2088
  815MPD2    C412049   2.852   1.089  11.894  0.0816  0.1710  0.3727
  815MPD2    C512050   2.965   1.114  11.813 -0.0877  0.0222  0.2191
  815MPD2     H12051   2.764   0.801  11.767  1.0305 -0.4483  2.5549
  815MPD2    H112052   2.813   1.162  11.964 -0.7156 -0.4096  0.5326
  815MPD2    H212053   3.092   1.059  11.659 -1.0620  1.5459 -2.2894
  815MPD2    H312054   3.021   1.206  11.826 -0.9023  0.2002  2.5594
  815MPD2     N12055   2.671   0.932  11.946 -0.4163  0.3871 -0.0603
  815MPD2    H512056   2.635   0.841  11.917  1.4049 -0.1702 -0.5841
  815MPD2    N112057   2.978   0.841  11.577  0.2876  0.4156  0.1083
  815MPD2    H712058   3.047   0.886  11.517  0.6926  0.6977  0.7818
  816MPD2     C12059   2.841   4.725  17.536 -0.4189  0.2345  0.0700
  816MPD2    C112060   2.815   0.073  17.432  0.7021  0.5882  0.0536
  816MPD2    C212061   2.910   0.085  17.337 -0.3964 -0.1488 -0.2175
  816MPD2    C312062   3.036   0.026  17.354 -0.3522  0.0586 -0.4307
  816MPD2    C412063   3.060   4.687  17.466  0.0256  0.1484 -0.1169
  816MPD2    C512064   2.962   4.664  17.560 -0.1890  0.6201 -0.2929
  816MPD2     H12065   2.876   0.142  17.252  0.0280 -0.9478 -0.9238
  816MPD2    H112066   3.154   4.643  17.498 -0.4562 -2.1337 -1.8278
  816MPD2    H212067   2.774   4.709  17.620  0.2463  1.9278  0.9201
  816MPD2    H312068   2.970   4.616  17.656  1.4300 -1.8399 -1.6625
  816MPD2     N12069   3.127   0.012  17.247 -0.0039 -0.1792  0.1765
  816MPD2    H512070   3.215   4.706  17.269 -0.1208 -0.0801  0.8643
  816MPD2    N112071   2.695   0.149  17.445  0.1174 -0.7508 -0.3142
  816MPD2    H712072   2.642   0.124  17.528 -1.6955  2.4740 -0.4768
  817MPD2     C12073   1.853   1.633   9.611  0.1221 -0.5162 -0.0755
  817MPD2    C112074   1.777   1.579   9.511  0.0304  0.2523 -0.8573
  817MPD2    C212075   1.695   1.662   9.443  0.2062 -0.7382  0.9654
  817MPD2    C312076   1.678   1.796   9.475  0.3805  0.1237 -0.0120
  817MPD2    C412077   1.744   1.847   9.583  0.9333  0.1281 -0.7508
  817MPD2    C512078   1.839   1.772   9.644 -0.6631  0.2323  0.4381
  817MPD2     H12079   1.631   1.624   9.364  1.1148  1.1471 -0.6622
  817MPD2    H112080   1.742   1.950   9.616 -0.4938 -0.7898  2.0191
  817MPD2    H212081   1.937   1.575   9.649 -0.4888 -0.6841  1.0026
  817MPD2    H312082   1.917   1.819   9.704 -0.5718 -0.4560  0.8530
  817MPD2     N12083   1.600   1.874   9.393  0.0121 -0.1331  0.8704
  817MPD2    H512084   1.564   1.828   9.310  2.7867  2.4691 -1.7352
  817MPD2    N112085   1.776   1.441   9.470  0.1536 -0.0599  0.3307
  817MPD2    H712086   1.720   1.419   9.389 -0.3502  0.9207  0.4094
  818MPD2     C12087   1.006   1.648   9.744  0.1618  0.0141  0.2699
  818MPD2    C112088   1.044   1.565   9.842  0.5502  0.0440 -0.2704
  818MPD2    C212089   1.062   1.433   9.820 -0.6175  0.0872  0.3413
  818MPD2    C312090   1.057   1.379   9.691 -0.0070  0.3904 -0.6282
  818MPD2    C412091   1.028   1.466   9.588  0.0266 -0.5264 -0.4909
  818MPD2    C512092   1.008   1.598   9.621  0.2087  0.5764  0.0921
  818MPD2     H12093   1.083   1.364   9.900  0.3146  0.3880  0.3573
  818MPD2    H112094   1.006   1.436   9.486  0.3448  0.3871 -0.8321
  818MPD2    H212095   0.973   1.751   9.756 -2.1819 -0.8232  0.8271
  818MPD2    H312096   0.971   1.669   9.548 -0.1694 -1.2595 -1.5151
  818MPD2     N12097   1.065   1.239   9.678 -0.3180  0.1896 -0.3536
  818MPD2    H512098   1.067   1.182   9.762 -1.4484 -1.2699 -1.3211
  818MPD2    N112099   1.067   1.616   9.973  0.7307  0.3959  0.9555
  818MPD2    H712100   1.096   1.552  10.046 -2.0295  1.2661  2.8213
  819MPD2     C12101   3.748   2.811  15.633  0.0619 -0.4479  0.1574
  819MPD2    C112102   3.809   2.708  15.568 -0.4787  0.6976  0.0475
  819MPD2    C212103   3.947   2.690  15.592  1.1459  0.2282 -0.4136
  819MPD2    C312104   4.021   2.780  15.677 -0.1632 -0.1480 -0.2604
  819MPD2    C412105   3.956   2.888  15.729 -0.3484 -1.1435  0.2518
  819MPD2    C512106   3.819   2.901  15.711  0.0297 -0.6882 -0.6157
  819MPD2     H12107   4.005   2.614  15.542  2.1487  0.1017  0.9391
  819MPD2    H112108   3.999   2.958  15.798 -0.4211  1.5309 -2.4256
  819MPD2    H212109   3.645   2.826  15.605  0.6033  3.2063  0.0196
  819MPD2    H312110   3.766   2.987  15.751  1.5346  0.3335 -0.8258
  819MPD2     N12111   4.155   2.754  15.697  0.8499 -0.2780  0.2228
  819MPD2    H512112   4.189   2.673  15.647 -2.0984 -0.1661 -1.9216
  819MPD2    N112113   3.723   2.615  15.491 -0.0884  0.3523 -0.0368
  819MPD2    H712114   3.627   2.642  15.468  0.3482  1.9511  0.0500
  820MPD2     C12115   2.936   2.561  14.900 -0.0483 -0.3502  0.7640
  820MPD2    C112116   3.036   2.659  14.939 -0.0098  0.2270  0.5596
  820MPD2    C212117   3.149   2.619  15.000  0.4837  0.3903 -0.0699
  820MPD2    C312118   3.162   2.482  15.034 -0.1227  0.0298  0.5818
  820MPD2    C412119   3.071   2.388  15.002  0.6946  0.0453 -0.4288
  820MPD2    C512120   2.961   2.431  14.924 -1.0164  0.5773  0.3512
  820MPD2     H12121   3.234   2.683  15.021  0.1113  0.6798  0.5633
  820MPD2    H112122   3.081   2.283  15.027 -1.4834  0.1379  0.7769
  820MPD2    H212123   2.840   2.596  14.864  0.8829  1.0283 -0.3687
  820MPD2    H312124   2.889   2.355  14.895  0.5082 -0.2158 -1.3684
  820MPD2     N12125   3.284   2.426  15.084  0.3556 -0.1892  0.6288
  820MPD2    H512126   3.296   2.326  15.083 -2.7941 -0.5500 -0.7024
  820MPD2    N112127   2.997   2.796  14.908  0.0558 -0.4397  0.3733
  820MPD2    H712128   2.917   2.807  14.846  2.1776  1.6878 -1.9711
  821MPD2     C12129   4.010   0.122  12.783  0.1312  0.2844  0.4326
  821MPD2    C112130   4.103   0.020  12.798  0.1224  0.4611  1.1720
  821MPD2    C212131   4.229   0.046  12.758  0.6404 -0.2875  0.0999
  821MPD2    C312132   4.269   0.166  12.700 -0.1915  0.6002 -0.6782
  821MPD2    C412133   4.176   0.266  12.680  0.0318 -0.1912 -0.7659
  821MPD2    C512134   4.048   0.244  12.725 -0.6023  0.3851  0.1339
  821MPD2     H12135   4.301   4.706  12.773 -0.5667 -1.4869 -0.5677
  821MPD2    H112136   4.208   0.358  12.632  0.1262 -0.3402 -0.9893
  821MPD2    H212137   3.907   0.113  12.817 -0.1326 -0.7867 -0.6717
  821MPD2    H312138   3.975   0.323  12.719  0.1830  1.1903  1.1387
  821MPD2     N12139   4.405   0.176  12.668  0.0555 -0.6321 -0.1360
  821MPD2    H512140   4.463   0.101  12.704  0.9672  1.5691  2.9636
  821MPD2    N112141   4.079   4.630  12.831 -0.5869  0.2392 -0.2934
  821MPD2    H712142   4.161   4.570  12.831 -1.8437 -1.4561 -0.6638
  822MPD2     C12143   4.673   4.476  15.818 -0.0430  0.2852  0.4124
  822MPD2    C112144   4.689   4.421  15.943 -0.0611 -0.4227  0.2367
  822MPD2    C212145   4.608   4.470  16.043  0.2236 -0.3336 -0.4071
  822MPD2    C312146   4.533   4.582  16.028 -0.2691 -0.3926  0.0858
  822MPD2    C412147   4.510   4.635  15.902  0.6210 -0.0384  0.5074
  822MPD2    C512148   4.574   4.576  15.799  0.6044  0.5701 -0.1797
  822MPD2     H12149   4.607   4.426  16.142 -3.3361  0.1830 -0.2015
  822MPD2    H112150   4.450   4.723  15.882 -1.3740 -1.6414 -0.5484
  822MPD2    H212151   4.721   4.443  15.726  0.4140 -0.0610  0.7799
  822MPD2    H312152   4.569   4.620  15.700  0.8558  1.1766  0.0774
  822MPD2     N12153   4.482   4.641  16.147  0.0192  0.2270 -0.2837
  822MPD2    H512154   4.477   4.575  16.225 -1.2100  0.5601 -0.0794
  822MPD2    N112155   0.052   4.330  15.971 -0.6092  0.3528  0.0093
  822MPD2    H712156   0.086   4.337  16.066  0.1457  2.0942 -0.3870
  823MPD2     C12157   4.296   0.081  16.903  1.4234 -0.4428 -0.0459
  823MPD2    C112158   4.318   4.715  16.820  0.5236 -0.3847  0.3623
  823MPD2    C212159   4.370   4.595  16.870  0.4496  0.2206  0.3912
  823MPD2    C312160   4.394   4.576  17.008 -0.2195  0.2097 -0.2150
  823MPD2    C412161   4.376   4.684  17.086  0.0643 -0.3035  0.3400
  823MPD2    C512162   4.323   0.065  17.035  0.6625  0.0234  0.1072
  823MPD2     H12163   4.387   4.510  16.805 -1.6019 -0.8318  1.2261
  823MPD2    H112164   4.377   4.671  17.194 -1.1285  0.9711  0.5078
  823MPD2    H212165   4.249   0.176  16.880 -1.7146 -1.9776  0.1048
  823MPD2    H312166   4.291   0.142  17.104  2.5656  0.5705  0.3771
  823MPD2     N12167   4.433   4.453  17.066  0.4301  0.0392 -0.5621
  823MPD2    H512168   4.432   4.453  17.168 -0.3488 -0.9726 -0.5638
  823MPD2    N112169   4.279   4.740  16.688  0.5556  0.1701  0.1332
  823MPD2    H712170   4.248   0.094  16.666  0.0580 -0.3621 -1.4106
  824MPD2     C12171   0.801   3.785  16.006 -0.1787  0.1103  0.4481
  824MPD2    C112172   0.731   3.830  15.899  0.1072  0.4543  0.5523
  824MPD2    C212173   0.761   3.778  15.774 -0.6851 -0.2198  0.2748
  824MPD2    C312174   0.863   3.687  15.752 -0.3124 -1.0630  0.4742
  824MPD2    C412175   0.938   3.643  15.863 -0.2405  0.3999  0.0099
  824MPD2    C512176   0.896   3.689  15.991 -0.5852  1.4371  0.6733
  824MPD2     H12177   0.707   3.819  15.689  1.6572  0.2365 -0.9799
  824MPD2    H112178   1.020   3.574  15.849 -1.1136 -0.4755 -0.8502
  824MPD2    H212179   0.789   3.831  16.103  0.7698  1.1111  0.0842
  824MPD2    H312180   0.957   3.648  16.070  0.4988 -1.5774 -1.7183
  824MPD2     N12181   0.889   3.644  15.622 -0.0476  0.4433 -0.6810
  824MPD2    H512182   0.847   3.693  15.544 -0.1741  0.7192 -0.4360
  824MPD2    N112183   0.619   3.917  15.927  1.2395 -0.7955 -0.4382
  824MPD2    H712184   0.614   3.927  16.028 -0.3402  0.9206 -0.6989
  825MPD2     C12185   1.015   3.908  14.960  0.7062  0.3267 -0.1455
  825MPD2    C112186   0.969   3.919  15.091 -0.2885  0.1855  0.3421
  825MPD2    C212187   0.918   4.042  15.139  0.7652  0.1152 -0.7364
  825MPD2    C312188   0.923   4.153  15.050 -0.4855 -0.2965 -0.7655
  825MPD2    C412189   0.973   4.138  14.925 -0.0112  0.4444 -0.2433
  825MPD2    C512190   1.016   4.016  14.879 -0.0745  0.1956 -1.0503
  825MPD2     H12191   0.882   4.051  15.241  2.1863 -1.0473 -0.1452
  825MPD2    H112192   0.978   4.227  14.863  0.0372  0.8913  0.3961
  825MPD2    H212193   1.053   3.814  14.922  0.4683  0.8213 -1.5863
  825MPD2    H312194   1.046   4.001  14.776  0.8019 -2.1305 -0.4738
  825MPD2     N12195   0.877   4.280  15.088 -0.5247  0.3471 -0.0371
  825MPD2    H512196   0.883   4.345  15.010 -3.7690  1.7034  0.8420
  825MPD2    N112197   0.957   3.802  15.174  0.2908 -0.4054 -0.4901
  825MPD2    H712198   0.913   3.817  15.264  0.4703 -1.5028 -0.2191
  826MPD2     C12199   0.730   3.111  13.412  0.8131  0.4844  0.0431
  826MPD2    C112200   0.767   3.230  13.463 -0.1284  0.0967  0.6846
  826MPD2    C212201   0.678   3.337  13.468 -0.3522 -0.4091  0.1213
  826MPD2    C312202   0.549   3.315  13.428 -0.8357 -0.1479 -0.9857
  826MPD2    C412203   0.515   3.189  13.385 -0.7644  0.1948  0.1417
  826MPD2    C512204   0.610   3.088  13.374  0.1170  0.1787 -0.8230
  826MPD2     H12205   0.717   3.434  13.496 -0.5168 -0.2214 -0.3085
  826MPD2    H112206   0.413   3.162  13.359 -1.2314  1.9088  0.1767
  826MPD2    H212207   0.790   3.023  13.392  0.6032  0.5190 -0.7563
  826MPD2    H312208   0.580   2.989  13.340  1.1436 -0.2937 -0.3531
  826MPD2     N12209   0.443   3.403  13.450 -0.2186 -0.6459  0.0322
  826MPD2    H512210   0.349   3.365  13.448  0.4348 -2.1954 -2.5275
  826MPD2    N112211   0.896   3.242  13.518  0.0705  0.3772 -0.1013
  826MPD2    H712212   0.963   3.168  13.496  0.8137  1.3644 -1.1622
  827MPD2     C12213   1.286   0.422  10.354  0.6496  0.3019  0.0132
  827MPD2    C112214   1.417   0.375  10.371  0.2720  0.2881 -0.1748
  827MPD2    C212215   1.464   0.289  10.274  0.3048 -0.7581  0.2733
  827MPD2    C312216   1.393   0.245  10.164  0.0476  0.5875 -0.0683
  827MPD2    C412217   1.269   0.297  10.141 -1.0979  0.1139  0.7790
  827MPD2    C512218   1.218   0.383  10.240 -0.2501  0.3327 -0.4833
  827MPD2     H12219   1.557   0.245  10.310  1.8414  1.4719 -0.9780
  827MPD2    H112220   1.209   0.277  10.053 -0.0773  0.9816 -0.1127
  827MPD2    H212221   1.234   0.488  10.422 -0.9347  0.0592 -0.9735
  827MPD2    H312222   1.121   0.431  10.227 -0.6373 -0.6856 -1.3773
  827MPD2     N12223   1.453   0.163  10.070  0.0532  0.0957 -0.2078
  827MPD2    H512224   1.554   0.154  10.076  0.0107  0.1543  0.6916
  827MPD2    N112225   1.496   0.409  10.481 -0.0157 -0.6014 -0.7695
  827MPD2    H712226   1.577   0.350  10.495  0.8406  0.9628  0.8840
  828MPD2     C12227   0.249   0.313  11.595 -0.2500  0.1317 -1.0198
  828MPD2    C112228   0.135   0.394  11.598 -0.0643  0.2683  0.9165
  828MPD2    C212229   0.070   0.407  11.474  0.1260  0.0232 -0.4019
  828MPD2    C312230   0.109   0.346  11.359  0.4603 -1.0999  0.1128
  828MPD2    C412231   0.210   0.255  11.362 -0.3353  0.2786  0.1838
  828MPD2    C512232   0.289   0.247  11.474 -0.2229 -0.0718  0.1609
  828MPD2     H12233   4.725   0.472  11.471 -0.5992 -1.0557 -3.1369
  828MPD2    H112234   0.245   0.201  11.274 -0.6774  0.2813  0.0432
  828MPD2    H212235   0.316   0.299  11.679 -2.2554 -3.0903  0.0194
  828MPD2    H312236   0.387   0.200  11.478 -1.4073 -2.6869 -1.4891
  828MPD2     N12237   0.029   0.363  11.242 -0.1319  0.0921 -0.8316
  828MPD2    H512238   0.052   0.306  11.161 -0.9956 -1.3698 -0.0510
  828MPD2    N112239   0.087   0.460  11.708 -0.7820 -0.4243  1.2405
  828MPD2    H712240   0.008   0.522  11.697 -0.6517 -0.4850  0.0068
  829MPD2     C12241   4.390   1.088  11.575 -0.2014  0.3246  0.6302
  829MPD2    C112242   4.335   1.038  11.695  0.8510  0.5395  0.0722
  829MPD2    C212243   4.420   0.981  11.788 -0.3014  0.1088 -0.4760
  829MPD2    C312244   4.558   0.977  11.766  0.5658 -0.0090 -0.0119
  829MPD2    C412245   4.608   1.038  11.658  0.5254  0.3481  0.0789
  829MPD2    C512246   4.522   1.097  11.569 -0.6457 -0.3876  0.2962
  829MPD2     H12247   4.381   0.945  11.882  2.6424 -2.4178 -0.2157
  829MPD2    H112248   4.713   1.045  11.634  0.0243 -0.5891 -2.3578
  829MPD2    H212249   4.329   1.120  11.491  0.5914  1.7832  0.5992
  829MPD2    H312250   4.574   1.139  11.484 -0.0778 -1.9650 -0.1354
  829MPD2     N12251   4.644   0.900  11.839 -0.4511 -0.4527 -0.9957
  829MPD2    H512252   4.740   0.895  11.805  0.2287  0.0447  0.8427
  829MPD2    N112253   4.189   1.049  11.708  0.2829  0.0016  0.1050
  829MPD2    H712254   4.137   1.093  11.632 -1.1910  1.8451  2.1702
  830MPD2     C12255   0.246   2.692  15.479 -0.0031  0.3980 -0.2569
  830MPD2    C112256   0.110   2.714  15.455 -1.1869 -0.3085 -0.7642
  830MPD2    C212257   0.077   2.795  15.341  0.3411  0.3995 -0.4346
  830MPD2    C312258   0.182   2.853  15.270  0.3533 -0.0989 -0.4866
  830MPD2    C412259   0.311   2.826  15.300 -0.3167  0.7099 -0.6173
  830MPD2    C512260   0.344   2.739  15.397 -0.3160 -0.2919 -0.5534
  830MPD2     H12261   4.714   2.813  15.315  0.1908  2.6034  1.7158
  830MPD2    H112262   0.391   2.881  15.251  0.1016 -1.1989 -2.0405
  830MPD2    H212263   0.272   2.629  15.564  1.3677 -0.9349 -1.6637
  830MPD2    H312264   0.449   2.722  15.418 -0.7052 -0.8639  0.9477
  830MPD2     N12265   0.156   2.946  15.167  0.1027 -0.1419  0.0243
  830MPD2    H512266   0.237   2.995  15.131  0.0367 -0.3927 -0.4540
  830MPD2    N112267   0.010   2.658  15.537 -0.2471  0.1448 -0.8302
  830MPD2    H712268   0.047   2.599  15.611 -0.4575  1.1634  0.0869
  831MPD2     C12269   4.712   4.727  16.407  0.6505 -0.3855  0.0006
  831MPD2    C112270   0.034   4.640  16.323 -0.1829 -0.7869 -0.0627
  831MPD2    C212271   0.008   4.508  16.349  0.1565  0.7043 -0.1538
  831MPD2    C312272   4.670   4.451  16.449 -0.8391 -0.9001 -0.1011
  831MPD2    C412273   4.629   4.536  16.548  0.5187 -0.7494 -0.5007
  831MPD2    C512274   4.651   4.673  16.522 -0.1046 -0.0270 -0.4745
  831MPD2     H12275   0.061   4.441  16.282 -1.4228 -0.4156 -0.2947
  831MPD2    H112276   4.569   4.500  16.631 -0.9862 -1.7950 -2.0424
  831MPD2    H212277   4.717   0.094  16.391 -0.3001 -0.2450  0.6862
  831MPD2    H312278   4.606   0.007  16.586 -1.0366  0.4674 -1.7030
  831MPD2     N12279   4.652   4.305  16.455 -0.1381  0.5966  0.1562
  831MPD2    H512280   4.604   4.271  16.537 -0.7999  1.2677  0.0498
  831MPD2    N112281   0.114   4.681  16.212 -0.3405 -0.0554 -0.1081
  831MPD2    H712282   0.114   0.038  16.186 -0.2409 -0.0477 -0.0778
  832MPD2     C12283   3.293   1.179  17.266  0.3735 -0.3847 -0.4647
  832MPD2    C112284   3.222   1.301  17.262  0.3645 -0.4275 -0.8880
  832MPD2    C212285   3.103   1.308  17.189  0.3528  0.1105 -0.2371
  832MPD2    C312286   3.067   1.203  17.111  0.5069  0.6864 -0.6462
  832MPD2    C412287   3.144   1.092  17.099 -0.5519 -0.5451  0.1950
  832MPD2    C512288   3.253   1.075  17.181 -0.4190 -0.3070  0.1745
  832MPD2     H12289   3.032   1.388  17.207 -0.5792 -1.0134  1.0118
  832MPD2    H112290   3.119   1.017  17.025  0.6231 -2.0079  1.2893
  832MPD2    H212291   3.373   1.162  17.336  1.0945  0.7620 -1.0013
  832MPD2    H312292   3.311   0.984  17.171 -1.9451 -0.9380 -2.8282
  832MPD2     N12293   2.956   1.207  17.027  0.1191  0.1861 -0.2453
  832MPD2    H512294   2.941   1.124  16.970 -0.3782 -0.0126  0.1777
  832MPD2    N112295   3.274   1.410  17.327  0.7026  0.1160 -1.2520
  832MPD2    H712296   3.217   1.490  17.351 -0.6578 -0.3541 -2.9156
  833MPD2     C12297   1.143   2.670  12.183 -0.2552  0.6554  0.1456
  833MPD2    C112298   1.048   2.739  12.102  0.0403 -0.5447  1.0744
  833MPD2    C212299   1.099   2.857  12.038 -0.2678 -0.0956 -0.2474
  833MPD2    C312300   1.221   2.920  12.072 -0.1370 -0.3433  0.0001
  833MPD2    C412301   1.307   2.847  12.153 -0.0479  0.5007 -0.1595
  833MPD2    C512302   1.267   2.727  12.203  0.0192  0.5802  0.2895
  833MPD2     H12303   1.028   2.908  11.974  1.7405 -0.6840 -2.9503
  833MPD2    H112304   1.410   2.876  12.167  0.4072 -1.0742 -0.3187
  833MPD2    H212305   1.128   2.567  12.214  1.4527  0.3521  0.0010
  833MPD2    H312306   1.339   2.666  12.255 -0.5081  0.3168  0.7033
  833MPD2     N12307   1.266   3.033  12.007 -0.2101  0.3231  0.0502
  833MPD2    H512308   1.364   3.057  12.017 -0.0783 -0.9142  1.6369
  833MPD2    N112309   0.918   2.689  12.087  0.4449 -0.3538  0.7390
  833MPD2    H712310   0.886   2.614  12.147  3.7642 -1.3055  1.2945
  834MPD2     C12311   1.509   2.797  11.190  0.0934 -0.3931  0.0554
  834MPD2    C112312   1.374   2.809  11.220 -0.7274 -0.0846 -0.2402
  834MPD2    C212313   1.326   2.902  11.312  0.4857 -0.1248 -0.3814
  834MPD2    C312314   1.412   2.990  11.365 -0.7502  0.7397 -0.7236
  834MPD2    C412315   1.548   2.970  11.351 -0.3352  0.7504  0.6506
  834MPD2    C512316   1.593   2.882  11.256 -0.3936 -0.1875  0.0755
  834MPD2     H12317   1.224   2.913  11.346  0.7760  0.2675  0.3503
  834MPD2    H112318   1.628   3.028  11.395 -1.1010  0.1371  2.8347
  834MPD2    H212319   1.555   2.719  11.132 -1.7816 -0.7128 -1.0244
  834MPD2    H312320   1.701   2.868  11.257 -0.5092 -1.1103  1.5239
  834MPD2     N12321   1.352   3.072  11.462  0.0134  0.0465  0.2994
  834MPD2    H512322   1.253   3.091  11.456 -0.0751  0.2908  2.6550
  834MPD2    N112323   1.290   2.701  11.176  0.5275  0.0088 -0.8001
  834MPD2    H712324   1.329   2.633  11.112 -1.3125 -2.9860  1.2735
  835MPD2     C12325   0.878   0.431  11.013  0.2310  0.1589  0.4796
  835MPD2    C112326   0.870   0.526  11.119 -0.5134 -0.1703  0.0321
  835MPD2    C212327   0.956   0.507  11.227  0.0870 -0.8367 -0.2582
  835MPD2    C312328   1.044   0.403  11.246 -0.5686 -0.6595 -0.3568
  835MPD2    C412329   1.045   0.305  11.147 -0.4290 -0.0918 -0.0712
  835MPD2    C512330   0.967   0.321  11.033  0.0199 -0.6795 -0.2746
  835MPD2     H12331   0.948   0.580  11.307 -1.2109 -1.7729  0.4717
  835MPD2    H112332   1.111   0.219  11.152 -0.2757  0.0762  0.9139
  835MPD2    H212333   0.823   0.439  10.920  0.4118  0.9671  0.4356
  835MPD2    H312334   0.963   0.247  10.954 -0.5763  1.0062 -1.8274
  835MPD2     N12335   1.110   0.385  11.371  0.6646 -0.3290 -0.2824
  835MPD2    H512336   1.093   0.465  11.431 -0.5183  1.3327 -2.8289
  835MPD2    N112337   0.776   0.633  11.118  0.0365  0.3509  0.6320
  835MPD2    H712338   0.772   0.694  11.199  1.5686 -0.6312  1.4461
  836MPD2     C12339   0.999   0.248  12.185 -0.5497  0.7470  0.5487
  836MPD2    C112340   1.003   0.343  12.084  0.7545 -0.3449 -0.1372
  836MPD2    C212341   0.907   0.440  12.085  0.0571 -0.2111 -0.4815
  836MPD2    C312342   0.816   0.451  12.191 -0.7287 -0.2167 -0.2446
  836MPD2    C412343   0.830   0.365  12.294  0.4585 -0.0006  0.1948
  836MPD2    C512344   0.913   0.259  12.284  0.0532  0.5589  1.0080
  836MPD2     H12345   0.910   0.511  12.003  1.3226  0.4659  0.1422
  836MPD2    H112346   0.757   0.375  12.372 -0.2801 -1.0220 -0.3703
  836MPD2    H212347   1.079   0.175  12.190  0.0212  1.3524  0.3070
  836MPD2    H312348   0.913   0.178  12.356  1.2937  0.7771  1.2686
  836MPD2     N12349   0.726   0.564  12.205  0.3704  0.2782  0.5197
  836MPD2    H512350   0.658   0.558  12.280  0.3767  2.5721  0.7074
  836MPD2    N112351   1.101   0.330  11.982 -0.6965 -0.1789  0.3701
  836MPD2    H712352   1.169   0.256  11.983  0.8287  1.1486 -2.4810
  837MPD2     C12353   3.347   0.256  10.477  0.1070  0.1524  0.5008
  837MPD2    C112354   3.326   0.277  10.347 -0.3056  0.0288  0.9414
  837MPD2    C212355   3.399   0.375  10.282  0.4366  0.0430 -0.4112
  837MPD2    C312356   3.474   0.466  10.360  0.0786  0.2117 -0.0001
  837MPD2    C412357   3.501   0.439  10.493 -0.9566 -0.8434 -0.8410
  837MPD2    C512358   3.441   0.327  10.552 -0.3666 -0.2746  0.3011
  837MPD2     H12359   3.367   0.396  10.180 -1.6609 -0.1256  0.2127
  837MPD2    H112360   3.587   0.490  10.534 -1.8281  1.7998 -2.3360
  837MPD2    H212361   3.303   0.169  10.524  0.8969 -1.4076 -1.6677
  837MPD2    H312362   3.473   0.281  10.644 -2.6961  2.0177  2.2456
  837MPD2     N12363   3.524   0.579  10.290  0.4541  0.0350 -0.3662
  837MPD2    H512364   3.523   0.578  10.188  1.3114 -0.8355 -0.3620
  837MPD2    N112365   3.236   0.201  10.264  0.1242  0.4070  0.7755
  837MPD2    H712366   3.237   0.217  10.164  1.1416 -0.8067  0.5991
  838MPD2     C12367   2.115   3.266  11.777  0.5151  0.2943  1.3799
  838MPD2    C112368   2.247   3.223  11.767  0.4065  0.2357 -0.1303
  838MPD2    C212369   2.288   3.119  11.852  0.5087 -0.2036 -0.3959
  838MPD2    C312370   2.188   3.035  11.903  0.2262 -0.1335 -0.2692
  838MPD2    C412371   2.058   3.087  11.915 -0.0612  0.2396 -0.1287
  838MPD2    C512372   2.026   3.213  11.864 -0.3406  0.0874  0.5169
  838MPD2     H12373   2.392   3.088  11.851  1.0704  1.7005 -1.8021
  838MPD2    H112374   1.983   3.028  11.967  2.1005 -1.0848  1.4815
  838MPD2    H212375   2.074   3.356  11.733 -0.0972 -0.9087 -0.5321
  838MPD2    H312376   1.931   3.264  11.878  0.0504  0.9236  0.1352
  838MPD2     N12377   2.236   2.931  11.976 -0.0175 -0.6934 -0.0703
  838MPD2    H512378   2.337   2.921  11.984 -0.0504 -0.7049  0.3420
  838MPD2    N112379   2.334   3.278  11.667 -0.3145 -0.0291  0.3523
  838MPD2    H712380   2.421   3.227  11.660 -0.1286  0.4802 -1.0322
  839MPD2     C12381   2.329   2.590  11.747  0.1178 -0.5219 -0.3107
  839MPD2    C112382   2.300   2.595  11.609  0.0561 -0.7932  0.3983
  839MPD2    C212383   2.338   2.710  11.544  0.3384 -0.8417  0.3312
  839MPD2    C312384   2.395   2.817  11.600 -0.5821 -0.9008  0.7695
  839MPD2    C412385   2.438   2.803  11.727  0.4118  0.0155  0.3916
  839MPD2    C512386   2.411   2.693  11.799  0.6109 -0.0839 -0.0114
  839MPD2     H12387   2.314   2.722  11.439  0.1420 -0.6623  0.3958
  839MPD2    H112388   2.486   2.885  11.778 -0.6680  0.9139 -0.0222
  839MPD2    H212389   2.308   2.503  11.808 -1.8787 -0.2497 -0.6312
  839MPD2    H312390   2.439   2.678  11.902 -1.4743  0.3993  0.6223
  839MPD2     N12391   2.414   2.942  11.541  0.2284  0.6074 -0.1217
  839MPD2    H512392   2.466   3.011  11.593  0.0446 -0.4220  1.4120
  839MPD2    N112393   2.237   2.488  11.535  0.1142 -0.0936 -0.3696
  839MPD2    H712394   2.204   2.509  11.441  2.4258 -0.4514 -1.2568
  840MPD2     C12395   1.880   0.971  10.521 -0.1204 -0.3102 -0.2513
  840MPD2    C112396   1.930   0.871  10.607  0.1385 -0.0060 -1.1432
  840MPD2    C212397   2.067   0.881  10.647  0.0474  0.3836  0.2478
  840MPD2    C312398   2.154   0.969  10.586 -0.1547  0.1979  0.2383
  840MPD2    C412399   2.102   1.066  10.499 -0.2113  0.3765  0.1327
  840MPD2    C512400   1.965   1.068  10.471 -0.2123  0.1477  0.4214
  840MPD2     H12401   2.111   0.795  10.698  0.0776 -1.8407 -3.5397
  840MPD2    H112402   2.163   1.144  10.455  0.6715 -0.0380  0.6232
  840MPD2    H212403   1.775   0.982  10.495 -0.1311 -0.0141 -0.0793
  840MPD2    H312404   1.912   1.143  10.413 -2.4228 -0.6893  1.3680
  840MPD2     N12405   2.291   0.982  10.616  0.1290  0.1518 -0.3775
  840MPD2    H512406   2.336   1.069  10.588 -0.2760  0.0541 -1.3397
  840MPD2    N112407   1.838   0.773  10.651  0.1496 -0.0141 -0.2151
  840MPD2    H712408   1.748   0.769  10.605  0.7983  1.6019 -1.6489
  841MPD2     C12409   2.017   4.683  14.450  0.2236 -0.5417  0.5529
  841MPD2    C112410   1.897   0.012  14.440 -0.7013  0.0397 -0.4484
  841MPD2    C212411   1.885   0.137  14.483 -0.1355  0.1947 -0.3877
  841MPD2    C312412   1.992   0.210  14.533 -0.7304  0.1609 -1.0646
  841MPD2    C412413   2.111   0.136  14.547  0.2125  0.4640  0.8066
  841MPD2    C512414   2.128   0.010  14.497  0.6584 -0.4396 -0.3048
  841MPD2     H12415   1.785   0.179  14.488  0.5293  1.5508  1.5445
  841MPD2    H112416   2.200   0.171  14.597  0.8859  0.3769 -0.3462
  841MPD2    H212417   2.037   4.583  14.412 -1.3060 -0.0589 -1.5480
  841MPD2    H312418   2.225   4.707  14.519  0.1366 -1.8711 -0.8597
  841MPD2     N12419   1.979   0.343  14.569 -0.0522 -0.2268  0.3208
  841MPD2    H512420   1.889   0.385  14.546 -1.0874 -1.7616  1.6216
  841MPD2    N112421   1.783   4.702  14.378  1.2287  0.6018  0.3968
  841MPD2    H712422   1.715   0.031  14.351  0.5945 -0.4205 -0.6718
  842MPD2     C12423   2.524   1.612  16.983  0.6033  0.2206 -0.9396
  842MPD2    C112424   2.403   1.558  16.970  0.2955 -0.6334 -0.4090
  842MPD2    C212425   2.365   1.463  17.061  0.1261 -0.4058 -0.0973
  842MPD2    C312426   2.437   1.449  17.177  0.3993  0.6075 -0.3661
  842MPD2    C412427   2.554   1.515  17.195  0.0208 -0.3638 -0.2661
  842MPD2    C512428   2.597   1.592  17.097 -0.6523  0.0083 -0.3519
  842MPD2     H12429   2.263   1.430  17.045 -0.4472  1.8714 -1.2518
  842MPD2    H112430   2.610   1.497  17.287  0.3297 -0.7112 -0.5229
  842MPD2    H212431   2.573   1.662  16.900  0.1033  0.6277 -0.9870
  842MPD2    H312432   2.687   1.651  17.109  0.3501 -1.1277 -2.2651
  842MPD2     N12433   2.391   1.380  17.295 -0.6247 -0.8916  0.1012
  842MPD2    H512434   2.445   1.391  17.380  0.2560 -0.9261 -0.4504
  842MPD2    N112435   2.323   1.583  16.855  0.6880  0.6608 -0.3280
  842MPD2    H712436   2.357   1.665  16.806 -2.2584  1.2305 -1.4069
  843MPD2     C12437   4.142   2.268   0.236  0.0354  0.4972  0.4578
  843MPD2    C112438   4.260   2.216   0.196  0.3558  0.7772 -0.0377
  843MPD2    C212439   4.381   2.273   0.236 -1.2156 -0.1981 -0.1037
  843MPD2    C312440   4.386   2.377   0.318  0.4763 -0.6465  0.2656
  843MPD2    C412441   4.267   2.432   0.367  0.6569  0.7878 -0.1918
  843MPD2    C512442   4.149   2.369   0.327 -0.1333 -0.1508 -0.5241
  843MPD2     H12443   4.475   2.231   0.203 -1.2149  1.0926 -1.7334
  843MPD2    H112444   4.258   2.518   0.432  2.5327  1.1285 -0.3980
  843MPD2    H212445   4.045   2.230   0.207 -0.7267  1.8412  1.2249
  843MPD2    H312446   4.057   2.408   0.369 -0.9635  0.2475 -2.7467
  843MPD2     N12447   4.506   2.440   0.356 -0.1061  0.8287 -0.9482
  843MPD2    H512448   4.504   2.520   0.419  0.4330 -0.7235  1.0258
  843MPD2    N112449   4.248   2.109   0.100  0.4949  0.1256  0.4053
  843MPD2    H712450   4.151   2.081   0.090  0.4971  0.2059  0.1510
  844MPD2     C12451   2.888   1.192  16.378 -0.1919  0.3262  0.2202
  844MPD2    C112452   2.995   1.110  16.409 -0.5918  0.3954  0.2490
  844MPD2    C212453   3.072   1.126  16.525 -0.2370  0.1677  0.4036
  844MPD2    C312454   3.043   1.232  16.609 -0.5540 -0.1798 -0.0276
  844MPD2    C412455   2.934   1.310  16.578 -0.6812  0.1362  0.3875
  844MPD2    C512456   2.859   1.292  16.465 -1.0602 -0.0170  0.1876
  844MPD2     H12457   3.148   1.054  16.553 -0.4034  0.6759  2.1821
  844MPD2    H112458   2.904   1.394  16.640 -2.1505 -0.2231  0.1761
  844MPD2    H212459   2.837   1.198  16.282 -1.6296  1.0528  1.0308
  844MPD2    H312460   2.778   1.360  16.442 -0.7812 -0.0269 -0.8374
  844MPD2     N12461   3.132   1.258  16.720 -0.0815  0.6686  0.0641
  844MPD2    H512462   3.201   1.187  16.738 -0.1732  1.2999  2.8944
  844MPD2    N112463   3.017   1.009  16.316  0.2152  0.2106 -0.1710
  844MPD2    H712464   2.952   1.000  16.238  1.7962  1.6225 -1.6305
  845MPD2     C12465   3.250   1.991  17.377 -0.7540 -0.6320 -0.2888
  845MPD2    C112466   3.148   1.900  17.357  0.9445  0.1036  0.6377
  845MPD2    C212467   3.174   1.797  17.276  0.0813 -0.2832 -0.3895
  845MPD2    C312468   3.294   1.783  17.215  0.1695 -0.4958 -0.1253
  845MPD2    C412469   3.401   1.862  17.251 -0.3763  0.4370 -0.0967
  845MPD2    C512470   3.377   1.974  17.326 -0.4545  0.3621 -0.1250
  845MPD2     H12471   3.095   1.727  17.253  0.9949 -0.6809 -2.3236
  845MPD2    H112472   3.498   1.858  17.203 -0.1941  1.0913  0.2193
  845MPD2    H212473   3.224   2.088  17.420  1.8006 -0.1808  0.2416
  845MPD2    H312474   3.452   2.051  17.340 -1.0200  0.4863  2.1425
  845MPD2     N12475   3.314   1.678  17.117  0.1000 -0.3825  0.6973
  845MPD2    H512476   3.224   1.640  17.090 -0.1328  0.8584 -0.2226
  845MPD2    N112477   3.024   1.930  17.423 -0.5369  0.3807 -0.3184
  845MPD2    H712478   3.022   2.020  17.471 -1.3923  1.6826 -2.7983
  846MPD2     C12479   0.172   1.934  14.133 -0.2357  0.0936 -0.2910
  846MPD2    C112480   0.089   1.882  14.039  0.1797  0.2717 -0.0378
  846MPD2    C212481   4.703   1.850  14.083 -0.0298  0.1693  0.1760
  846MPD2    C312482   4.661   1.865  14.214  0.2004  0.0697  0.0477
  846MPD2    C412483   0.008   1.921  14.306 -0.8099  0.0080  0.1532
  846MPD2    C512484   0.134   1.948  14.262 -0.4965 -0.0989  0.0907
  846MPD2     H12485   4.634   1.801  14.015  2.5180 -3.2559  0.0660
  846MPD2    H112486   4.727   1.932  14.411 -1.6229  0.0255 -0.0181
  846MPD2    H212487   0.273   1.956  14.099  0.2512  0.4461  1.3838
  846MPD2    H312488   0.213   1.977  14.331 -0.0841  0.9606 -0.8296
  846MPD2     N12489   4.529   1.833  14.254 -0.2267 -0.4270  0.1143
  846MPD2    H512490   4.510   1.873  14.345 -1.6434 -2.0873  0.5427
  846MPD2    N112491   0.116   1.874  13.902 -0.1238 -0.0346 -0.2324
  846MPD2    H712492   0.042   1.856  13.835 -1.3662  1.6359  0.6846
  847MPD2     C12493   0.127   3.351  14.749  0.6676  0.0781  0.5405
  847MPD2    C112494   0.165   3.467  14.810  0.3633 -0.7160 -0.0801
  847MPD2    C212495   0.273   3.463  14.895  0.2371 -0.2681  0.0633
  847MPD2    C312496   0.319   3.344  14.937  0.1525  0.0872  0.2014
  847MPD2    C412497   0.287   3.230  14.871 -0.3119 -0.0792  0.5469
  847MPD2    C512498   0.201   3.234  14.768 -0.2532 -0.0827 -0.3825
  847MPD2     H12499   0.282   3.553  14.955 -1.0757 -1.3213  1.8772
  847MPD2    H112500   0.340   3.140  14.899 -2.8400 -2.1441 -1.3229
  847MPD2    H212501   0.048   3.347  14.675  1.1087 -0.0498  0.0762
  847MPD2    H312502   0.189   3.141  14.714 -1.5397  0.1535 -0.5032
  847MPD2     N12503   0.393   3.340  15.060  0.5720 -0.0755 -0.0363
  847MPD2    H512504   0.417   3.429  15.101  0.8779  0.5208 -1.5132
  847MPD2    N112505   0.090   3.590  14.805  0.3218 -0.1579  0.2035
  847MPD2    H712506   0.130   3.670  14.855 -1.1041  1.1661 -0.7755
  848MPD2     C12507   2.437   1.567  16.465 -0.1740  0.1034 -0.0987
  848MPD2    C112508   2.552   1.587  16.538 -0.1150  0.9203 -0.2647
  848MPD2    C212509   2.612   1.708  16.527 -0.6307  0.0641 -0.2902
  848MPD2    C312510   2.579   1.802  16.432  0.0719 -0.4129  0.2191
  848MPD2    C412511   2.476   1.771  16.349  0.1454 -0.2499 -0.8825
  848MPD2    C512512   2.407   1.658  16.364 -0.2987  0.0026  0.0697
  848MPD2     H12513   2.703   1.722  16.584 -1.7054 -1.4941  1.7902
  848MPD2    H112514   2.445   1.839  16.269 -0.5562  0.4883  0.0204
  848MPD2    H212515   2.373   1.480  16.472  2.5069 -1.8903 -0.8082
  848MPD2    H312516   2.325   1.632  16.298 -1.6641 -0.7126  2.0636
  848MPD2     N12517   2.648   1.922  16.413 -0.1957  0.2698 -0.4901
  848MPD2    H512518   2.626   1.987  16.339 -0.9226 -0.3669 -0.8333
  848MPD2    N112519   2.604   1.497  16.626 -0.2157 -0.2813  0.5252
  848MPD2    H712520   2.687   1.530  16.675  1.0840 -1.9749 -0.5340
  849MPD2     C12521   1.667   0.964  14.197 -0.1744 -0.4674  0.3144
  849MPD2    C112522   1.735   1.051  14.133  0.2963 -0.9969 -0.2014
  849MPD2    C212523   1.840   1.117  14.208 -0.1580  0.0172 -0.2812
  849MPD2    C312524   1.869   1.089  14.337  0.1007 -0.6713 -0.5192
  849MPD2    C412525   1.802   0.988  14.392  0.5351 -0.5691  0.2155
  849MPD2    C512526   1.699   0.928  14.325  0.6718 -0.4545 -0.1161
  849MPD2     H12527   1.895   1.197  14.160  0.8847 -2.2197 -2.8369
  849MPD2    H112528   1.832   0.957  14.492  0.6474  0.2350  0.4377
  849MPD2    H212529   1.576   0.929  14.148  0.7966 -1.4975 -0.7647
  849MPD2    H312530   1.635   0.855  14.375 -0.5049  0.8163  0.2446
  849MPD2     N12531   1.981   1.139  14.405  0.7209  0.4152  0.0868
  849MPD2    H512532   2.024   1.076  14.473 -1.0692 -2.1011 -1.1408
  849MPD2    N112533   1.705   1.079  13.999 -0.8885  0.2271 -0.3272
  849MPD2    H712534   1.612   1.061  13.962 -0.3675  2.8472 -2.9647
  850MPD2     C12535   4.205   4.233  14.633 -0.0106  0.4980  0.1938
  850MPD2    C112536   4.242   4.229  14.766  0.5772  0.3011  1.0694
  850MPD2    C212537   4.367   4.274  14.803  0.2688  0.2655  0.8906
  850MPD2    C312538   4.451   4.333  14.704 -0.3053 -0.6394  0.2785
  850MPD2    C412539   4.417   4.326  14.571  0.5119  0.2075  0.0834
  850MPD2    C512540   4.290   4.283  14.537  0.2494  0.0658  0.7890
  850MPD2     H12541   4.394   4.257  14.906  1.2206 -2.4701  0.2021
  850MPD2    H112542   4.475   4.380  14.497  1.5196 -0.8269  0.1280
  850MPD2    H212543   4.107   4.208  14.594 -0.6649  1.0038  1.4685
  850MPD2    H312544   4.246   4.293  14.438 -0.9812  1.2874  1.4535
  850MPD2     N12545   4.573   4.391  14.735 -1.2101  0.0868  1.0387
  850MPD2    H512546   4.634   4.426  14.661  1.7309 -1.6734  2.6089
  850MPD2    N112547   4.155   4.163  14.862 -0.1602  0.1215  0.1815
  850MPD2    H712548   4.163   4.179  14.962 -0.1534 -0.8291  0.3373
  851MPD2     C12549   4.555   3.901  15.247 -0.9591 -0.5895  0.4085
  851MPD2    C112550   4.450   3.822  15.209 -0.5366  0.5562  0.3750
  851MPD2    C212551   4.481   3.694  15.176  0.3101 -0.7574  0.0010
  851MPD2    C312552   4.602   3.644  15.184 -0.2415  0.0515  0.2005
  851MPD2    C412553   4.706   3.725  15.227  0.3143  0.2094 -0.7688
  851MPD2    C512554   4.681   3.853  15.258  0.1798 -0.4004 -0.6186
  851MPD2     H12555   4.413   3.631  15.119 -1.4460  1.6132 -0.4972
  851MPD2    H112556   0.063   3.680  15.237  0.3290 -0.1054 -2.2746
  851MPD2    H212557   4.538   4.006  15.271 -0.3361 -0.2281 -0.6826
  851MPD2    H312558   0.011   3.920  15.307 -0.7211 -1.5622  2.2890
  851MPD2     N12559   4.622   3.509  15.146 -0.3732  0.2811 -0.4512
  851MPD2    H512560   4.542   3.456  15.113 -0.7828  0.4148  0.3152
  851MPD2    N112561   4.322   3.876  15.189  0.1573  0.1437  0.2873
  851MPD2    H712562   4.307   3.975  15.208 -0.2985  0.2097 -0.3937
  852MPD2     C12563   0.391   1.396  10.097  0.3315  0.8509  0.6631
  852MPD2    C112564   0.348   1.434  10.224 -0.0666  0.1135 -0.7275
  852MPD2    C212565   0.346   1.570  10.247  0.1661  0.0501  0.0453
  852MPD2    C312566   0.380   1.666  10.155 -0.2273 -0.2528  0.0674
  852MPD2    C412567   0.432   1.623  10.034  0.1013  0.3251 -0.1761
  852MPD2    C512568   0.432   1.490  10.009 -0.0940 -0.4391 -0.1422
  852MPD2     H12569   0.323   1.605  10.347  1.7118 -1.5325  0.9650
  852MPD2    H112570   0.465   1.694   9.959 -0.3990  1.1948  0.4203
  852MPD2    H212571   0.393   1.293  10.065  1.9660  1.6816 -1.9653
  852MPD2    H312572   0.458   1.450   9.912 -0.3781 -2.4433  0.6217
  852MPD2     N12573   0.371   1.800  10.191  0.1639  0.5683  0.0119
  852MPD2    H512574   0.357   1.814  10.291 -2.1971 -1.6532 -0.0179
  852MPD2    N112575   0.311   1.348  10.326  0.1413  0.1647  0.3927
  852MPD2    H712576   0.277   1.390  10.412  0.0731 -0.8893  0.8728
  853MPD2     C12577   1.474   0.870  12.399 -0.2937  0.0981  0.4717
  853MPD2    C112578   1.548   0.989  12.385  0.4316 -0.6106  0.0563
  853MPD2    C212579   1.623   1.006  12.274  0.3312  0.5560  0.0736
  853MPD2    C312580   1.605   0.915  12.168  0.0614  0.0341  0.2048
  853MPD2    C412581   1.536   0.801  12.186 -0.2523 -0.4646 -0.3834
  853MPD2    C512582   1.479   0.775  12.309  0.1825  0.1552 -0.4024
  853MPD2     H12583   1.695   1.087  12.266 -0.4515  1.6127  3.5690
  853MPD2    H112584   1.516   0.718  12.119 -1.1284  0.5975 -1.4300
  853MPD2    H212585   1.410   0.841  12.481 -0.1549  2.3257  1.3610
  853MPD2    H312586   1.437   0.677  12.328  0.2635  0.0700 -0.6607
  853MPD2     N12587   1.680   0.920  12.050 -0.1991 -0.0598 -0.8794
  853MPD2    H512588   1.654   0.842  11.990 -0.7283  0.2403 -1.0451
  853MPD2    N112589   1.553   1.075  12.497  0.1812  0.6579  0.4843
  853MPD2    H712590   1.497   1.048  12.576 -0.4997  2.4637  0.6123
  854MPD2     C12591   3.369   1.506  13.302  0.2405  1.1532  0.5851
  854MPD2    C112592   3.434   1.517  13.179  0.1784  0.4723 -0.5637
  854MPD2    C212593   3.533   1.431  13.143 -0.1466 -0.1893  0.4947
  854MPD2    C312594   3.561   1.326  13.223  0.7252  0.5141  0.1302
  854MPD2    C412595   3.501   1.319  13.343 -0.0352  0.3064 -0.3854
  854MPD2    C512596   3.405   1.406  13.380 -0.3213  0.7907  0.4715
  854MPD2     H12597   3.586   1.435  13.048 -1.8478 -0.5709 -0.4622
  854MPD2    H112598   3.504   1.230  13.405 -2.1196 -0.3462 -1.2141
  854MPD2    H212599   3.283   1.565  13.331 -0.8098  0.5382 -1.2597
  854MPD2    H312600   3.343   1.388  13.467 -1.4800 -1.0187 -0.7273
  854MPD2     N12601   3.639   1.213  13.183 -0.2243  0.1681 -0.4904
  854MPD2    H512602   3.660   1.148  13.257  0.3488 -0.6503 -1.3676
  854MPD2    N112603   3.390   1.622  13.098 -0.7646  0.0787 -0.0082
  854MPD2    H712604   3.316   1.682  13.134 -1.6657 -1.1506  0.1688
  855MPD2     C12605   4.331   0.954  13.697 -0.0758 -0.2874 -0.0535
  855MPD2    C112606   4.202   0.902  13.711 -0.1931  1.1569 -0.0920
  855MPD2    C212607   4.126   0.901  13.594  0.1697  0.2717 -0.2810
  855MPD2    C312608   4.170   0.936  13.468  1.3303 -0.0337  0.6067
  855MPD2    C412609   4.299   0.982  13.460  0.2133 -0.1498 -0.2689
  855MPD2    C512610   4.378   0.994  13.573  0.3152  1.2703  0.4937
  855MPD2     H12611   4.021   0.877  13.602  0.0787  1.3066  1.6793
  855MPD2    H112612   4.346   1.018  13.369  0.6336  0.4418  0.1818
  855MPD2    H212613   4.394   0.972  13.783 -0.6361 -1.0052  0.5128
  855MPD2    H312614   4.472   1.049  13.572 -0.1371  2.0493  0.6493
  855MPD2     N12615   4.095   0.943  13.348 -0.1144  0.1167  0.0686
  855MPD2    H512616   4.137   0.976  13.262 -3.2985  0.3227 -1.3966
  855MPD2    N112617   4.140   0.876  13.839 -0.0256  0.5915  0.4502
  855MPD2    H712618   4.047   0.836  13.842  0.2572 -0.1522 -0.8896
  856MPD2     C12619   1.116   2.541  13.751  0.5245  0.2391 -0.2795
  856MPD2    C112620   1.131   2.675  13.770  0.8090 -0.0909  0.1345
  856MPD2    C212621   1.029   2.768  13.738 -0.1962  0.5776  0.6636
  856MPD2    C312622   0.899   2.719  13.705 -0.6721 -0.1253 -0.6124
  856MPD2    C412623   0.890   2.584  13.686  0.0807 -0.3477 -0.1351
  856MPD2    C512624   0.994   2.497  13.697 -0.2539 -0.6564 -0.1835
  856MPD2     H12625   1.052   2.873  13.745  3.1087 -0.0863 -0.4420
  856MPD2    H112626   0.797   2.545  13.647 -0.1401  0.1721 -0.1212
  856MPD2    H212627   1.204   2.477  13.756 -0.6882 -1.3844  0.1982
  856MPD2    H312628   0.994   2.391  13.676 -0.9554 -0.8446  0.7942
  856MPD2     N12629   0.789   2.801  13.696  0.2252 -0.3746  0.0237
  856MPD2    H512630   0.702   2.754  13.675  0.3464  0.1985 -1.8549
  856MPD2    N112631   1.253   2.733  13.805  0.4097 -0.4723 -0.3799
  856MPD2    H712632   1.244   2.834  13.817 -1.3285 -0.9584  2.3703
  857MPD2     C12633   2.606   4.270  12.746 -0.3943 -0.2247  0.6950
  857MPD2    C112634   2.661   4.337  12.640  0.5364  0.4769 -0.9827
  857MPD2    C212635   2.687   4.477  12.648 -0.2570 -0.3975 -0.1351
  857MPD2    C312636   2.659   4.540  12.764 -0.0848  0.2967  0.2910
  857MPD2    C412637   2.587   4.472  12.860  0.4234  0.3504 -0.5588
  857MPD2    C512638   2.553   4.341  12.846 -0.4395  0.3737  0.3934
  857MPD2     H12639   2.737   4.529  12.566  1.6292 -1.9149  0.0543
  857MPD2    H112640   2.557   4.527  12.949 -1.7209 -1.0555 -0.4202
  857MPD2    H212641   2.586   4.164  12.734 -0.2533 -0.1476 -0.2438
  857MPD2    H312642   2.493   4.296  12.924  0.5856 -0.0491  0.9345
  857MPD2     N12643   2.693   4.682  12.776 -0.2143  0.0877 -0.2549
  857MPD2    H512644   2.735   4.726  12.695 -0.3473  0.3010 -0.2079
  857MPD2    N112645   2.694   4.251  12.530 -0.2723 -0.3495 -0.2070
  857MPD2    H712646   2.664   4.156  12.548 -0.7245  0.6635  4.5555
  858MPD2     C12647   3.348   3.730  16.723 -0.2451  0.2082 -0.3920
  858MPD2    C112648   3.289   3.607  16.761 -0.6394 -0.2362  0.8165
  858MPD2    C212649   3.260   3.578  16.898  0.1992 -0.2199 -0.1665
  858MPD2    C312650   3.295   3.677  16.988 -0.2109 -0.1374  0.4845
  858MPD2    C412651   3.363   3.793  16.948 -0.6609  0.4855  0.3409
  858MPD2    C512652   3.388   3.818  16.813 -0.0208 -0.4915 -0.0457
  858MPD2     H12653   3.198   3.491  16.917 -0.8527  0.3690 -0.9243
  858MPD2    H112654   3.393   3.873  17.014 -1.8166  1.7689 -0.6788
  858MPD2    H212655   3.363   3.743  16.617  0.6386  0.6803 -0.2100
  858MPD2    H312656   3.435   3.908  16.776  2.0170 -0.2498  3.1487
  858MPD2     N12657   3.256   3.672  17.123 -0.1037  0.6371  0.7004
  858MPD2    H512658   3.279   3.757  17.172 -2.0928  0.3817  2.0677
  858MPD2    N112659   3.258   3.514  16.660 -1.0997  0.0052 -0.4817
  858MPD2    H712660   3.262   3.547  16.564  0.5361 -0.9571 -0.7588
  859MPD2     C12661   1.546   1.323  15.503 -0.0942  0.3694 -0.4898
  859MPD2    C112662   1.531   1.366  15.367 -0.3051  0.4934  0.2540
  859MPD2    C212663   1.421   1.329  15.302  0.8586 -0.1081  0.1696
  859MPD2    C312664   1.324   1.240  15.358 -0.4291 -0.5612 -0.0385
  859MPD2    C412665   1.341   1.216  15.491 -0.5303  1.0060 -0.6669
  859MPD2    C512666   1.453   1.244  15.564  0.3634  0.2972  0.0964
  859MPD2     H12667   1.405   1.358  15.199 -1.1615  2.1793  1.1368
  859MPD2    H112668   1.270   1.155  15.545  1.2261 -0.6176 -0.1818
  859MPD2    H212669   1.633   1.342  15.564  0.2288  1.4110 -1.2700
  859MPD2    H312670   1.467   1.203  15.663 -3.8167 -2.2075 -0.3510
  859MPD2     N12671   1.211   1.188  15.292 -0.2264 -0.4162 -0.1426
  859MPD2    H512672   1.140   1.142  15.348  1.3701 -2.3578  0.3083
  859MPD2    N112673   1.627   1.450  15.310  0.5267 -0.5103  0.1943
  859MPD2    H712674   1.692   1.490  15.376 -0.5053 -1.1581  1.6054
  860MPD2     C12675   4.722   1.494  11.576  0.2331  0.1895 -0.6802
  860MPD2    C112676   4.736   1.457  11.707 -0.7223 -0.1735  0.1394
  860MPD2    C212677   4.631   1.428  11.788  0.1885  0.6282 -0.2844
  860MPD2    C312678   4.498   1.440  11.739  0.6170  1.2120 -0.1241
  860MPD2    C412679   4.483   1.458  11.607 -0.1673  0.3570 -0.5412
  860MPD2    C512680   4.594   1.494  11.531  0.3835  0.0736  0.2950
  860MPD2     H12681   4.634   1.425  11.897  0.7648 -2.1348 -0.3644
  860MPD2    H112682   4.387   1.464  11.559  0.7339  1.0414 -2.2632
  860MPD2    H212683   0.061   1.514  11.506  1.6387  2.1213  1.4563
  860MPD2    H312684   4.586   1.518  11.425  2.0354 -1.3766 -0.1518
  860MPD2     N12685   4.391   1.417  11.824  0.0822 -0.3276  0.4781
  860MPD2    H512686   4.417   1.402  11.920  2.3076  0.6726  0.0246
  860MPD2    N112687   0.107   1.477  11.779  1.0621 -0.2870  0.7684
  860MPD2    H712688   0.098   1.463  11.879  0.6184  0.2575  0.8012
  861MPD2     C12689   2.548   4.201  10.862  0.1884 -0.3005  0.7762
  861MPD2    C112690   2.648   4.298  10.867 -0.0064 -0.0858 -0.2089
  861MPD2    C212691   2.619   4.413  10.797 -0.4738 -0.5632  0.3851
  861MPD2    C312692   2.501   4.434  10.738 -0.3937 -0.4740 -0.0189
  861MPD2    C412693   2.402   4.339  10.733 -0.1196  0.3010  0.2638
  861MPD2    C512694   2.430   4.218  10.798 -0.6979  0.5368  0.1787
  861MPD2     H12695   2.689   4.496  10.797 -2.8975  1.4860  2.9443
  861MPD2    H112696   2.312   4.359  10.676  0.7562  0.0160 -1.2092
  861MPD2    H212697   2.572   4.103  10.902  0.2418 -1.0157 -1.0140
  861MPD2    H312698   2.358   4.137  10.790 -2.3065  1.9651 -0.0088
  861MPD2     N12699   2.467   4.558  10.664 -0.6258  0.4497 -0.3200
  861MPD2    H512700   2.386   4.566  10.603  0.7041  1.5322 -1.9354
  861MPD2    N112701   2.775   4.292  10.926  0.2553 -0.8506  0.1744
  861MPD2    H712702   2.829   4.378  10.926 -1.0614 -0.0206 -0.7104
  862MPD2     C12703   2.098   0.155  10.130  0.4375 -0.1828  0.2044
  862MPD2    C112704   2.161   0.065  10.213  1.3896 -0.1075 -0.2542
  862MPD2    C212705   2.119   4.680  10.223 -0.4723 -0.0948  0.1043
  862MPD2    C312706   2.011   4.634  10.153  0.2008  0.5162 -0.1332
  862MPD2    C412707   1.942   4.723  10.064 -0.4005  0.5199 -0.0189
  862MPD2    C512708   1.989   0.108  10.060  0.1224  0.4644  0.1444
  862MPD2     H12709   2.179   4.616  10.287  0.2830  1.2119  0.6821
  862MPD2    H112710   1.860   4.693  10.000  0.7042 -3.7092  0.4987
  862MPD2    H212711   2.138   0.255  10.118 -1.9351  0.7807  0.3584
  862MPD2    H312712   1.951   0.192  10.003  2.2274 -0.0283 -1.9370
  862MPD2     N12713   1.961   4.504  10.167 -0.0026  0.1636 -0.2671
  862MPD2    H512714   1.873   4.480  10.123 -0.9711  1.0870  1.1587
  862MPD2    N112715   2.268   0.093  10.300  0.2455 -0.8501 -0.1015
  862MPD2    H712716   2.302   0.019  10.360  2.9273  1.3754  1.1509
  863MPD2     C12717   1.151   1.957  16.626 -0.8244 -0.2808  0.0757
  863MPD2    C112718   1.163   2.086  16.667 -0.3202 -1.2361  0.4641
  863MPD2    C212719   1.260   2.117  16.758 -0.9705  0.1560 -0.3737
  863MPD2    C312720   1.344   2.023  16.811 -0.2956 -0.2855  0.6669
  863MPD2    C412721   1.320   1.894  16.773  0.2178 -0.1961  0.0874
  863MPD2    C512722   1.213   1.856  16.693 -0.9559  0.6151  0.2684
  863MPD2     H12723   1.276   2.216  16.797  1.9687 -0.1771 -0.7458
  863MPD2    H112724   1.376   1.818  16.827  0.6965  1.0428  1.3395
  863MPD2    H212725   1.073   1.928  16.557 -1.5852  0.6249  0.5598
  863MPD2    H312726   1.178   1.754  16.680 -0.7433  0.7160 -1.0334
  863MPD2     N12727   1.449   2.050  16.903  0.2264 -0.1590 -0.2811
  863MPD2    H512728   1.490   1.972  16.954  2.8281  1.1880 -0.2898
  863MPD2    N112729   1.073   2.175  16.610 -0.0492 -0.3481  1.0194
  863MPD2    H712730   1.017   2.136  16.535  2.9366 -1.5294 -0.6072
  864MPD2     C12731   2.058   4.280  17.377  0.0504 -0.1403 -0.9227
  864MPD2    C112732   2.072   4.149  17.329  0.1390 -0.1342  0.0337
  864MPD2    C212733   2.208   4.107  17.307  0.7240  0.3026 -0.3269
  864MPD2    C312734   2.314   4.186  17.326  0.0740  0.6695 -0.4088
  864MPD2    C412735   2.290   4.314  17.367 -0.1203 -0.3615 -0.0431
  864MPD2    C512736   2.164   4.358  17.395  0.1848  0.0631  0.3688
  864MPD2     H12737   2.222   4.001  17.289  4.2115  0.7284 -0.1268
  864MPD2    H112738   2.367   4.389  17.367  0.6693 -1.1717 -0.3531
  864MPD2    H212739   1.961   4.326  17.393 -0.3116 -0.0680 -3.3902
  864MPD2    H312740   2.163   4.464  17.421  1.9290  0.0779  0.3915
  864MPD2     N12741   2.448   4.152  17.302 -0.0389 -0.7216 -0.6685
  864MPD2    H512742   2.516   4.228  17.303  0.0793 -0.8872  3.7847
  864MPD2    N112743   1.951   4.076  17.305 -0.3239  0.2687  0.0694
  864MPD2    H712744   1.863   4.125  17.315  1.4668  3.1460  1.6153
  865MPD2     C12745   2.428   4.276  16.422 -0.2227 -0.1993 -0.1089
  865MPD2    C112746   2.411   4.148  16.453 -0.6498 -0.0473  0.7217
  865MPD2    C212747   2.484   4.104  16.563  0.2559 -0.1364 -0.4742
  865MPD2    C312748   2.560   4.189  16.645  0.1463  0.1325  0.0095
  865MPD2    C412749   2.567   4.320  16.613  0.3220  0.0194  0.2782
  865MPD2    C512750   2.508   4.358  16.497 -0.4077  0.4334  0.3512
  865MPD2     H12751   2.476   4.001  16.594 -1.9058  0.5425  1.2413
  865MPD2    H112752   2.633   4.381  16.674  1.7461 -0.5160 -0.7343
  865MPD2    H212753   2.391   4.324  16.332  1.0324  0.3633 -0.3312
  865MPD2    H312754   2.509   4.463  16.470 -1.6754  0.4457  0.3592
  865MPD2     N12755   2.617   4.137  16.762  0.6143 -0.2233 -0.0422
  865MPD2    H512756   2.618   4.036  16.765 -0.0392 -0.2125  0.3971
  865MPD2    N112757   2.340   4.060  16.371 -0.0144 -0.4031 -0.5369
  865MPD2    H712758   2.279   4.115  16.311 -0.4503  0.4636  0.6937
  866MPD2     C12759   3.693   0.151  11.165 -0.1445 -0.3867  0.3442
  866MPD2    C112760   3.664   0.192  11.036  0.0259 -0.6149  0.1479
  866MPD2    C212761   3.533   0.197  10.998 -0.2973  0.4827  0.2239
  866MPD2    C312762   3.433   0.173  11.086 -0.1826  0.0934 -0.0253
  866MPD2    C412763   3.463   0.130  11.218 -1.0330  0.3186  1.2352
  866MPD2    C512764   3.591   0.130  11.252 -0.2365  0.6576 -0.0646
  866MPD2     H12765   3.505   0.228  10.898  1.3801 -0.1149 -0.4305
  866MPD2    H112766   3.388   0.104  11.291 -1.4414  1.0220  1.0651
  866MPD2    H212767   3.791   0.156  11.211 -0.2386  0.7120  0.4132
  866MPD2    H312768   3.613   0.098  11.354 -1.1164 -0.5961 -0.2660
  866MPD2     N12769   3.293   0.171  11.059  0.0530 -0.6092  1.1058
  866MPD2    H512770   3.232   0.157  11.139  0.0576  0.4546  1.3087
  866MPD2    N112771   3.768   0.213  10.944 -0.2541  0.1749 -0.3134
  866MPD2    H712772   3.861   0.189  10.976 -0.0435  0.2522 -0.8818
  867MPD2     C12773   0.677   3.600  16.810  0.4076 -0.4182  0.3498
  867MPD2    C112774   0.733   3.520  16.910  0.5657 -0.3527 -0.0295
  867MPD2    C212775   0.715   3.558  17.044 -0.2118  0.1843  0.4891
  867MPD2    C312776   0.649   3.670  17.082  0.4740  0.0014  0.4360
  867MPD2    C412777   0.580   3.742  16.986 -0.0307  0.3647  0.2269
  867MPD2    C512778   0.598   3.702  16.854  0.5825 -0.4682  0.3167
  867MPD2     H12779   0.758   3.502  17.127 -0.9212  0.6321  1.1596
  867MPD2    H112780   0.524   3.833  17.006 -2.5213 -0.5895 -2.3790
  867MPD2    H212781   0.697   3.579  16.706 -0.7710  2.1243 -0.3921
  867MPD2    H312782   0.549   3.763  16.779  1.6207 -0.2607 -0.1851
  867MPD2     N12783   0.640   3.714  17.217  0.6983  0.3484  0.6502
  867MPD2    H512784   0.595   3.805  17.230 -0.5145 -0.4516  2.0373
  867MPD2    N112785   0.817   3.404  16.878  0.6807  0.4710  0.4851
  867MPD2    H712786   0.818   3.384  16.779  1.0089  0.9210  0.4000
  868MPD2     C12787   3.056   3.334  13.012 -0.3330  0.8129  0.0625
  868MPD2    C112788   3.094   3.241  13.105 -0.0863 -0.9212  0.2738
  868MPD2    C212789   3.033   3.234  13.230 -0.3610 -0.0323  0.6053
  868MPD2    C312790   2.936   3.331  13.263 -0.2578  0.0465  0.7287
  868MPD2    C412791   2.900   3.430  13.167 -1.0346  0.7751 -0.4502
  868MPD2    C512792   2.968   3.428  13.052  0.2226 -0.6917 -0.8623
  868MPD2     H12793   3.067   3.166  13.307 -0.9776  0.1845  1.0734
  868MPD2    H112794   2.824   3.507  13.176  0.5459  2.1388  1.3482
  868MPD2    H212795   3.100   3.344  12.913  1.4259  0.8753  0.8548
  868MPD2    H312796   2.947   3.509  12.983 -0.7821 -0.1198  0.1207
  868MPD2     N12797   2.879   3.316  13.390 -0.5209  0.2250 -1.0993
  868MPD2    H512798   2.916   3.244  13.453 -1.5079  0.9450  0.3161
  868MPD2    N112799   3.204   3.158  13.070 -1.2627  0.3832 -0.3786
  868MPD2    H712800   3.245   3.185  12.981 -1.0928  1.3047 -0.0159
  869MPD2     C12801   3.327   0.546   0.374  0.2253  1.2132 -0.4922
  869MPD2    C112802   3.362   0.604   0.255  0.3055  0.0005 -0.1932
  869MPD2    C212803   3.358   0.737   0.242  0.5536  0.6957  0.8895
  869MPD2    C312804   3.308   0.815   0.338  0.4452  0.5049 -0.0905
  869MPD2    C412805   3.261   0.760   0.454  0.1157 -0.6063  0.1026
  869MPD2    C512806   3.279   0.625   0.473  0.4511 -0.5161 -0.2212
  869MPD2     H12807   3.392   0.775   0.146  0.0146  0.5716  0.6485
  869MPD2    H112808   3.224   0.818   0.538  0.8881 -2.5350  1.7612
  869MPD2    H212809   3.340   0.442   0.399  0.7245  0.8487 -2.2896
  869MPD2    H312810   3.258   0.569   0.563 -2.0376 -0.9508 -1.0830
  869MPD2     N12811   3.321   0.957   0.337  0.2827  0.3528 -0.1861
  869MPD2    H512812   3.293   1.013   0.417  0.8560 -0.3291  0.4934
  869MPD2    N112813   3.427   0.517   0.164  0.2866 -0.2686 -0.1714
  869MPD2    H712814   3.453   0.423   0.194 -1.1868 -1.0500 -1.3460
  870MPD2     C12815   3.519   3.939   1.695 -0.7274 -0.2440 -0.1874
  870MPD2    C112816   3.614   3.978   1.604  0.1010 -0.3574  0.5318
  870MPD2    C212817   3.635   4.110   1.569 -0.5924 -0.3184  1.0003
  870MPD2    C312818   3.552   4.205   1.617  0.1947  0.1010  0.2457
  870MPD2    C412819   3.458   4.167   1.715  0.0466  0.1194  0.2590
  870MPD2    C512820   3.437   4.035   1.751  0.4036 -0.2932 -0.3325
  870MPD2     H12821   3.710   4.139   1.495 -2.5482  1.5628 -0.2511
  870MPD2    H112822   3.390   4.242   1.755  0.2414 -0.1235  1.0484
  870MPD2    H212823   3.513   3.836   1.726  0.0545 -0.0143  0.7295
  870MPD2    H312824   3.350   4.018   1.813 -0.0778 -0.6319 -1.1026
  870MPD2     N12825   3.585   4.335   1.589 -0.4053  0.4173 -0.5287
  870MPD2    H512826   3.650   4.348   1.512 -0.0342 -1.6311 -0.5518
  870MPD2    N112827   3.699   3.881   1.553  0.3082  0.3575 -0.3421
  870MPD2    H712828   3.676   3.783   1.552 -1.0382  0.6731  0.0478
  871MPD2     C12829   4.691   3.817  16.717  0.2641  0.1017 -0.1550
  871MPD2    C112830   4.652   3.795  16.845 -0.4009  0.4846 -0.3454
  871MPD2    C212831   4.631   3.663  16.881  0.0188  0.1548 -0.1600
  871MPD2    C312832   4.677   3.557  16.800  0.5749  0.3857  0.1770
  871MPD2    C412833   4.718   3.585  16.672 -0.8184 -0.1551  0.4859
  871MPD2    C512834   4.719   3.712  16.628  0.3049 -0.4007 -0.1709
  871MPD2     H12835   4.613   3.638  16.985  4.1022  1.1766  0.7944
  871MPD2    H112836   0.025   3.516  16.603  0.6789  1.1447  0.2248
  871MPD2    H212837   4.698   3.917  16.676  0.8426  0.3226  0.4724
  871MPD2    H312838   0.012   3.736  16.527  0.2941  4.1749  0.8726
  871MPD2     N12839   4.678   3.425  16.851  0.3613 -0.1539 -0.4216
  871MPD2    H512840   4.626   3.401  16.935  0.4407  1.3173  0.0585
  871MPD2    N112841   4.631   3.903  16.926  0.1712  0.2878  0.2981
  871MPD2    H712842   4.650   3.997  16.892  0.9167 -0.2221 -0.6782
  872MPD2     C12843   0.955   1.425  14.288 -0.1422  0.2580  0.0201
  872MPD2    C112844   0.933   1.517  14.188  0.2992  0.1419  0.4379
  872MPD2    C212845   0.801   1.561  14.166 -0.1280  0.5873  0.2716
  872MPD2    C312846   0.700   1.522  14.251 -0.1354  0.6092  0.0202
  872MPD2    C412847   0.727   1.434  14.354  0.2797 -0.0212 -0.3490
  872MPD2    C512848   0.855   1.398  14.379  0.6240 -0.0008  0.1768
  872MPD2     H12849   0.773   1.630  14.088 -0.2491 -0.8545 -0.9537
  872MPD2    H112850   0.651   1.409  14.427 -0.2432 -0.5290 -1.0589
  872MPD2    H212851   1.054   1.383  14.306 -1.5184 -2.3420  1.5547
  872MPD2    H312852   0.874   1.334  14.464 -0.8338 -1.7265 -0.8058
  872MPD2     N12853   0.572   1.573  14.250  0.1718  0.6636  0.5971
  872MPD2    H512854   0.519   1.563  14.336 -1.1634  0.2406 -0.2894
  872MPD2    N112855   1.039   1.583  14.121 -0.5667  0.0393  0.2450
  872MPD2    H712856   1.015   1.651  14.050  2.6078 -0.1651 -1.0376
  873MPD2     C12857   1.353   1.877   0.697 -0.2132  0.3889 -0.0611
  873MPD2    C112858   1.480   1.857   0.761 -0.5767  0.1536  0.0852
  873MPD2    C212859   1.557   1.746   0.725 -0.1979  0.1570  0.1714
  873MPD2    C312860   1.506   1.655   0.632 -0.1170  0.2508 -0.1319
  873MPD2    C412861   1.386   1.680   0.578  0.3572  0.3056 -0.1042
  873MPD2    C512862   1.312   1.789   0.604  0.1561  0.1569  0.2864
  873MPD2     H12863   1.655   1.737   0.770 -0.3459 -0.6045  0.3410
  873MPD2    H112864   1.341   1.601   0.518 -0.8848  0.5588  0.4808
  873MPD2    H212865   1.293   1.966   0.710  0.5892  0.7930  0.8227
  873MPD2    H312866   1.214   1.796   0.559  0.1250  0.2561  0.3709
  873MPD2     N12867   1.571   1.529   0.605  0.2633 -0.1594  0.0710
  873MPD2    H512868   1.513   1.452   0.575  2.0299 -1.5229  0.1095
  873MPD2    N112869   1.518   1.943   0.868 -0.1289 -0.0429  0.1139
  873MPD2    H712870   1.447   2.014   0.881 -0.3249  0.2009 -2.2929
  874MPD2     C12871   2.160   1.970  16.188  0.1214 -0.0365 -1.0737
  874MPD2    C112872   2.185   1.987  16.320 -0.2415  0.3594 -0.0713
  874MPD2    C212873   2.280   2.083  16.357 -0.1106 -1.3050 -0.2999
  874MPD2    C312874   2.355   2.144  16.256  0.6370 -0.4690 -0.0097
  874MPD2    C412875   2.320   2.129  16.123 -0.2449  0.0442  0.2294
  874MPD2    C512876   2.216   2.047  16.096  0.6728 -0.3380  0.0502
  874MPD2     H12877   2.296   2.100  16.463 -1.6518 -2.1914  0.0821
  874MPD2    H112878   2.370   2.182  16.043 -0.8403  1.1256  0.5791
  874MPD2    H212879   2.096   1.889  16.154 -1.2921  1.1996 -1.3407
  874MPD2    H312880   2.182   2.043  15.993 -2.4786  0.3306  1.0728
  874MPD2     N12881   2.466   2.220  16.303 -0.2993  0.0477  0.3169
  874MPD2    H512882   2.473   2.228  16.404  2.8254 -1.1387  0.2000
  874MPD2    N112883   2.117   1.903  16.414  0.1668 -0.2150  0.3709
  874MPD2    H712884   2.056   1.835  16.372  0.8637  0.2975 -1.4829
  875MPD2     C12885   3.150   0.105  14.076 -0.0729 -0.4956  0.1715
  875MPD2    C112886   3.052   0.053  14.151 -0.3830  0.0749  0.4003
  875MPD2    C212887   3.079   0.004  14.281  0.0652  0.9201  0.5959
  875MPD2    C312888   3.209   0.001  14.330  0.0409  0.1611 -0.2510
  875MPD2    C412889   3.306   0.074  14.261  0.1632  0.4438  0.1931
  875MPD2    C512890   3.271   0.126  14.133 -0.4305 -0.3442  0.0573
  875MPD2     H12891   3.006   4.685  14.335  0.5293  2.1404  2.5724
  875MPD2    H112892   3.409   0.068  14.293  0.9208 -0.7322 -2.5325
  875MPD2    H212893   3.139   0.137  13.973 -1.7142  1.2948  0.9062
  875MPD2    H312894   3.353   0.161  14.071 -0.7930 -1.4832 -1.0758
  875MPD2     N12895   3.255   4.703  14.455 -0.6093 -0.3580  0.2045
  875MPD2    H512896   3.355   4.704  14.474 -0.8695 -0.7863  1.5842
  875MPD2    N112897   2.927   0.040  14.084  0.0982  0.2197  0.4041
  875MPD2    H712898   2.910   0.075  13.991 -1.4965 -1.6847 -0.0296
  876MPD2     C12899   1.958   1.411  16.052  0.4339  0.0168  0.3834
  876MPD2    C112900   2.058   1.346  15.985 -0.5187 -0.6163  0.2979
  876MPD2    C212901   2.079   1.211  16.018 -0.0715 -0.0640  0.3594
  876MPD2    C312902   2.016   1.151  16.131  0.6384 -0.5312 -0.2292
  876MPD2    C412903   1.924   1.226  16.201 -0.1729 -0.1510  0.4806
  876MPD2    C512904   1.892   1.352  16.154  0.5317  0.0565  0.5283
  876MPD2     H12905   2.153   1.159  15.959  1.0477  0.9995  0.8110
  876MPD2    H112906   1.877   1.201  16.295 -2.1280  1.6260 -0.0194
  876MPD2    H212907   1.933   1.515  16.033  0.5877 -0.0391 -0.1354
  876MPD2    H312908   1.826   1.416  16.211 -0.4733  0.8616 -1.5336
  876MPD2     N12909   2.051   1.017  16.170 -0.0694  0.1447 -0.7981
  876MPD2    H512910   2.133   0.979  16.123  0.0758  1.6252 -1.7322
  876MPD2    N112911   2.124   1.422  15.883  0.1441 -0.0284 -0.1412
  876MPD2    H712912   2.116   1.523  15.871  1.6690  0.1279  0.2473
  877MPD2     C12913   1.940   1.867  15.277  0.3910 -0.1074 -0.3181
  877MPD2    C112914   2.083   1.863  15.282  0.2706 -0.7965  1.2221
  877MPD2    C212915   2.148   1.922  15.180 -0.9681 -0.2974  0.6930
  877MPD2    C312916   2.093   1.989  15.068  0.1844 -0.5136  0.2612
  877MPD2    C412917   1.958   1.983  15.063 -0.1758 -0.3987  0.1251
  877MPD2    C512918   1.889   1.919  15.169 -0.0405  0.5930  0.0193
  877MPD2     H12919   2.256   1.915  15.183 -0.9051  0.1608 -0.6138
  877MPD2    H112920   1.909   2.015  14.971 -0.7410 -1.2608  0.1269
  877MPD2    H212921   1.885   1.818  15.356  2.6665 -1.9361  0.1553
  877MPD2    H312922   1.783   1.905  15.153  0.3446 -1.8465 -0.4302
  877MPD2     N12923   2.166   2.040  14.956 -0.4466  0.1780 -0.0122
  877MPD2    H512924   2.116   2.076  14.876  0.9451 -0.3222 -1.1054
  877MPD2    N112925   2.151   1.807  15.386 -0.2825 -0.1227  0.3860
  877MPD2    H712926   2.250   1.831  15.389 -0.5779  0.9354  1.5014
  878MPD2     C12927   1.676   0.515  13.168  1.0536  0.4729 -0.3584
  878MPD2    C112928   1.774   0.603  13.130 -0.0022 -0.4013  0.2632
  878MPD2    C212929   1.788   0.718  13.211  0.0197 -0.6121  0.2728
  878MPD2    C312930   1.709   0.738  13.324  0.6526  0.0574  0.0596
  878MPD2    C412931   1.626   0.634  13.363 -0.0432  0.1039 -0.0734
  878MPD2    C512932   1.598   0.537  13.274 -0.2724 -0.2856  0.7278
  878MPD2     H12933   1.869   0.787  13.192  0.2104 -0.9019  0.0492
  878MPD2    H112934   1.566   0.624  13.452  0.5470 -0.5507  0.2491
  878MPD2    H212935   1.659   0.427  13.108 -1.7880 -0.7732  2.2868
  878MPD2    H312936   1.544   0.450  13.311 -0.7138  0.7090  2.4406
  878MPD2     N12937   1.731   0.857  13.407  0.3562  0.0734  0.0994
  878MPD2    H512938   1.797   0.925  13.372  1.5509 -0.7691  0.7287
  878MPD2    N112939   1.855   0.580  13.017 -0.6393 -0.2125 -0.6746
  878MPD2    H712940   1.841   0.490  12.971 -1.4232 -0.2040 -0.4506
  879MPD2     C12941   2.547   2.674  17.111  0.1866 -0.1886 -0.5419
  879MPD2    C112942   2.486   2.574  17.184 -0.9365  0.5956 -0.1311
  879MPD2    C212943   2.410   2.480  17.118 -0.1790  0.2719 -0.0016
  879MPD2    C312944   2.383   2.491  16.979 -0.1030 -0.3555  0.3390
  879MPD2    C412945   2.454   2.588  16.906  0.3458  0.4252 -0.3859
  879MPD2    C512946   2.526   2.685  16.974  0.3588  0.2081 -0.0544
  879MPD2     H12947   2.365   2.406  17.184 -0.1014  1.0282  0.9028
  879MPD2    H112948   2.446   2.596  16.798  0.1488 -0.7174 -0.4645
  879MPD2    H212949   2.604   2.745  17.169 -0.3170  0.5868 -0.9971
  879MPD2    H312950   2.577   2.765  16.921 -2.2977  1.1361 -1.1629
  879MPD2     N12951   2.291   2.409  16.910  0.3618  0.3981  0.7010
  879MPD2    H512952   2.295   2.433  16.812 -0.0328 -1.6849  0.1795
  879MPD2    N112953   2.507   2.573  17.327 -0.2402 -0.3554 -0.2731
  879MPD2    H712954   2.556   2.650  17.371  2.5956 -2.6120  0.5172
  880MPD2     C12955   3.530   3.988   0.177  0.1506  0.1320 -0.0326
  880MPD2    C112956   3.610   4.006   0.290  0.4701 -0.6324  0.3036
  880MPD2    C212957   3.649   3.902   0.363 -0.0555  0.0310 -0.1206
  880MPD2    C312958   3.633   3.775   0.318 -0.3201 -0.2510 -0.5195
  880MPD2    C412959   3.565   3.749   0.202  0.6458  0.0392  0.1232
  880MPD2    C512960   3.519   3.859   0.130  0.6560 -0.6123 -0.2392
  880MPD2     H12961   3.706   3.910   0.454 -0.0867 -0.4191 -0.0607
  880MPD2    H112962   3.542   3.653   0.158  0.1367  1.2462 -2.2571
  880MPD2    H212963   3.499   4.072   0.116 -1.8858 -0.6508 -0.0612
  880MPD2    H312964   3.461   3.839   0.040 -0.6846  3.0883 -0.1759
  880MPD2     N12965   3.685   3.680   0.407 -0.7358  0.0655  0.1368
  880MPD2    H512966   3.720   3.717   0.494 -0.4624  1.1380 -0.4356
  880MPD2    N112967   3.646   4.139   0.327 -0.2393  0.0762  0.5978
  880MPD2    H712968   3.652   4.211   0.256  0.3275  0.3408  0.9145
  881MPD2     C12969   4.127   0.128  17.709 -0.0243 -0.2485 -0.4198
  881MPD2    C112970   4.120   4.731  17.692 -0.1729 -0.6189  0.0080
  881MPD2    C212971   4.065   4.658   0.033  0.8192 -0.0927  0.4893
  881MPD2    C312972   4.034   4.722   0.150 -0.0402  0.7582 -0.4781
  881MPD2    C412973   4.060   0.112   0.173  0.4195 -0.0697 -0.5908
  881MPD2    C512974   4.121   0.179   0.073 -0.5128  0.0304  0.1338
  881MPD2     H12975   4.028   4.559   0.013 -0.6044 -0.0158  2.7907
  881MPD2    H112976   4.057   0.146   0.276 -1.9157 -0.0949 -0.6537
  881MPD2    H212977   4.182   0.189  17.638  1.3873 -2.9439 -1.6623
  881MPD2    H312978   4.151   0.282   0.092  0.3357 -0.2690  0.4017
  881MPD2     N12979   3.971   4.653   0.261 -0.0555 -0.4071  0.0306
  881MPD2    H512980   3.948   4.712   0.340 -1.6724  0.3643 -1.0187
  881MPD2    N112981   4.101   4.676  17.560  0.1383  0.3693  0.1940
  881MPD2    H712982   4.112   0.006  17.488  1.5789  0.7596  0.7862
  882MPD2     C12983   2.330   1.799  14.262 -0.4251  0.5797  0.7630
  882MPD2    C112984   2.256   1.866  14.359  0.6640 -0.3559  0.4707
  882MPD2    C212985   2.135   1.810  14.393  0.1196  0.4172 -0.4154
  882MPD2    C312986   2.083   1.700  14.331  0.1164  0.5237  0.0981
  882MPD2    C412987   2.161   1.636  14.231 -0.3833 -0.2444  0.1928
  882MPD2    C512988   2.284   1.683  14.198 -0.1394 -0.2730 -0.1065
  882MPD2     H12989   2.068   1.869  14.455 -2.4110 -2.2165 -0.6505
  882MPD2    H112990   2.134   1.549  14.172  1.5430  0.6320 -1.9897
  882MPD2    H212991   2.428   1.830  14.228  1.7862 -3.2352  3.7190
  882MPD2    H312992   2.340   1.642  14.115 -0.7258 -0.1630 -0.5558
  882MPD2     N12993   1.961   1.643  14.363  0.2046  0.3667 -0.2549
  882MPD2    H512994   1.937   1.553  14.321  3.7946  0.0623 -1.6238
  882MPD2    N112995   2.324   1.969  14.421 -0.7981 -0.3522 -0.3452
  882MPD2    H712996   2.415   2.003  14.393  0.4807 -2.0485  1.8051
  883MPD2     C12997   3.739   1.933  16.291 -0.3010 -0.5681  0.3476
  883MPD2    C112998   3.797   1.881  16.182 -0.3048  1.0746  0.0696
  883MPD2    C212999   3.929   1.832  16.184 -0.4266  0.2004 -0.2775
  883MPD2    C313000   4.007   1.857  16.288 -0.0440 -0.1686 -0.2081
  883MPD2    C413001   3.949   1.917  16.397  0.4487 -0.4551  0.0295
  883MPD2    C513002   3.816   1.951  16.397  0.6786  0.6179 -0.1992
  883MPD2     H13003   3.972   1.788  16.094 -1.3901 -0.8444 -0.2334
  883MPD2    H113004   4.008   1.928  16.488  2.7691  0.6884 -1.6231
  883MPD2    H213005   3.634   1.962  16.295  0.1845  1.3883 -0.9774
  883MPD2    H313006   3.777   2.019  16.472  1.1379  0.3270  0.3029
  883MPD2     N13007   4.136   1.810  16.278 -0.1270  0.2714 -0.7390
  883MPD2    H513008   4.170   1.778  16.188  2.1085 -0.9145  0.5177
  883MPD2    N113009   3.734   1.883  16.055 -0.2594 -0.3913  0.6074
  883MPD2    H713010   3.792   1.855  15.976  0.5473 -1.2449  1.5058
  884MPD2     C13011   1.279   2.479  15.103 -0.1456  0.2935  0.3958
  884MPD2    C113012   1.260   2.600  15.049 -0.1864  0.2210 -0.3002
  884MPD2    C213013   1.134   2.660  15.046  0.0163  0.5213 -0.1565
  884MPD2    C313014   1.022   2.595  15.101  0.4084  0.5503 -0.2104
  884MPD2    C413015   1.041   2.471  15.152 -0.3294 -0.7575  0.4000
  884MPD2    C513016   1.162   2.420  15.159 -0.3635  1.0288 -0.1109
  884MPD2     H13017   1.118   2.759  15.004 -0.9094 -0.2859 -1.7305
  884MPD2    H113018   0.964   2.407  15.195 -1.9810 -0.2287 -1.7249
  884MPD2    H213019   1.370   2.423  15.120 -0.0454  0.3900  0.1736
  884MPD2    H313020   1.175   2.317  15.190 -2.2956  0.5528 -0.9229
  884MPD2     N13021   0.901   2.670  15.102 -0.7261 -0.0061 -0.0898
  884MPD2    H513022   0.900   2.763  15.060 -3.0833 -0.1656 -0.3976
  884MPD2    N113023   1.364   2.677  14.984 -0.5155 -0.2134  0.1337
  884MPD2    H713024   1.336   2.756  14.928 -1.2972 -0.6651 -0.1152
  885MPD2     C13025   4.149   3.208   0.079  0.4489 -0.7462 -0.2377
  885MPD2    C113026   4.204   3.083   0.095 -0.3842 -0.3730  0.3398
  885MPD2    C213027   4.240   3.015  17.738 -0.5348  0.6477  0.0143
  885MPD2    C313028   4.229   3.072  17.616 -0.0139 -0.7315  0.2117
  885MPD2    C413029   4.193   3.204  17.614 -0.2396  0.1797 -0.7945
  885MPD2    C513030   4.150   3.271  17.719  0.1888 -0.0939  0.1162
  885MPD2     H13031   4.291   2.919  17.739  0.3379  1.1110  1.8844
  885MPD2    H113032   4.192   3.261  17.522  0.8717 -1.3944 -1.7798
  885MPD2    H213033   4.113   3.266   0.163 -0.6728 -1.9200  0.1098
  885MPD2    H313034   4.115   3.373  17.708  1.6588  0.3959 -0.0208
  885MPD2     N13035   4.262   3.009  17.495  0.1498  0.3507  0.2102
  885MPD2    H513036   4.257   3.069  17.413 -1.0602 -0.4594 -0.3054
  885MPD2    N113037   4.221   3.039   0.227  0.1442  0.0331  0.3764
  885MPD2    H713038   4.194   3.101   0.303 -1.5027  0.0811 -0.2548
  886MPD2     C13039   0.609   1.512  15.389  0.4748 -0.0111  0.4031
  886MPD2    C113040   0.692   1.411  15.355 -0.1589  0.6709 -0.2994
  886MPD2    C213041   0.729   1.393  15.226  0.3010  0.9082 -0.8194
  886MPD2    C313042   0.673   1.472  15.128  0.7541 -0.0907  0.2463
  886MPD2    C413043   0.584   1.568  15.165  0.0225 -0.1253  0.3302
  886MPD2    C513044   0.553   1.587  15.295  0.2277 -0.2042  0.1771
  886MPD2     H13045   0.789   1.304  15.207  0.7059  0.9273  0.4130
  886MPD2    H113046   0.539   1.636  15.093  0.5211 -1.2731 -1.0843
  886MPD2    H213047   0.566   1.525  15.487 -2.1605  0.4945 -0.8119
  886MPD2    H313048   0.478   1.654  15.334  1.5171  2.0586 -1.2843
  886MPD2     N13049   0.706   1.463  14.987 -0.6256  0.6102 -0.3803
  886MPD2    H513050   0.679   1.542  14.930  0.0885  1.1295  0.0054
  886MPD2    N113051   0.747   1.324  15.456 -0.0628  0.7556  0.5651
  886MPD2    H713052   0.796   1.240  15.426  1.7519  2.1843 -0.4879
  887MPD2     C13053   1.371   1.212  15.974 -0.7886  0.3013 -0.4684
  887MPD2    C113054   1.294   1.295  15.898  0.0247 -0.7724  0.0124
  887MPD2    C213055   1.336   1.424  15.872 -0.5737 -0.2211  0.7903
  887MPD2    C313056   1.456   1.468  15.928  0.3634 -0.8709  0.3236
  887MPD2    C413057   1.540   1.380  15.998  0.8741  0.1655 -0.6509
  887MPD2    C513058   1.495   1.253  16.015 -0.0860 -0.7866 -0.0252
  887MPD2     H13059   1.275   1.499  15.822  0.8618 -0.2570 -0.9991
  887MPD2    H113060   1.632   1.406  16.049  1.0811  1.1359 -1.5107
  887MPD2    H213061   1.341   1.110  15.994 -0.7111  0.6245  1.2718
  887MPD2    H313062   1.559   1.187  16.073  1.0722 -0.3396 -0.7866
  887MPD2     N13063   1.485   1.599  15.902 -0.1266 -0.4774  0.3947
  887MPD2    H513064   1.418   1.644  15.840  1.1966  1.2654  0.2344
  887MPD2    N113065   1.164   1.266  15.854 -0.5914  0.1617 -0.2653
  887MPD2    H713066   1.114   1.328  15.790 -0.4510  0.6802  0.1205
  888MPD2     C13067   2.916   1.139  14.919  0.2900  0.4373 -0.2018
  888MPD2    C113068   2.949   1.178  15.047 -0.5318 -0.1278 -0.4265
  888MPD2    C213069   3.033   1.288  15.062 -0.0960  0.0675 -0.5081
  888MPD2    C313070   3.063   1.371  14.949 -0.1190  0.4848 -0.1611
  888MPD2    C413071   3.009   1.336  14.826  0.6868 -0.4211 -0.4272
  888MPD2    C513072   2.934   1.217  14.815 -0.3513  0.2576  0.0283
  888MPD2     H13073   3.070   1.321  15.158 -3.9482 -0.0663  0.9889
  888MPD2    H113074   3.026   1.397  14.738  1.7832 -0.6144 -0.3441
  888MPD2    H213075   2.870   1.043  14.898  1.6875 -0.0509 -1.0085
  888MPD2    H313076   2.888   1.181  14.724  0.0306 -0.5973  0.1785
  888MPD2     N13077   3.151   1.484  14.972 -0.0307  0.7842  0.4584
  888MPD2    H513078   3.178   1.510  15.066  0.1492 -0.2647  0.6980
  888MPD2    N113079   2.912   1.100  15.158  0.6818 -0.8937 -0.2037
  888MPD2    H713080   2.945   1.129  15.250 -0.6053  0.2540 -0.1148
  889MPD2     C13081   2.509   0.436  13.343 -0.3876 -0.5001  0.3167
  889MPD2    C113082   2.549   0.510  13.228  0.1582  0.5032  0.2174
  889MPD2    C213083   2.541   0.648  13.236  0.4462  0.0474 -0.3810
  889MPD2    C313084   2.487   0.710  13.350  0.4485  0.2413 -0.5769
  889MPD2    C413085   2.440   0.635  13.452 -0.4792 -0.6666 -0.2724
  889MPD2    C513086   2.451   0.499  13.447  0.4862 -0.2816  0.5397
  889MPD2     H13087   2.592   0.704  13.158 -3.6579  2.3215 -1.4051
  889MPD2    H113088   2.386   0.682  13.533  0.7157  0.8526 -0.3656
  889MPD2    H213089   2.534   0.331  13.349  1.0582 -0.2668 -1.8517
  889MPD2    H313090   2.413   0.439  13.529 -3.2292 -1.4941 -2.0497
  889MPD2     N13091   2.485   0.849  13.362 -0.1082  0.5484 -0.2288
  889MPD2    H513092   2.461   0.890  13.452  0.8554 -2.2376  1.2852
  889MPD2    N113093   2.632   0.435  13.141 -0.5305 -0.3401 -0.2996
  889MPD2    H713094   2.655   0.340  13.170  0.6602  0.1422  0.3449
  890MPD2     C13095   1.941   2.536  14.378 -0.2731 -0.0670  0.0705
  890MPD2    C113096   1.972   2.658  14.434 -0.0030 -0.1869  0.2587
  890MPD2    C213097   2.005   2.657  14.571 -0.2940 -0.5797  0.1302
  890MPD2    C313098   2.011   2.540  14.643  0.4520 -0.0647  0.0430
  890MPD2    C413099   1.965   2.420  14.590  0.4384  0.0694 -0.9852
  890MPD2    C513100   1.935   2.424  14.462  0.5963  0.1279  0.8022
  890MPD2     H13101   2.018   2.747  14.630 -1.3681 -0.5704  0.3566
  890MPD2    H113102   1.963   2.325  14.643  0.6705  0.2591 -0.6340
  890MPD2    H213103   1.918   2.516  14.274  1.9778  0.3978 -0.5229
  890MPD2    H313104   1.901   2.335  14.410  0.4589  0.6086  0.0771
  890MPD2     N13105   2.062   2.549  14.774 -0.7896 -0.3948 -0.7281
  890MPD2    H513106   2.092   2.640  14.808 -0.8815  0.9652 -4.2778
  890MPD2    N113107   1.975   2.775  14.361  0.0095  0.1691  0.1396
  890MPD2    H713108   1.950   2.766  14.263 -3.9219  2.5835  0.9364
  891MPD2     C13109   4.601   0.882  16.571 -0.6202 -0.1153  0.2521
  891MPD2    C113110   4.599   0.958  16.685  0.4550 -0.2164  0.3385
  891MPD2    C213111   4.681   0.931  16.790  0.1934  0.2542  0.6049
  891MPD2    C313112   0.030   0.823  16.783 -0.5667 -0.3205 -0.5806
  891MPD2    C413113   0.017   0.732  16.681 -0.0048  0.3191 -0.1793
  891MPD2    C513114   4.669   0.764  16.583  0.0681 -0.3357 -0.1417
  891MPD2     H13115   4.685   0.985  16.884 -0.2781  1.5173 -0.0921
  891MPD2    H113116   0.085   0.649  16.673 -2.5712 -1.5627 -2.7778
  891MPD2    H213117   4.555   0.897  16.474  0.0955 -0.1697 -0.0957
  891MPD2    H313118   4.679   0.702  16.495  1.3429 -0.2970 -0.0187
  891MPD2     N13119   0.124   0.819  16.890  0.2953 -0.2306 -0.3455
  891MPD2    H513120   0.114   0.885  16.967  2.0927 -2.1366  1.5195
  891MPD2    N113121   4.526   1.077  16.680 -0.0818 -1.0331 -0.3467
  891MPD2    H713122   4.496   1.097  16.585 -2.7239 -0.6924  0.5495
  892MPD2     C13123   1.342   2.264  14.369 -0.9618 -0.2956 -0.0835
  892MPD2    C113124   1.254   2.175  14.427  0.4718 -0.8926 -0.7855
  892MPD2    C213125   1.308   2.049  14.456  0.4769  0.2917  0.1847
  892MPD2    C313126   1.437   2.007  14.426 -0.2384 -0.5928  0.5412
  892MPD2    C413127   1.520   2.094  14.358 -0.0308  0.0984  0.4077
  892MPD2    C513128   1.468   2.219  14.326 -0.2644 -0.2507  0.1799
  892MPD2     H13129   1.244   1.979  14.508  2.2507  0.4978  2.6292
  892MPD2    H113130   1.620   2.058  14.336 -0.7254 -0.6822 -1.4881
  892MPD2    H213131   1.316   2.368  14.355  1.3409  0.2651 -0.2356
  892MPD2    H313132   1.530   2.285  14.266  1.3532 -0.2909  1.8226
  892MPD2     N13133   1.488   1.878  14.461 -0.1245  0.1927  0.5106
  892MPD2    H513134   1.588   1.867  14.452 -0.0764  0.2881  0.9184
  892MPD2    N113135   1.122   2.209  14.472  0.1621  0.1548 -0.1752
  892MPD2    H713136   1.074   2.141  14.528  0.9427 -0.8462 -0.7137
  893MPD2     C13137   2.770   4.695   1.014  0.0457 -0.3491 -0.5621
  893MPD2    C113138   2.822   4.696   0.887  0.2998 -0.6241 -0.0457
  893MPD2    C213139   2.743   4.681   0.780 -0.1121 -0.6237  0.1704
  893MPD2    C313140   2.607   4.681   0.790  0.0174 -0.0718 -0.1235
  893MPD2    C413141   2.546   4.678   0.912  0.0115  0.0979 -0.2920
  893MPD2    C513142   2.633   4.687   1.020  0.1979 -0.7344  0.1703
  893MPD2     H13143   2.792   4.679   0.683  1.3237 -1.8494  0.9233
  893MPD2    H113144   2.442   4.652   0.927  0.6471 -1.9337  0.5598
  893MPD2    H213145   2.831   4.693   1.104  1.2264 -0.4237 -1.3647
  893MPD2    H313146   2.588   4.669   1.117  3.6433 -0.0582  1.8660
  893MPD2     N13147   2.533   4.645   0.671  0.6991 -0.6490  0.0277
  893MPD2    H513148   2.432   4.640   0.680  0.9284 -3.7870  0.7598
  893MPD2    N113149   2.963   4.696   0.871 -0.2351 -0.2802  0.4341
  893MPD2    H713150   3.017   4.689   0.956  1.3501 -1.2821 -0.6497
  894MPD2     C13151   1.320   3.032   1.206  0.3550  0.0778 -0.3319
  894MPD2    C113152   1.230   3.038   1.314 -0.1626  0.7414  0.2230
  894MPD2    C213153   1.242   3.133   1.411  0.1142 -0.2194 -0.0025
  894MPD2    C313154   1.331   3.243   1.387 -1.1844 -0.6029  0.0166
  894MPD2    C413155   1.421   3.235   1.284 -0.0801 -0.1037 -0.4092
  894MPD2    C513156   1.414   3.129   1.193  0.2263  0.0947  0.1365
  894MPD2     H13157   1.173   3.141   1.494  0.9898 -1.6885  0.8783
  894MPD2    H113158   1.489   3.314   1.256 -0.3982  0.8124  1.4793
  894MPD2    H213159   1.325   2.946   1.140 -0.2060 -1.1167  1.1530
  894MPD2    H313160   1.481   3.130   1.107  0.7206  0.7132  0.5261
  894MPD2     N13161   1.336   3.352   1.474  0.0896  0.0093 -0.1289
  894MPD2    H513162   1.401   3.424   1.446  1.1675 -1.2387 -0.8237
  894MPD2    N113163   1.136   2.942   1.338  0.1621 -0.1119  0.3285
  894MPD2    H713164   1.082   2.942   1.424  0.3398 -0.2513  0.4414
  895MPD2     C13165   1.137   1.307  13.913 -0.1847 -0.1772 -0.0966
  895MPD2    C113166   1.080   1.278  13.790  0.0828  0.4272  0.2721
  895MPD2    C213167   0.998   1.169  13.781  0.1276 -0.1653  0.2596
  895MPD2    C313168   0.955   1.103  13.896 -0.1119 -1.1392 -0.2793
  895MPD2    C413169   1.016   1.131  14.012 -0.2198  0.0033 -0.7013
  895MPD2    C513170   1.109   1.229  14.021  0.2938  0.0207  0.0925
  895MPD2     H13171   0.943   1.144  13.691  0.2003  0.5545  0.0232
  895MPD2    H113172   0.989   1.076  14.101 -0.0863 -2.0799 -1.9542
  895MPD2    H213173   1.193   1.398  13.931  0.5974 -0.6048 -0.3921
  895MPD2    H313174   1.151   1.248  14.119 -1.2345  0.9394  0.5787
  895MPD2     N13175   0.850   1.009  13.884  0.2648 -0.7578  0.3797
  895MPD2    H513176   0.796   0.990  13.800  1.6370  1.5151 -0.9990
  895MPD2    N113177   1.089   1.367  13.674  0.2386 -0.0636  0.6567
  895MPD2    H713178   1.037   1.339  13.592  0.7636 -0.2766  0.3956
  896MPD2     C13179   2.772   3.776   1.456 -0.7592 -0.3004  0.6263
  896MPD2    C113180   2.727   3.795   1.329 -0.1881 -0.6762  0.1224
  896MPD2    C213181   2.586   3.798   1.313 -0.1738  0.7512  0.0479
  896MPD2    C313182   2.503   3.813   1.416 -0.3289 -0.1474 -0.3975
  896MPD2    C413183   2.556   3.832   1.543 -0.0667  0.5213  0.6217
  896MPD2    C513184   2.685   3.804   1.559  0.3433 -0.0526 -0.4824
  896MPD2     H13185   2.543   3.791   1.213 -1.9749  0.0870  0.8642
  896MPD2    H113186   2.495   3.845   1.632  0.8018  2.8694  0.8806
  896MPD2    H213187   2.878   3.757   1.467 -0.4411  1.5040  0.6647
  896MPD2    H313188   2.723   3.808   1.660 -0.5898  3.6301 -0.2969
  896MPD2     N13189   2.364   3.816   1.389  0.1832  0.0151 -0.2602
  896MPD2    H513190   2.340   3.807   1.291 -1.7759 -0.6919  0.2721
  896MPD2    N113191   2.813   3.782   1.216 -0.0149  0.5129  0.6335
  896MPD2    H713192   2.910   3.754   1.229 -0.2627  0.0599  1.5015
  897MPD2     C13193   4.127   0.903  10.579 -0.1723 -0.8387  0.2328
  897MPD2    C113194   4.021   0.886  10.492  0.5360  0.0210  0.1027
  897MPD2    C213195   3.908   0.812  10.527 -0.1110 -0.0656 -0.2001
  897MPD2    C313196   3.894   0.765  10.654 -0.0539 -0.7237  0.2439
  897MPD2    C413197   4.001   0.787  10.742 -0.2606  0.0734  0.1786
  897MPD2    C513198   4.118   0.852  10.703 -0.0981 -0.4129  0.1927
  897MPD2     H13199   3.822   0.814  10.462 -1.0065  0.9824  1.0069
  897MPD2    H113200   3.987   0.749  10.843 -2.6802 -0.9929 -0.5616
  897MPD2    H213201   4.215   0.960  10.552 -0.6487  0.1705  0.8136
  897MPD2    H313202   4.206   0.871  10.764 -1.0310 -0.7205  1.6129
  897MPD2     N13203   3.766   0.719  10.697  0.2463  0.1649  0.5381
  897MPD2    H513204   3.685   0.726  10.637  2.6682  0.1069 -2.7606
  897MPD2    N113205   4.032   0.955  10.364 -0.1017  0.2287 -0.3438
  897MPD2    H713206   4.108   1.017  10.341 -0.7338  1.3022  0.4242
  898MPD2     C13207   0.405   1.244   0.283  0.3223  0.2601  0.3534
  898MPD2    C113208   0.539   1.216   0.289 -0.7287 -0.2275  0.4070
  898MPD2    C213209   0.629   1.310   0.241  0.3437  0.0585  0.1161
  898MPD2    C313210   0.581   1.428   0.189  0.1128  0.5828  0.1684
  898MPD2    C413211   0.446   1.451   0.181  0.3802 -0.3745 -0.2757
  898MPD2    C513212   0.358   1.357   0.225 -0.1663  0.6976  0.2734
  898MPD2     H13213   0.736   1.292   0.248 -0.1020 -3.0813 -1.0684
  898MPD2    H113214   0.413   1.548   0.144  0.7476  0.0412  0.4810
  898MPD2    H213215   0.332   1.188   0.339 -1.4087  1.4276 -0.7133
  898MPD2    H313216   0.253   1.383   0.238 -0.2924 -0.7129  2.0804
  898MPD2     N13217   0.673   1.520   0.140 -0.1771  0.5174  0.3894
  898MPD2    H513218   0.763   1.486   0.109  1.1588  2.4675  2.1386
  898MPD2    N113219   0.598   1.104   0.361 -0.5527  0.0637 -0.6069
  898MPD2    H713220   0.699   1.104   0.371 -0.4875 -2.0355 -1.3701
  899MPD2     C13221   1.625   1.600  17.283 -0.5395 -0.7541  0.2903
  899MPD2    C113222   1.648   1.717  17.353 -0.0695  0.0159  0.5463
  899MPD2    C213223   1.661   1.716  17.492  0.1879  0.4522 -0.1211
  899MPD2    C313224   1.652   1.591  17.552  0.0863 -0.5047  0.7897
  899MPD2    C413225   1.641   1.477  17.477 -0.5777 -0.6205  0.4839
  899MPD2    C513226   1.621   1.476  17.343  0.0502 -0.3477 -0.3315
  899MPD2     H13227   1.670   1.809  17.547 -0.2883  0.7369 -0.5278
  899MPD2    H113228   1.649   1.382  17.528 -1.4679 -0.5413  0.7645
  899MPD2    H213229   1.626   1.593  17.175 -1.2985 -0.4823  0.2654
  899MPD2    H313230   1.614   1.388  17.280 -0.9126 -1.4394  1.2856
  899MPD2     N13231   1.643   1.560  17.688 -0.1366 -0.4440 -0.2428
  899MPD2    H513232   1.611   1.468  17.717 -0.7127 -0.6022 -1.3698
  899MPD2    N113233   1.658   1.841  17.281 -0.2230 -0.2988 -0.1422
  899MPD2    H713234   1.630   1.827  17.184 -0.1603  0.7571 -0.3205
  900MPD2     C13235   1.734   3.504  12.694  0.0622  0.2913  0.4248
  900MPD2    C113236   1.653   3.390  12.710 -0.3099  0.0697  0.1491
  900MPD2    C213237   1.515   3.417  12.684 -0.0573  0.3716 -0.5609
  900MPD2    C313238   1.459   3.530  12.631  0.7705  0.5906  0.2766
  900MPD2    C413239   1.547   3.638  12.622  0.9095 -0.3897  0.3379
  900MPD2    C513240   1.677   3.629  12.661  0.6112  0.1258 -0.7484
  900MPD2     H13241   1.444   3.335  12.687 -0.2211  0.5990  1.7191
  900MPD2    H113242   1.515   3.736  12.588 -1.2724 -1.9301 -2.0186
  900MPD2    H213243   1.841   3.506  12.715  0.0801  0.9957  0.2522
  900MPD2    H313244   1.743   3.713  12.641 -0.9412  1.5980  0.3622
  900MPD2     N13245   1.325   3.543  12.601  0.2308 -0.4003 -0.2278
  900MPD2    H513246   1.275   3.455  12.603 -0.5006  0.0001 -1.3297
  900MPD2    N113247   1.708   3.261  12.741  0.4613 -0.2635 -0.2217
  900MPD2    H713248   1.809   3.258  12.753  0.5292 -0.8637 -0.9517
  901MPD2     C13249   1.572   2.190  12.972 -0.0434 -0.3716 -0.0684
  901MPD2    C113250   1.659   2.205  12.866 -0.9825 -0.9190 -0.3347
  901MPD2    C213251   1.682   2.337  12.816  0.5233 -0.0519  0.5630
  901MPD2    C313252   1.650   2.446  12.883 -0.1001  0.5567 -0.1582
  901MPD2    C413253   1.580   2.429  13.000 -0.7964 -0.1169  0.4476
  901MPD2    C513254   1.530   2.303  13.037  0.4068 -0.0182 -0.7575
  901MPD2     H13255   1.732   2.355  12.721 -2.1468  0.8237 -0.6617
  901MPD2    H113256   1.570   2.513  13.067 -2.5530 -0.0971  0.1619
  901MPD2    H213257   1.540   2.091  13.003 -0.7596  0.7936  2.9119
  901MPD2    H313258   1.473   2.282  13.127 -0.0059 -1.1361 -1.2808
  901MPD2     N13259   1.709   2.573  12.848 -0.1583 -0.3332  0.0951
  901MPD2    H513260   1.769   2.582  12.767 -2.2926 -0.4349 -1.5097
  901MPD2    N113261   1.703   2.084  12.811  0.1139  0.6064 -0.5848
  901MPD2    H713262   1.679   1.999  12.862 -1.4852  0.8267 -0.9624
  902MPD2     C13263   0.555   1.535  12.889 -0.3059  0.0149  0.5398
  902MPD2    C113264   0.640   1.625  12.950  0.0269  0.4353 -0.9069
  902MPD2    C213265   0.778   1.626  12.927  0.0631  0.0060  0.6452
  902MPD2    C313266   0.822   1.525  12.838 -0.9724 -0.2450  0.5435
  902MPD2    C413267   0.744   1.427  12.793 -0.0573 -0.1765 -0.2366
  902MPD2    C513268   0.614   1.433  12.815  0.2411 -0.4234 -0.3968
  902MPD2     H13269   0.854   1.693  12.965  1.4591 -0.0050 -2.1508
  902MPD2    H113270   0.791   1.349  12.734 -0.6358 -0.9452  0.3261
  902MPD2    H213271   0.449   1.541  12.912 -0.9576  0.8800 -2.6769
  902MPD2    H313272   0.544   1.353  12.791 -2.5122  1.8645 -0.0205
  902MPD2     N13273   0.957   1.521  12.792  0.2096 -0.8638  0.6021
  902MPD2    H513274   0.978   1.446  12.726 -0.9188 -1.1238  0.5444
  902MPD2    N113275   0.574   1.722  13.033 -0.4269 -0.3713  0.1950
  902MPD2    H713276   0.477   1.705  13.054 -0.6603  0.4740 -0.2048
  903MPD2     C13277   1.111   1.848  12.022 -0.0394 -0.1708  0.4191
  903MPD2    C113278   1.053   1.799  12.139 -0.4813 -0.8720 -0.5885
  903MPD2    C213279   0.924   1.750  12.138 -0.3238  0.0263 -0.2193
  903MPD2    C313280   0.858   1.734  12.014  1.2857  0.3350  0.9129
  903MPD2    C413281   0.924   1.764  11.899  0.0297 -0.0857  0.3472
  903MPD2    C513282   1.048   1.832  11.903 -0.0600  0.0680 -0.3620
  903MPD2     H13283   0.874   1.712  12.226  1.2764 -0.5603  0.4346
  903MPD2    H113284   0.881   1.746  11.801  0.6585  1.9888 -0.3032
  903MPD2    H213285   1.211   1.890  12.026 -0.3624  0.7137 -0.8940
  903MPD2    H313286   1.089   1.862  11.807 -3.2417 -0.2345 -1.8206
  903MPD2     N13287   0.733   1.663  12.007  0.3546 -0.1635  0.4000
  903MPD2    H513288   0.694   1.643  12.098 -0.1548 -1.2884 -0.0619
  903MPD2    N113289   1.125   1.786  12.254 -0.6475 -0.1020 -0.3313
  903MPD2    H713290   1.223   1.811  12.246 -0.5848 -0.3530 -0.3544
  904MPD2     C13291   0.101   0.478  13.904  0.4408  0.2845 -0.1773
  904MPD2    C113292   0.180   0.589  13.942  0.3189 -0.2610 -0.1184
  904MPD2    C213293   0.288   0.562  14.030 -0.0816  0.2804 -0.9339
  904MPD2    C313294   0.311   0.441  14.084  0.3989  0.2627 -0.2695
  904MPD2    C413295   0.216   0.341  14.074  0.2246 -0.4117 -0.2980
  904MPD2    C513296   0.122   0.360  13.981  0.0021 -0.6240 -0.7541
  904MPD2     H13297   0.365   0.639  14.033  0.1691 -0.0689  2.0136
  904MPD2    H113298   0.219   0.253  14.137  0.7814  1.5060  2.3875
  904MPD2    H213299   0.033   0.485  13.820 -1.6188  1.6789  1.5982
  904MPD2    H313300   0.059   0.281  13.942  0.0846 -0.3051 -1.5180
  904MPD2     N13301   0.428   0.427  14.159 -0.3883  0.1055 -0.5076
  904MPD2    H513302   0.494   0.504  14.158 -0.8181  0.4956  0.5466
  904MPD2    N113303   0.165   0.720  13.884 -0.2311 -0.0417 -0.2873
  904MPD2    H713304   0.219   0.797  13.921 -2.0751  0.4442  1.3587
  905MPD2     C13305   0.172   0.789  13.259 -0.2589  0.6817 -0.1857
  905MPD2    C113306   0.153   0.891  13.350 -0.2102  0.5336 -0.0108
  905MPD2    C213307   0.255   0.910  13.443  0.0308  0.3092  0.2894
  905MPD2    C313308   0.364   0.815  13.451 -0.0194  0.2420  0.6189
  905MPD2    C413309   0.377   0.719  13.351  0.5981 -0.4820  0.2715
  905MPD2    C513310   0.287   0.714  13.250  0.2345  0.9534 -0.8753
  905MPD2     H13311   0.256   0.986  13.521  0.1182 -0.1188  0.7014
  905MPD2    H113312   0.452   0.641  13.347  1.1955  0.1408 -0.6212
  905MPD2    H213313   0.092   0.778  13.187  0.3660  1.7731 -1.0505
  905MPD2    H313314   0.293   0.643  13.168  2.8534  2.1539 -1.7496
  905MPD2     N13315   0.450   0.791  13.559  0.4348 -0.4182 -0.0890
  905MPD2    H513316   0.506   0.706  13.554 -0.1704 -0.7051 -2.0818
  905MPD2    N113317   0.036   0.972  13.343  0.1905  0.3954 -0.4529
  905MPD2    H713318   4.734   0.975  13.251 -2.0959  0.3954  0.5981
  906MPD2     C13319   2.654   0.902  11.337  0.3627  0.1543  0.6093
  906MPD2    C113320   2.628   0.819  11.228  0.2864  0.2891  0.1022
  906MPD2    C213321   2.616   0.681  11.245 -0.0305 -0.2168  0.2850
  906MPD2    C313322   2.624   0.617  11.367 -0.1382  0.7204  0.3457
  906MPD2    C413323   2.633   0.708  11.476  0.3217  0.0533  0.4017
  906MPD2    C513324   2.641   0.844  11.462 -0.8621  0.4226 -0.3402
  906MPD2     H13325   2.617   0.622  11.154  1.1137 -0.8249  0.6954
  906MPD2    H113326   2.648   0.658  11.571  1.2823 -1.0514 -0.3254
  906MPD2    H213327   2.671   1.008  11.322 -1.0618  0.2250 -0.5252
  906MPD2    H313328   2.656   0.918  11.540  0.6922 -2.3998  2.0446
  906MPD2     N13329   2.631   0.476  11.382 -0.1602 -0.0183  0.0125
  906MPD2    H513330   2.613   0.446  11.477 -0.2545 -1.9603 -0.6165
  906MPD2    N113331   2.625   0.862  11.093 -0.0741  0.1681  0.2516
  906MPD2    H713332   2.615   0.783  11.030  0.1999  0.0105  0.4039
  907MPD2     C13333   0.709   0.012  15.781  0.1724 -0.4281 -0.7720
  907MPD2    C113334   0.801   4.678  15.709  0.6656 -0.0749  0.1902
  907MPD2    C213335   0.925   4.647  15.769  0.3223  0.9734 -0.2649
  907MPD2    C313336   0.948   4.680  15.902 -0.1223 -0.5075 -0.2437
  907MPD2    C413337   0.855   0.020  15.972 -0.3780  0.4399 -0.2745
  907MPD2    C513338   0.745   0.054  15.902  0.0444 -0.4182  0.0323
  907MPD2     H13339   1.000   4.605  15.703  0.1045  0.4638 -0.1877
  907MPD2    H113340   0.874   0.048  16.075 -1.3275 -1.1557  0.3262
  907MPD2    H213341   0.612   0.031  15.737  0.4210  0.0898 -1.1040
  907MPD2    H313342   0.673   0.112  15.958  0.3624  0.5740 -0.5930
  907MPD2     N13343   1.075   4.653  15.965  0.0065  0.3456  0.0521
  907MPD2    H513344   1.144   4.600  15.912 -1.1219  0.6951 -1.7468
  907MPD2    N113345   0.791   4.643  15.572  0.0506  1.0291 -0.6711
  907MPD2    H713346   0.865   4.594  15.523 -0.8623 -3.0715  2.0574
  908MPD2     C13347   3.407   1.011   9.577  0.1694 -0.4347 -0.0172
  908MPD2    C113348   3.475   0.903   9.623  0.0260 -0.2658 -0.0888
  908MPD2    C213349   3.584   0.924   9.707 -0.0993 -0.2510 -0.0356
  908MPD2    C313350   3.622   1.045   9.749 -0.0212  0.6100 -0.1422
  908MPD2    C413351   3.556   1.158   9.703  0.0807 -0.3054 -0.5540
  908MPD2    C513352   3.451   1.136   9.616  0.9507  0.0091 -0.0153
  908MPD2     H13353   3.645   0.840   9.738  0.8053 -0.4333 -2.2468
  908MPD2    H113354   3.583   1.259   9.732 -1.1283 -0.7616  2.1356
  908MPD2    H213355   3.322   1.007   9.510 -0.1735  0.0537  0.3879
  908MPD2    H313356   3.390   1.224   9.597 -0.9820 -1.2774  0.1432
  908MPD2     N13357   3.713   1.058   9.854  0.4710 -0.3516  0.3467
  908MPD2    H513358   3.719   0.980   9.919  0.4175 -0.5641  0.0966
  908MPD2    N113359   3.433   0.775   9.581 -0.5287  0.2927 -0.6968
  908MPD2    H713360   3.352   0.773   9.520 -1.3200 -1.3770  0.4223
  909MPD2     C13361   4.346   3.514  11.929 -0.4594  0.7206 -0.3268
  909MPD2    C113362   4.326   3.554  11.801  0.4649  0.4832  0.1242
  909MPD2    C213363   4.197   3.558  11.754 -0.0289  0.3649 -0.0689
  909MPD2    C313364   4.091   3.524  11.827  0.1373 -0.5831  0.4036
  909MPD2    C413365   4.111   3.482  11.952 -0.2387  0.1868  0.2472
  909MPD2    C513366   4.237   3.485  12.003 -0.0250 -0.0140 -0.2705
  909MPD2     H13367   4.190   3.566  11.646 -0.3099 -1.1294 -0.1694
  909MPD2    H113368   4.036   3.448  12.023 -0.5290 -0.6143 -0.4450
  909MPD2    H213369   4.444   3.512  11.974 -0.8534  5.9908  0.7545
  909MPD2    H313370   4.259   3.449  12.103  1.1749 -0.6790 -0.7660
  909MPD2     N13371   3.960   3.535  11.772  0.8862 -0.1153 -0.2674
  909MPD2    H513372   3.962   3.565  11.675  1.4086  0.5410 -0.0533
  909MPD2    N113373   4.423   3.576  11.698  1.3473  0.2382  0.5947
  909MPD2    H713374   4.393   3.608  11.606  3.1397 -0.4422 -0.2301
  910MPD2     C13375   0.189   0.735  16.108 -0.3973 -0.7116 -0.5693
  910MPD2    C113376   0.215   0.601  16.070  0.1943  0.0575 -0.3969
  910MPD2    C213377   0.227   0.559  15.933  0.3021 -0.3970  0.6379
  910MPD2    C313378   0.221   0.660  15.837 -0.6819  0.7015  0.2224
  910MPD2    C413379   0.186   0.788  15.874 -0.0110 -0.4272 -0.3523
  910MPD2    C513380   0.164   0.824  16.004 -0.1904  0.5790 -0.1965
  910MPD2     H13381   0.239   0.455  15.908 -0.5140 -0.4994  0.6632
  910MPD2    H113382   0.167   0.870  15.805 -1.5644 -0.9524 -0.5363
  910MPD2    H213383   0.190   0.767  16.212  3.3963  0.5593 -0.9869
  910MPD2    H313384   0.124   0.925  16.017  1.3270  1.2872 -1.0873
  910MPD2     N13385   0.242   0.636  15.703 -0.3256  0.6547  0.4420
  910MPD2    H513386   0.246   0.719  15.645  0.8087 -0.2991 -0.8272
  910MPD2    N113387   0.238   0.502  16.169 -0.3837 -0.0468 -0.4989
  910MPD2    H713388   0.274   0.413  16.137 -1.9435 -0.6696 -0.5404
  911MPD2     C13389   3.234   1.247  16.031 -0.3094 -0.2913  0.8091
  911MPD2    C113390   3.215   1.309  16.157  0.5218  0.2424  0.6169
  911MPD2    C213391   3.104   1.382  16.200  0.0286 -0.0267 -0.2719
  911MPD2    C313392   3.011   1.403  16.104 -0.0674 -0.1737  0.6952
  911MPD2    C413393   3.026   1.351  15.973  0.1391  0.1815  0.8445
  911MPD2    C513394   3.133   1.268  15.938 -1.0054 -0.0757  0.0639
  911MPD2     H13395   3.091   1.415  16.303  3.1091  0.6650 -0.1024
  911MPD2    H113396   2.943   1.363  15.904 -1.4144 -0.7896  2.5347
  911MPD2    H213397   3.320   1.184  16.011 -0.1634  0.7025 -1.6544
  911MPD2    H313398   3.138   1.239  15.834  1.4232 -0.3780  0.2734
  911MPD2     N13399   2.891   1.476  16.120  0.0786 -0.1079  0.2896
  911MPD2    H513400   2.830   1.475  16.039  1.9075 -0.1023 -1.0916
  911MPD2    N113401   3.300   1.256  16.256  0.2745 -0.0965  0.5049
  911MPD2    H713402   3.357   1.175  16.233 -0.2980 -0.3726  0.0652
  912MPD2     C13403   2.778   1.256  15.654  0.0120 -0.3176  0.2957
  912MPD2    C113404   2.743   1.258  15.786  0.4857  0.5994  0.4709
  912MPD2    C213405   2.779   1.148  15.863 -0.0788  0.1106  0.0265
  912MPD2    C313406   2.854   1.048  15.812 -0.0799  0.5727  0.4571
  912MPD2    C413407   2.879   1.041  15.678  0.6350 -0.1670  0.2095
  912MPD2    C513408   2.849   1.151  15.605  0.0769  0.1561  0.4318
  912MPD2     H13409   2.740   1.136  15.964 -1.9795  1.2555 -0.5803
  912MPD2    H113410   2.933   0.959  15.632 -0.4144 -0.6783 -0.1155
  912MPD2    H213411   2.761   1.332  15.579 -0.6889 -0.1101  0.6647
  912MPD2    H313412   2.880   1.161  15.502  0.6973  1.8762  0.7770
  912MPD2     N13413   2.888   0.942  15.895  0.3679  0.3556 -0.4852
  912MPD2    H513414   2.848   0.955  15.988 -2.7503  2.4711 -2.1275
  912MPD2    N113415   2.676   1.369  15.839  0.4180  0.1933  0.1067
  912MPD2    H713416   2.668   1.443  15.769 -3.5258 -0.2063  0.1512
  913MPD2     C13417   2.832   2.181  10.052  0.5826  0.1164 -0.0512
  913MPD2    C113418   2.958   2.235  10.076 -0.5815 -0.5978 -0.0553
  913MPD2    C213419   3.004   2.327   9.985 -0.2261  0.3290 -0.9427
  913MPD2    C313420   2.927   2.346   9.872  0.5353 -0.0683 -0.9090
  913MPD2    C413421   2.813   2.278   9.850  0.2299 -0.2896 -0.2305
  913MPD2    C513422   2.763   2.194   9.940 -0.0560  0.1300  0.3414
  913MPD2     H13423   3.098   2.379  10.000 -0.0932 -0.2217  0.0683
  913MPD2    H113424   2.761   2.294   9.756 -1.3308 -1.2202  0.4676
  913MPD2    H213425   2.796   2.118  10.132  0.3397 -0.9880 -1.0186
  913MPD2    H313426   2.677   2.135   9.911  0.5154  1.0944 -3.3236
  913MPD2     N13427   2.958   2.445   9.776 -0.4435  0.3386 -0.2237
  913MPD2    H513428   2.903   2.442   9.690 -1.7655  1.0059  0.6085
  913MPD2    N113429   3.029   2.205  10.200  0.3579  0.0812  0.5637
  913MPD2    H713430   2.987   2.144  10.270 -2.5676  0.4833 -0.8451
  914MPD2     C13431   2.056   2.161  11.973  0.4884 -0.0163  0.4713
  914MPD2    C113432   2.048   2.224  12.092  0.2976  0.2284 -0.4319
  914MPD2    C213433   1.999   2.149  12.197 -0.1092  0.1380 -0.4951
  914MPD2    C313434   1.969   2.014  12.185 -0.2624  0.4949  0.2628
  914MPD2    C413435   1.984   1.947  12.068 -0.0742 -0.2580 -0.1362
  914MPD2    C513436   2.023   2.031  11.967 -0.3319 -0.0778 -0.6505
  914MPD2     H13437   1.995   2.184  12.299 -2.3328 -0.3092 -0.4414
  914MPD2    H113438   1.964   1.841  12.067  1.4143 -0.5671  2.4371
  914MPD2    H213439   2.101   2.200  11.882 -0.8153 -0.5838 -0.4277
  914MPD2    H313440   2.038   1.984  11.870  2.0327  0.1310 -0.3956
  914MPD2     N13441   1.938   1.953  12.308  0.5614  0.5677  0.9276
  914MPD2    H513442   1.946   2.006  12.394  0.4560  2.5357 -0.2799
  914MPD2    N113443   2.094   2.357  12.098 -0.0243 -0.3051  0.8390
  914MPD2    H713444   2.149   2.398  12.023 -0.3980 -1.3784 -0.0244
  915MPD2     C13445   4.506   2.351  15.844  0.8502  0.1587  0.3753
  915MPD2    C113446   4.398   2.392  15.772 -0.0612 -0.5893  0.2273
  915MPD2    C213447   4.300   2.465  15.842  0.0233 -0.1236 -0.6451
  915MPD2    C313448   4.306   2.478  15.982  0.4288 -0.4927 -0.6350
  915MPD2    C413449   4.415   2.437  16.047 -0.5156  0.0788 -0.6060
  915MPD2    C513450   4.517   2.379  15.976 -0.0792 -0.5006  0.2961
  915MPD2     H13451   4.209   2.506  15.799 -0.3128  0.3115  0.4604
  915MPD2    H113452   4.422   2.451  16.155 -0.6484  1.8337 -0.8257
  915MPD2    H213453   4.592   2.313  15.790 -1.3012 -0.1638 -2.8569
  915MPD2    H313454   4.611   2.352  16.025  0.1519 -0.0056  0.1271
  915MPD2     N13455   4.202   2.548  16.049  0.0029  0.4526  0.3391
  915MPD2    H513456   4.121   2.570  15.990 -0.9744  1.3205  1.9962
  915MPD2    N113457   4.400   2.384  15.629 -0.5435 -0.6955  0.4090
  915MPD2    H713458   4.484   2.343  15.588  0.3417 -0.7311  2.2414
  916MPD2     C13459   2.582   0.671  15.998  0.3499  0.0105  0.7933
  916MPD2    C113460   2.534   0.623  16.125  0.8047 -0.3750 -0.2956
  916MPD2    C213461   2.593   0.513  16.173 -0.5954  0.1601 -0.8309
  916MPD2    C313462   2.695   0.442  16.112 -0.4655 -0.1847 -0.0039
  916MPD2    C413463   2.743   0.487  15.992 -0.4746 -0.1522 -0.1726
  916MPD2    C513464   2.689   0.601  15.936 -0.7422 -0.0431  0.2092
  916MPD2     H13465   2.554   0.473  16.266  0.1913  1.6194  0.1214
  916MPD2    H113466   2.832   0.446  15.948 -0.9756  1.5798 -2.7840
  916MPD2    H213467   2.542   0.753  15.940  1.4206  0.0202  0.0614
  916MPD2    H313468   2.732   0.638  15.843  1.1563  0.6376  1.3630
  916MPD2     N13469   2.758   0.342  16.183 -0.0239 -0.5412  0.4700
  916MPD2    H513470   2.731   0.333  16.280  0.8963  1.1450  0.8667
  916MPD2    N113471   2.430   0.698  16.186 -0.0432  0.6014 -0.3522
  916MPD2    H713472   2.378   0.753  16.119  2.2470  2.4094 -0.6694
  917MPD2     C13473   2.657   2.948  11.000 -0.2522 -0.1194  0.2663
  917MPD2    C113474   2.669   3.013  11.122  0.1102  0.1963  0.5304
  917MPD2    C213475   2.650   3.153  11.121 -0.4452  0.3481  0.4933
  917MPD2    C313476   2.615   3.224  11.001  0.6462 -0.3204 -0.1681
  917MPD2    C413477   2.609   3.152  10.882 -0.3623  0.1774 -0.2596
  917MPD2    C513478   2.636   3.016  10.884 -0.0888 -0.2522 -0.2396
  917MPD2     H13479   2.663   3.201  11.218  0.7846  0.4331  0.2934
  917MPD2    H113480   2.593   3.207  10.790  1.6697  0.2840 -0.5481
  917MPD2    H213481   2.676   2.842  10.988 -2.8295 -0.5400 -0.0403
  917MPD2    H313482   2.622   2.966  10.789 -2.3893 -0.2999  0.1211
  917MPD2     N13483   2.581   3.364  11.005  0.3302  0.4811 -0.3678
  917MPD2    H513484   2.536   3.403  10.923  0.9491 -2.4489 -2.1279
  917MPD2    N113485   2.703   2.929  11.231  0.1375  0.0200 -0.0628
  917MPD2    H713486   2.687   2.830  11.220 -2.8615  0.6945 -1.6786
  918MPD2     C13487   3.031   3.193  12.139  0.5790  0.4147  0.0504
  918MPD2    C113488   3.121   3.164  12.038 -0.1034  0.2368 -0.6124
  918MPD2    C213489   3.085   3.082  11.934 -0.2647 -0.6199  0.3137
  918MPD2    C313490   2.953   3.042  11.926  0.4030 -1.2866 -0.0954
  918MPD2    C413491   2.861   3.064  12.031 -0.2094 -0.3741 -0.8702
  918MPD2    C513492   2.900   3.147  12.137  0.3322  0.3774 -0.1372
  918MPD2     H13493   3.157   3.061  11.855  0.7686  1.3374  0.7127
  918MPD2    H113494   2.759   3.029  12.030 -0.3197 -0.0713 -0.0184
  918MPD2    H213495   3.058   3.257  12.221  1.9335 -0.8363  0.5763
  918MPD2    H313496   2.827   3.164  12.215  1.0428 -0.3629  0.6794
  918MPD2     N13497   2.918   2.965  11.814  0.3758 -0.2459 -0.0855
  918MPD2    H513498   2.993   2.952  11.746 -0.0604 -0.3343 -0.5478
  918MPD2    N113499   3.257   3.209  12.040 -0.1542 -0.1441  0.3112
  918MPD2    H713500   3.302   3.184  11.952  0.4335  1.0435  0.2705
  919MPD2     C13501   3.570   2.206  11.792  0.2179  0.0669 -0.4141
  919MPD2    C113502   3.537   2.085  11.742  0.1868 -0.9849  0.1975
  919MPD2    C213503   3.441   2.080  11.636 -0.5900 -0.0856  0.6332
  919MPD2    C313504   3.395   2.195  11.574  0.4473 -0.1378  0.0430
  919MPD2    C413505   3.426   2.317  11.627 -0.9253  0.2121 -1.0883
  919MPD2    C513506   3.512   2.316  11.735  0.4205  0.2672 -0.5644
  919MPD2     H13507   3.413   1.983  11.597 -2.1616  0.1262  1.2504
  919MPD2    H113508   3.376   2.403  11.582  1.1388  1.9175 -0.1013
  919MPD2    H213509   3.632   2.218  11.880  0.2357  0.7259 -0.5169
  919MPD2    H313510   3.540   2.413  11.775 -3.0123  0.7330  0.6715
  919MPD2     N13511   3.316   2.192  11.458  0.5990  0.8109  0.0214
  919MPD2    H513512   3.297   2.278  11.408  0.1378  1.0040  0.5227
  919MPD2    N113513   3.557   1.964  11.817 -0.0452 -0.1318  0.1035
  919MPD2    H713514   3.535   1.873  11.777 -2.7593  0.9399 -0.8387
  920MPD2     C13515   3.156   2.521  10.521  0.1079  0.8532 -0.7520
  920MPD2    C113516   3.028   2.477  10.555 -0.0401 -0.2997  0.0036
  920MPD2    C213517   3.013   2.421  10.683 -0.5201 -0.0721 -0.3115
  920MPD2    C313518   3.118   2.404  10.771 -0.2300 -0.5150 -0.3571
  920MPD2    C413519   3.241   2.463  10.744  0.4264  0.3348 -0.1727
  920MPD2    C513520   3.258   2.519  10.617 -0.0227 -1.0455  0.1860
  920MPD2     H13521   2.922   2.373  10.715  0.5140 -2.2921 -0.6532
  920MPD2    H113522   3.317   2.473  10.820  0.7034 -1.2403 -0.2454
  920MPD2    H213523   3.184   2.568  10.428  0.8298  2.5103  0.3087
  920MPD2    H313524   3.354   2.560  10.590 -0.4285  0.9994  1.8582
  920MPD2     N13525   3.085   2.337  10.891  0.5903 -0.4871 -0.3355
  920MPD2    H513526   2.984   2.332  10.906  0.5848 -1.5884 -0.7609
  920MPD2    N113527   2.915   2.476  10.464  0.3168 -0.1326 -0.8254
  920MPD2    H713528   2.829   2.436  10.500  0.5805  1.2251  1.3599
  921MPD2     C13529   3.937   1.758  16.744  0.0771 -0.2052  0.0829
  921MPD2    C113530   3.986   1.631  16.754 -0.3543  0.0127  0.3927
  921MPD2    C213531   3.902   1.528  16.732 -0.6223 -0.0067  0.8107
  921MPD2    C313532   3.767   1.547  16.708 -0.1838 -0.4519 -0.2642
  921MPD2    C413533   3.714   1.674  16.717 -0.4659 -0.0262 -0.7555
  921MPD2    C513534   3.802   1.777  16.723  0.4460  0.6562  0.1820
  921MPD2     H13535   3.944   1.428  16.722  0.9348  0.8874 -1.6127
  921MPD2    H113536   3.607   1.682  16.704 -0.5289 -1.0750 -0.9144
  921MPD2    H213537   3.996   1.848  16.757 -0.0546 -0.7245  4.1987
  921MPD2    H313538   3.772   1.877  16.694  0.2581  0.7456  0.6923
  921MPD2     N13539   3.680   1.440  16.664 -0.5238  0.6103  0.0637
  921MPD2    H513540   3.590   1.474  16.631 -0.9244  0.1357  0.6760
  921MPD2    N113541   4.127   1.611  16.766 -0.1874 -0.8534  0.1829
  921MPD2    H713542   4.174   1.699  16.749 -1.0968 -0.7408 -1.6791
  922MPD2     C13543   0.250   4.337  17.597  0.1238 -0.1910 -0.0445
  922MPD2    C113544   0.248   4.276  17.721 -0.8808 -0.3358  0.2628
  922MPD2    C213545   0.237   4.137  17.726  0.2258 -0.3038 -0.6333
  922MPD2    C313546   0.220   4.059  17.605  0.3840  0.0723 -0.5378
  922MPD2    C413547   0.219   4.125  17.485  0.0426  0.0669  0.2667
  922MPD2    C513548   0.242   4.262  17.481  0.1421 -0.8457  0.4595
  922MPD2     H13549   0.232   4.087   0.061  0.0258 -0.6165 -0.8057
  922MPD2    H113550   0.207   4.076  17.389 -0.1130  0.6066  0.0144
  922MPD2    H213551   0.272   4.443  17.587 -1.8972  0.1446 -0.9498
  922MPD2    H313552   0.265   4.298  17.381 -2.1916 -2.8091 -0.7617
  922MPD2     N13553   0.182   3.923  17.619 -0.4972 -0.5489  0.0927
  922MPD2    H513554   0.153   3.891  17.711  1.5654 -1.1761  0.5274
  922MPD2    N113555   0.264   4.348   0.079 -0.2268  0.2736 -0.0320
  922MPD2    H713556   0.284   4.288   0.158  1.2567 -1.0467 -1.3994
  923MPD2     C13557   1.774   0.287   9.274 -0.5319  0.5248  0.2982
  923MPD2    C113558   1.666   0.358   9.316  0.3064 -0.2130  0.0845
  923MPD2    C213559   1.669   0.427   9.436 -0.2652 -0.6559  0.2197
  923MPD2    C313560   1.788   0.436   9.504  0.0545 -0.1574  0.2336
  923MPD2    C413561   1.904   0.377   9.457  0.6586 -0.1045 -0.3164
  923MPD2    C513562   1.896   0.314   9.338 -0.2596  0.8307 -0.6823
  923MPD2     H13563   1.580   0.470   9.481 -0.0908  0.2473 -0.2940
  923MPD2    H113564   1.999   0.376   9.510 -0.2466 -1.0907  1.2896
  923MPD2    H213565   1.770   0.223   9.186  1.4569 -0.5461  0.9907
  923MPD2    H313566   1.975   0.249   9.303  0.4782  1.2871  0.1333
  923MPD2     N13567   1.788   0.495   9.632  0.2672  0.2852  0.4290
  923MPD2    H513568   1.872   0.490   9.690  0.8043  1.0700 -0.2751
  923MPD2    N113569   1.550   0.348   9.238 -0.4820 -0.0084  0.1693
  923MPD2    H713570   1.563   0.284   9.160  1.3173  0.8805 -0.2572
  924MPD2     C13571   1.104   3.901  16.286 -0.1336 -0.3149 -0.0519
  924MPD2    C113572   1.143   3.988  16.384  0.2420 -0.2647  0.1485
  924MPD2    C213573   1.228   4.095  16.350 -0.1654 -0.2351 -0.0912
  924MPD2    C313574   1.265   4.120  16.217  0.4451  0.0449 -0.0206
  924MPD2    C413575   1.222   4.031  16.121  0.0910 -0.5794 -0.7136
  924MPD2    C513576   1.144   3.918  16.156 -0.1683  0.6310 -0.7557
  924MPD2     H13577   1.248   4.170  16.426  1.1078 -2.1406  1.4582
  924MPD2    H113578   1.239   4.042  16.014 -0.1805 -0.3701 -0.7347
  924MPD2    H213579   1.036   3.819  16.306  1.0647 -0.9854  1.2636
  924MPD2    H313580   1.116   3.837  16.090 -0.3724  0.4911 -0.4986
  924MPD2     N13581   1.329   4.233  16.167 -0.3064 -0.7935  0.0270
  924MPD2    H513582   1.309   4.238  16.068 -0.2605  0.9064  0.1024
  924MPD2    N113583   1.088   3.964  16.512 -0.0280 -0.3761  0.0628
  924MPD2    H713584   1.012   3.897  16.521 -2.2259  1.9936 -0.5690
  925MPD2     C13585   0.108   1.886  14.744  0.0676 -0.2039 -0.0984
  925MPD2    C113586   0.071   1.766  14.693  0.3114 -0.2444  0.7867
  925MPD2    C213587   4.708   1.699  14.757  0.1801 -0.1984 -0.3609
  925MPD2    C313588   4.647   1.742  14.873  0.4442 -0.5843  0.0987
  925MPD2    C413589   4.687   1.868  14.915 -0.6065  0.2920  0.0023
  925MPD2    C513590   0.042   1.932  14.853  0.7129 -1.1944 -0.1650
  925MPD2     H13591   4.681   1.600  14.722  0.0542 -0.8588  1.5568
  925MPD2    H113592   4.630   1.916  14.994 -1.3435 -2.5053  1.1731
  925MPD2    H213593   0.176   1.955  14.694 -1.1761  0.9501 -0.2058
  925MPD2    H313594   0.062   2.033  14.888 -1.9429 -0.8344  0.3384
  925MPD2     N13595   4.546   1.680  14.953 -0.2156 -0.2170 -0.3577
  925MPD2    H513596   4.515   1.724  15.039 -1.7257 -1.8001 -0.0733
  925MPD2    N113597   0.114   1.714  14.565 -0.6991  0.1934 -0.6100
  925MPD2    H713598   0.072   1.624  14.541 -0.5661  0.5279 -2.1234
  926MPD2     C13599   4.012   4.702  13.551  0.3466  0.1466 -0.1084
  926MPD2    C113600   3.914   0.039  13.492 -0.5628  0.4640  0.8854
  926MPD2    C213601   3.943   0.115  13.378  1.0337  0.0925  0.9218
  926MPD2    C313602   4.072   0.125  13.337 -0.0444 -0.5112 -0.5431
  926MPD2    C413603   4.170   0.042  13.391 -0.6454  0.2591  1.1569
  926MPD2    C513604   4.137   4.702  13.499  0.3904 -0.0341 -0.1388
  926MPD2     H13605   3.858   0.170  13.339  1.3816 -0.4680 -0.6453
  926MPD2    H113606   4.270   0.036  13.350 -0.0022  2.5922  2.3717
  926MPD2    H213607   3.996   4.638  13.636  3.2570  3.4396  2.9021
  926MPD2    H313608   4.214   4.635  13.534 -1.0438 -1.6400 -0.0750
  926MPD2     N13609   4.103   0.204  13.224  0.0765  0.0988 -0.2998
  926MPD2    H513610   4.179   0.177  13.163 -0.2836 -0.0198 -0.6991
  926MPD2    N113611   3.778   0.036  13.535 -0.1481 -0.3111  0.4086
  926MPD2    H713612   3.727   0.117  13.501 -1.0108 -0.8334  0.4654
  927MPD2     C13613   3.357   2.266  17.665 -0.4687 -0.4947 -0.4809
  927MPD2    C113614   3.372   2.399  17.699 -0.8414  0.4811  0.9204
  927MPD2    C213615   3.498   2.450  17.682 -0.5842 -0.2118  0.2866
  927MPD2    C313616   3.599   2.386  17.614  0.1366  0.3827  0.2466
  927MPD2    C413617   3.571   2.254  17.569  0.1066  0.2973  0.0155
  927MPD2    C513618   3.450   2.197  17.591  0.7659 -0.0719 -0.1556
  927MPD2     H13619   3.516   2.552  17.715  0.9089 -0.4982  0.3716
  927MPD2    H113620   3.640   2.196  17.509 -1.8160  0.8203 -2.7361
  927MPD2    H213621   3.266   2.209  17.684 -1.9514  2.6031  1.7111
  927MPD2    H313622   3.430   2.097  17.553 -0.2276  0.2089 -0.3534
  927MPD2     N13623   3.729   2.444  17.594  0.5675 -0.2399  0.2447
  927MPD2    H513624   3.722   2.544  17.612 -2.6175 -1.4864  6.0233
  927MPD2    N113625   3.264   2.459   0.001  0.3314 -0.0154 -0.4023
  927MPD2    H713626   3.185   2.397   0.019  0.4939 -0.7148 -2.0737
  928MPD2     C13627   0.872   0.336   0.521  0.9303 -0.2899  0.2150
  928MPD2    C113628   0.898   0.432   0.617 -0.0251  0.3714  0.6618
  928MPD2    C213629   0.962   0.550   0.578  0.3362  0.2835 -0.0742
  928MPD2    C313630   0.987   0.579   0.445  0.1312 -0.7141  0.2870
  928MPD2    C413631   0.935   0.490   0.350 -0.0900  0.0366 -0.5095
  928MPD2    C513632   0.887   0.369   0.384 -1.0584  0.0828 -0.5337
  928MPD2     H13633   0.983   0.622   0.657  0.2880 -0.1840  0.3682
  928MPD2    H113634   0.943   0.514   0.244 -1.3568 -2.6820 -1.2157
  928MPD2    H213635   0.826   0.241   0.546 -0.1699  0.8430  2.5475
  928MPD2    H313636   0.862   0.295   0.310 -1.7142 -2.5346  2.2989
  928MPD2     N13637   1.043   0.705   0.405 -0.3279 -0.6357  0.4737
  928MPD2    H513638   1.047   0.721   0.305  0.2958  0.6476  0.6994
  928MPD2    N113639   0.854   0.400   0.748 -0.0562  0.4610 -0.5729
  928MPD2    H713640   0.805   0.312   0.763 -1.8390  1.2582 -1.7173
  929MPD2     C13641   1.300   0.626   9.962 -0.2897 -0.8682 -0.5639
  929MPD2    C113642   1.274   0.749   9.907  1.2150  0.2427  0.3804
  929MPD2    C213643   1.262   0.763   9.773 -0.3600 -0.4109 -0.5724
  929MPD2    C313644   1.279   0.655   9.683  0.5396 -0.4821 -0.5211
  929MPD2    C413645   1.314   0.534   9.736 -1.3938  0.4608 -0.1339
  929MPD2    C513646   1.330   0.528   9.870 -0.5551  0.3405  0.0968
  929MPD2     H13647   1.219   0.855   9.735  1.5290  0.5163 -0.4811
  929MPD2    H113648   1.314   0.439   9.683  3.5255 -0.5507  1.7089
  929MPD2    H213649   1.311   0.615  10.070  2.2231  0.9445 -0.6326
  929MPD2    H313650   1.360   0.434   9.914 -0.2338  1.0455  1.3969
  929MPD2     N13651   1.280   0.662   9.543 -0.0464 -0.2972  1.1723
  929MPD2    H513652   1.333   0.591   9.493 -1.5041 -1.4324  1.2335
  929MPD2    N113653   1.241   0.857   9.994 -0.1897  0.0088  0.1390
  929MPD2    H713654   1.227   0.837  10.092 -1.8576  0.3353 -0.0371
  930MPD2     C13655   3.256   2.675  14.091 -0.1472  0.4383 -0.4062
  930MPD2    C113656   3.280   2.808  14.102 -0.2324  0.2353 -0.1286
  930MPD2    C213657   3.302   2.896  13.993  0.0909 -0.0298 -0.4739
  930MPD2    C313658   3.319   2.837  13.870 -0.1625  0.4526 -0.3571
  930MPD2    C413659   3.294   2.698  13.858 -0.6720 -0.5966 -0.4175
  930MPD2    C513660   3.251   2.627  13.966  0.5212  0.3138  0.4609
  930MPD2     H13661   3.320   3.001  14.011  0.8437 -0.2845  0.2097
  930MPD2    H113662   3.285   2.655  13.759  0.8237 -1.4877 -0.1639
  930MPD2    H213663   3.244   2.601  14.170 -0.0406 -0.2525 -1.0403
  930MPD2    H313664   3.229   2.523  13.944 -1.5873  0.9790 -0.6160
  930MPD2     N13665   3.348   2.909  13.747 -0.9070 -0.2132 -1.2066
  930MPD2    H513666   3.371   2.852  13.666 -1.0881 -1.9809 -0.0157
  930MPD2    N113667   3.289   2.864  14.235 -0.1362 -0.2075 -0.4008
  930MPD2    H713668   3.247   2.803  14.305 -1.1498  0.2199 -0.6368
  931MPD2     C13669   2.472   2.473   0.307 -0.1279  0.0045 -0.3339
  931MPD2    C113670   2.606   2.424   0.306  0.3720  0.1929  0.1266
  931MPD2    C213671   2.633   2.306   0.383  0.4745  0.4274  0.6028
  931MPD2    C313672   2.519   2.231   0.435 -0.3085 -0.1012 -0.3026
  931MPD2    C413673   2.385   2.280   0.421  0.3308 -0.2378 -0.1667
  931MPD2    C513674   2.368   2.405   0.365  0.4271 -0.0890 -0.0366
  931MPD2     H13675   2.734   2.266   0.379  1.3676  2.6405  1.2227
  931MPD2    H113676   2.303   2.220   0.457 -0.6757 -0.8002 -3.4029
  931MPD2    H213677   2.453   2.573   0.271 -0.1941 -0.3999 -1.4152
  931MPD2    H313678   2.267   2.446   0.363  1.1646  1.7266 -0.3022
  931MPD2     N13679   2.534   2.116   0.518 -0.1946  0.5424 -0.1308
  931MPD2    H513680   2.451   2.071   0.555  0.8308  0.3716  1.9108
  931MPD2    N113681   2.706   2.509   0.251 -0.0712 -0.2063 -0.5630
  931MPD2    H713682   2.674   2.587   0.194  0.1592 -0.1675 -0.6395
  932MPD2     C13683   0.724   2.154  11.510 -0.0288  0.6016  0.2143
  932MPD2    C113684   0.817   2.094  11.428  0.4571 -0.1181  0.3303
  932MPD2    C213685   0.838   1.956  11.438 -0.5665  0.1680 -0.4672
  932MPD2    C313686   0.788   1.875  11.535  0.2550 -1.2351  0.7817
  932MPD2    C413687   0.697   1.936  11.619 -0.6388  0.3623  0.6807
  932MPD2    C513688   0.670   2.075  11.606 -0.1814  0.0948 -0.2239
  932MPD2     H13689   0.907   1.909  11.368 -1.8373  1.3656 -2.5346
  932MPD2    H113690   0.650   1.886  11.704  1.5713 -2.8725 -0.0056
  932MPD2    H213691   0.690   2.257  11.510 -0.0267  0.6080 -1.4118
  932MPD2    H313692   0.611   2.121  11.684  1.6175  0.1821  1.0825
  932MPD2     N13693   0.809   1.737  11.546 -0.1221 -0.1574  0.3587
  932MPD2    H513694   0.784   1.693  11.634  0.7104  3.1125  2.2188
  932MPD2    N113695   0.885   2.171  11.328  0.7593  0.3296 -0.3575
  932MPD2    H713696   0.939   2.111  11.266 -0.1472 -0.5542 -0.2999
  933MPD2     C13697   0.344   0.528   1.456 -0.2059 -0.2885  0.2732
  933MPD2    C113698   0.421   0.572   1.355 -0.3691  0.4643 -0.0064
  933MPD2    C213699   0.382   0.687   1.296 -0.4654 -0.3879  0.0761
  933MPD2    C313700   0.265   0.747   1.322 -0.3798 -0.7909  0.7971
  933MPD2    C413701   0.181   0.704   1.419  0.0713 -0.2876  0.2045
  933MPD2    C513702   0.223   0.587   1.481  0.0987 -0.1123  0.4976
  933MPD2     H13703   0.438   0.724   1.210 -0.4914 -0.3503  0.0751
  933MPD2    H113704   0.090   0.759   1.443  0.3161  2.1552 -4.6130
  933MPD2    H213705   0.372   0.438   1.510 -1.2767 -0.3804  0.6804
  933MPD2    H313706   0.148   0.545   1.547 -0.0767 -2.3058 -1.1328
  933MPD2     N13707   0.230   0.859   1.242  0.1517 -0.2527 -0.0895
  933MPD2    H513708   0.299   0.917   1.197 -0.9590  0.3418 -1.0030
  933MPD2    N113709   0.530   0.497   1.319  0.7027  0.1704 -0.2958
  933MPD2    H713710   0.570   0.431   1.385 -1.0087 -0.2947  0.2888
  934MPD2     C13711   2.884   3.607   1.815  0.4892 -0.2428  0.2049
  934MPD2    C113712   2.913   3.530   1.703 -0.3938  0.3187 -0.7151
  934MPD2    C213713   2.805   3.485   1.631  0.9154 -0.2691  0.1098
  934MPD2    C313714   2.673   3.510   1.672 -0.1400  0.1025  0.7993
  934MPD2    C413715   2.648   3.568   1.789 -0.3577  0.0333 -0.9063
  934MPD2    C513716   2.757   3.618   1.858  0.1882  1.1422 -0.6836
  934MPD2     H13717   2.822   3.421   1.545  2.8306  0.2755  0.0870
  934MPD2    H113718   2.547   3.582   1.826 -0.4371  0.7277 -1.3913
  934MPD2    H213719   2.964   3.652   1.872  2.0784 -2.6267 -0.1244
  934MPD2    H313720   2.733   3.678   1.944 -2.4814  1.1399 -1.4222
  934MPD2     N13721   2.561   3.474   1.590 -0.0216  0.3442  0.2632
  934MPD2    H513722   2.473   3.494   1.636  0.8187  1.1937  1.5259
  934MPD2    N113723   3.048   3.499   1.668 -0.5272 -0.0922 -0.1859
  934MPD2    H713724   3.056   3.439   1.586 -0.9433 -2.0521  1.2023
  935MPD2     C13725   1.938   2.986   0.845 -0.2860  0.7395 -0.2365
  935MPD2    C113726   2.032   2.921   0.923 -0.5099  0.1019 -0.2394
  935MPD2    C213727   2.097   2.996   1.008  1.1017  0.0915 -0.4561
  935MPD2    C313728   2.081   3.135   1.005 -0.4092  0.5198 -0.3213
  935MPD2    C413729   1.996   3.198   0.922  0.2592  0.1637 -0.3724
  935MPD2    C513730   1.917   3.116   0.849 -0.3082 -0.0905 -0.4243
  935MPD2     H13731   2.173   2.943   1.064  0.8950  0.8216  0.5079
  935MPD2    H113732   1.977   3.301   0.895 -1.2543  0.3363  1.3144
  935MPD2    H213733   1.878   2.938   0.768 -2.2729  5.2756 -1.5583
  935MPD2    H313734   1.840   3.161   0.787 -1.2013 -0.3582  0.5038
  935MPD2     N13735   2.147   3.221   1.093  0.5423 -0.1688 -0.8090
  935MPD2    H513736   2.122   3.318   1.078 -0.2860 -0.2252  0.2210
  935MPD2    N113737   2.060   2.790   0.924  0.3304 -0.1986 -0.0168
  935MPD2    H713738   2.126   2.762   0.996 -0.4737  0.2103  0.8750
  936MPD2     C13739   1.326   0.026  12.239 -0.1509  0.4415 -0.1434
  936MPD2    C113740   1.367   4.663  12.325 -0.6672 -0.2655 -0.1497
  936MPD2    C213741   1.496   4.653  12.366  0.2218  0.4204 -0.5879
  936MPD2    C313742   1.592   0.008  12.330  1.2819  0.2867  0.4008
  936MPD2    C413743   1.555   0.098  12.238 -0.0500 -0.3588  0.6329
  936MPD2    C513744   1.429   0.106  12.195  0.3018 -0.3158 -0.7346
  936MPD2     H13745   1.509   4.571  12.436 -0.0967  0.7168 -0.1794
  936MPD2    H113746   1.630   0.167  12.202  0.4035 -1.0438  0.2681
  936MPD2    H213747   1.225   0.046  12.206 -0.3411 -1.1282 -0.5096
  936MPD2    H313748   1.405   0.184  12.124  1.2664 -0.0572 -0.7752
  936MPD2     N13749   1.723   0.015  12.386  0.3178  0.5439 -0.4587
  936MPD2    H513750   1.775   0.099  12.364  2.2223 -0.5681 -0.1699
  936MPD2    N113751   1.270   4.578  12.380 -0.0338  0.4151  0.0937
  936MPD2    H713752   1.300   4.502  12.441  0.4372 -0.1399 -0.8324
  937MPD2     C13753   3.749   1.308  11.679 -0.4654 -0.3270  0.3526
  937MPD2    C113754   3.808   1.428  11.690 -0.2424 -0.6608  0.0409
  937MPD2    C213755   3.867   1.488  11.586  0.0426 -0.2551  0.1556
  937MPD2    C313756   3.873   1.425  11.463  0.5033  0.1805 -0.0320
  937MPD2    C413757   3.820   1.297  11.448 -0.2387 -0.3235  0.7702
  937MPD2    C513758   3.769   1.239  11.562 -0.1016 -0.2316  0.0837
  937MPD2     H13759   3.895   1.592  11.593  1.0034 -0.6024  1.6842
  937MPD2    H113760   3.829   1.238  11.357 -0.7812  0.5746  0.1267
  937MPD2    H213761   3.686   1.267  11.757 -0.6533  1.4413  1.1360
  937MPD2    H313762   3.733   1.137  11.557 -0.7683  0.1667 -3.3135
  937MPD2     N13763   3.944   1.498  11.368 -0.5200 -0.2494  0.3381
  937MPD2    H513764   3.978   1.592  11.387  1.0787 -0.8393  0.3398
  937MPD2    N113765   3.765   1.508  11.794  0.6371  0.0465  0.6965
  937MPD2    H713766   3.780   1.609  11.791 -1.0448  0.2833  0.3246
  938MPD2     C13767   1.181   2.756   0.686  0.1274  0.4496 -0.2380
  938MPD2    C113768   1.172   2.777   0.818 -0.3166  0.2957  0.4494
  938MPD2    C213769   1.178   2.661   0.898  0.2188  0.2850 -0.6451
  938MPD2    C313770   1.204   2.538   0.850  0.2257  0.1561  0.1544
  938MPD2    C413771   1.231   2.523   0.717  0.4438 -0.0952  0.1289
  938MPD2    C513772   1.207   2.629   0.639 -0.0040  0.3744  0.3269
  938MPD2     H13773   1.174   2.681   1.005 -0.2746 -1.5819 -0.3233
  938MPD2    H113774   1.227   2.423   0.676 -1.7169  0.2849 -0.5911
  938MPD2    H213775   1.169   2.836   0.615 -3.5565  1.0023  1.0356
  938MPD2    H313776   1.224   2.614   0.533 -1.0049 -2.0906  0.5098
  938MPD2     N13777   1.209   2.420   0.933 -0.7428 -0.4758 -0.4555
  938MPD2    H513778   1.234   2.329   0.895 -1.7456  0.4072 -3.2558
  938MPD2    N113779   1.170   2.899   0.879  0.1373 -0.0760 -0.0823
  938MPD2    H713780   1.150   2.909   0.978 -1.7977 -0.8712 -0.3942
  939MPD2     C13781   2.445   4.318   0.856  0.0067  0.6420 -0.8561
  939MPD2    C113782   2.398   4.212   0.934  0.0538 -0.1400  0.1388
  939MPD2    C213783   2.437   4.077   0.904  0.0394  0.5472 -0.4577
  939MPD2    C313784   2.513   4.052   0.791  0.0833  0.0536  0.1047
  939MPD2    C413785   2.559   4.156   0.718 -0.3201 -0.0123 -0.2168
  939MPD2    C513786   2.532   4.287   0.751  0.0174 -0.7132  0.4136
  939MPD2     H13787   2.420   4.001   0.979  2.0970 -0.8562 -1.4383
  939MPD2    H113788   2.619   4.139   0.630  1.2006 -2.8461  1.3789
  939MPD2    H213789   2.421   4.421   0.879  0.1168  0.7454 -1.2108
  939MPD2    H313790   2.575   4.367   0.692 -0.1195 -1.8810 -1.2708
  939MPD2     N13791   2.556   3.914   0.769 -0.1601 -0.2242 -0.4321
  939MPD2    H513792   2.517   3.846   0.835 -0.4680 -1.0974 -1.5096
  939MPD2    N113793   2.330   4.252   1.051  0.2135 -0.0264  0.7449
  939MPD2    H713794   2.306   4.351   1.054  0.8489  0.1595 -0.0397
  940MPD2     C13795   2.368   0.117  12.710 -0.0950  0.1681 -0.4604
  940MPD2    C113796   2.345   4.728  12.753 -0.0243 -0.2890 -0.0252
  940MPD2    C213797   2.349   4.629  12.658 -0.4466 -0.4789  0.0520
  940MPD2    C313798   2.382   4.645  12.521 -0.0844 -0.3535 -0.6997
  940MPD2    C413799   2.408   0.034  12.480  0.0662 -0.2583  0.0615
  940MPD2    C513800   2.396   0.137  12.574  0.1725 -0.3074  0.3941
  940MPD2     H13801   2.336   4.528  12.696 -1.6044 -1.9388 -4.2548
  940MPD2    H113802   2.430   0.056  12.376 -0.9821 -2.3134 -0.5820
  940MPD2    H213803   2.359   0.200  12.779 -0.6965 -1.5210  1.4940
  940MPD2    H313804   2.425   0.237  12.545  0.1529 -0.8404 -1.4143
  940MPD2     N13805   2.367   4.540  12.428  0.0002  0.5652  0.7085
  940MPD2    H513806   2.324   4.453  12.456  0.0907  0.7599  1.4585
  940MPD2    N113807   2.289   4.695  12.881  0.1301 -0.7992 -0.2860
  940MPD2    H713808   2.279   4.595  12.897 -0.1762 -0.6252  0.5616
  941MPD2     C13809   0.030   3.947   9.813  0.0647 -0.3421 -0.4147
  941MPD2    C113810   0.139   3.931   9.896 -0.0869  1.0417 -0.4657
  941MPD2    C213811   0.122   3.869  10.010  0.6140 -0.0066 -0.0163
  941MPD2    C313812   0.004   3.807  10.045  1.4442  0.1441 -0.1645
  941MPD2    C413813   4.640   3.820   9.958 -0.0720 -0.0144  0.4879
  941MPD2    C513814   4.657   3.882   9.836  0.5235  0.0270 -0.4890
  941MPD2     H13815   0.209   3.867  10.075 -0.5015 -0.9941  1.4304
  941MPD2    H113816   4.548   3.764   9.976  0.2867 -0.8174 -0.1751
  941MPD2    H213817   0.044   4.015   9.730 -1.2785  0.7475  0.2546
  941MPD2    H313818   4.568   3.894   9.775  0.4290  1.0727 -0.1432
  941MPD2     N13819   4.727   3.726  10.163 -0.0055  0.0813 -0.4584
  941MPD2    H513820   4.630   3.706  10.185  0.4706  0.2078  1.7696
  941MPD2    N113821   0.264   3.989   9.869  0.2373  0.4154 -0.1550
  941MPD2    H713822   0.335   3.999   9.941 -0.1145 -1.2021  0.4004
  942MPD2     C13823   0.406   4.349   9.375 -0.0291 -0.4065  0.8530
  942MPD2    C113824   0.349   4.367   9.499  0.3815  0.0740 -0.0754
  942MPD2    C213825   0.423   4.454   9.580 -0.2134  0.4119 -0.1469
  942MPD2    C313826   0.551   4.479   9.557  0.1829 -0.0510 -0.7763
  942MPD2    C413827   0.612   4.449   9.435  0.9761  0.6962 -0.3532
  942MPD2    C513828   0.535   4.379   9.349 -0.3664 -0.1651 -0.2640
  942MPD2     H13829   0.369   4.486   9.668 -1.0551 -0.3625 -0.3768
  942MPD2    H113830   0.716   4.469   9.413  1.1045  0.3839 -0.0284
  942MPD2    H213831   0.361   4.284   9.302  2.2751  1.9427 -2.6524
  942MPD2    H313832   0.580   4.360   9.252  0.5422 -0.6441  0.2508
  942MPD2     N13833   0.631   4.551   9.652 -0.0009  0.4101 -0.1146
  942MPD2    H513834   0.725   4.576   9.623  0.0189 -0.4583 -0.8129
  942MPD2    N113835   0.214   4.335   9.523 -0.1259  0.0654  0.4474
  942MPD2    H713836   0.179   4.360   9.615 -2.0233  0.6032 -0.4077
  943MPD2     C13837   4.148   3.925   9.467  0.1296  0.1541  0.1765
  943MPD2    C113838   4.068   3.825   9.517 -0.3024  0.2291  0.0750
  943MPD2    C213839   4.082   3.793   9.649 -0.6054  0.8540  0.3024
  943MPD2    C313840   4.176   3.857   9.734  0.2698  0.7782 -0.4085
  943MPD2    C413841   4.259   3.952   9.673  1.1932  0.0702 -0.4723
  943MPD2    C513842   4.254   3.984   9.541  0.4281  0.3344  0.5187
  943MPD2     H13843   4.018   3.715   9.690 -0.7982  0.7255 -0.2440
  943MPD2    H113844   4.340   3.994   9.733  0.9285 -0.4680  0.2662
  943MPD2    H213845   4.139   3.946   9.361 -1.3106  2.0601  0.6594
  943MPD2    H313846   4.333   4.042   9.493  0.5998 -0.1749  0.1923
  943MPD2     N13847   4.191   3.836   9.876 -0.3541  0.4977  0.5580
  943MPD2    H513848   4.250   3.903   9.925  3.2724 -0.0301 -3.1068
  943MPD2    N113849   3.964   3.771   9.443  0.0696  0.1234 -0.4775
  943MPD2    H713850   3.940   3.811   9.352  2.9816  0.0682 -1.2716
  944MPD2     C13851   3.790   3.024  10.396 -0.2282 -0.0511 -0.0796
  944MPD2    C113852   3.873   3.127  10.409 -0.8424  0.6795  0.3790
  944MPD2    C213853   3.893   3.179  10.534 -0.2485  0.3067 -0.5355
  944MPD2    C313854   3.828   3.115  10.644 -0.0055  0.1321 -0.2304
  944MPD2    C413855   3.746   3.003  10.626  0.3087  0.7056 -0.4787
  944MPD2    C513856   3.728   2.959  10.500  0.3294 -0.3730 -0.6066
  944MPD2     H13857   3.954   3.267  10.549  2.6251 -1.2583 -2.7708
  944MPD2    H113858   3.685   2.953  10.700 -1.9401  1.8383 -1.5523
  944MPD2    H213859   3.771   2.982  10.297  0.6446 -1.2349  0.2533
  944MPD2    H313860   3.659   2.883  10.466  0.2274 -0.1540 -0.8856
  944MPD2     N13861   3.854   3.166  10.769 -0.4267  0.1613 -0.6670
  944MPD2    H513862   3.920   3.243  10.762 -0.4992  0.4086  1.3042
  944MPD2    N113863   3.937   3.172  10.293  0.9052  0.0942  0.3011
  944MPD2    H713864   3.908   3.135  10.202  0.2919 -0.0379  0.5489
    1TMC1    C113865   1.995   3.939  14.794  0.1759  0.8726  0.0565
    1TMC1    C213866   2.047   3.977  14.916  0.1608  0.0693 -0.3095
    1TMC1    C313867   1.998   3.917  15.032 -0.3400 -0.0873  0.0080
    1TMC1    C413868   1.894   3.852  14.793 -0.0239 -0.5590  0.6512
    1TMC1    C513869   1.853   3.789  14.909 -0.1089 -0.4330 -0.5634
    1TMC1    C613870   1.902   3.815  15.031  0.4951 -0.7384 -0.0632
    1TMC1     C13871   2.082   3.961  14.679 -0.1261  0.3784 -1.0759
    1TMC1     O13872   2.050   3.901  14.577  0.3192  0.0425 -0.3145
    1TMC1     H13873   2.135   4.038  14.934  0.6657 -0.6202 -0.4019
    1TMC1    H113874   1.837   3.844  14.701  1.2012 -0.4795 -0.1129
    1TMC1    H213875   1.889   3.752  15.118 -0.2203 -0.8595 -0.2541
    1TMC1    C713876   1.747   3.690  14.907  0.6664 -0.2458  0.4492
    1TMC1    C813877   2.082   3.928  15.149 -0.0053 -0.0028 -0.6061
    1TMC1    O113878   1.705   3.645  15.011 -0.0095 -0.2838 -0.0700
    1TMC1    O213879   2.195   3.973  15.160 -0.5172 -0.0526 -0.4649
    1TMC1    O313880   1.693   3.687  14.784  0.3625  0.6068 -0.1154
    1TMC1    H313881   1.633   3.611  14.770  0.0052  0.9977 -0.7393
    1TMC1    O513882   1.993   3.950  15.245  0.1388 -0.2142  0.8371
    1TMC1    H513883   1.902   3.926  15.218  0.0296 -0.6546  1.5824
    2MPD2     C13884   2.454   4.191  14.418  0.1639 -0.2291  0.9540
    2MPD2    C113885   2.425   4.267  14.529  0.6348 -0.4762  0.4727
    2MPD2    C213886   2.327   4.227  14.619  0.6933 -0.6028 -0.1061
    2MPD2    C313887   2.246   4.116  14.587  0.0429 -0.5113  0.2252
    2MPD2    C413888   2.277   4.041  14.477 -0.0019  0.0981 -0.3100
    2MPD2    C513889   2.384   4.081  14.397 -0.6482  0.6096 -0.4218
    2MPD2     H13890   2.301   4.284  14.708 -0.6584 -0.2273 -0.7347
    2MPD2    H113891   2.228   3.950  14.445 -0.6347  0.1624  0.4889
    2MPD2    H213892   2.539   4.214  14.355  0.2034 -1.0514  0.7015
    2MPD2    H313893   2.413   4.004  14.326 -2.5691 -0.8742  0.4209
    2MPD2     N13894   2.161   4.071  14.690 -0.4367  0.2284  0.1809
    2MPD2    H513895   2.164   4.120  14.779 -1.2761  3.0016 -1.3304
    2MPD2    N113896   2.501   4.387  14.549  1.0318  0.8331 -0.0022
    2MPD2    H713897   2.582   4.398  14.488  0.0284 -0.3856 -1.5588
    3TMC2    C113898   2.577   4.591  14.644  0.2297  0.5552  0.1589
    3TMC2    C213899   2.570   4.681  14.746  0.3648 -0.3761  0.3431
    3TMC2    C313900   2.567   0.074  14.721 -0.2342  0.2698 -0.0363
    3TMC2    C413901   2.595   4.639  14.515  0.3364 -0.0440  0.3532
    3TMC2    C513902   2.596   0.032  14.490 -0.3526  0.6104  0.1717
    3TMC2    C613903   2.581   0.126  14.593 -0.3035  0.1756  0.1009
    3TMC2     C13904   2.482   4.478  14.650  0.2261  0.6206 -0.2907
    3TMC2     O13905   2.416   4.471  14.754 -0.3961  0.0491 -0.1234
    3TMC2     H13906   2.551   4.640  14.844  1.0802 -0.8959  0.2701
    3TMC2    H113907   2.600   4.568  14.433 -0.4202  0.6478 -0.2819
    3TMC2    H213908   2.570   0.230  14.564 -1.2185 -0.4865 -1.9465
    3TMC2    C713909   2.505   0.068  14.382  0.4532  0.4006  0.3306
    3TMC2    C813910   2.477   0.144  14.804  0.2225  0.1712  0.9508
    3TMC2    O113911   2.426   4.718  14.356  0.6506  0.3973 -0.2316
    3TMC2    O213912   2.368   0.094  14.842  0.1639 -0.0326 -0.3920
    3TMC2    O513913   2.514   0.272  14.804  0.5178 -0.1788 -0.3446
    3TMC2    H513914   2.608   0.285  14.776  0.7895  2.2719  1.7443
    4TMC2    C113915   2.413   0.902  13.826 -0.5397 -0.5018  0.2463
    4TMC2    C213916   2.510   0.996  13.860 -0.1684  0.6199  0.6008
    4TMC2    C313917   2.604   0.970  13.953 -0.2398 -0.8350 -0.4884
    4TMC2    C413918   2.413   0.788  13.896 -0.6824  0.4080  0.0233
    4TMC2    C513919   2.496   0.768  13.998 -0.3265 -0.2577 -0.0987
    4TMC2    C613920   2.596   0.860  14.029 -1.0024  0.2707  0.3579
    4TMC2     C13921   2.348   0.907  13.694  0.7373  0.3232  0.0676
    4TMC2     O13922   2.384   0.980  13.603 -0.4079  0.1504  0.0044
    4TMC2     H13923   2.511   1.086  13.799 -0.1360  1.4002  1.7490
    4TMC2    H113924   2.363   0.701  13.855 -0.2819 -0.7068  1.9050
    4TMC2    H213925   2.666   0.849  14.110 -0.7910  1.1053  0.2801
    4TMC2    C713926   2.485   0.648  14.076 -0.4980 -0.3946  0.4808
    4TMC2    C813927   2.698   1.070  14.006 -0.3265 -0.5939 -0.9724
    4TMC2    O113928   2.572   0.635  14.164  0.7760 -0.9174 -0.1187
    4TMC2    O213929   2.755   1.059  14.111  0.6625  0.1263 -0.7607
    4TMC2    O513930   2.733   1.163  13.918  0.0416 -0.5807  0.1426
    4TMC2    H513931   2.690   1.136  13.834 -1.0636 -0.7607  0.7715
    5MPD2     C13932   2.052   0.654  13.373  0.1262 -0.1864 -0.1971
    5MPD2    C113933   2.021   0.612  13.498  0.3672 -0.3092 -0.8072
    5MPD2    C213934   2.080   0.681  13.600  0.5284  0.0006  0.8096
    5MPD2    C313935   2.163   0.785  13.583  0.0881  0.0488 -1.1469
    5MPD2    C413936   2.166   0.845  13.458  1.2798 -0.1147 -0.5467
    5MPD2    C513937   2.114   0.777  13.353  0.1585  0.1369 -0.1715
    5MPD2     H13938   2.071   0.641  13.701  3.3367  0.4040  1.2174
    5MPD2    H113939   2.222   0.937  13.448 -1.1400  1.5060  0.7693
    5MPD2    H213940   2.004   0.607  13.288 -2.1458  0.6460  0.6310
    5MPD2    H313941   2.124   0.803  13.248  0.0519  0.9754  0.0321
    5MPD2     N13942   2.246   0.816  13.693 -0.1621 -0.3123  0.3290
    5MPD2    H513943   2.224   0.772  13.781  1.6143 -1.6898  0.0716
    5MPD2    N113944   1.924   0.514  13.519 -0.2149 -0.1303  0.1824
    5MPD2    H713945   1.889   0.457  13.443  1.5684 -0.3746 -0.4709
    6MPD1     C13946   0.845   1.025  13.357  0.8560  0.2013  0.0270
    6MPD1    C113947   0.794   0.962  13.465 -0.2127  0.8471  0.5510
    6MPD1    C213948   0.768   0.826  13.454 -0.1064  0.5280 -0.0045
    6MPD1    C313949   0.812   0.749  13.348  0.1768  0.6454 -0.3139
    6MPD1    C413950   0.875   0.821  13.237  0.3087  0.1371 -0.9195
    6MPD1    C513951   0.893   0.954  13.249 -0.2173  0.1218 -0.2464
    6MPD1     H13952   0.731   0.765  13.535  1.0936  1.4264  1.2084
    6MPD1    H113953   0.902   0.766  13.148 -0.0537  1.0622 -1.6013
    6MPD1    H213954   0.854   1.133  13.365 -1.4784  0.2333  2.0449
    6MPD1    H313955   0.928   0.999  13.158 -2.0617 -0.7307 -1.3775
    6MPD1     N13956   0.809   0.605  13.338 -0.1450 -0.2943  0.5885
    6MPD1    H513957   0.864   0.566  13.262 -0.4921  0.7345 -0.1884
    6MPD1    N113958   0.747   1.040  13.572 -0.7962  0.2498  0.0160
    6MPD1    H613959   0.788   1.132  13.562 -1.9819  1.1003  2.8534
    6MPD1    H713960   0.646   1.051  13.574 -1.0292 -1.7481 -0.5720
    7MPD2     C13961   1.052   0.222  13.951  0.5810  0.0454 -0.1641
    7MPD2    C113962   1.072   0.227  13.814 -0.3018  0.1634 -0.2081
    7MPD2    C213963   1.207   0.219  13.770  0.0595  0.1671 -0.2484
    7MPD2    C313964   1.312   0.212  13.862 -0.4843  0.1310  0.7580
    7MPD2    C413965   1.284   0.219  13.999  0.3127  0.5988 -0.2116
    7MPD2    C513966   1.154   0.222  14.042 -0.1044 -0.4242  0.6953
    7MPD2     H13967   1.225   0.217  13.663 -0.4221  0.4308 -0.3353
    7MPD2    H113968   1.366   0.217  14.069  0.0083 -1.8727  0.0684
    7MPD2    H213969   0.956   0.220  14.000  1.2658  0.3134  1.2016
    7MPD2    H313970   1.129   0.233  14.147 -1.2332  0.4655  0.3381
    7MPD2     N13971   1.448   0.192  13.816  0.0822  0.0789 -0.0303
    7MPD2    H513972   1.461   0.182  13.716  0.3294 -0.2867  0.0380
    7MPD2    N113973   0.962   0.214  13.724  0.1219 -0.7368  0.0838
    7MPD2    H713974   0.867   0.222  13.756 -0.3733 -0.6450 -1.4055
    8TMC3    C113975   1.680   0.225  13.783 -0.3386 -0.3378  0.1066
    8TMC3    C213976   1.736   0.339  13.766  0.2697  0.5846 -0.1133
    8TMC3    C313977   1.785   0.370  13.644  0.0419  0.2909  0.0990
    8TMC3    C413978   1.649   0.144  13.681  0.4075 -0.3213  0.6601
    8TMC3    C513979   1.685   0.182  13.554  0.3609  0.3217  0.5633
    8TMC3    C613980   1.762   0.291  13.531  0.2800  0.5502  0.6704
    8TMC3     C13981   1.566   0.226  13.882 -0.1062  0.0676  0.0684
    8TMC3     O13982   1.591   0.264  13.997  0.3918  0.2694  0.4196
    8TMC3     H13983   1.751   0.399  13.855  0.4701  0.2940  0.0477
    8TMC3    H113984   1.592   0.055  13.704 -2.4219  1.5885  1.0133
    8TMC3    H213985   1.787   0.328  13.432  0.8570  0.4196  0.7662
    8TMC3    C713986   1.568   0.173  13.474 -0.0583  0.2164  0.1995
    8TMC3    C813987   1.872   0.487  13.646  0.2214 -0.3255  0.0429
    8TMC3    O113988   1.464   0.162  13.535  0.7035 -0.2742 -0.4722
    8TMC3    O213989   1.894   0.530  13.755  0.0898 -0.5366 -0.0093
    9TMC3    C113990   0.785   0.373  13.400  0.0073 -0.2003  0.4784
    9TMC3    C213991   0.842   0.332  13.278  0.1666  0.1362 -0.0954
    9TMC3    C313992   0.898   0.204  13.274 -0.1045 -0.3197 -0.0643
    9TMC3    C413993   0.793   0.305  13.515  0.0968 -0.8724 -0.3886
    9TMC3    C513994   0.861   0.187  13.503 -0.2443  0.0859  0.0172
    9TMC3    C613995   0.902   0.132  13.381 -0.1110  0.0858 -0.2327
    9TMC3     C13996   0.747   0.514  13.425 -0.4442  0.5752  0.0779
    9TMC3     O13997   0.659   0.545  13.504  0.3596  0.4866 -0.3801
    9TMC3     H13998   0.863   0.398  13.195 -3.1699  0.4280 -0.7203
    9TMC3    H113999   0.774   0.346  13.613  1.5237  2.1481 -1.3747
    9TMC3    H214000   0.956   0.039  13.372 -0.4553 -0.1222 -0.1535
    9TMC3    C714001   0.976   0.192  13.588  0.4904  0.3244  0.1188
    9TMC3    C814002   1.001   0.181  13.171 -0.1823  0.2202 -0.9799
    9TMC3    O114003   1.082   0.178  13.520 -0.6218 -0.3864 -0.4033
    9TMC3    O214004   0.975   0.209  13.058 -0.5799  0.0910 -0.6610
   10MPD2     C14005   1.510   0.172  13.104 -0.0072 -0.2452  0.0151
   10MPD2    C114006   1.488   0.177  13.246 -0.4291  0.2586 -0.3925
   10MPD2    C214007   1.357   0.173  13.280  0.2191  0.0598 -0.3838
   10MPD2    C314008   1.248   0.167  13.193 -0.0934  0.2613 -0.1836
   10MPD2    C414009   1.274   0.169  13.058  0.4073  0.2075 -0.4844
   10MPD2    C514010   1.406   0.174  13.013 -0.1542  0.8278  0.1145
   10MPD2     H14011   1.328   0.161  13.383 -0.8142 -0.2250 -0.7003
   10MPD2    H114012   1.204   0.160  12.975  1.2810  0.6228 -1.2729
   10MPD2    H214013   1.613   0.176  13.070 -0.4954 -0.7229 -1.5684
   10MPD2    H314014   1.427   0.177  12.906  1.9532 -1.8010  0.4438
   10MPD2     N14015   1.118   0.168  13.244 -0.2661  0.3049 -0.4773
   10MPD2    H514016   1.107   0.181  13.344  1.1352 -2.1728 -0.0228
   10MPD2    N114017   1.591   0.196  13.339 -0.1686  0.2573  0.8248
   10MPD2    H714018   1.684   0.200  13.299 -0.8277 -0.6557 -0.7960
   11MPD2     C14019   2.294   0.201  14.226 -0.4235  0.2970  0.0493
   11MPD2    C114020   2.420   0.254  14.245  0.7617  0.5880  0.4205
   11MPD2    C214021   2.455   0.371  14.181 -0.5483 -0.1156 -0.3384
   11MPD2    C314022   2.352   0.447  14.117 -0.1965  0.2184 -0.1959
   11MPD2    C414023   2.224   0.401  14.121 -0.3636  1.0063  0.2395
   11MPD2    C514024   2.194   0.278  14.165  0.4256  0.1559  0.1961
   11MPD2     H14025   2.555   0.410  14.186 -0.6561 -0.4113  3.7996
   11MPD2    H114026   2.143   0.468  14.096 -0.8163 -0.7503 -3.0331
   11MPD2    H214027   2.271   0.103  14.267 -1.4789 -0.5802 -2.6249
   11MPD2    H314028   2.093   0.239  14.161  0.2012  0.8331 -0.6954
   11MPD2     N14029   2.373   0.574  14.060  0.1478  0.5461  0.4011
   11MPD2    H514030   2.300   0.612  14.000  0.5110 -0.1714 -0.4887
   11MPD2    N114031   2.515   0.188  14.334 -0.6420 -0.2866 -0.1170
   11MPD2    H714032   2.603   0.236  14.350 -0.3790 -1.5830  2.2760
    1MPD1     C14033   4.425   1.855   0.342  0.5136 -0.3327 -0.4603
    1MPD1    C114034   4.334   1.752   0.358 -0.0407  0.3367  0.0019
    1MPD1    C214035   4.344   1.639   0.275 -0.9966  0.3423  0.1809
    1MPD1    C314036   4.434   1.638   0.170 -0.2978  0.3441  0.0656
    1MPD1    C414037   4.516   1.746   0.149  0.1620  0.1025 -0.0144
    1MPD1    C514038   4.517   1.848   0.239 -0.3667  0.2521  0.2040
    1MPD1     H14039   4.282   1.551   0.293 -0.3251 -0.3735 -0.9910
    1MPD1    H114040   4.581   1.755   0.062  1.2073 -0.7889  0.6854
    1MPD1    H214041   4.439   1.937   0.410 -1.6777  1.9967 -2.8125
    1MPD1    H314042   4.593   1.925   0.232  0.7806 -0.6733  2.3290
    1MPD1     N14043   4.426   1.531   0.078  0.5362  0.6039  0.2382
    1MPD1    H514044   4.492   1.545   0.003  0.6560 -0.4906  0.1414
    1MPD1    N114045   4.263   1.741   0.481  0.3911  0.4058 -0.5279
    1MPD1    H614046   4.234   1.836   0.506 -0.3466 -0.1790  0.8438
    1MPD1    H714047   4.182   1.683   0.461 -0.7141  2.0465 -0.8211
    2MPD1     C14048   0.279   1.149  17.167 -0.5697  0.0949  0.0972
    2MPD1    C114049   0.159   1.142  17.108  0.8897 -0.1034 -0.0880
    2MPD1    C214050   0.048   1.143  17.189  0.5482  0.4754 -0.3054
    2MPD1    C314051   0.053   1.179  17.326 -0.2789 -0.2664 -0.0276
    2MPD1    C414052   0.179   1.188  17.383 -0.5200  0.4481 -0.8569
    2MPD1    C514053   0.289   1.174  17.302  0.5164  0.1037 -0.5238
    2MPD1     H14054   4.693   1.134  17.138  0.7816 -0.8266 -0.5052
    2MPD1    H114055   0.191   1.197  17.491 -1.8737  1.1847 -0.7720
    2MPD1    H214056   0.366   1.156  17.102 -1.4620 -1.3122 -1.2612
    2MPD1    H314057   0.385   1.186  17.351 -0.3946  1.3115  0.9582
    2MPD1     N14058   4.666   1.200  17.397 -0.3010  0.7008  0.0844
    2MPD1    H514059   4.585   1.191  17.337 -0.7505 -2.3333  1.1250
    2MPD1    N114060   0.152   1.126  16.969 -0.7860  0.2293 -0.1098
    2MPD1    H614061   0.075   1.164  16.914 -0.3722 -0.0198 -0.8605
    2MPD1    H714062   0.238   1.154  16.923  0.1575 -1.5202  0.5751
    3TMC3    C114063   4.512   1.259  17.569  0.0460 -0.4067  0.0771
    3TMC3    C214064   4.411   1.217  17.488  0.1918  0.3787  0.2187
    3TMC3    C314065   4.284   1.238  17.527  0.9947  0.0023  0.4408
    3TMC3    C414066   4.494   1.331  17.684  0.5001 -1.0118  1.0474
    3TMC3    C514067   4.366   1.343  17.721 -0.9663  0.5243  0.0951
    3TMC3    C614068   4.256   1.291  17.657  0.1043 -0.1815  0.0808
    3TMC3     C14069   4.657   1.241  17.526 -0.4924 -0.3708 -0.4994
    3TMC3     O14070   0.011   1.277  17.590  0.1920 -0.6514 -0.4979
    3TMC3     H14071   4.431   1.153  17.403 -2.0864 -2.7523  2.0437
    3TMC3    H114072   4.580   1.372  17.736 -1.0730  0.8385  2.1848
    3TMC3    H214073   4.158   1.294  17.704  0.0805 -0.2715  0.0353
    3TMC3    C714074   4.334   1.429   0.070  0.0357 -0.5040  0.1737
    3TMC3    C814075   4.167   1.186  17.451 -0.7900 -0.6686  0.5745
    3TMC3    O114076   4.232   1.407   0.134  0.2541  0.0648 -0.1451
    3TMC3    O214077   4.077   1.135  17.516 -0.3119  0.6489  0.4632
    4MPD1     C14078   3.996   0.985  17.018  0.4135  0.6732  0.0577
    4MPD1    C114079   4.097   1.074  16.983  0.7024  0.1355  0.0193
    4MPD1    C214080   4.158   1.142  17.085 -1.2462  0.3387 -0.2557
    4MPD1    C314081   4.103   1.137  17.213 -0.3573 -0.1096  0.5614
    4MPD1    C414082   3.983   1.075  17.241 -0.0618 -0.3330  0.1105
    4MPD1    C514083   3.934   0.996  17.138 -0.4719  1.6831 -0.1358
    4MPD1     H14084   4.253   1.186  17.061 -1.1166  0.0300 -0.3044
    4MPD1    H114085   3.938   1.072  17.340  1.2194  0.9491  0.7343
    4MPD1    H214086   3.947   0.916  16.950 -0.8110  0.9525  0.6678
    4MPD1    H314087   3.853   0.926  17.155  1.5107 -0.5250  0.2923
    4MPD1     N14088   4.184   1.193  17.314  0.3696 -0.1693  0.4099
    4MPD1    H514089   4.269   1.237  17.281 -0.4719  0.4850 -0.8914
    4MPD1    N114090   4.152   1.075  16.860  0.1020 -0.5579 -0.1626
    4MPD1    H614091   4.082   1.033  16.799 -0.1940  3.3349 -2.4860
    4MPD1    H714092   4.170   1.171  16.830 -0.7920  0.0381  1.1794
    1TCq1    O114093   1.533   0.605  11.670  0.3757  0.0462  1.0597
    1TCq1    C114094   1.497   0.693  11.767  0.0484 -0.2019  0.3735
    1TCq1    O214095   1.573   0.746  11.847 -0.1408  0.0337  1.2650
    1TCq1    C214096   1.400   0.767  11.689 -0.2927  1.1121 -0.2809
    1TCq1    C314097   1.322   0.700  11.606  0.1321 -0.2105 -0.4908
    1TCq1    C414098   1.267   0.763  11.498  0.0827  0.2520  0.3193
    1TCq1    C514099   1.278   0.897  11.483  0.5261 -0.5670  0.2621
    1TCq1    C614100   1.361   0.962  11.568  0.4462 -0.0077 -0.0507
    1TCq1    C714101   1.425   0.900  11.674  0.2052 -0.1464  0.2124
    1TCq1    C814102   1.341   1.103  11.574  0.4127  0.0769  0.0131
    1TCq1    O414103   1.296   1.153  11.676 -0.2154 -0.4495 -0.1939
    1TCq1    C914104   1.153   0.707  11.436 -0.5560 -0.2835 -0.1753
    1TCq1    O514105   1.111   0.768  11.336 -0.0135 -0.0785  0.1462
    1TCq1    O614106   1.088   0.625  11.502 -0.5893  0.4293 -0.6288
    1TCq1    H114107   1.475   0.600  11.591 -1.1123  0.8548  2.0924
    1TCq1    H214108   1.280   0.607  11.642 -2.7050  1.0379 -0.5873
    1TCq1    H314109   1.220   0.946  11.407  1.2940 -1.1131 -0.6803
    1TCq1    H414110   1.496   0.950  11.739  1.8260 -0.8724 -0.9974
    2MPD1     C14111   1.261   1.567  11.356 -0.5970 -0.0283 -0.3196
    2MPD1    C114112   1.300   1.474  11.258 -0.1327 -0.2279 -0.4813
    2MPD1    C214113   1.313   1.344  11.290 -0.0123 -0.7107 -0.0358
    2MPD1    C314114   1.307   1.297  11.422  0.5711  0.4241 -0.3674
    2MPD1    C414115   1.300   1.394  11.523  0.3539  0.0001 -0.2640
    2MPD1    C514116   1.263   1.522  11.482 -0.3863 -0.3412 -0.4770
    2MPD1     H14117   1.332   1.277  11.206 -2.0670 -1.5741  0.1832
    2MPD1    H114118   1.302   1.385  11.631  0.0951 -1.4745 -0.3865
    2MPD1    H214119   1.263   1.674  11.339  1.9156  0.2600  1.7277
    2MPD1    H314120   1.241   1.593  11.561 -1.5047  0.3958 -1.4551
    2MPD1     N14121   1.335   1.159  11.448  0.1319 -0.0710 -0.2788
    2MPD1    H514122   1.344   1.101  11.365 -0.0903  0.3237 -0.5805
    2MPD1    N114123   1.319   1.522  11.119  0.5530 -0.2426  0.3018
    2MPD1    H614124   1.239   1.490  11.065  1.0146  0.8726 -1.0524
    2MPD1    H714125   1.328   1.623  11.109 -0.9279  0.0138  1.5428
    1TMC1    C114126   2.451   1.640   1.152 -0.2473  0.3226  0.4145
    1TMC1    C214127   2.337   1.668   1.226 -0.1592  0.5077 -0.5525
    1TMC1    C314128   2.222   1.679   1.150 -0.3546  0.1489 -0.0997
    1TMC1    C414129   2.449   1.656   1.012  0.2412 -0.3162 -0.0230
    1TMC1    C514130   2.330   1.686   0.945 -0.2571 -0.0238 -0.5659
    1TMC1    C614131   2.217   1.710   1.011 -0.1341  0.0936  0.1540
    1TMC1     C14132   2.578   1.645   1.225  0.6355 -1.0937 -0.5094
    1TMC1     O14133   2.665   1.593   1.154  0.5939  0.2671  0.0031
    1TMC1     H14134   2.333   1.645   1.332  0.0019  1.0647 -0.4288
    1TMC1    H114135   2.540   1.633   0.958  0.5802  0.2435  0.3177
    1TMC1    H214136   2.130   1.742   0.956 -0.2373 -1.8826 -0.8042
    1TMC1    C714137   2.341   1.722   0.804  0.3982 -0.1400 -0.3728
    1TMC1    C814138   2.104   1.708   1.236 -0.4701 -0.4563 -0.0708
    1TMC1    O114139   2.319   1.840   0.777 -0.2531 -0.7062 -0.2425
    1TMC1    O214140   2.103   1.695   1.356  0.2128  0.9936  0.1459
    1TMC1    O314141   2.443   1.646   0.758  0.6899  0.2211 -0.4100
    1TMC1    H314142   2.431   1.560   0.802 -0.8291  1.0173  0.7278
    1TMC1    O514143   2.002   1.667   1.155 -0.0580  0.8302 -0.0359
    1TMC1    H514144   2.020   1.620   1.071  2.2791  0.9448  0.3899
    2MPD1     C14145   2.897   1.774   1.611 -0.4142 -0.2325  0.1029
    2MPD1    C114146   2.792   1.868   1.608  0.1430 -0.1010  0.1886
    2MPD1    C214147   2.692   1.857   1.511 -0.2292  0.0829  0.9451
    2MPD1    C314148   2.696   1.752   1.424  0.2184  0.0629 -1.0234
    2MPD1    C414149   2.796   1.659   1.432 -0.7466  0.1717 -0.1943
    2MPD1    C514150   2.900   1.679   1.517 -0.6716 -0.1747  0.1511
    2MPD1     H14151   2.614   1.933   1.506 -1.7368 -1.5301 -0.0483
    2MPD1    H114152   2.806   1.570   1.372  0.5537 -1.4356  2.4102
    2MPD1    H214153   2.977   1.784   1.683 -1.4362  0.3800  1.1618
    2MPD1    H314154   2.982   1.607   1.519 -2.3353 -2.0762  0.3493
    2MPD1     N14155   2.587   1.733   1.333 -0.1478 -0.5834  0.1619
    2MPD1    H514156   2.503   1.790   1.339 -0.2884 -0.9609  1.7866
    2MPD1    N114157   2.783   1.957   1.714  0.3342  0.4122 -0.1316
    2MPD1    H614158   2.870   2.002   1.742  1.7136 -1.9919 -0.5807
    2MPD1    H714159   2.713   2.028   1.691 -0.1281  0.1870  0.5718
    1MPD1     C14160   2.595   0.438  12.357  0.4942  0.7540  0.2284
    1MPD1    C114161   2.663   0.523  12.431 -0.4048 -0.5074 -0.9325
    1MPD1    C214162   2.763   0.603  12.372 -0.0186 -0.2156  0.2621
    1MPD1    C314163   2.791   0.602  12.236 -0.1350 -0.2881  0.5946
    1MPD1    C414164   2.712   0.518  12.163 -0.4998  0.8716 -0.1125
    1MPD1    C514165   2.620   0.432  12.219 -0.2829  0.1323 -0.2530
    1MPD1     H14166   2.827   0.661  12.438 -1.2150  0.8642  0.4762
    1MPD1    H114167   2.728   0.521  12.056  0.9815  1.7225  0.1444
    1MPD1    H214168   2.524   0.367  12.398  0.6843  0.5498  0.2087
    1MPD1    H314169   2.550   0.378  12.157  0.0645  0.1542 -0.6630
    1MPD1     N14170   2.893   0.687  12.186  0.5239  0.5220  0.7342
    1MPD1    H514171   2.953   0.736  12.252  0.7401  0.6886  0.4215
    1MPD1    N114172   2.643   0.518  12.561  0.1324  0.1661 -0.4148
    1MPD1    H614173   2.677   0.588  12.626 -3.2047  1.3919  0.0138
    1MPD1    H714174   2.542   0.513  12.574  0.1788 -0.4123 -0.2829
    2MPD1     C14175   2.134   1.075  12.352 -0.0995 -0.1611 -0.0416
    2MPD1    C114176   2.055   1.021  12.246 -0.2792  0.7800 -0.2743
    2MPD1    C214177   2.092   1.036  12.111 -0.2461  0.7342  0.6952
    2MPD1    C314178   2.198   1.125  12.083 -0.6046  0.4535 -0.5106
    2MPD1    C414179   2.272   1.182  12.188 -0.5631  0.2365  0.6993
    2MPD1    C514180   2.240   1.160  12.318  0.5162 -0.1681 -0.3270
    2MPD1     H14181   2.048   0.978  12.030  1.9091  0.0095  0.0274
    2MPD1    H114182   2.365   1.236  12.181 -1.4859  1.8493  0.8391
    2MPD1    H214183   2.111   1.064  12.458 -2.1351 -0.1932 -0.4901
    2MPD1    H314184   2.295   1.208  12.398 -1.4358  1.7076 -0.1224
    2MPD1     N14185   2.246   1.143  11.951 -0.6454  0.1095 -0.9653
    2MPD1    H514186   2.336   1.189  11.949 -0.4031 -0.4115 -2.4270
    2MPD1    N114187   1.953   0.939  12.299  0.0181  0.3228 -0.1527
    2MPD1    H614188   1.867   0.940  12.244 -1.5930 -0.7343  2.3645
    2MPD1    H714189   1.933   0.966  12.395 -0.5653 -0.5030 -0.0376
    3MPD1     C14190   2.269   1.155  10.850 -0.9243  0.4820  0.1984
    3MPD1    C114191   2.377   1.215  10.910  0.6000 -0.1427  0.0557
    3MPD1    C214192   2.395   1.210  11.048  0.2032  0.3508 -0.1893
    3MPD1    C314193   2.301   1.139  11.123  0.4632 -0.6110 -0.5513
    3MPD1    C414194   2.198   1.066  11.061 -0.2985  0.0570  0.2046
    3MPD1    C514195   2.181   1.076  10.926 -0.3961  0.1873 -0.8007
    3MPD1     H14196   2.464   1.281  11.091  1.3281 -0.5107 -0.5623
    3MPD1    H114197   2.126   1.001  11.110  0.5920 -2.1630 -1.3955
    3MPD1    H214198   2.249   1.177  10.746  1.0732  0.8452 -0.1032
    3MPD1    H314199   2.098   1.030  10.874 -0.3270  0.9794 -1.6256
    3MPD1     N14200   2.319   1.141  11.262 -0.4365  0.0202 -0.2737
    3MPD1    H514201   2.400   1.192  11.295  0.5221 -0.0716 -2.5562
    3MPD1    N114202   2.461   1.298  10.839  0.1613  0.4092  1.1060
    3MPD1    H614203   2.554   1.327  10.871  2.3227 -4.5087 -0.7065
    3MPD1    H714204   2.451   1.289  10.738  1.3318 -0.2907  1.0443
    4MPD2     C14205   3.189   1.406  12.104 -0.3060  0.4955 -0.3669
    4MPD2    C114206   3.227   1.305  12.020 -0.3001  0.8788  0.5937
    4MPD2    C214207   3.290   1.339  11.895  0.2799 -0.2203 -0.6261
    4MPD2    C314208   3.310   1.474  11.861  0.4187 -0.5764  0.5577
    4MPD2    C414209   3.272   1.572  11.952  0.5165 -0.3742  0.2848
    4MPD2    C514210   3.209   1.537  12.067 -0.1608  0.3356 -0.1186
    4MPD2     H14211   3.321   1.260  11.828  0.4916  0.3962 -1.2544
    4MPD2    H114212   3.282   1.680  11.941 -1.7269 -0.4235 -1.9543
    4MPD2    H214213   3.152   1.384  12.203  0.9167  2.3328  0.5103
    4MPD2    H314214   3.155   1.604  12.132 -1.8055  0.3206 -1.4649
    4MPD2     N14215   3.378   1.507  11.742  0.1982  0.3251 -0.3244
    4MPD2    H514216   3.404   1.426  11.687 -1.3545 -0.4194  0.0272
    4MPD2    N114217   3.208   1.167  12.046 -0.2999 -0.6965 -0.3599
    4MPD2    H714218   3.264   1.106  11.988 -0.0051 -0.5014 -0.2846
    5TMC3    C114219   3.151   0.965  12.137 -0.0229  0.0172  0.3881
    5TMC3    C214220   3.040   0.904  12.113 -0.6756  0.1295 -0.2753
    5TMC3    C314221   3.045   0.789  12.038  0.6482  0.3280  0.7518
    5TMC3    C414222   3.267   0.930  12.068  0.7238  0.7298 -0.2918
    5TMC3    C514223   3.262   0.831  11.971  0.0715 -0.0646  0.9187
    5TMC3    C614224   3.147   0.763  11.951  0.6283 -0.1997  1.2521
    5TMC3     C14225   3.139   1.111  12.148  0.0139 -0.8274 -0.2139
    5TMC3     O14226   3.067   1.159  12.233  0.5317  0.0052 -0.7657
    5TMC3     H14227   2.945   0.936  12.156 -0.7417  0.7288 -0.8733
    5TMC3    H114228   3.363   0.971  12.096 -0.0221  0.7557  2.1944
    5TMC3    H214229   3.134   0.681  11.881  0.8085  1.1668 -0.3800
    5TMC3    C714230   3.307   0.895  11.843 -0.2258 -0.3473  0.6160
    5TMC3    C814231   2.943   0.690  12.054  0.1607  0.2541 -0.1516
    5TMC3    O114232   3.332   1.014  11.844  0.0022 -0.6594  0.3993
    5TMC3    O214233   2.928   0.604  11.973 -0.0454 -0.4102  0.3430
    6TMC3    C114234   2.270   1.136  11.718  0.3039 -0.4648  0.1275
    6TMC3    C214235   2.214   1.117  11.599 -0.3320  1.2181  0.1964
    6TMC3    C314236   2.297   1.102  11.492 -0.2982  0.5632  0.0396
    6TMC3    C414237   2.400   1.167  11.732 -0.0442  0.6074 -0.2656
    6TMC3    C514238   2.482   1.164  11.619  0.4467  0.6166  0.4897
    6TMC3    C614239   2.428   1.131  11.500  0.4765  0.9836 -0.0722
    6TMC3     C14240   2.181   1.112  11.834 -0.1430 -0.2204  0.4085
    6TMC3     O14241   2.081   1.045  11.815 -0.5689  0.1212  0.3304
    6TMC3     H14242   2.110   1.090  11.590 -0.5331  1.8785  0.5025
    6TMC3    H114243   2.449   1.169  11.829 -0.0804  1.2582 -0.2627
    6TMC3    H214244   2.495   1.131  11.414  0.4280 -2.0996 -0.1261
    6TMC3    C714245   2.614   1.221  11.615 -0.0715 -0.3774  0.4846
    6TMC3    C814246   2.234   1.085  11.356  0.1663  0.7406 -0.9750
    6TMC3    O114247   2.676   1.212  11.507 -0.2980 -0.0124  0.3255
    6TMC3    O214248   2.114   1.057  11.350  0.6292  0.6485 -0.0311
    7MPD2     C14249   3.334   0.943  11.332  0.0645  0.0365  0.4505
    7MPD2    C114250   3.362   1.032  11.433 -0.2399 -0.1703 -0.3481
    7MPD2    C214251   3.357   0.990  11.566  0.4086 -0.2368 -0.5239
    7MPD2    C314252   3.327   0.853  11.602 -0.1695 -0.6275 -0.6388
    7MPD2    C414253   3.319   0.766  11.494  0.1784  0.4597 -0.0051
    7MPD2    C514254   3.313   0.809  11.365 -0.1872 -0.2718  0.3409
    7MPD2     H14255   3.371   1.067  11.641 -1.6639 -0.7002  0.3327
    7MPD2    H114256   3.288   0.663  11.504  1.4105 -0.0125 -1.2284
    7MPD2    H214257   3.320   0.976  11.229 -1.8589  0.0571  0.7178
    7MPD2    H314258   3.288   0.733  11.293 -1.2348  1.8007 -1.4954
    7MPD2     N14259   3.300   0.810  11.735 -0.0785  0.2006 -0.7051
    7MPD2    H514260   3.270   0.714  11.753  0.3328  0.1247 -0.4424
    7MPD2    N114261   3.379   1.168  11.398 -0.5452  0.1803  0.3983
    7MPD2    H714262   3.366   1.183  11.298 -0.6455  2.0155  0.6977
    8TMC3    C114263   3.409   1.404  11.423  0.2056 -0.6031  0.8240
    8TMC3    C214264   3.280   1.426  11.376  0.5387  0.5956  0.2205
    8TMC3    C314265   3.210   1.526  11.431  0.5904  0.2986  0.5186
    8TMC3    C414266   3.472   1.496  11.500  0.3540 -0.0557 -0.7523
    8TMC3    C514267   3.396   1.610  11.545 -0.1246 -0.9504  0.4675
    8TMC3    C614268   3.267   1.625  11.507  0.1219 -0.0038  0.0112
    8TMC3     C14269   3.415   1.275  11.480 -0.2198 -0.1411  0.0400
    8TMC3     O14270   3.453   1.275  11.593 -0.4264 -0.1916 -0.5489
    8TMC3     H14271   3.230   1.344  11.325 -0.7716  0.3554  1.8564
    8TMC3    H114272   3.559   1.471  11.559 -0.3001  0.7782  0.5711
    8TMC3    H214273   3.205   1.712  11.525 -2.3749 -1.7796  0.0934
    8TMC3    C714274   3.398   1.632  11.687  0.2380 -0.6540 -0.3467
    8TMC3    C814275   3.078   1.491  11.480  0.4903  0.8585 -0.1383
    8TMC3    O114276   3.367   1.743  11.734 -0.0196  0.5566 -0.4176
    8TMC3    O214277   2.993   1.439  11.403 -0.0124  0.7553 -0.0147
    9MPD2     C14278   2.966   1.558  11.821  0.5550  0.2503 -0.5613
    9MPD2    C114279   2.955   1.504  11.696 -0.9266 -0.2707 -0.3997
    9MPD2    C214280   2.850   1.413  11.660 -0.1211  0.0138  0.2346
    9MPD2    C314281   2.756   1.374  11.755 -0.0317 -0.0077  0.1490
    9MPD2    C414282   2.778   1.415  11.882 -0.4014 -0.0689 -0.6038
    9MPD2    C514283   2.869   1.511  11.910 -0.1956  0.3847  0.5110
    9MPD2     H14284   2.829   1.403  11.554 -0.4000  1.0550  0.1996
    9MPD2    H114285   2.693   1.399  11.948 -1.0156  0.4917 -1.2536
    9MPD2    H214286   3.037   1.631  11.856 -1.8632  1.0880  2.6449
    9MPD2    H314287   2.871   1.558  12.007  0.8943  0.2657  0.5530
    9MPD2     N14288   2.643   1.298  11.727  0.1516  0.1512 -0.4219
    9MPD2    H514289   2.575   1.301  11.802  0.5134 -0.0618 -0.0881
    9MPD2    N114290   3.053   1.542  11.604  0.1141  0.4701 -0.2440
    9MPD2    H714291   3.126   1.605  11.636  0.2268 -0.2356  0.8802
    1MPD1     C14292   1.506   3.928   1.080 -0.2305  0.4661 -0.4756
    1MPD1    C114293   1.397   3.902   1.006  0.4505 -0.1696 -0.4898
    1MPD1    C214294   1.320   4.003   0.965  0.7433  0.2051  0.8953
    1MPD1    C314295   1.336   4.130   1.017 -0.5245  0.3518  0.0320
    1MPD1    C414296   1.449   4.155   1.093  1.0471  0.5909  0.2802
    1MPD1    C514297   1.530   4.053   1.126  0.0732 -0.3966  0.9673
    1MPD1     H14298   1.238   3.979   0.898  2.3390 -0.3063 -0.8776
    1MPD1    H114299   1.473   4.246   1.147 -0.2810  0.0180  1.8419
    1MPD1    H214300   1.574   3.849   1.108  0.0408  0.7238 -0.4127
    1MPD1    H314301   1.609   4.082   1.194  0.0628  0.1712  0.7414
    1MPD1     N14302   1.257   4.240   0.973  0.2688  0.6568 -0.2773
    1MPD1    H514303   1.281   4.331   1.013 -0.4531  1.2707 -1.2347
    1MPD1    N114304   1.390   3.781   0.937 -0.1643  0.6854  0.3345
    1MPD1    H614305   1.298   3.761   0.899 -0.1503  3.2237 -1.0271
    1MPD1    H714306   1.432   3.703   0.987  0.7259  1.6680  1.1113
    2TMC2    C114307   0.912   4.458   0.719 -0.1665  0.0924 -0.3140
    2TMC2    C214308   0.974   4.575   0.720  0.0036 -0.2609  0.1682
    2TMC2    C314309   1.086   4.580   0.799  0.3207 -0.4229  1.3307
    2TMC2    C414310   0.959   4.345   0.791  0.1304  0.1656  0.0855
    2TMC2    C514311   1.075   4.357   0.868  0.2228 -0.1509  0.1859
    2TMC2    C614312   1.142   4.475   0.867 -0.2702 -0.4814 -0.1518
    2TMC2     C14313   0.816   4.413   0.610  0.3115 -1.0343 -0.8053
    2TMC2     O14314   0.779   4.298   0.622 -0.0778 -0.1556  0.0088
    2TMC2     H14315   0.947   4.660   0.657  0.3053 -0.6591 -0.4941
    2TMC2    H114316   0.917   4.246   0.793  0.5906 -0.0441 -0.6704
    2TMC2    H214317   1.235   4.481   0.922  0.5795  1.2877 -1.7889
    2TMC2    C714318   1.147   4.229   0.897  0.0213 -0.6361 -0.0775
    2TMC2    C814319   1.159   4.701   0.790  0.3211 -0.4015  0.1491
    2TMC2    O114320   1.088   4.124   0.869 -0.5678  0.0422 -0.0172
    2TMC2    O214321   1.126   0.064   0.854  0.0192 -0.2238  0.0335
    2TMC2    O514322   1.281   4.660   0.758  0.2998 -0.4345  0.4532
    2TMC2    H514323   1.285   4.571   0.715  3.8764  0.4713 -1.1196
    3MPD1     C14324   0.676   4.449   0.119 -0.8650  0.0860  0.3523
    3MPD1    C114325   0.703   4.577   0.159  0.3026  0.7654  0.3474
    3MPD1    C214326   0.744   4.594   0.288  0.1289  0.6175 -0.1470
    3MPD1    C314327   0.745   4.488   0.377  0.3489 -0.1615  0.3629
    3MPD1    C414328   0.702   4.363   0.332 -0.3847 -0.3240 -0.2011
    3MPD1    C514329   0.677   4.342   0.205  0.3342  0.0005 -0.5871
    3MPD1     H14330   0.793   4.686   0.319  2.1635 -0.5535  0.1101
    3MPD1    H114331   0.718   4.278   0.398  0.7241 -0.6330 -0.8684
    3MPD1    H214332   0.655   4.424   0.015  0.8176  1.2974 -0.2781
    3MPD1    H314333   0.672   4.241   0.167  2.0559  0.2144 -1.3972
    3MPD1     N14334   0.796   4.503   0.507  0.0903 -0.2151  0.7312
    3MPD1    H514335   0.836   4.594   0.525 -1.0028  0.6646 -1.3809
    3MPD1    N114336   0.719   4.677   0.062 -0.7555 -0.1968  0.0441
    3MPD1    H614337   0.650   4.653  17.753 -0.1567 -1.1662 -0.2084
    3MPD1    H714338   0.691   0.029   0.095  0.3123  0.1844 -0.1209
    1TMC1    C114339   0.967   3.926  13.404  0.7725 -0.0875  0.1702
    1TMC1    C214340   0.856   3.991  13.346 -0.4025  0.4372  0.3951
    1TMC1    C314341   0.734   3.947  13.397 -0.5444  0.2653 -0.2025
    1TMC1    C414342   0.958   3.826  13.501 -0.5677 -0.5207 -0.6710
    1TMC1    C514343   0.829   3.790  13.538 -0.6642  0.0243  0.3285
    1TMC1    C614344   0.719   3.858  13.497 -0.2272 -0.0816 -0.4627
    1TMC1     C14345   1.100   3.990  13.367  0.3944 -0.2287 -0.5701
    1TMC1     O14346   1.102   4.091  13.301  0.8012  0.2553 -0.3448
    1TMC1     H14347   0.863   4.074  13.276  1.3581  1.0283  1.2543
    1TMC1    H114348   1.050   3.776  13.528 -1.1283 -1.5396 -0.6617
    1TMC1    H214349   0.621   3.843  13.541  0.1208 -2.0129 -0.3401
    1TMC1    C714350   0.821   3.724  13.666  0.2096 -0.5393  0.3066
    1TMC1    C814351   0.616   3.977  13.321 -0.2273  0.5019  0.1247
    1TMC1    O114352   0.905   3.749  13.755 -0.2215  0.3345  0.4952
    1TMC1    O214353   0.504   3.960  13.363 -0.2459  0.2915 -0.0862
    1TMC1    O314354   0.692   3.676  13.687  0.6741 -0.3714  0.4559
    1TMC1    H314355   0.649   3.658  13.600 -0.7519  1.7351  0.7387
    1TMC1    O514356   0.650   3.975  13.199  0.2855 -0.1046 -0.1178
    1TMC1    H514357   0.738   3.933  13.186 -0.3674 -0.9590 -1.7587
    2MPD2     C14358   1.388   4.092  13.393 -0.1160 -0.3208  0.1412
    2MPD2    C114359   1.348   3.965  13.418 -0.0281  0.2967 -0.2193
    2MPD2    C214360   1.449   3.875  13.433  0.3819  0.5012 -0.0943
    2MPD2    C314361   1.582   3.907  13.435 -0.0578  0.3885  0.2680
    2MPD2    C414362   1.618   4.038  13.422  0.1827  0.2943  0.1057
    2MPD2    C514363   1.521   4.125  13.394 -0.0604  0.1374 -0.1589
    2MPD2     H14364   1.419   3.772  13.442  0.6692  0.3818 -0.4714
    2MPD2    H114365   1.723   4.066  13.419 -0.3203  1.9263 -2.4307
    2MPD2    H214366   1.318   4.170  13.366 -1.1053 -1.6683 -1.2122
    2MPD2    H314367   1.548   4.229  13.383 -1.4164  0.2761 -2.0912
    2MPD2     N14368   1.669   3.807  13.473  0.0970 -0.0837 -1.0311
    2MPD2    H514369   1.633   3.718  13.506 -0.6317  0.8823  0.8094
    2MPD2    N114370   1.212   3.919  13.412  0.0846 -0.5996  0.1812
    2MPD2    H714371   1.190   3.835  13.465  0.2580  0.5496  2.0936
    3TCq1    O114372   2.226   3.560  13.409  0.4589 -0.0597 -0.6323
    3TCq1    C114373   2.118   3.485  13.361  1.3467  0.7282 -0.5166
    3TCq1    O214374   2.129   3.369  13.326  0.3810  0.5662  0.5232
    3TCq1    C214375   1.996   3.519  13.438 -0.0132 -0.2184  0.5171
    3TCq1    C314376   1.916   3.420  13.472  0.6834  0.0467  0.1823
    3TCq1    C414377   1.813   3.464  13.554 -0.0523 -0.2592  0.2267
    3TCq1    C514378   1.780   3.599  13.574  0.6136 -1.0433  0.9900
    3TCq1    C614379   1.864   3.695  13.530  0.8346 -0.1193 -0.1058
    3TCq1    C714380   1.973   3.656  13.458  0.0903  0.3661  0.4823
    3TCq1    C814381   1.804   3.819  13.478  0.3090 -0.6494  0.3563
    3TCq1    O414382   1.885   3.899  13.428  0.0907 -1.0521 -0.2026
    3TCq1    C914383   1.728   3.362  13.611 -0.2121  0.6950 -0.0619
    3TCq1    O514384   1.625   3.407  13.668  0.0272 -0.7876  0.2794
    3TCq1    O614385   1.735   3.252  13.546 -0.0297 -0.1638  0.6186
    3TCq1    H114386   2.198   3.635  13.467  1.4155  1.8626 -2.6507
    3TCq1    H214387   1.941   3.318  13.445 -0.5937 -0.0167 -0.8126
    3TCq1    H314388   1.690   3.614  13.632 -0.9962  1.0882 -2.0393
    3TCq1    H414389   2.034   3.725  13.402 -0.5683  0.2691 -0.3450
    1MPD2     C14390   0.036   0.087  14.869  0.7728 -0.3322 -0.7530
    1MPD2    C114391   0.041   0.164  14.755 -0.8022  0.7378  0.3346
    1MPD2    C214392   4.669   0.177  14.678 -0.3829  0.1132  0.6730
    1MPD2    C314393   4.560   0.090  14.698  0.7847  0.1141  0.1591
    1MPD2    C414394   4.556   0.005  14.811  0.8149  0.2479  0.1595
    1MPD2    C514395   4.665   0.006  14.896 -0.7176  0.2225 -0.0423
    1MPD2     H14396   4.657   0.247  14.596  0.0441 -0.2451  0.3037
    1MPD2    H114397   4.458   4.707  14.834  1.2618 -0.8450  0.2396
    1MPD2    H214398   0.120   0.073  14.935  0.2442 -1.2958 -0.2868
    1MPD2    H314399   4.666   4.685  14.985  0.4333 -1.8322 -1.5004
    1MPD2     N14400   4.439   0.103  14.625 -0.9414  0.1599 -0.7878
    1MPD2    H514401   4.356   0.057  14.661 -2.5823  2.5992 -1.4337
    1MPD2    N114402   0.161   0.241  14.730  0.0101  0.3112  0.1313
    1MPD2    H714403   0.233   0.242  14.802  0.4760 -2.1656 -0.3233
    2TMC3    C114404   0.300   0.408  14.622 -0.8125 -0.1295  0.2342
    2TMC3    C214405   0.302   0.476  14.507 -0.2447 -0.2969  0.6573
    2TMC3    C314406   0.289   0.609  14.497 -0.5838  0.5910  0.5286
    2TMC3    C414407   0.301   0.478  14.740  0.2500 -0.0660  0.4303
    2TMC3    C514408   0.286   0.618  14.733  0.4248 -0.8759  0.6828
    2TMC3    C614409   0.283   0.686  14.608 -0.1531  0.3072 -0.1097
    2TMC3     C14410   0.193   0.304  14.612  0.4833  0.0205  0.0441
    2TMC3     O14411   0.117   0.325  14.518 -0.4549  0.0122 -0.4995
    2TMC3     H14412   0.303   0.428  14.410  1.8015  1.0474  0.0023
    2TMC3    H114413   0.299   0.439  14.841  0.2297  1.1724  0.9195
    2TMC3    H214414   0.256   0.791  14.604 -1.4495  0.0103  0.8798
    2TMC3    C714415   0.216   0.675  14.845 -0.4984 -0.1960 -1.0701
    2TMC3    C814416   0.204   0.665  14.398  0.2759  0.2257 -0.1654
    2TMC3    O114417   0.182   0.593  14.933 -0.0622 -0.4661  0.5061
    2TMC3    O214418   0.210   0.786  14.372  0.1503  0.2242 -0.3155
    3TCq1    O114419   0.207   1.753  15.326 -0.5958  0.0675 -0.2602
    3TCq1    C114420   0.150   1.808  15.215 -0.1042  0.5406 -0.5147
    3TCq1    O214421   0.157   1.925  15.186  0.0703 -0.1127  0.1249
    3TCq1    C214422   0.173   1.707  15.112  0.1507 -0.8274 -0.2018
    3TCq1    C314423   0.259   1.729  15.012 -0.7374 -0.1973  0.4161
    3TCq1    C414424   0.299   1.624  14.932  0.1303  0.5298  0.0137
    3TCq1    C514425   0.235   1.501  14.945 -0.6030 -0.2601  0.5237
    3TCq1    C614426   0.136   1.486  15.040  0.3789  0.0604 -0.1162
    3TCq1    C714427   0.104   1.590  15.120 -0.3446  0.4209 -0.4260
    3TCq1    C814428   0.082   1.359  15.061 -0.3198 -0.8110  0.5624
    3TCq1    O414429   0.025   1.350  15.164  0.0567  0.1123  0.1540
    3TCq1    C914430   0.412   1.635  14.844 -0.0351 -0.9875 -0.4831
    3TCq1    O514431   0.485   1.725  14.876 -0.4623 -0.0186  0.3220
    3TCq1    O614432   0.444   1.535  14.774  0.4832  0.5399  0.1509
    3TCq1    H114433   0.224   1.657  15.321  1.1853  0.4502 -1.4490
    3TCq1    H214434   0.317   1.821  15.014 -1.2204  0.1274 -0.4108
    3TCq1    H314435   0.286   1.421  14.893 -1.3398 -0.5937  0.3151
    3TCq1    H414436   0.029   1.582  15.197  1.0862 -0.7791  0.8422
    4MPD2     C14437   0.049   1.068  15.115 -0.5661  0.2895  0.3431
    4MPD2    C114438   0.117   1.125  15.006  0.2172  0.0210 -0.7563
    4MPD2    C214439   0.178   1.031  14.918  0.2391 -0.5275  0.5495
    4MPD2    C314440   0.179   0.898  14.947  0.3839  0.6850 -0.5546
    4MPD2    C414441   0.118   0.845  15.060  0.5416  0.5995  0.2430
    4MPD2    C514442   0.064   0.934  15.144 -0.3055  0.5182  0.9268
    4MPD2     H14443   0.215   1.062  14.821  0.9973 -0.4321  0.8677
    4MPD2    H114444   0.127   0.741  15.091  2.1822  0.4499 -0.7184
    4MPD2    H214445   0.005   1.135  15.189 -0.0983 -0.1954  1.0537
    4MPD2    H314446   0.024   0.888  15.233  0.4299 -1.4737  0.2223
    4MPD2     N14447   0.238   0.813  14.845  0.9779  0.7916 -0.2239
    4MPD2    H514448   0.303   0.851  14.778  2.6512 -0.1778  0.8556
    4MPD2    N114449   0.133   1.259  14.975 -0.1696 -0.0044 -0.1145
    4MPD2    H714450   0.198   1.267  14.897 -0.1819 -1.5636 -0.2739
    5TMC2    C114451   4.238   0.260  14.233  0.6771  0.2404 -0.1273
    5TMC2    C214452   4.125   0.291  14.305 -0.1261 -0.6247  0.6422
    5TMC2    C314453   4.109   0.252  14.435 -1.0430  0.4796  0.3276
    5TMC2    C414454   4.325   0.173  14.295 -0.2268 -0.6025  0.0062
    5TMC2    C514455   4.312   0.133  14.423 -0.2244  0.3492  0.1130
    5TMC2    C614456   4.205   0.174  14.498  0.3295  0.3974 -0.4660
    5TMC2     C14457   4.306   0.385  14.187  0.0125  0.5180 -0.2763
    5TMC2     O14458   4.236   0.466  14.131 -0.1406 -0.8571  0.1370
    5TMC2     H14459   4.056   0.360  14.258 -1.2037 -0.9907  1.7103
    5TMC2    H114460   4.411   0.143  14.236 -0.0592  1.5922 -0.8730
    5TMC2    H214461   4.199   0.138  14.600  0.0838 -0.7726 -0.8992
    5TMC2    C714462   4.441   0.129  14.486  0.4415  0.4661  0.7776
    5TMC2    C814463   3.986   0.290  14.499  0.2870 -0.5865  0.1609
    5TMC2    O114464   4.534   0.167  14.418  0.4610  0.3245  0.3530
    5TMC2    O214465   3.879   0.292  14.445  0.0892  0.4579 -0.4251
    5TMC2    O514466   3.995   0.277  14.635 -0.1405 -0.0746 -0.0743
    5TMC2    H514467   4.086   0.297  14.667 -0.1232 -0.0777 -0.1225
    6MPD2     C14468   4.715   0.690  14.215 -0.3495 -0.3163 -0.6340
    6MPD2    C114469   4.733   0.582  14.304  0.9134  0.3407 -0.6037
    6MPD2    C214470   4.637   0.487  14.311  0.8182 -0.0088  0.3433
    6MPD2    C314471   4.519   0.507  14.246  0.7477  0.3896  0.1264
    6MPD2    C414472   4.503   0.611  14.159  0.2123  0.5103 -0.5629
    6MPD2    C514473   4.608   0.693  14.131 -0.0136 -0.0438  0.2091
    6MPD2     H14474   4.647   0.409  14.386 -0.1988 -0.8611 -0.4029
    6MPD2    H114475   4.420   0.606  14.090  0.1579 -1.8539 -0.3455
    6MPD2    H214476   0.056   0.758  14.194 -1.3912  0.7387 -1.2672
    6MPD2    H314477   4.597   0.769  14.054 -0.8103 -1.2081 -0.8176
    6MPD2     N14478   4.427   0.398  14.252  0.0193  0.5184  0.0231
    6MPD2    H514479   4.463   0.317  14.300  1.5189  0.3062 -1.4433
    6MPD2    N114480   0.101   0.578  14.390 -0.1089  0.0906  0.3105
    6MPD2    H714481   0.102   0.496  14.450  0.4418 -0.1328 -0.0113
  945NH4     N114482   3.998   3.931  14.480 -0.0085 -0.3127 -0.4178
  945NH4     H214483   3.983   3.989  14.565 -1.2099  0.3556 -1.0710
  945NH4     H314484   3.933   3.851  14.494  1.7899 -2.0630 -2.0992
  945NH4     H414485   4.096   3.897  14.478  0.2454  0.3740  0.4121
  945NH4     H514486   3.975   3.971  14.386 -0.6100  0.3492  0.0059
  946SOD     NA14487   1.729   1.367   8.861  0.1511 -0.0486 -0.2351
  947SOD     NA14488   4.208   3.600  15.415 -0.0706  0.1751 -0.1586
  948SOD     NA14489   1.899   4.351  14.537  0.1064 -0.3305  0.2848
  949SOD     NA14490   1.472   2.250  16.430 -0.2963 -0.2773 -0.1280
  950SOD     NA14491   0.930   0.586  11.646  0.5467  0.1895  0.1573
  951SOD     NA14492   0.476   0.639   4.649 -0.0460  0.0544  0.0406
  952SOD     NA14493   2.961   4.669   6.889 -0.1961 -1.1347 -0.1352
  953SOL     OW14494   1.513   0.996   9.735  0.0247  0.2687 -0.0973
  953SOL    HW114495   1.506   1.009   9.640  1.6112 -0.5591 -0.3331
  953SOL    HW214496   1.422   0.995   9.767 -0.3180 -0.0023 -1.0753
  954SOL     OW14497   3.110   4.490   8.779 -0.0761  0.1900 -0.3278
  954SOL    HW114498   3.106   4.448   8.865  0.0974  1.0990  0.1191
  954SOL    HW214499   3.057   4.430   8.726 -0.1169  0.1643 -0.2575
  955SOL     OW14500   3.625   2.018   0.007 -0.1182 -0.0545  0.5513
  955SOL    HW114501   3.630   2.040  17.675  0.4760 -3.8364 -0.2748
  955SOL    HW214502   3.644   1.925   0.002  1.2346  0.2612 -0.1597
  956SOL     OW14503   3.501   2.976   4.616  0.6431  0.3179 -0.2465
  956SOL    HW114504   3.568   3.041   4.594 -0.5323  0.3381 -3.7369
  956SOL    HW214505   3.426   3.028   4.588  1.2411  0.9096 -0.7557
  957SOL     OW14506   2.459   1.509   8.634  0.5931  0.3363  0.0999
  957SOL    HW114507   2.381   1.475   8.678  1.6761 -0.9229  1.0579
  957SOL    HW214508   2.514   1.461   8.696  0.0607  1.2455  1.2831
  958SOL     OW14509   4.253   1.501  17.333 -0.2384 -0.0198 -0.1434
  958SOL    HW114510   4.215   1.467  17.252 -3.3166 -0.6910  1.5755
  958SOL    HW214511   4.341   1.517  17.300  0.0561 -1.8270 -0.2421
  959SOL     OW14512   2.697   1.887   3.611  0.2593  0.1207  0.0499
  959SOL    HW114513   2.716   1.828   3.684 -3.1002 -0.1233  0.7015
  959SOL    HW214514   2.667   1.821   3.548 -0.9626 -1.7279  2.5780
  960SOL     OW14515   0.428   3.054  14.581 -0.2201 -0.0470 -0.7014
  960SOL    HW114516   0.515   3.052  14.541  1.2764  1.9884  2.4085
  960SOL    HW214517   0.390   3.138  14.555  1.7595  1.1199  0.1621
  961SOL     OW14518   2.998   4.670   8.517 -0.2173 -0.1861  0.1748
  961SOL    HW114519   3.018   4.689   8.609 -1.2732  0.4225  0.2717
  961SOL    HW214520   3.082   4.668   8.471  1.9733 -0.5286  4.1598
  962SOL     OW14521   2.922   0.664   1.383 -0.4258 -0.5980 -0.2264
  962SOL    HW114522   2.965   0.659   1.468 -0.1102 -0.4212 -0.3777
  962SOL    HW214523   2.981   0.609   1.332  0.7977  0.1681  0.3518
  963SOL     OW14524   1.330   4.090   9.986 -0.1293 -0.1133  0.3740
  963SOL    HW114525   1.295   4.114  10.072 -0.9913  1.0760 -0.3052
  963SOL    HW214526   1.315   4.171   9.936 -0.6775 -1.2930 -1.3751
  964SOL     OW14527   1.279   1.323   8.545  0.2561 -0.8223  0.6720
  964SOL    HW114528   1.205   1.292   8.597 -0.5553  1.7228  1.0426
  964SOL    HW214529   1.308   1.240   8.506  0.6481 -0.3317 -0.0842
  965SOL     OW14530   1.231   0.827  15.221  0.0879 -0.4891 -0.3973
  965SOL    HW114531   1.303   0.856  15.165  0.3123  0.7615  0.5441
  965SOL    HW214532   1.197   0.755  15.167  1.1412 -0.7756 -0.6725
  966SOL     OW14533   2.503   3.088   6.865 -0.4445  0.3476 -0.1391
  966SOL    HW114534   2.514   3.046   6.780 -0.6979 -1.5831  0.7977
  966SOL    HW214535   2.468   3.014   6.913  0.5965  0.2855  0.5421
  967SOL     OW14536   2.593   3.017   7.407 -0.4137  0.3183 -0.2220
  967SOL    HW114537   2.590   2.955   7.480 -2.0078 -1.4238 -1.7697
  967SOL    HW214538   2.668   3.075   7.420 -1.3370  1.1169  1.4912
  968SOL     OW14539   0.701   0.213  16.269  0.5330 -0.1605  0.8433
  968SOL    HW114540   0.684   0.122  16.292 -0.9508  0.3147  1.5977
  968SOL    HW214541   0.646   0.261  16.331  0.3316  1.6948 -0.7434
  969SOL     OW14542   3.877   1.487   1.535 -0.1182  0.3938 -0.2721
  969SOL    HW114543   3.889   1.577   1.507  1.2097 -0.3836 -2.1551
  969SOL    HW214544   3.793   1.472   1.492 -0.1327 -0.6782  0.1200
  970SOL     OW14545   3.325   0.515   6.230 -0.2843 -0.0495 -0.4795
  970SOL    HW114546   3.250   0.571   6.208  0.2619  0.3019 -1.4309
  970SOL    HW214547   3.274   0.435   6.249 -2.1652  1.1484 -0.4627
  971SOL     OW14548   0.141   4.299   2.565 -0.8719 -0.3982  0.0563
  971SOL    HW114549   0.103   4.382   2.536 -3.5554 -0.5415  3.0672
  971SOL    HW214550   0.070   4.237   2.547 -0.0073 -0.7655 -1.9639
  972SOL     OW14551   0.998   3.145   3.557  0.0836 -1.2745  0.1380
  972SOL    HW114552   1.043   3.132   3.473 -1.4579  0.9891 -1.0402
  972SOL    HW214553   0.950   3.062   3.562 -0.4148 -0.9129  1.3319
  973SOL     OW14554   1.686   0.072   8.255  0.3868  0.3085 -0.0174
  973SOL    HW114555   1.778   0.049   8.260  0.7175  1.2539 -1.9241
  973SOL    HW214556   1.650   0.105   8.337  1.6931 -0.5089  0.8770
  974SOL     OW14557   1.781   0.361   7.440 -0.1955 -0.3360  0.5166
  974SOL    HW114558   1.852   0.299   7.457 -3.1529 -3.5339  1.0762
  974SOL    HW214559   1.735   0.364   7.524 -0.9367  0.3885  0.0728
  975SOL     OW14560   4.393   2.737   4.370 -0.3316 -0.3596 -0.0764
  975SOL    HW114561   4.444   2.815   4.346 -0.2162  0.4290  2.6590
  975SOL    HW214562   4.328   2.771   4.432  0.5875  0.8227  0.2512
  976SOL     OW14563   2.670   0.846   5.617  0.2722 -0.0759  0.0359
  976SOL    HW114564   2.718   0.873   5.694  0.5607  0.4350 -0.3277
  976SOL    HW214565   2.630   0.760   5.635 -0.3189  1.0053  3.8018
  977SOL     OW14566   2.527   3.499  17.640  0.2365  0.6390  0.3464
  977SOL    HW114567   2.583   3.526  17.712  0.1487  3.5677 -0.6891
  977SOL    HW214568   2.547   3.571  17.580 -0.5797  0.4374 -0.1703
  978SOL     OW14569   3.322   4.345   3.986 -0.1684 -0.0729  0.2450
  978SOL    HW114570   3.236   4.311   3.960 -0.4178  0.0683  0.8941
  978SOL    HW214571   3.303   4.434   4.015 -1.6349 -1.3447  3.0965
  979SOL     OW14572   3.174   0.781  16.673  0.1593  0.2681  0.8114
  979SOL    HW114573   3.089   0.765  16.632 -0.4989 -0.8543  2.6117
  979SOL    HW214574   3.236   0.792  16.601 -2.7808  0.6909 -1.6143
  980SOL     OW14575   0.706   3.462   3.026  0.4457 -0.0788 -0.2051
  980SOL    HW114576   0.691   3.417   3.109  2.3324  1.2410  0.8560
  980SOL    HW214577   0.779   3.522   3.045  0.2842  0.4107 -1.1100
  981SOL     OW14578   3.446   2.145   3.896  0.1615  0.3515 -0.3170
  981SOL    HW114579   3.421   2.084   3.826 -1.1262 -0.0642  0.5153
  981SOL    HW214580   3.392   2.223   3.879 -0.6295  0.3169  2.0581
  982SOL     OW14581   4.291   1.884   1.593  0.5689 -0.7673  0.1318
  982SOL    HW114582   4.338   1.966   1.609  0.2710 -1.1457  2.8375
  982SOL    HW214583   4.233   1.884   1.669  1.0866 -0.3898  0.5260
  983SOL     OW14584   3.511   0.777   4.606 -0.2663  0.4868 -0.3198
  983SOL    HW114585   3.598   0.776   4.566  0.1308 -0.8071  0.5918
  983SOL    HW214586   3.513   0.867   4.639 -1.3680 -0.9494  3.6854
  984SOL     OW14587   0.993   2.698   1.732 -0.3884 -0.2404  0.1831
  984SOL    HW114588   0.949   2.643   1.797  0.8388  0.0265  1.2259
  984SOL    HW214589   1.027   2.766   1.790 -1.4152  1.4262 -1.1596
  985SOL     OW14590   2.233   2.941   8.071 -0.2428  0.5127 -0.4320
  985SOL    HW114591   2.254   3.023   8.115  0.5939  0.8307 -1.4185
  985SOL    HW214592   2.322   2.917   8.045 -0.5291 -2.3211  1.2263
  986SOL     OW14593   0.018   1.031  16.268  0.0826 -0.2878  0.1319
  986SOL    HW114594   0.095   1.080  16.238  1.8334 -3.4926 -0.6926
  986SOL    HW214595   0.053   1.009  16.354 -0.1058 -0.7654  0.0856
  987SOL     OW14596   1.067   3.066  12.587 -0.4518 -0.6613 -0.4425
  987SOL    HW114597   1.004   2.993  12.591 -0.5703 -0.5320  0.0248
  987SOL    HW214598   1.007   3.135  12.559 -0.9535 -0.6067  0.7615
  988SOL     OW14599   1.927   2.174   5.376  0.0286 -0.2207 -0.4200
  988SOL    HW114600   1.857   2.227   5.338 -0.0042  0.0145 -0.0364
  988SOL    HW214601   1.996   2.170   5.310  0.8143  1.6299  0.2930
  989SOL     OW14602   0.520   2.824   0.492  0.1454 -0.1771  0.0151
  989SOL    HW114603   0.499   2.732   0.508  0.9120 -0.5720 -1.2324
  989SOL    HW214604   0.608   2.810   0.457 -0.5399  1.0406 -2.2066
  990SOL     OW14605   4.614   2.627   9.775 -0.4041  0.1400  0.2388
  990SOL    HW114606   4.575   2.673   9.701 -0.1162 -1.3643 -0.8440
  990SOL    HW214607   4.654   2.704   9.815 -1.6281  0.5100  0.7559
  991SOL     OW14608   3.103   3.499   4.404 -0.0184 -0.1547  0.8907
  991SOL    HW114609   3.154   3.558   4.459 -2.5619  0.6338  2.3955
  991SOL    HW214610   3.015   3.517   4.437 -0.1099  1.9746 -0.5759
  992SOL     OW14611   3.861   2.935   5.094  0.2070  1.2172 -0.8663
  992SOL    HW114612   3.810   2.867   5.138  2.0202 -0.2094 -0.9428
  992SOL    HW214613   3.882   2.994   5.166 -0.0405 -0.3097  0.4596
  993SOL     OW14614   2.198   3.788   5.582  0.4740  0.2306 -0.7949
  993SOL    HW114615   2.195   3.868   5.529  0.1198  0.7443 -0.0006
  993SOL    HW214616   2.106   3.782   5.606  0.4093 -0.1932 -1.1418
  994SOL     OW14617   3.942   3.174   7.195  0.0061  0.5568  0.3441
  994SOL    HW114618   3.921   3.223   7.115 -0.8935  1.1555  0.9487
  994SOL    HW214619   4.037   3.177   7.200  0.0340  1.3683 -0.6057
  995SOL     OW14620   1.275   0.684   7.783 -0.2645  0.3837 -0.0503
  995SOL    HW114621   1.195   0.730   7.757  0.4275  1.9552  0.5855
  995SOL    HW214622   1.241   0.599   7.811  1.2652  0.0382  0.7760
  996SOL     OW14623   2.755   3.242  12.766  0.6006  0.4980  0.1425
  996SOL    HW114624   2.697   3.297  12.712  0.3693 -0.1734 -0.2898
  996SOL    HW214625   2.822   3.222  12.701  2.0537  1.0062  1.4941
  997SOL     OW14626   2.017   0.138  13.755  0.5239 -0.3094 -0.3327
  997SOL    HW114627   2.029   0.120  13.849  0.9217  1.2638 -0.0865
  997SOL    HW214628   2.079   0.210  13.753  0.2110  0.0561  2.4518
  998SOL     OW14629   0.462   2.055   9.716 -0.3933  0.1897 -0.0001
  998SOL    HW114630   0.489   1.984   9.658 -1.3665 -0.3808  0.2484
  998SOL    HW214631   0.394   2.010   9.766  0.6608  0.4132  1.6411
  999SOL     OW14632   2.655   1.585   9.280 -0.5118  0.3641 -0.2111
  999SOL    HW114633   2.652   1.587   9.375  0.1750  2.5426 -0.2486
  999SOL    HW214634   2.563   1.605   9.261 -0.6874  0.1098  0.3481
 1000SOL     OW14635   0.853   2.938   8.135 -0.1446 -0.5450  0.5174
 1000SOL    HW114636   0.797   3.012   8.157  1.6267 -0.0474  3.3728
 1000SOL    HW214637   0.829   2.873   8.201  0.9264 -2.2751 -0.8040
 1001SOL     OW14638   3.036   0.117   9.547  0.0344  0.4266  0.3447
 1001SOL    HW114639   2.945   0.106   9.576 -0.3275  0.5560 -0.7424
 1001SOL    HW214640   3.059   0.038   9.498 -0.7035  0.4796 -0.0844
 1002SOL     OW14641   2.781   2.351  11.875 -0.3311  0.7204  0.5947
 1002SOL    HW114642   2.771   2.419  11.808 -0.4562  0.9859  0.8853
 1002SOL    HW214643   2.734   2.395  11.945  1.8864 -0.2659  2.6978
 1003SOL     OW14644   3.331   4.181   3.673  0.0636  0.1473 -0.2077
 1003SOL    HW114645   3.337   4.276   3.660 -0.8435  0.3673  0.9405
 1003SOL    HW214646   3.303   4.154   3.586 -0.7892 -0.3549  0.2299
 1004SOL     OW14647   3.316   1.441  10.414 -0.0957 -0.2550 -0.4985
 1004SOL    HW114648   3.391   1.501  10.417  0.8304 -1.3848 -1.1268
 1004SOL    HW214649   3.243   1.503  10.424 -0.2162 -0.6024  0.7291
 1005SOL     OW14650   2.418   1.290  10.531 -0.2631 -0.6972 -0.5855
 1005SOL    HW114651   2.445   1.273  10.441  2.0062  1.6599 -0.3520
 1005SOL    HW214652   2.451   1.379  10.543 -1.5712 -0.0403 -1.8425
 1006SOL     OW14653   1.308   3.586   9.758  0.0485 -0.5175 -0.2685
 1006SOL    HW114654   1.402   3.590   9.773  0.1980 -0.5751 -1.1740
 1006SOL    HW214655   1.302   3.496   9.726 -0.1046  0.5103 -3.1824
 1007SOL     OW14656   2.757   0.328   4.943  0.4131 -0.4820  0.4313
 1007SOL    HW114657   2.738   0.346   5.035 -0.1695  0.9113  0.0365
 1007SOL    HW214658   2.802   0.408   4.917 -0.8528  0.3618  0.7984
 1008SOL     OW14659   0.886   4.298   4.885 -0.0887 -0.4993  0.3677
 1008SOL    HW114660   0.949   4.244   4.838 -0.2427  0.0525 -0.4785
 1008SOL    HW214661   0.950   4.332   4.948  1.4056 -1.3875 -0.6764
 1009SOL     OW14662   1.843   3.714   4.229 -0.3648  0.2825  0.2316
 1009SOL    HW114663   1.838   3.753   4.316  0.4099  0.2704  0.2778
 1009SOL    HW214664   1.925   3.666   4.240 -0.6080 -0.1238  0.2998
 1010SOL     OW14665   2.048   0.722   4.782 -0.0887 -0.0621 -0.4218
 1010SOL    HW114666   2.063   0.815   4.763 -2.5976  0.6093  0.7680
 1010SOL    HW214667   2.090   0.686   4.705  1.7926  0.4737  0.3678
 1011SOL     OW14668   2.941   0.940  16.866 -0.6217 -0.7348  0.0645
 1011SOL    HW114669   3.004   0.905  16.804  2.0542  1.1372  1.7337
 1011SOL    HW214670   2.871   0.875  16.863 -1.4304  0.1409 -0.0833
 1012SOL     OW14671   3.216   0.260   8.843 -0.2557  0.2706 -0.6057
 1012SOL    HW114672   3.160   0.269   8.921  1.0491  0.8678  0.2700
 1012SOL    HW214673   3.197   0.167   8.829  0.7144 -0.1277  0.6974
 1013SOL     OW14674   4.711   3.163  10.833 -0.5106 -0.0445  0.1732
 1013SOL    HW114675   0.032   3.094  10.808 -1.4254 -1.0851  0.7724
 1013SOL    HW214676   0.023   3.242  10.833  0.4824 -0.6987  1.0252
 1014SOL     OW14677   1.025   0.682   2.446 -0.1253 -0.0204  0.0626
 1014SOL    HW114678   0.992   0.670   2.535  0.2595 -1.6076 -0.0032
 1014SOL    HW214679   0.973   0.625   2.391  0.0094  0.1261 -0.2161
 1015SOL     OW14680   4.347   0.727   3.902 -0.6475 -0.3169 -0.2492
 1015SOL    HW114681   4.366   0.772   3.819 -0.5094  1.5185  0.7572
 1015SOL    HW214682   4.430   0.738   3.949 -1.6311 -1.0610  1.6445
 1016SOL     OW14683   2.914   0.000   2.181  0.4292 -0.0658 -0.0611
 1016SOL    HW114684   2.952   4.669   2.131 -1.4800 -1.5752  0.6797
 1016SOL    HW214685   2.929   4.711   2.271  0.9771  0.0096 -0.1239
 1017SOL     OW14686   2.848   3.809   2.906 -0.7324  0.1103 -0.6615
 1017SOL    HW114687   2.768   3.862   2.909 -0.8321 -0.0432 -0.5811
 1017SOL    HW214688   2.814   3.724   2.878 -1.8109  0.5444 -0.6882
 1018SOL     OW14689   0.487   0.308   4.348 -0.2678  0.3067 -0.0466
 1018SOL    HW114690   0.574   0.272   4.333 -0.2877 -0.1051  0.8776
 1018SOL    HW214691   0.477   0.388   4.295  0.7652  0.4722  0.0088
 1019SOL     OW14692   4.297   0.456   9.366  1.0979  0.2882  0.1007
 1019SOL    HW114693   4.340   0.443   9.281  3.6165 -0.0646  1.4515
 1019SOL    HW214694   4.249   0.375   9.379  0.7984  0.2325 -1.3235
 1020SOL     OW14695   3.755   1.248   7.405  0.0303  0.2651 -0.0907
 1020SOL    HW114696   3.710   1.169   7.376  1.1738  0.2177 -1.7358
 1020SOL    HW214697   3.844   1.239   7.372 -0.0677  0.0103 -0.2782
 1021SOL     OW14698   0.072   1.919  17.325  0.1707 -0.4417  0.1254
 1021SOL    HW114699   0.069   1.837  17.374 -0.4800 -0.6447 -0.2572
 1021SOL    HW214700   4.736   1.964  17.360  0.6652 -0.1082  0.7807
 1022SOL     OW14701   3.517   2.157   5.494  0.2010 -0.7488 -0.1780
 1022SOL    HW114702   3.598   2.136   5.446  0.3795 -0.2159 -0.1122
 1022SOL    HW214703   3.546   2.222   5.558 -1.0485 -0.4115  0.0298
 1023SOL     OW14704   2.370   4.450   7.513 -0.3129 -0.7214 -0.1132
 1023SOL    HW114705   2.448   4.504   7.502 -0.3434 -0.7500 -0.4576
 1023SOL    HW214706   2.349   4.440   7.421  0.3102  2.9234 -0.6455
 1024SOL     OW14707   1.678   0.786  15.070  0.1563 -0.0996 -0.0086
 1024SOL    HW114708   1.729   0.709  15.044 -0.3255 -0.7828  1.0936
 1024SOL    HW214709   1.736   0.852  15.032 -2.6815  2.5821  0.2823
 1025SOL     OW14710   0.727   2.956   6.531  0.2175  0.2310 -0.0216
 1025SOL    HW114711   0.700   3.040   6.567  1.3267 -0.9477  3.5745
 1025SOL    HW214712   0.644   2.914   6.507  1.0689  0.0240 -2.5232
 1026SOL     OW14713   3.157   4.360  14.817  0.4014  0.1332  0.4977
 1026SOL    HW114714   3.105   4.418  14.873  1.0053  1.1978 -0.0482
 1026SOL    HW214715   3.084   4.333  14.761  1.2931  0.7108 -0.9360
 1027SOL     OW14716   2.928   3.950   5.151  0.1860 -0.1620  0.2477
 1027SOL    HW114717   3.011   3.997   5.153 -0.8600  1.8468 -2.9773
 1027SOL    HW214718   2.874   4.013   5.103  0.4041  0.0012  0.2204
 1028SOL     OW14719   4.606   0.756   7.061  0.1503  0.1243  0.6194
 1028SOL    HW114720   4.584   0.849   7.069  0.9282  0.6349 -3.0805
 1028SOL    HW214721   4.607   0.729   7.153 -0.1023  0.3487  0.6890
 1029SOL     OW14722   2.497   1.643   2.430  0.2156  0.2262 -0.4066
 1029SOL    HW114723   2.526   1.579   2.365 -3.1281 -2.3315  0.6138
 1029SOL    HW214724   2.414   1.669   2.389  0.5692 -0.6274 -1.6610
 1030SOL     OW14725   0.463   4.089  15.009  0.1759  0.3108 -0.0042
 1030SOL    HW114726   0.459   4.028  14.935  0.4691  0.1885  0.0788
 1030SOL    HW214727   0.425   4.040  15.082 -1.1721 -0.4224 -1.2087
 1031SOL     OW14728   3.575   3.519   9.111  0.2413  0.2885  0.3537
 1031SOL    HW114729   3.569   3.424   9.100  2.4591 -0.2545  3.6998
 1031SOL    HW214730   3.484   3.547   9.124  1.0498  2.1762  1.9811
 1032SOL     OW14731   2.328   0.109   2.053 -0.2970 -0.0513 -0.4516
 1032SOL    HW114732   2.306   0.201   2.039 -3.3680 -0.6279  0.5091
 1032SOL    HW214733   2.415   0.113   2.015  0.5375  1.3847  1.6416
 1033SOL     OW14734   4.187   3.590   5.685 -0.1166 -0.0439 -0.3585
 1033SOL    HW114735   4.261   3.651   5.683 -0.5510  0.5209  0.6377
 1033SOL    HW214736   4.224   3.520   5.633  0.2880  0.4640 -0.7524
 1034SOL     OW14737   0.244   3.332   2.313 -0.4090  0.5053  0.3191
 1034SOL    HW114738   0.327   3.350   2.356 -0.6773 -0.3121  1.1758
 1034SOL    HW214739   0.265   3.351   2.221  1.5440  0.6058  0.7807
 1035SOL     OW14740   2.516   0.724   5.261 -0.0738 -0.3461 -0.1304
 1035SOL    HW114741   2.564   0.731   5.179  0.5204 -0.4020  0.2094
 1035SOL    HW214742   2.465   0.805   5.263  0.4869  0.0237 -0.6012
 1036SOL     OW14743   2.059   4.022   3.565 -0.1825 -0.0049 -0.6335
 1036SOL    HW114744   1.971   3.985   3.571  0.2451 -0.8439  0.4172
 1036SOL    HW214745   2.106   3.956   3.616  1.3686  0.7934 -1.0123
 1037SOL     OW14746   4.547   1.330   4.584  0.0269  0.5936 -0.6489
 1037SOL    HW114747   4.499   1.249   4.564  0.9009 -0.1701  0.3587
 1037SOL    HW214748   4.629   1.290   4.610 -1.9726 -1.0665  3.0909
 1038SOL     OW14749   2.266   2.635  14.338 -0.2763  0.2381  0.6716
 1038SOL    HW114750   2.173   2.614  14.340  0.0098 -0.8850  1.8020
 1038SOL    HW214751   2.262   2.725  14.371 -0.4564  1.2190 -1.9983
 1039SOL     OW14752   0.714   0.826   7.841 -0.8179 -0.0105 -0.1265
 1039SOL    HW114753   0.696   0.915   7.869  0.3553  0.0071  0.5596
 1039SOL    HW214754   0.708   0.841   7.746  1.6859 -0.3738 -0.3448
 1040SOL     OW14755   3.909   4.672   5.935  0.0727  0.1918 -0.5726
 1040SOL    HW114756   3.964   0.008   5.919  0.1221  0.4462  0.8283
 1040SOL    HW214757   3.856   4.707   6.006 -0.6849  1.2310 -1.6508
 1041SOL     OW14758   2.069   1.704   7.865  0.6186 -0.1732 -0.8051
 1041SOL    HW114759   2.160   1.689   7.841  0.4665 -0.7926 -1.0044
 1041SOL    HW214760   2.047   1.764   7.793 -1.3082  0.3337  0.1963
 1042SOL     OW14761   4.031   3.014   7.603  0.2043 -0.5541 -0.7066
 1042SOL    HW114762   3.979   2.993   7.526 -0.0139 -0.2473 -0.6401
 1042SOL    HW214763   3.990   2.962   7.672 -0.7355  0.7707 -0.2752
 1043SOL     OW14764   0.435   0.059   7.031  0.5222  0.4023  0.2243
 1043SOL    HW114765   0.434   4.713   7.071  1.1691  1.1720  1.9258
 1043SOL    HW214766   0.513   0.044   6.977  0.4755 -2.0653  0.8457
 1044SOL     OW14767   3.156   4.671   2.858  0.2430 -0.0612  0.2546
 1044SOL    HW114768   3.080   4.724   2.881 -0.2822 -0.4081 -0.7028
 1044SOL    HW214769   3.169   4.704   2.768  1.6117  0.1024  0.5060
 1045SOL     OW14770   2.631   1.458   2.269 -0.5416  0.1287  0.4127
 1045SOL    HW114771   2.666   1.464   2.180 -0.6686  0.5739  0.3972
 1045SOL    HW214772   2.715   1.458   2.314 -0.0877  0.4227 -0.4271
 1046SOL     OW14773   3.258   0.252   8.204 -0.0457  0.1233 -0.3151
 1046SOL    HW114774   3.339   0.294   8.173 -0.1554 -0.0917 -0.9043
 1046SOL    HW214775   3.212   0.241   8.121  1.2358  1.6510 -1.2371
 1047SOL     OW14776   3.258   3.412   5.854  0.1713  0.3924 -0.0445
 1047SOL    HW114777   3.238   3.493   5.807  0.8640  1.1467  0.9672
 1047SOL    HW214778   3.265   3.355   5.778 -1.9079  2.5769 -1.8728
 1048SOL     OW14779   3.897   2.379  11.687  0.2200 -0.0596 -0.0883
 1048SOL    HW114780   3.909   2.286  11.665 -0.4445  0.0441 -0.8483
 1048SOL    HW214781   3.953   2.420  11.621  0.9636 -0.7119  0.1257
 1049SOL     OW14782   1.015   1.323   1.533 -0.0008 -0.3334 -0.4479
 1049SOL    HW114783   0.990   1.247   1.480 -0.8544  0.0094 -0.5311
 1049SOL    HW214784   0.942   1.378   1.506  0.5175 -0.0645 -1.3159
 1050SOL     OW14785   0.610   1.359   6.978  0.0901  0.5735 -0.2679
 1050SOL    HW114786   0.568   1.286   6.933  1.0918 -0.1813  0.0259
 1050SOL    HW214787   0.700   1.333   6.963  0.5387  1.5599  0.7447
 1051SOL     OW14788   2.713   2.806   2.267  0.0227 -0.2833 -0.6462
 1051SOL    HW114789   2.777   2.838   2.204  1.5394  0.0096  1.0410
 1051SOL    HW214790   2.685   2.724   2.226  0.2110  0.4012 -2.1528
 1052SOL     OW14791   3.258   1.080  14.723 -0.1778  0.2237 -0.1974
 1052SOL    HW114792   3.227   1.133  14.650  2.7157  2.2325  0.0295
 1052SOL    HW214793   3.202   1.116  14.792 -2.5966 -1.4143 -1.2957
 1053SOL     OW14794   1.054   3.501   2.579  0.0124  0.0642 -0.7389
 1053SOL    HW114795   0.996   3.573   2.605 -0.3317 -0.8193  0.8946
 1053SOL    HW214796   0.991   3.430   2.589  1.9538 -1.7599 -1.4760
 1054SOL     OW14797   2.892   4.649   4.643 -0.2469 -0.4610 -0.0874
 1054SOL    HW114798   2.971   4.594   4.640 -1.4679 -2.3259  1.4687
 1054SOL    HW214799   2.931   4.718   4.696 -0.9966  0.3791 -0.6389
 1055SOL     OW14800   3.782   1.715  13.283  0.7344 -0.0765  0.0873
 1055SOL    HW114801   3.699   1.760  13.296  0.4473 -0.8959  1.0896
 1055SOL    HW214802   3.829   1.775  13.224  2.4130 -1.2134  0.2479
 1056SOL     OW14803   0.507   3.793  11.889 -0.3771 -0.3683  0.0348
 1056SOL    HW114804   0.517   3.719  11.948  2.2131  0.1989  0.3279
 1056SOL    HW214805   0.506   3.747  11.805  0.4073  1.0734 -0.7751
 1057SOL     OW14806   0.796   0.907   1.146  0.1390 -0.4345 -0.3901
 1057SOL    HW114807   0.872   0.890   1.091 -0.1727 -3.4278  0.0855
 1057SOL    HW214808   0.796   1.002   1.139 -0.4728 -0.3967  0.0678
 1058SOL     OW14809   2.408   3.851   6.811 -0.5130  0.7098  0.0897
 1058SOL    HW114810   2.419   3.859   6.906 -0.1151 -0.5331  0.1513
 1058SOL    HW214811   2.500   3.863   6.786  0.2350 -1.8207  1.5772
 1059SOL     OW14812   0.186   0.271  12.206 -0.0367  0.2561 -0.1131
 1059SOL    HW114813   0.250   0.246  12.273  0.3695 -0.6100 -0.8237
 1059SOL    HW214814   0.232   0.235  12.130 -1.5186 -2.4112  0.2515
 1060SOL     OW14815   4.121   1.656   3.882 -0.2279  0.1080 -0.3440
 1060SOL    HW114816   4.154   1.642   3.793 -0.7380 -1.6053 -0.2576
 1060SOL    HW214817   4.108   1.751   3.887  1.5671  0.4098 -1.2562
 1061SOL     OW14818   3.958   2.838   7.816 -0.4339 -0.2187 -0.1565
 1061SOL    HW114819   3.977   2.744   7.812  1.0020  0.0356  0.6899
 1061SOL    HW214820   3.944   2.852   7.910  2.4447  0.9537  0.0947
 1062SOL     OW14821   4.110   2.225   4.375 -0.3123  0.0213 -0.1469
 1062SOL    HW114822   4.133   2.132   4.378 -0.3844  0.0166  0.2753
 1062SOL    HW214823   4.148   2.236   4.288 -0.1467 -1.4337 -0.2628
 1063SOL     OW14824   4.503   0.375   6.588 -0.1022  0.2766  0.5310
 1063SOL    HW114825   4.558   0.415   6.656 -0.2582 -0.1284  0.9030
 1063SOL    HW214826   4.572   0.322   6.547 -1.2545 -0.1290 -0.8542
 1064SOL     OW14827   0.788   3.137   7.928 -0.0352  0.5353  0.5097
 1064SOL    HW114828   0.875   3.100   7.909 -0.9842  0.0910 -2.8833
 1064SOL    HW214829   0.801   3.231   7.941 -0.4644  0.7366 -0.5715
 1065SOL     OW14830   2.219   3.274   5.092 -0.1738  0.0136  0.5027
 1065SOL    HW114831   2.292   3.235   5.044  1.1347  1.7264  1.0882
 1065SOL    HW214832   2.155   3.203   5.089  0.6125 -0.6219 -1.0253
 1066SOL     OW14833   0.593   4.663   8.053 -0.3599 -0.4580  0.1440
 1066SOL    HW114834   0.522   4.676   8.115 -0.0734 -1.3981  0.6665
 1066SOL    HW214835   0.646   4.605   8.108  0.0694 -0.9551 -0.7940
 1067SOL     OW14836   4.621   3.840   8.933 -0.0295 -0.0797  0.0098
 1067SOL    HW114837   4.551   3.804   8.879  0.1369 -1.0172  0.4298
 1067SOL    HW214838   4.567   3.890   8.994  0.1469 -0.4893  0.4974
 1068SOL     OW14839   0.297   1.248   8.972 -0.2953  0.0365 -0.0085
 1068SOL    HW114840   0.313   1.200   9.053  0.1355 -1.3612 -0.9210
 1068SOL    HW214841   0.280   1.339   8.997 -0.2999  0.8340 -2.8869
 1069SOL     OW14842   0.427   4.069   2.972  0.1152 -0.5092  0.6822
 1069SOL    HW114843   0.351   4.015   2.990 -0.0486  1.1813  5.0988
 1069SOL    HW214844   0.397   4.106   2.889 -0.1218  0.0139  1.0000
 1070SOL     OW14845   0.445   2.006   8.785 -0.3022 -0.5772  0.6180
 1070SOL    HW114846   0.428   2.057   8.706 -0.3429 -0.7841  0.4937
 1070SOL    HW214847   0.512   2.052   8.837  0.6909  1.3189 -2.3106
 1071SOL     OW14848   0.813   2.879   1.876 -0.0458 -0.4292  0.2390
 1071SOL    HW114849   0.874   2.951   1.860 -0.1848  0.0327  1.7358
 1071SOL    HW214850   0.732   2.930   1.882  0.0194 -0.3500  0.4525
 1072SOL     OW14851   3.174   3.493   0.652 -0.2677  0.7361  0.3370
 1072SOL    HW114852   3.098   3.507   0.596 -0.0223 -0.7288 -0.3736
 1072SOL    HW214853   3.131   3.458   0.730  2.1006 -0.2294  1.2076
 1073SOL     OW14854   2.948   3.105  15.913 -0.3450 -0.4949 -0.0055
 1073SOL    HW114855   2.885   3.072  15.978 -0.5535  0.2969  0.1928
 1073SOL    HW214856   2.901   3.088  15.832  0.4534  1.1266 -0.7975
 1074SOL     OW14857   0.606   1.907  14.730  0.2523  0.3145  0.4193
 1074SOL    HW114858   0.658   1.838  14.687 -1.1524  0.3979 -1.4017
 1074SOL    HW214859   0.545   1.848  14.775 -1.1099  2.3876  1.2611
 1075SOL     OW14860   0.892   1.972   4.695  0.3112 -0.3283 -0.3489
 1075SOL    HW114861   0.842   1.987   4.615 -0.0818 -0.3851 -0.1130
 1075SOL    HW214862   0.873   1.879   4.712 -1.5951  0.2861  0.9744
 1076SOL     OW14863   2.917   3.049   3.230 -0.3339 -0.5818 -0.1451
 1076SOL    HW114864   2.881   3.137   3.212  1.7543  0.1876 -0.5338
 1076SOL    HW214865   2.932   3.052   3.325 -2.3230  0.8385  0.1374
 1077SOL     OW14866   0.368   4.305   5.174 -0.1410 -0.2938 -0.4608
 1077SOL    HW114867   0.325   4.312   5.260  1.7188  0.8984  0.3656
 1077SOL    HW214868   0.339   4.217   5.150  0.5562 -0.5648 -0.2857
 1078SOL     OW14869   3.021   0.226   6.227 -0.0396  0.4932  0.6108
 1078SOL    HW114870   3.105   0.200   6.265  0.5081  1.6133  0.1738
 1078SOL    HW214871   2.981   0.140   6.236 -0.3045  0.6117  0.5644
 1079SOL     OW14872   3.652   1.184   9.171  0.0517 -0.1543 -0.3444
 1079SOL    HW114873   3.613   1.271   9.178  0.9509  0.1114  1.2781
 1079SOL    HW214874   3.584   1.127   9.136  0.3484 -0.1711 -0.8907
 1080SOL     OW14875   4.689   4.157  11.905  0.7327  0.4166 -0.4693
 1080SOL    HW114876   0.024   4.179  11.851  0.9179  0.7847 -0.0529
 1080SOL    HW214877   4.696   4.219  11.978 -0.4428  2.4721 -2.0916
 1081SOL     OW14878   2.674   3.988   9.178 -0.1043 -0.1838 -0.0608
 1081SOL    HW114879   2.693   4.073   9.138  1.4972  0.0288  1.1433
 1081SOL    HW214880   2.635   3.946   9.101 -2.0860 -0.3153  1.0179
 1082SOL     OW14881   1.753   3.180   2.125 -0.4770 -0.7161  0.2118
 1082SOL    HW114882   1.769   3.243   2.056 -2.2665  0.6441  1.0367
 1082SOL    HW214883   1.824   3.203   2.185 -1.1558 -2.6072  1.7627
 1083SOL     OW14884   3.684   3.607  13.075  0.3785  0.7357 -0.0973
 1083SOL    HW114885   3.720   3.571  13.156  0.9769  0.1302 -0.6301
 1083SOL    HW214886   3.658   3.532  13.022  3.9025 -1.8581  1.9000
 1084SOL     OW14887   2.088   3.219   0.604 -0.2597 -0.5080 -0.1465
 1084SOL    HW114888   2.146   3.280   0.558  0.7624 -0.5244  1.1449
 1084SOL    HW214889   2.005   3.256   0.573  0.1933  1.1969  0.7145
 1085SOL     OW14890   2.957   3.520   2.406  0.3130 -0.4006 -0.1423
 1085SOL    HW114891   2.958   3.533   2.501  1.5735  2.0336 -0.5007
 1085SOL    HW214892   2.863   3.510   2.389 -0.3599  1.1843  2.5723
 1086SOL     OW14893   4.162   1.072   3.678  0.1630  0.0282  0.6611
 1086SOL    HW114894   4.182   1.077   3.584  0.8249 -0.9652  0.7477
 1086SOL    HW214895   4.111   0.991   3.672 -0.3636  0.4856 -1.0965
 1087SOL     OW14896   4.009   2.757   2.677  0.6532 -0.6397 -0.0212
 1087SOL    HW114897   3.994   2.707   2.597  1.6936  2.0237 -1.8496
 1087SOL    HW214898   4.056   2.837   2.653 -2.5154  1.1113 -0.3402
 1088SOL     OW14899   3.554   2.889   0.479  0.1369  0.1946  0.0629
 1088SOL    HW114900   3.509   2.864   0.399 -0.4386  1.0586  0.1091
 1088SOL    HW214901   3.531   2.811   0.530  1.0835  1.0659  1.8408
 1089SOL     OW14902   2.170   3.203  12.388  0.6021 -0.2094  0.1698
 1089SOL    HW114903   2.256   3.191  12.428  0.6612  1.4980  0.5450
 1089SOL    HW214904   2.137   3.113  12.388  1.9261 -0.6932 -1.0842
 1090SOL     OW14905   2.195   2.000   6.388 -0.3276  0.7440  0.0752
 1090SOL    HW114906   2.222   2.075   6.335  1.0361  0.2263  0.0382
 1090SOL    HW214907   2.189   2.030   6.479 -0.1449  0.3628  0.2150
 1091SOL     OW14908   2.219   0.414   6.830 -0.1021  0.0878 -0.2242
 1091SOL    HW114909   2.224   0.391   6.737 -1.3155  1.7294 -0.7020
 1091SOL    HW214910   2.168   0.340   6.864 -1.0156  0.6262 -0.4164
 1092SOL     OW14911   1.101   2.030  12.823 -0.3813 -0.0916 -0.0843
 1092SOL    HW114912   1.008   2.027  12.846 -0.0796 -2.8370  0.6916
 1092SOL    HW214913   1.098   2.118  12.784 -1.1229 -0.0239  0.1183
 1093SOL     OW14914   3.969   1.039  15.068 -0.3812  0.1797 -0.2928
 1093SOL    HW114915   4.007   1.101  15.130 -2.8063  0.7490  0.6400
 1093SOL    HW214916   3.963   1.090  14.988 -1.4362 -1.8763 -1.5335
 1094SOL     OW14917   2.616   4.539   3.812 -0.6595  0.5510  0.1185
 1094SOL    HW114918   2.572   4.529   3.727 -0.1738 -3.8878  0.4155
 1094SOL    HW214919   2.555   4.594   3.861 -0.8644 -1.1270  1.7264
 1095SOL     OW14920   1.465   1.520  16.938  0.6481  0.7928 -0.4964
 1095SOL    HW114921   1.488   1.431  16.964 -0.1735  0.6453 -0.3047
 1095SOL    HW214922   1.523   1.541  16.864  1.3157  0.0214 -0.1914
 1096SOL     OW14923   1.219   2.485   4.463  0.9367  0.3324  0.4193
 1096SOL    HW114924   1.162   2.410   4.478 -0.0589  1.3082  1.4533
 1096SOL    HW214925   1.160   2.560   4.472 -0.6550 -0.6796 -1.4151
 1097SOL     OW14926   1.898   0.446   8.173 -0.9485  0.0933  0.0452
 1097SOL    HW114927   1.870   0.494   8.096 -0.1027 -1.0719 -0.9813
 1097SOL    HW214928   1.981   0.486   8.200 -0.1936 -1.5863  0.2209
 1098SOL     OW14929   1.234   3.975   3.336 -0.1785  0.0012 -0.1717
 1098SOL    HW114930   1.210   4.028   3.412 -1.7672  0.4857 -1.0162
 1098SOL    HW214931   1.212   3.886   3.363 -0.3621  0.5195  1.3883
 1099SOL     OW14932   3.927   2.697   1.165 -0.7035  0.1471 -0.4343
 1099SOL    HW114933   3.956   2.787   1.182  2.0138 -0.9136  0.6098
 1099SOL    HW214934   4.008   2.652   1.142  0.4888  2.2188 -0.3213
 1100SOL     OW14935   1.308   0.918   3.539 -0.4893  0.3624  0.0213
 1100SOL    HW114936   1.251   0.846   3.564 -1.2023  0.0153 -2.6202
 1100SOL    HW214937   1.388   0.894   3.586  0.3254  1.5756 -0.7528
 1101SOL     OW14938   0.749   2.958   1.165 -0.0493  0.2164  0.5315
 1101SOL    HW114939   0.815   3.026   1.149  0.5643 -0.2795  0.9473
 1101SOL    HW214940   0.682   3.009   1.209 -0.5791 -1.0908  1.2486
 1102SOL     OW14941   1.526   1.710  13.283  0.0260 -0.8708  0.2559
 1102SOL    HW114942   1.609   1.683  13.321  0.7718  2.3251  0.9125
 1102SOL    HW214943   1.536   1.806  13.281  0.4333 -0.9271 -0.4532
 1103SOL     OW14944   4.338   4.514   6.970 -0.3740 -0.2625 -0.0785
 1103SOL    HW114945   4.384   4.456   6.909 -1.2284 -1.6217  0.5760
 1103SOL    HW214946   4.258   4.526   6.920 -3.0078 -2.5623  3.6173
 1104SOL     OW14947   0.937   4.491   3.468 -0.3374  0.2558  0.4385
 1104SOL    HW114948   0.982   4.428   3.412 -2.0985 -0.5003 -0.1284
 1104SOL    HW214949   0.893   4.551   3.408  1.2318  0.9899  0.0250
 1105SOL     OW14950   2.845   3.722  15.636 -0.4850 -0.2506  0.4691
 1105SOL    HW114951   2.804   3.802  15.602 -0.1363 -0.3903 -0.2554
 1105SOL    HW214952   2.936   3.749  15.634 -0.9323  1.1955 -0.8863
 1106SOL     OW14953   4.451   0.107   2.941 -0.2380  0.4429  0.3861
 1106SOL    HW114954   4.519   0.101   3.008 -1.8961 -3.4520  1.6636
 1106SOL    HW214955   4.457   0.202   2.928  2.0459  0.0664 -1.2939
 1107SOL     OW14956   1.581   4.719  15.887  0.4153 -0.0623  0.6533
 1107SOL    HW114957   1.591   0.028  15.968 -0.2784  0.4829  0.4043
 1107SOL    HW214958   1.662   0.001  15.843  0.1743  1.0013  0.7651
 1108SOL     OW14959   0.802   1.131   8.637  0.4957  0.3755  0.4815
 1108SOL    HW114960   0.797   1.062   8.704 -0.8323  1.6288  1.6908
 1108SOL    HW214961   0.708   1.139   8.624  0.2799 -0.6567  1.3798
 1109SOL     OW14962   3.002   1.497   4.567  0.8419  0.5386 -0.5793
 1109SOL    HW114963   2.944   1.570   4.546 -0.0902  0.3662  1.3139
 1109SOL    HW214964   3.084   1.546   4.574  1.3216 -0.4114  0.5366
 1110SOL     OW14965   0.571   2.532   7.013 -0.2286 -0.3994  0.0265
 1110SOL    HW114966   0.655   2.545   6.969  0.4745  0.6898  1.7264
 1110SOL    HW214967   0.511   2.590   6.965  1.2535 -0.6167 -2.0645
 1111SOL     OW14968   0.858   3.521   5.523  0.1391  0.0885  0.6037
 1111SOL    HW114969   0.788   3.475   5.476 -0.4536 -0.9225  2.5200
 1111SOL    HW214970   0.937   3.476   5.492  1.6224  2.1664  1.3726
 1112SOL     OW14971   0.246   4.533  11.582  0.1212 -0.1070 -0.3356
 1112SOL    HW114972   0.320   4.519  11.523  0.5355  0.9717 -0.0726
 1112SOL    HW214973   0.226   4.445  11.613 -0.6347  0.8304  1.8488
 1113SOL     OW14974   2.835   3.410   6.901 -0.0433 -0.0132  0.1139
 1113SOL    HW114975   2.907   3.433   6.960  2.0285 -2.1794 -1.5778
 1113SOL    HW214976   2.868   3.346   6.838  1.8303  0.4428  0.6253
 1114SOL     OW14977   0.109   2.055   5.064 -0.1225  0.6610  0.4537
 1114SOL    HW114978   0.133   2.082   4.975 -0.1441  1.3286  0.6451
 1114SOL    HW214979   0.197   2.028   5.090 -0.6150  0.6792  2.1456
 1115SOL     OW14980   0.678   3.227   1.964  0.2166  0.4588  0.1125
 1115SOL    HW114981   0.624   3.213   1.886 -1.5370  0.8766  1.2532
 1115SOL    HW214982   0.620   3.215   2.039  0.0885  1.2546  0.1409
 1116SOL     OW14983   1.674   3.510   0.034 -0.2029  0.2289  0.6112
 1116SOL    HW114984   1.710   3.594   0.007  1.0084 -0.4614  0.0774
 1116SOL    HW214985   1.588   3.517  17.753 -0.1934 -2.4891  0.1040
 1117SOL     OW14986   0.985   1.502   6.704 -0.4779 -0.3593  0.1703
 1117SOL    HW114987   0.996   1.537   6.793 -0.2078 -0.4358  0.1672
 1117SOL    HW214988   0.918   1.434   6.709  1.4573 -2.2314  0.6409
 1118SOL     OW14989   2.775   2.775   5.136 -0.3644  0.4304  0.3800
 1118SOL    HW114990   2.736   2.690   5.117 -0.9954  0.4508  1.5651
 1118SOL    HW214991   2.739   2.798   5.222  0.9681  1.3653  0.6899
 1119SOL     OW14992   2.713   3.844   4.126 -0.5377 -0.0404 -0.3962
 1119SOL    HW114993   2.631   3.884   4.098 -0.6747 -0.2531 -0.2946
 1119SOL    HW214994   2.771   3.919   4.110 -0.7895  0.3041  0.3258
 1120SOL     OW14995   2.170   1.187   7.701 -0.2264  0.5758  0.5700
 1120SOL    HW114996   2.242   1.126   7.685 -0.0641  1.2187 -1.2220
 1120SOL    HW214997   2.101   1.153   7.644  0.9977 -0.2145 -0.4548
 1121SOL     OW14998   0.915   3.568   2.103 -0.5691  0.0335 -0.3337
 1121SOL    HW114999   0.990   3.565   2.164 -0.1618  1.4522 -0.7834
 1121SOL    HW215000   0.958   3.563   2.018  1.3482  1.7096  0.5172
 1122SOL     OW15001   3.536   1.770   2.691  0.8281 -0.4898 -0.2881
 1122SOL    HW115002   3.499   1.847   2.648 -1.2249  0.0102  2.3996
 1122SOL    HW215003   3.628   1.767   2.664  1.5352  0.4879  2.0432
 1123SOL     OW15004   0.795   1.968   2.739 -0.1066  0.2301  0.5457
 1123SOL    HW115005   0.838   2.052   2.722 -0.4027 -0.1236 -1.9622
 1123SOL    HW215006   0.823   1.911   2.668 -1.1344 -1.6809  1.6683
 1124SOL     OW15007   0.073   1.198  10.023 -0.0045  0.3772 -0.1655
 1124SOL    HW115008   0.059   1.110  10.056  1.4122  0.5170  0.8289
 1124SOL    HW215009   0.063   1.173   9.931  0.9138 -1.2825  0.1877
 1125SOL     OW15010   0.460   4.589   3.359  0.1951 -0.4217  0.8539
 1125SOL    HW115011   0.380   4.641   3.364 -0.4983 -1.7339  3.4977
 1125SOL    HW215012   0.460   4.585   3.264  1.1372  1.4837  0.7576
 1126SOL     OW15013   0.895   1.407   3.723 -0.1834 -0.5960  0.6055
 1126SOL    HW115014   0.926   1.394   3.633  1.2286 -0.7182  1.1171
 1126SOL    HW215015   0.866   1.498   3.731 -0.6896 -0.7602  0.6429
 1127SOL     OW15016   1.553   1.701  14.838  0.4626  0.6893 -0.5190
 1127SOL    HW115017   1.563   1.744  14.923  0.9490  0.3533 -0.4037
 1127SOL    HW215018   1.509   1.768  14.786 -0.9217  0.8036  0.8018
 1128SOL     OW15019   3.721   0.801   3.525  0.2495 -0.2294 -0.1930
 1128SOL    HW115020   3.757   0.766   3.443 -1.1530 -0.8088 -0.5628
 1128SOL    HW215021   3.628   0.813   3.508  0.2561 -1.3634 -1.0129
 1129SOL     OW15022   3.981   2.484   7.170 -0.0663  1.0401  0.0538
 1129SOL    HW115023   3.998   2.512   7.080  0.9877 -1.5180 -0.5154
 1129SOL    HW215024   3.982   2.569   7.214  2.2978  0.0131  1.9583
 1130SOL     OW15025   0.434   0.911  11.657  0.7988 -0.4028  0.6612
 1130SOL    HW115026   0.471   0.998  11.671 -1.1282  0.4051  0.6904
 1130SOL    HW215027   0.369   0.920  11.587 -0.3266  0.1302  1.7894
 1131SOL     OW15028   2.060   0.320  13.094  0.5391  0.2107  0.0742
 1131SOL    HW115029   2.120   0.390  13.120  0.6121 -0.3300  1.3763
 1131SOL    HW215030   2.127   0.252  13.084  0.9125  0.6566 -0.4281
 1132SOL     OW15031   0.535   2.905   3.424 -0.0716  0.4726 -0.0362
 1132SOL    HW115032   0.521   2.911   3.519 -1.4508 -2.5344 -0.0491
 1132SOL    HW215033   0.499   2.817   3.409 -0.1850  0.7714 -1.4693
 1133SOL     OW15034   2.975   3.373  11.020 -0.3235 -0.8327  0.1719
 1133SOL    HW115035   2.960   3.370  11.114  2.7554 -0.1247  0.6858
 1133SOL    HW215036   3.015   3.460  11.009 -0.7956 -0.8140 -1.4637
 1134SOL     OW15037   2.634   3.745  17.518  0.2017 -0.4461  0.0705
 1134SOL    HW115038   2.633   3.719  17.426  0.0917  0.6829 -0.2507
 1134SOL    HW215039   2.547   3.783  17.528  0.3920 -0.6062  2.2596
 1135SOL     OW15040   0.449   4.133   1.793  0.3095 -0.6848 -0.7762
 1135SOL    HW115041   0.422   4.182   1.715  2.5408  0.5251 -0.8002
 1135SOL    HW215042   0.425   4.043   1.773 -2.3574 -0.6055  2.0251
 1136SOL     OW15043   0.716   1.869   6.152 -0.0374  0.1178  0.1378
 1136SOL    HW115044   0.734   1.861   6.058 -0.1981  1.4166 -0.0133
 1136SOL    HW215045   0.771   1.946   6.170 -0.1968  1.1346 -3.7613
 1137SOL     OW15046   2.033   3.777   8.005 -0.2650 -0.6793 -0.1200
 1137SOL    HW115047   2.042   3.698   8.059 -2.1477 -1.3767 -0.8138
 1137SOL    HW215048   1.945   3.813   8.016  0.3140  0.9292 -0.7480
 1138SOL     OW15049   2.520   2.063   3.448  0.4877 -0.3269  0.3871
 1138SOL    HW115050   2.577   2.037   3.521 -0.4224  2.3791  2.0603
 1138SOL    HW215051   2.465   1.987   3.428  1.3888 -0.7582 -0.4657
 1139SOL     OW15052   3.730   2.102   7.119 -0.3424  0.0254  0.2102
 1139SOL    HW115053   3.720   2.181   7.172  0.0935  0.8826 -0.9931
 1139SOL    HW215054   3.769   2.137   7.039  0.1737 -0.3350  0.2994
 1140SOL     OW15055   4.033   2.568   9.972  0.4778  0.6886  0.0140
 1140SOL    HW115056   4.004   2.491  10.021 -3.2493  1.6987 -0.6027
 1140SOL    HW215057   4.090   2.599  10.042 -2.3129  1.0790  2.1238
 1141SOL     OW15058   0.710   4.688   2.595 -0.4560  0.1894 -0.0970
 1141SOL    HW115059   0.688   0.022   2.651 -1.5276  0.4743 -0.8890
 1141SOL    HW215060   0.680   4.611   2.644 -0.7556  0.0467 -0.5042
 1142SOL     OW15061   2.010   0.181   2.439  0.1210  0.2515 -0.9024
 1142SOL    HW115062   2.099   0.145   2.442 -0.8855 -1.9817  1.2180
 1142SOL    HW215063   2.018   0.204   2.346 -0.2539  1.7076 -0.5824
 1143SOL     OW15064   4.271   1.185  10.749  0.6996  0.0660  0.4863
 1143SOL    HW115065   4.325   1.108  10.728  3.2278  2.3318 -1.3448
 1143SOL    HW215066   4.241   1.220  10.665 -0.4834  1.4573  1.5037
 1144SOL     OW15067   2.148   1.213   8.937 -0.4666 -0.3264  0.0358
 1144SOL    HW115068   2.184   1.285   8.885 -0.4090 -0.0228  0.5041
 1144SOL    HW215069   2.203   1.202   9.014 -1.6855 -2.1549  0.6550
 1145SOL     OW15070   0.777   0.137   1.345  0.5186 -0.8512  0.0639
 1145SOL    HW115071   0.838   0.120   1.416  0.6492  0.8636  0.3608
 1145SOL    HW215072   0.830   0.156   1.268  1.4663  0.2106  0.9849
 1146SOL     OW15073   2.195   0.616  10.904 -0.5364  0.0623 -0.0826
 1146SOL    HW115074   2.227   0.683  10.844  0.0110  0.4606  0.6394
 1146SOL    HW215075   2.101   0.620  10.888 -0.2547  2.0441 -1.2267
 1147SOL     OW15076   1.856   0.746   5.654 -0.4529  0.8566 -0.1990
 1147SOL    HW115077   1.836   0.778   5.742 -1.1414  2.3004 -0.8765
 1147SOL    HW215078   1.951   0.749   5.648 -0.5418  2.0115 -1.1280
 1148SOL     OW15079   1.794   4.370   1.976 -0.1572  0.2354  0.1091
 1148SOL    HW115080   1.780   4.282   1.941 -0.6761  0.5739 -0.5332
 1148SOL    HW215081   1.875   4.349   2.021 -1.0349 -2.8197  0.2567
 1149SOL     OW15082   0.285   0.705   5.370 -0.2188 -0.1487  0.4083
 1149SOL    HW115083   0.351   0.638   5.390 -0.0962 -0.6594 -1.6907
 1149SOL    HW215084   0.303   0.709   5.276  1.1964  0.1544  0.6941
 1150SOL     OW15085   3.975   1.772   3.642 -0.1510 -0.0687  0.1241
 1150SOL    HW115086   4.061   1.748   3.610 -1.3784 -0.8246 -2.6202
 1150SOL    HW215087   3.977   1.867   3.637 -0.3500  0.0855  2.8636
 1151SOL     OW15088   0.240   3.370  16.350 -0.1963  0.1878  0.1867
 1151SOL    HW115089   0.186   3.326  16.285  1.7649  0.9742 -1.9461
 1151SOL    HW215090   0.273   3.291  16.393 -0.7977 -0.2431 -0.1456
 1152SOL     OW15091   4.374   1.875  10.068 -0.0749 -0.0514 -0.1315
 1152SOL    HW115092   4.283   1.897  10.051 -0.4472 -2.3831 -1.2148
 1152SOL    HW215093   4.400   1.954  10.115  0.2799 -0.6575  0.6958
 1153SOL     OW15094   1.976   2.062   3.010 -0.3812 -0.3829  0.2713
 1153SOL    HW115095   2.017   2.025   3.088  0.6486 -1.9921 -1.0354
 1153SOL    HW215096   2.033   2.033   2.939 -0.3167 -1.2421  0.6749
 1154SOL     OW15097   0.931   2.191   5.874  0.3897 -0.3282  0.4776
 1154SOL    HW115098   0.948   2.285   5.885 -1.3334  0.1527 -0.9206
 1154SOL    HW215099   1.005   2.160   5.925  1.8476  0.5643 -1.0845
 1155SOL     OW15100   1.287   1.072   2.892  0.3474  0.0677  0.6802
 1155SOL    HW115101   1.199   1.035   2.907 -0.4955  0.0383 -4.2998
 1155SOL    HW215102   1.284   1.090   2.798  2.3660  0.5671  0.7209
 1156SOL     OW15103   3.337   3.531   6.433  0.9646 -0.2424 -0.3473
 1156SOL    HW115104   3.308   3.534   6.524  1.3113  2.8315 -0.3495
 1156SOL    HW215105   3.254   3.538   6.386  0.7307  2.4698  0.4608
 1157SOL     OW15106   0.063   1.390   3.968  0.1931  0.1237 -0.2050
 1157SOL    HW115107   0.076   1.480   3.998 -1.5151  0.9311 -1.9239
 1157SOL    HW215108   4.709   1.384   3.960  0.3004 -0.4665 -1.0434
 1158SOL     OW15109   4.488   2.445  10.589 -0.1975 -0.0505  0.1058
 1158SOL    HW115110   4.545   2.517  10.617  0.2102 -0.9739  1.6086
 1158SOL    HW215111   4.419   2.443  10.654  0.7438 -0.9589  1.0752
 1159SOL     OW15112   2.826   4.206   7.270 -0.8699 -0.3817 -0.5833
 1159SOL    HW115113   2.758   4.146   7.299 -0.9444  0.7152  1.5781
 1159SOL    HW215114   2.831   4.246   7.358  1.7424  0.4103 -1.0848
 1160SOL     OW15115   1.190   0.049   3.536  0.1695  0.4098  0.2699
 1160SOL    HW115116   1.123   0.107   3.572 -0.2336 -0.1151  0.3558
 1160SOL    HW215117   1.250   0.040   3.610  1.9860 -1.1817 -1.3836
 1161SOL     OW15118   0.784   2.056   8.205  0.4228  0.4848  1.0323
 1161SOL    HW115119   0.707   2.110   8.188  0.4417 -0.3870 -1.8630
 1161SOL    HW215120   0.743   1.972   8.184  1.4201  0.2732 -0.0568
 1162SOL     OW15121   0.536   4.716   5.475 -0.0715  0.0324 -0.2709
 1162SOL    HW115122   0.628   4.738   5.462 -0.4401  1.6045 -0.2443
 1162SOL    HW215123   0.501   0.043   5.533  1.8753  0.4385  0.4374
 1163SOL     OW15124   0.089   0.738   2.617 -0.2078 -0.7203 -0.3555
 1163SOL    HW115125   4.735   0.727   2.620 -0.3470  0.6419  0.3291
 1163SOL    HW215126   0.116   0.658   2.573 -2.8428 -1.5799 -0.3688
 1164SOL     OW15127   1.143   4.038  12.823 -0.0505  0.2459 -0.5645
 1164SOL    HW115128   1.127   4.112  12.881 -1.3826 -0.8625  0.4682
 1164SOL    HW215129   1.107   4.070  12.741 -1.3344  0.3675  0.0459
 1165SOL     OW15130   1.420   0.121   3.244  0.9222 -1.0537  0.0521
 1165SOL    HW115131   1.446   0.048   3.188 -0.0627  0.1633 -2.0195
 1165SOL    HW215132   1.466   0.194   3.202  0.4454 -0.5331  0.4170
 1166SOL     OW15133   1.039   3.919   2.121  0.6385 -0.6049  0.6379
 1166SOL    HW115134   1.049   3.998   2.174 -1.1480  0.3945 -0.5060
 1166SOL    HW215135   0.989   3.948   2.045  3.3556  0.3941 -0.7646
 1167SOL     OW15136   2.900   3.956  16.408 -0.4230  0.3263  0.0795
 1167SOL    HW115137   2.829   3.894  16.420 -0.7051  1.0470  2.0997
 1167SOL    HW215138   2.863   4.034  16.450  0.2912 -0.2047  1.7003
 1168SOL     OW15139   2.828   2.390   3.149 -0.2388  0.4645  0.1902
 1168SOL    HW115140   2.823   2.385   3.054  0.3667 -2.3662  0.2837
 1168SOL    HW215141   2.784   2.307   3.170  0.6937 -0.0082  0.2651
 1169SOL     OW15142   2.009   4.470   0.973 -0.6097  0.1847  0.1336
 1169SOL    HW115143   1.924   4.497   1.007 -1.3735 -0.7087 -1.0590
 1169SOL    HW215144   2.050   4.547   1.012 -0.9711 -0.1142  1.0967
 1170SOL     OW15145   3.793   3.010   1.339  0.0104 -0.2206 -0.8810
 1170SOL    HW115146   3.838   3.095   1.342 -2.1854  0.9203  0.5169
 1170SOL    HW215147   3.870   2.953   1.339 -0.8497 -1.3694  0.7905
 1171SOL     OW15148   4.185   0.833   2.488 -0.2792  0.1873 -0.2218
 1171SOL    HW115149   4.132   0.756   2.465 -1.8696  0.9814  0.7333
 1171SOL    HW215150   4.268   0.808   2.449  0.4082  0.6872  0.9196
 1172SOL     OW15151   2.743   0.951  16.181 -0.4538 -0.7402  0.1831
 1172SOL    HW115152   2.658   0.993  16.172  0.9835  2.4623  1.7195
 1172SOL    HW215153   2.745   0.917  16.270  0.0341 -1.6537 -0.1783
 1173SOL     OW15154   4.050   1.074   1.571  0.0977  0.0009  0.0440
 1173SOL    HW115155   4.021   1.032   1.652 -1.2754  0.2744 -0.3109
 1173SOL    HW215156   3.974   1.129   1.556 -1.4645 -1.7126  1.6929
 1174SOL     OW15157   0.338   3.540   3.948 -0.3801  0.1681 -0.1080
 1174SOL    HW115158   0.248   3.514   3.927  0.2152 -2.1230  0.1132
 1174SOL    HW215159   0.371   3.456   3.980  1.4354  1.5282  1.6267
 1175SOL     OW15160   2.014   3.455   0.276 -0.0826 -0.8457 -0.2241
 1175SOL    HW115161   2.059   3.422   0.199  2.2420 -1.0412  1.2159
 1175SOL    HW215162   1.936   3.400   0.267 -1.4574  0.9255  0.9027
 1176SOL     OW15163   0.341   4.008   7.364  0.0835  0.3185 -0.4448
 1176SOL    HW115164   0.357   3.923   7.324  1.3252 -0.7031  2.2805
 1176SOL    HW215165   0.384   4.059   7.295  0.6369  2.4411  1.4629
 1177SOL     OW15166   2.161   4.107   7.624 -0.9614  0.3491 -0.0006
 1177SOL    HW115167   2.176   4.020   7.661 -0.9249  1.6927  3.1461
 1177SOL    HW215168   2.093   4.143   7.681 -2.8580 -0.1675 -1.9397
 1178SOL     OW15169   1.717   3.326   5.116  0.1506 -0.0313 -0.2448
 1178SOL    HW115170   1.804   3.367   5.109  0.3683 -0.4901 -0.2140
 1178SOL    HW215171   1.724   3.276   5.197 -1.1152  0.5556  0.2143
 1179SOL     OW15172   2.693   1.619  13.691 -0.4231 -0.3019  0.6087
 1179SOL    HW115173   2.755   1.652  13.626 -1.2372  2.0235  1.0055
 1179SOL    HW215174   2.755   1.580  13.752  0.3252 -0.5260 -0.2829
 1180SOL     OW15175   1.346   4.263   5.193 -0.1789  0.1208  0.3485
 1180SOL    HW115176   1.278   4.207   5.231 -2.7452  2.0080 -1.3848
 1180SOL    HW215177   1.353   4.218   5.108 -3.2033 -0.5737  0.4393
 1181SOL     OW15178   2.352   0.971  10.256  0.0919 -0.3310 -0.1943
 1181SOL    HW115179   2.396   1.056  10.255 -0.9732  0.2018 -0.8847
 1181SOL    HW215180   2.410   0.925  10.317 -0.1191 -1.3245 -0.7491
 1182SOL     OW15181   0.695   3.219   6.646  0.1460 -0.2063 -0.4286
 1182SOL    HW115182   0.729   3.262   6.723 -0.4338 -1.2774  0.4299
 1182SOL    HW215183   0.605   3.212   6.678  1.1308 -2.5257  1.7662
 1183SOL     OW15184   0.193   2.433  16.233 -0.2631  0.4328 -0.5834
 1183SOL    HW115185   0.103   2.452  16.260 -0.7212 -0.9087 -1.1788
 1183SOL    HW215186   0.226   2.514  16.273  1.5883 -0.3977 -0.4027
 1184SOL     OW15187   2.572   1.505  10.272 -0.3448  0.2877 -1.1800
 1184SOL    HW115188   2.557   1.560  10.349 -0.6978 -0.7645 -0.5069
 1184SOL    HW215189   2.523   1.549  10.203 -3.0306  1.1226  1.2955
 1185SOL     OW15190   2.424   1.869   4.145 -0.2508 -0.4384  0.0565
 1185SOL    HW115191   2.371   1.796   4.114  0.6017 -0.8987 -0.3261
 1185SOL    HW215192   2.458   1.901   4.061 -1.4344  0.0531 -0.2292
 1186SOL     OW15193   0.080   3.920   0.729  0.3292  0.0002  0.1002
 1186SOL    HW115194   0.153   3.970   0.765 -1.5253  1.8547  1.2997
 1186SOL    HW215195   0.005   3.979   0.720  0.8026  0.7775  1.2323
 1187SOL     OW15196   1.940   1.233   9.864 -0.3761 -0.0972 -0.3746
 1187SOL    HW115197   1.916   1.275   9.781  0.5562 -0.4855 -0.8399
 1187SOL    HW215198   1.907   1.300   9.924 -0.4714  0.0701 -0.6117
 1188SOL     OW15199   3.099   4.349   5.496  0.2703  0.0863 -0.3059
 1188SOL    HW115200   3.039   4.276   5.477 -0.4655  0.6171 -0.0474
 1188SOL    HW215201   3.066   4.369   5.584 -1.5383 -0.9693 -0.7382
 1189SOL     OW15202   0.382   3.475   2.811  0.3263  0.4219  0.0909
 1189SOL    HW115203   0.313   3.529   2.773  1.1116  0.7004 -0.9436
 1189SOL    HW215204   0.378   3.387   2.773 -1.2546  1.4013 -2.0685
 1190SOL     OW15205   3.433   3.206   7.962  0.0526 -0.5444 -0.3404
 1190SOL    HW115206   3.452   3.267   7.891  0.7408 -1.2971 -0.7978
 1190SOL    HW215207   3.403   3.270   8.027  3.4877  0.4841  0.2679
 1191SOL     OW15208   3.714   1.812  11.580  0.2452  0.3654  0.0225
 1191SOL    HW115209   3.646   1.801  11.513  0.1361  0.6940  0.0747
 1191SOL    HW215210   3.794   1.778  11.541 -0.5667 -1.7511  0.2350
 1192SOL     OW15211   4.701   3.710  12.536 -0.2821 -0.1540 -0.1248
 1192SOL    HW115212   4.643   3.647  12.580  0.0249 -0.5548 -0.2960
 1192SOL    HW215213   4.670   3.787  12.583  1.4521  1.0679 -0.9816
 1193SOL     OW15214   3.105   1.204  15.381  0.2084 -0.6763 -0.4303
 1193SOL    HW115215   3.150   1.191  15.464 -0.2489 -1.1412 -0.2539
 1193SOL    HW215216   3.182   1.201  15.325 -0.0367 -0.1236 -0.7915
 1194SOL     OW15217   0.399   2.961  16.562 -0.2500 -0.0473  0.1890
 1194SOL    HW115218   0.356   2.939  16.644 -0.5974 -0.5020 -0.1187
 1194SOL    HW215219   0.369   3.052  16.561  2.5682  0.8892  0.5760
 1195SOL     OW15220   0.399   0.819   3.924  0.3039 -0.0370 -0.8195
 1195SOL    HW115221   0.332   0.871   3.881  1.0720  0.9684 -0.8131
 1195SOL    HW215222   0.391   0.728   3.896  0.0672  0.1083 -1.2241
 1196SOL     OW15223   3.177   1.499   7.212  0.1572  0.0362  0.0070
 1196SOL    HW115224   3.117   1.454   7.271 -1.2444  1.7340 -0.0949
 1196SOL    HW215225   3.216   1.428   7.161 -0.5898 -0.2090 -0.2364
 1197SOL     OW15226   1.212   0.999   3.929  0.1107 -0.1216 -0.3762
 1197SOL    HW115227   1.299   1.031   3.951 -0.2085  0.5143 -0.0590
 1197SOL    HW215228   1.188   1.063   3.862  0.5449  2.6358  2.1105
 1198SOL     OW15229   1.006   0.210   3.702 -0.2309 -0.0641 -0.1919
 1198SOL    HW115230   1.011   0.258   3.785 -0.1983 -3.0007  1.5004
 1198SOL    HW215231   0.912   0.222   3.686 -0.2746 -0.3817 -0.1800
 1199SOL     OW15232   2.001   2.669  10.685 -0.8332 -0.4642 -0.0799
 1199SOL    HW115233   2.035   2.758  10.679  1.2703 -1.3128 -0.7388
 1199SOL    HW215234   2.081   2.617  10.675  0.1230  1.3038 -1.6465
 1200SOL     OW15235   4.548   1.172   6.153  0.0244 -0.0366  0.1401
 1200SOL    HW115236   4.503   1.141   6.232 -2.3623  2.2364 -0.3365
 1200SOL    HW215237   4.479   1.150   6.091 -0.2593  1.7010 -0.1420
 1201SOL     OW15238   1.957   2.574   7.424 -0.0369 -0.5035  0.4465
 1201SOL    HW115239   1.996   2.635   7.361 -2.6368  1.7472  1.0151
 1201SOL    HW215240   2.015   2.498   7.418  1.8252  0.8234  1.3185
 1202SOL     OW15241   1.924   2.248  15.204  0.2062 -0.2760  0.2118
 1202SOL    HW115242   1.880   2.247  15.119 -0.4029  2.0699  0.5191
 1202SOL    HW215243   1.886   2.175  15.254  1.6356 -0.1983  1.4008
 1203SOL     OW15244   2.215   3.485  16.495 -0.1441 -0.2875 -0.3390
 1203SOL    HW115245   2.157   3.421  16.454 -2.1323  0.1110  1.7845
 1203SOL    HW215246   2.179   3.479  16.584 -2.0860 -0.2192 -1.1293
 1204SOL     OW15247   3.823   4.383  16.860  0.0051 -0.6139  0.1649
 1204SOL    HW115248   3.828   4.459  16.802 -1.3328 -0.7275 -0.0871
 1204SOL    HW215249   3.740   4.396  16.907 -0.7411 -0.4767 -1.1926
 1205SOL     OW15250   1.361   0.149   5.285  0.7679 -0.0696  0.1371
 1205SOL    HW115251   1.297   0.215   5.312  2.1607  0.9411  0.9684
 1205SOL    HW215252   1.402   0.138   5.371 -0.1907  1.3191  0.7641
 1206SOL     OW15253   0.127   4.356  16.760 -0.0159 -0.0588  0.7474
 1206SOL    HW115254   0.216   4.354  16.725 -0.4549  0.6500 -0.4309
 1206SOL    HW215255   0.109   4.450  16.754 -2.4469 -0.5736  0.0222
 1207SOL     OW15256   0.757   3.654  16.354  0.0657  0.2499  0.2828
 1207SOL    HW115257   0.763   3.561  16.332  2.6729  0.4124  0.3952
 1207SOL    HW215258   0.685   3.680  16.296 -0.0031 -3.6319 -1.3504
 1208SOL     OW15259   4.692   0.161   5.494 -0.0897  0.0807  0.0684
 1208SOL    HW115260   4.600   0.160   5.520 -0.4363  1.1164 -1.1333
 1208SOL    HW215261   4.717   0.096   5.560 -1.0022  0.0304  0.3701
 1209SOL     OW15262   2.267   0.192  15.177  0.1906 -0.8249  0.0203
 1209SOL    HW115263   2.241   0.220  15.090  0.5551  0.7862  0.4429
 1209SOL    HW215264   2.361   0.210  15.174  0.1169 -0.4551 -0.0635
 1210SOL     OW15265   3.591   3.169  16.253  0.3806 -0.4575 -0.2671
 1210SOL    HW115266   3.620   3.123  16.331 -2.4269 -0.1667  0.9390
 1210SOL    HW215267   3.665   3.230  16.247  0.6271 -0.9434 -2.2517
 1211SOL     OW15268   2.011   2.238   1.601  0.3562 -0.8076  0.0552
 1211SOL    HW115269   2.042   2.329   1.597  1.1873 -1.1394 -0.8162
 1211SOL    HW215270   2.029   2.213   1.511 -0.9441  1.5029 -0.8602
 1212SOL     OW15271   3.087   2.079   0.628  0.0458  0.1633 -0.0490
 1212SOL    HW115272   3.008   2.095   0.576  0.3255 -0.8239 -0.7801
 1212SOL    HW215273   3.063   2.076   0.721 -4.2774  0.4466 -1.1394
 1213SOL     OW15274   2.122   3.705   4.197  0.1394 -0.2819  0.3984
 1213SOL    HW115275   2.204   3.741   4.162  0.0475 -0.3387  0.1246
 1213SOL    HW215276   2.111   3.630   4.139 -1.7816  0.9685 -0.8345
 1214SOL     OW15277   4.679   0.601   5.510  0.5519  0.1966 -0.0297
 1214SOL    HW115278   4.597   0.649   5.510  1.1899  1.2970  0.3898
 1214SOL    HW215279   4.726   0.634   5.587 -0.7364  0.1695  0.7572
 1215SOL     OW15280   0.065   1.872  12.497  0.3363  0.2533 -0.5281
 1215SOL    HW115281   0.031   1.932  12.431 -0.3758  1.2204  0.7113
 1215SOL    HW215282   0.152   1.911  12.499 -1.3302  4.0642 -0.6936
 1216SOL     OW15283   2.898   2.148   1.953 -0.2605 -0.5393 -0.6177
 1216SOL    HW115284   2.901   2.224   1.895  1.7377 -0.5661 -0.5579
 1216SOL    HW215285   2.805   2.140   1.976 -0.5493 -0.2073 -1.6632
 1217SOL     OW15286   3.917   3.071   5.334 -0.2783  0.2951  0.1616
 1217SOL    HW115287   3.936   3.037   5.421 -3.4513  0.4001  0.8814
 1217SOL    HW215288   3.977   3.146   5.343 -2.1443  1.3426  4.0236
 1218SOL     OW15289   0.460   0.299   3.977 -0.4407  0.6899  0.4950
 1218SOL    HW115290   0.482   0.255   4.059  0.6248  2.6011  1.2239
 1218SOL    HW215291   0.550   0.320   3.951 -0.8155  1.5799 -0.0976
 1219SOL     OW15292   2.429   3.360   3.404 -0.0268  0.5263  0.0952
 1219SOL    HW115293   2.492   3.393   3.468  2.2901  2.8438 -3.3775
 1219SOL    HW215294   2.371   3.436   3.396  1.6710  1.9936  1.9993
 1220SOL     OW15295   2.219   1.549   2.374  0.0659  1.0318 -0.6419
 1220SOL    HW115296   2.136   1.533   2.418  0.5512  0.7781  0.1923
 1220SOL    HW215297   2.186   1.617   2.315  1.8036  2.0244 -0.4662
 1221SOL     OW15298   3.902   4.247   6.816 -0.0335 -0.0618 -0.4394
 1221SOL    HW115299   3.889   4.333   6.855  1.6299  1.3778 -3.1235
 1221SOL    HW215300   3.812   4.216   6.809  0.2407 -0.8832 -0.4146
 1222SOL     OW15301   0.874   2.851   5.081  0.2080  0.3430 -0.1889
 1222SOL    HW115302   0.834   2.771   5.116  2.0069  0.3388  1.8620
 1222SOL    HW215303   0.864   2.903   5.161 -1.2922  0.8574 -0.7081
 1223SOL     OW15304   3.963   4.696   3.747  0.3087  0.0295  0.5678
 1223SOL    HW115305   3.888   4.638   3.749 -1.7629  2.6735 -1.1675
 1223SOL    HW215306   3.931   0.030   3.798 -1.3921 -1.0983  1.1242
 1224SOL     OW15307   1.457   2.082   7.436 -0.2878 -0.0599 -0.0063
 1224SOL    HW115308   1.471   2.006   7.491  1.4071  1.3044  1.4634
 1224SOL    HW215309   1.384   2.053   7.381  0.7323  0.6807 -1.7482
 1225SOL     OW15310   2.261   4.527   2.509 -0.2701  0.7684 -0.6245
 1225SOL    HW115311   2.336   4.493   2.559  0.1157  2.7032  0.1134
 1225SOL    HW215312   2.279   4.620   2.523  0.2771  0.5497  0.1763
 1226SOL     OW15313   3.697   3.905   6.821  0.1228 -0.1371  0.2526
 1226SOL    HW115314   3.601   3.903   6.828  0.1032 -0.4541 -0.1155
 1226SOL    HW215315   3.724   3.871   6.907 -1.7517 -2.5296 -0.1203
 1227SOL     OW15316   0.747   4.027   0.510 -0.7226 -0.1625 -0.8221
 1227SOL    HW115317   0.773   3.978   0.588  0.5405  2.2887  0.2977
 1227SOL    HW215318   0.791   4.110   0.530  1.2997 -1.3044 -0.6680
 1228SOL     OW15319   0.024   4.591  11.904 -0.5865 -0.3494 -0.6478
 1228SOL    HW115320   0.022   4.682  11.933  0.6073 -0.4498 -0.2513
 1228SOL    HW215321   0.045   4.619  11.815  0.1638  1.4364  0.0991
 1229SOL     OW15322   2.772   2.364   5.964  0.1718 -0.1094  0.4837
 1229SOL    HW115323   2.812   2.334   5.882 -1.7238 -2.8305  0.5624
 1229SOL    HW215324   2.748   2.454   5.944 -1.8693 -0.8053 -0.2699
 1230SOL     OW15325   4.507   0.040   9.236  0.4087  0.4993 -0.8490
 1230SOL    HW115326   4.487   0.132   9.217  0.9356  0.6273 -0.7798
 1230SOL    HW215327   4.420   0.008   9.262  0.8577  0.0091  0.0489
 1231SOL     OW15328   0.879   3.803   8.712  0.0346 -0.6779 -0.2289
 1231SOL    HW115329   0.916   3.812   8.624  1.9592 -2.4486  0.4037
 1231SOL    HW215330   0.788   3.776   8.699 -0.9507  2.4094  0.3580
 1232SOL     OW15331   1.829   3.047   4.756 -0.1850 -0.2433 -0.4455
 1232SOL    HW115332   1.809   3.073   4.667  0.0076  1.0955 -0.0973
 1232SOL    HW215333   1.884   3.124   4.772 -1.0254  0.3932 -0.6761
 1233SOL     OW15334   3.993   2.372  15.687  0.6035 -0.5598  0.5145
 1233SOL    HW115335   4.076   2.417  15.672 -0.4589  0.2708 -2.7760
 1233SOL    HW215336   3.948   2.381  15.603  2.5257  1.4601 -0.2958
 1234SOL     OW15337   2.840   2.408  11.015  0.0172 -0.0684  0.7301
 1234SOL    HW115338   2.848   2.400  11.110  2.9795 -0.5683  0.4446
 1234SOL    HW215339   2.864   2.500  11.004 -1.4915 -0.1096 -3.1166
 1235SOL     OW15340   1.741   1.534  10.525 -0.2307  0.2544  0.1590
 1235SOL    HW115341   1.725   1.463  10.586  1.9824 -1.6716 -1.5000
 1235SOL    HW215342   1.658   1.533  10.479 -0.6747  1.0406  0.9373
 1236SOL     OW15343   4.358   0.910   7.714  0.2538 -0.1795  0.1972
 1236SOL    HW115344   4.382   0.964   7.789  0.1376  0.3926 -0.1800
 1236SOL    HW215345   4.270   0.878   7.734  0.9442 -1.9093  0.4999
 1237SOL     OW15346   3.053   2.107   5.605 -0.6047 -0.2512  0.6137
 1237SOL    HW115347   3.122   2.140   5.548 -0.3117 -1.3985  0.3141
 1237SOL    HW215348   2.976   2.089   5.551  0.4607 -1.8358 -0.3864
 1238SOL     OW15349   1.465   3.631   5.816 -0.2279 -0.3188 -0.4311
 1238SOL    HW115350   1.516   3.691   5.762 -0.2630 -0.9940 -1.2171
 1238SOL    HW215351   1.395   3.600   5.757 -0.0371 -0.8575 -0.3730
 1239SOL     OW15352   0.885   1.127   4.819 -0.0662  0.5136 -0.4723
 1239SOL    HW115353   0.942   1.053   4.795 -0.9490 -0.0857 -0.7225
 1239SOL    HW215354   0.951   1.187   4.853  0.7543 -2.0503  2.4853
 1240SOL     OW15355   1.201   3.157  12.298  0.3601  0.4470  0.5282
 1240SOL    HW115356   1.149   3.143  12.377 -0.3265 -1.4575 -0.2640
 1240SOL    HW215357   1.271   3.095  12.318  1.0148  0.3898 -1.9929
 1241SOL     OW15358   0.239   3.245   1.634 -0.2161  0.4647 -0.1994
 1241SOL    HW115359   0.315   3.225   1.688  0.4205  1.0179 -0.8867
 1241SOL    HW215360   0.177   3.269   1.703 -2.0923 -1.6472 -1.1449
 1242SOL     OW15361   1.277   2.273   5.104 -0.3040 -0.8045  0.1535
 1242SOL    HW115362   1.275   2.368   5.092  0.6230 -1.0798 -2.1769
 1242SOL    HW215363   1.322   2.255   5.186 -1.5527  0.2481  1.0783
 1243SOL     OW15364   0.400   3.106  17.197 -0.2489 -0.1410 -0.4001
 1243SOL    HW115365   0.342   3.162  17.146 -1.4323 -1.6383 -0.6698
 1243SOL    HW215366   0.418   3.152  17.279 -1.7654  1.2400 -0.8479
 1244SOL     OW15367   1.915   0.424  15.883  0.2475  0.5534 -0.5250
 1244SOL    HW115368   1.929   0.409  15.789 -2.7879  0.4526 -0.9394
 1244SOL    HW215369   1.907   0.518  15.899  1.3913  0.5490  0.0955
 1245SOL     OW15370   2.236   1.354   1.880  0.0110  0.0428  0.2658
 1245SOL    HW115371   2.158   1.331   1.931 -1.3255  3.9097 -0.0412
 1245SOL    HW215372   2.202   1.438   1.848  1.4919  0.8921  0.8966
 1246SOL     OW15373   0.838   1.954  12.868 -0.7747  0.0039  0.4338
 1246SOL    HW115374   0.819   1.915  12.953 -0.2946  2.3317  1.6008
 1246SOL    HW215375   0.901   1.887  12.844 -0.5177  0.8252 -1.1865
 1247SOL     OW15376   1.176   0.412   4.839 -0.2741 -0.0776  0.3078
 1247SOL    HW115377   1.226   0.378   4.913 -1.3855  2.2067  2.0941
 1247SOL    HW215378   1.090   0.376   4.860 -0.9284  1.0640 -0.4372
 1248SOL     OW15379   1.184   1.257   4.486  0.0608 -0.0413  0.5911
 1248SOL    HW115380   1.096   1.234   4.514 -1.3701  0.2549 -3.5809
 1248SOL    HW215381   1.175   1.351   4.466  0.5198 -0.0027  0.5535
 1249SOL     OW15382   4.035   1.753   1.070 -0.7943 -0.2246  0.0604
 1249SOL    HW115383   4.118   1.734   1.026  1.0517  0.9293  3.0207
 1249SOL    HW215384   4.031   1.849   1.065 -2.0907 -0.2617  0.4762
 1250SOL     OW15385   4.543   3.393  13.963 -0.1458 -0.3056 -0.3577
 1250SOL    HW115386   4.460   3.404  14.009  0.8869  0.2121  1.4025
 1250SOL    HW215387   4.537   3.301  13.940 -0.5265 -0.3061 -0.2550
 1251SOL     OW15388   0.359   4.085  12.638 -0.3397  0.3599  0.8994
 1251SOL    HW115389   0.344   3.992  12.655 -1.6078  0.3714 -0.1676
 1251SOL    HW215390   0.282   4.117  12.591 -0.6933  0.5262  1.5991
 1252SOL     OW15391   2.566   4.380   6.692  0.3523  0.0455 -0.0230
 1252SOL    HW115392   2.576   4.447   6.625 -0.3798 -1.0709 -1.2553
 1252SOL    HW215393   2.617   4.305   6.660  1.4870  1.3535 -1.2455
 1253SOL     OW15394   0.326   1.332  16.416 -0.3523 -0.5377  0.1397
 1253SOL    HW115395   0.280   1.395  16.472 -0.0362  0.6856 -0.9848
 1253SOL    HW215396   0.401   1.329  16.476  0.7368 -1.1799 -1.2624
 1254SOL     OW15397   4.349   0.395   4.223 -0.3367 -0.1065 -0.3120
 1254SOL    HW115398   4.341   0.369   4.315  2.0544 -1.7229 -0.5715
 1254SOL    HW215399   4.326   0.488   4.229 -0.0008 -0.1482  1.7130
 1255SOL     OW15400   2.137   3.050  13.161 -0.2377  0.2712 -0.1049
 1255SOL    HW115401   2.216   3.075  13.208  0.0025  0.5129 -0.6395
 1255SOL    HW215402   2.173   2.992  13.094 -2.3729  0.2494 -1.2316
 1256SOL     OW15403   3.266   4.126   3.393 -0.0427 -0.2432  0.0462
 1256SOL    HW115404   3.261   4.133   3.298 -0.0827 -0.9948 -0.0118
 1256SOL    HW215405   3.252   4.031   3.403  0.2249 -0.3470 -0.5975
 1257SOL     OW15406   4.136   2.390   9.548  0.0839  0.0321 -0.4262
 1257SOL    HW115407   4.134   2.393   9.452  0.1114 -1.0064 -0.4515
 1257SOL    HW215408   4.187   2.314   9.575 -0.4724  0.1441  0.9416
 1258SOL     OW15409   2.398   4.081   4.522  0.1469  0.2477 -0.4933
 1258SOL    HW115410   2.307   4.076   4.550  0.1666  0.0611 -0.4645
 1258SOL    HW215411   2.418   4.174   4.535  1.0870  0.0171 -0.2686
 1259SOL     OW15412   3.692   4.461   8.326  0.2420 -0.0213  0.1659
 1259SOL    HW115413   3.718   4.376   8.361  1.2083  0.6772  1.1817
 1259SOL    HW215414   3.601   4.473   8.352 -0.0134  1.2115 -1.2872
 1260SOL     OW15415   1.389   1.722   4.188  0.3077  0.1175 -0.3939
 1260SOL    HW115416   1.390   1.817   4.197  1.6086 -0.0160  0.8604
 1260SOL    HW215417   1.307   1.718   4.238  1.1579 -0.6799  0.9418
 1261SOL     OW15418   0.698   0.869   1.997 -0.5879  0.3917 -0.2370
 1261SOL    HW115419   0.699   0.924   1.919  1.7989 -1.0971 -1.2467
 1261SOL    HW215420   0.606   0.861   2.020 -0.5043 -0.5858 -0.2317
 1262SOL     OW15421   1.607   3.507   4.284  0.3193  0.0059 -0.3428
 1262SOL    HW115422   1.688   3.540   4.246  0.8229 -0.6978  0.1188
 1262SOL    HW215423   1.634   3.417   4.301 -0.0915  0.0896  0.7476
 1263SOL     OW15424   2.370   4.201   2.462  0.1396 -0.0137 -0.2109
 1263SOL    HW115425   2.367   4.113   2.424  1.1703  0.1808 -0.7551
 1263SOL    HW215426   2.459   4.203   2.498  0.5246  0.0510 -1.1578
 1264SOL     OW15427   4.655   3.071  13.089  0.3636  0.8445  0.0078
 1264SOL    HW115428   4.580   3.090  13.145  0.0034 -2.0334  0.4967
 1264SOL    HW215429   4.721   3.057  13.157 -0.3068  0.4788  0.5795
 1265SOL     OW15430   1.244   4.188   5.829  0.1868  0.1134  0.2993
 1265SOL    HW115431   1.220   4.096   5.831 -2.3739  0.7104 -2.7556
 1265SOL    HW215432   1.288   4.203   5.745 -1.7773  1.1716 -0.5454
 1266SOL     OW15433   3.428   3.487   2.111 -0.1995 -0.0749 -0.4639
 1266SOL    HW115434   3.353   3.473   2.168  0.8326 -0.7298  0.7268
 1266SOL    HW215435   3.497   3.468   2.174 -1.9350 -1.4086  1.0364
 1267SOL     OW15436   0.138   1.966   6.374  0.2196  0.6696  0.1201
 1267SOL    HW115437   0.101   2.049   6.343 -0.8490 -0.1549 -0.7852
 1267SOL    HW215438   0.078   1.948   6.446 -0.4950 -0.3474 -0.7268
 1268SOL     OW15439   4.497   1.638   9.113  0.2377 -0.1004 -0.4536
 1268SOL    HW115440   4.487   1.547   9.140 -0.6880 -0.5673 -2.3513
 1268SOL    HW215441   4.411   1.668   9.143  0.1832 -1.3209  0.6054
 1269SOL     OW15442   3.416   4.018   7.280 -0.8423 -0.0661  0.1709
 1269SOL    HW115443   3.502   3.978   7.293 -0.4417  0.6308 -0.3428
 1269SOL    HW215444   3.360   3.950   7.317  0.2529 -0.1700  1.6461
 1270SOL     OW15445   3.007   1.096   3.500 -0.0135 -0.7528  0.4745
 1270SOL    HW115446   2.924   1.078   3.455  0.1113  0.1318 -0.1163
 1270SOL    HW215447   3.025   1.005   3.525 -1.0434 -1.1585 -0.2209
 1271SOL     OW15448   2.330   0.162   0.651 -0.0817 -0.3610 -0.2375
 1271SOL    HW115449   2.418   0.187   0.623 -0.4478  2.9419  1.6556
 1271SOL    HW215450   2.294   0.195   0.568  1.2015  0.2895 -0.5356
 1272SOL     OW15451   0.059   1.710   7.327  0.3451  0.2425 -0.7581
 1272SOL    HW115452   0.104   1.684   7.246 -1.3312 -3.0171 -0.6643
 1272SOL    HW215453   0.091   1.800   7.332 -2.7894  1.4180 -2.4812
 1273SOL     OW15454   2.365   3.120   3.615 -0.2355 -0.3719 -0.2482
 1273SOL    HW115455   2.344   3.210   3.590 -2.1662 -0.7794 -0.0879
 1273SOL    HW215456   2.281   3.081   3.592 -0.3939  0.6212 -1.3286
 1274SOL     OW15457   1.045   1.937   5.573  0.0969 -0.8323 -0.4180
 1274SOL    HW115458   0.995   1.855   5.577  1.3526 -1.5863 -0.0967
 1274SOL    HW215459   1.105   1.933   5.647 -1.3596  1.2063  0.8766
 1275SOL     OW15460   3.635   3.585   6.939  0.0558  0.2081  0.2624
 1275SOL    HW115461   3.614   3.578   6.845  3.7594  3.2514 -0.7887
 1275SOL    HW215462   3.634   3.492   6.962  1.5165  0.4061  1.1297
 1276SOL     OW15463   1.120   3.709   0.070  0.1280 -0.1903  0.1374
 1276SOL    HW115464   1.027   3.717   0.047  0.1188  0.3771  0.3630
 1276SOL    HW215465   1.147   3.800   0.054 -0.8250  0.3891  1.7518
 1277SOL     OW15466   1.019   1.296   8.636 -0.8711  0.2711  0.0473
 1277SOL    HW115467   0.985   1.379   8.602 -0.3173  0.3753 -0.2459
 1277SOL    HW215468   0.937   1.246   8.635 -0.1991 -0.9285  3.9297
 1278SOL     OW15469   2.891   1.347   8.993 -0.2476  0.6165  0.7522
 1278SOL    HW115470   2.810   1.297   9.003  0.3109 -0.6770 -1.2599
 1278SOL    HW215471   2.895   1.411   9.064  1.8687  0.1663  1.0468
 1279SOL     OW15472   0.882   1.517  12.428  0.0432  0.2814  0.4633
 1279SOL    HW115473   0.902   1.609  12.414  1.8537 -0.3460 -1.1034
 1279SOL    HW215474   0.845   1.496  12.342 -0.2797 -1.9126  1.1359
 1280SOL     OW15475   2.313   0.790   2.059 -1.1680  0.0114 -0.1317
 1280SOL    HW115476   2.272   0.871   2.088 -0.4357 -0.6585  2.7345
 1280SOL    HW215477   2.340   0.754   2.144  0.7294  2.6907  0.3895
 1281SOL     OW15478   3.499   2.170  10.891  0.5985 -0.4416 -0.5534
 1281SOL    HW115479   3.557   2.239  10.857  1.0793 -2.1795 -3.2117
 1281SOL    HW215480   3.426   2.225  10.921  0.7999 -0.3402 -0.2507
 1282SOL     OW15481   3.891   1.217  14.859 -0.6949 -0.1081 -0.1165
 1282SOL    HW115482   3.971   1.262  14.833 -1.6983  0.8468 -1.5482
 1282SOL    HW215483   3.839   1.285  14.903  1.3547  0.8282  0.8427
 1283SOL     OW15484   1.366   2.720  10.421  0.2314 -0.2427 -0.1784
 1283SOL    HW115485   1.454   2.756  10.429 -0.9946  2.5516  0.4911
 1283SOL    HW215486   1.377   2.625  10.416 -2.0626 -0.5480  0.5121
 1284SOL     OW15487   1.184   3.954   9.792 -0.7676 -0.2376 -0.2108
 1284SOL    HW115488   1.237   3.981   9.867 -1.2709  0.3351 -0.0660
 1284SOL    HW215489   1.099   3.969   9.833 -0.8792 -2.1301  0.2607
 1285SOL     OW15490   2.209   2.782   8.351 -0.1384 -0.2408  0.3077
 1285SOL    HW115491   2.169   2.832   8.280 -1.7689 -0.1605  1.2974
 1285SOL    HW215492   2.267   2.728   8.296  0.6828  0.2474  0.7006
 1286SOL     OW15493   2.355   0.485  11.077 -0.3183 -0.5582 -0.0071
 1286SOL    HW115494   2.424   0.445  11.024  1.9598  1.4615  1.4519
 1286SOL    HW215495   2.303   0.536  11.014 -1.1112  0.8053  1.7405
 1287SOL     OW15496   3.462   0.363   3.376 -0.2942  0.2301 -0.1444
 1287SOL    HW115497   3.367   0.368   3.371 -0.2931 -0.7462 -1.2245
 1287SOL    HW215498   3.474   0.269   3.385 -1.7541  0.0226 -0.3526
 1288SOL     OW15499   4.713   2.005   8.480  0.1655 -0.0727 -0.6916
 1288SOL    HW115500   0.067   2.004   8.472  0.2172 -0.1521 -0.0816
 1288SOL    HW215501   4.685   2.021   8.390 -0.8320  1.1809 -0.1644
 1289SOL     OW15502   1.553   1.631  10.347 -0.1540  0.0949 -0.3699
 1289SOL    HW115503   1.525   1.715  10.384 -2.0529 -1.3902  1.5705
 1289SOL    HW215504   1.540   1.655  10.256  2.1034  0.3234 -0.6418
 1290SOL     OW15505   2.274   2.664   9.057 -0.1669 -0.3024 -0.0789
 1290SOL    HW115506   2.282   2.569   9.059 -1.5398 -0.4322 -0.4910
 1290SOL    HW215507   2.280   2.674   8.962 -1.1967 -0.1976 -0.1321
 1291SOL     OW15508   0.364   4.005   3.365 -0.4834  0.1605 -0.1427
 1291SOL    HW115509   0.320   4.073   3.313  0.1366  1.5991  1.2216
 1291SOL    HW215510   0.369   3.933   3.301 -0.5122 -0.3630  0.4458
 1292SOL     OW15511   2.584   4.436   8.808 -0.0770  0.5177 -0.2256
 1292SOL    HW115512   2.599   4.491   8.885  0.5148  1.8724 -1.3048
 1292SOL    HW215513   2.512   4.485   8.768  0.1308  3.3674  2.8988
 1293SOL     OW15514   2.120   3.685  10.421 -0.0038  0.6991  0.3192
 1293SOL    HW115515   2.046   3.714  10.473 -0.3638 -2.0480  1.3421
 1293SOL    HW215516   2.151   3.762  10.373  3.4179  0.1424  1.6145
 1294SOL     OW15517   1.839   3.338  16.267  0.3120  0.1170 -0.7502
 1294SOL    HW115518   1.798   3.424  16.281 -0.0625  0.0329 -1.3340
 1294SOL    HW215519   1.932   3.362  16.268  0.4212 -0.3606  0.8080
 1295SOL     OW15520   2.824   2.829  17.654 -0.4526 -0.1428 -0.1009
 1295SOL    HW115521   2.897   2.886  17.676 -1.1480  0.1361  1.4523
 1295SOL    HW215522   2.756   2.895  17.639  0.2446  0.6238  0.0918
 1296SOL     OW15523   1.689   1.057   1.568 -0.3945  0.2558  0.0155
 1296SOL    HW115524   1.784   1.065   1.575 -0.5803  0.7011  2.1339
 1296SOL    HW215525   1.670   1.044   1.661  0.3446  0.8517  0.2479
 1297SOL     OW15526   0.664   1.411  13.628 -0.1702  0.5072  0.3175
 1297SOL    HW115527   0.595   1.475  13.646 -0.0350  0.7850 -0.1610
 1297SOL    HW215528   0.606   1.336  13.613  0.1391  0.9444 -3.1167
 1298SOL     OW15529   0.951   0.656   0.022 -0.5764  0.1180  0.9211
 1298SOL    HW115530   1.041   0.688   0.010  0.4821 -2.2936  2.2538
 1298SOL    HW215531   0.897   0.734   0.032 -0.4677  0.4347 -1.1400
 1299SOL     OW15532   0.327   3.482   8.871  0.1897  0.3507 -0.0563
 1299SOL    HW115533   0.272   3.444   8.939 -1.3123  1.2393 -0.8008
 1299SOL    HW215534   0.344   3.569   8.909  2.1328 -0.0264 -0.0334
 1300SOL     OW15535   1.026   0.358   7.627  0.7475 -0.2883 -0.3156
 1300SOL    HW115536   1.046   0.439   7.581  0.6756 -0.7175 -1.1076
 1300SOL    HW215537   0.952   0.383   7.681  1.1863 -1.0839  0.6515
 1301SOL     OW15538   3.732   2.107   5.332 -0.4512 -0.2606 -0.2524
 1301SOL    HW115539   3.779   2.029   5.302  0.8097  0.3401  0.1477
 1301SOL    HW215540   3.797   2.177   5.333 -0.0662 -0.6141 -0.4510
 1302SOL     OW15541   0.222   0.586   8.248 -0.2383  0.4407 -0.4822
 1302SOL    HW115542   0.303   0.538   8.229  0.7433  1.0408  2.1784
 1302SOL    HW215543   0.172   0.514   8.287  0.9115  1.5523  3.0268
 1303SOL     OW15544   0.074   2.647   2.688 -0.0912  0.2205  0.3294
 1303SOL    HW115545   0.071   2.569   2.633 -0.8332  0.0141  0.6612
 1303SOL    HW215546   4.720   2.658   2.698  0.1691  1.2200  1.7610
 1304SOL     OW15547   1.710   1.848   3.076 -0.6958  0.4883  0.0365
 1304SOL    HW115548   1.622   1.883   3.063 -0.3884  0.3080 -2.4417
 1304SOL    HW215549   1.769   1.916   3.046  0.5476 -0.5953  0.0329
 1305SOL     OW15550   3.083   4.400   1.052 -0.1205  0.3163 -0.4639
 1305SOL    HW115551   2.992   4.423   1.032 -0.6969 -0.1047  1.7443
 1305SOL    HW215552   3.079   4.395   1.147  2.2054 -1.7454 -0.4665
 1306SOL     OW15553   3.920   1.353   4.904  0.0423  0.0173  0.2108
 1306SOL    HW115554   3.850   1.418   4.908  0.6709  0.7166 -0.2393
 1306SOL    HW215555   3.952   1.360   4.814 -0.8215  2.4691  0.0788
 1307SOL     OW15556   2.940   1.103   7.870 -0.5910 -0.2090  0.0504
 1307SOL    HW115557   3.001   1.029   7.868  1.4555  1.4852  0.6268
 1307SOL    HW215558   2.967   1.151   7.948  2.9343 -4.1629  1.2861
 1308SOL     OW15559   0.766   0.393   5.148 -0.4131  0.0875 -0.3365
 1308SOL    HW115560   0.813   0.309   5.144 -0.1795  0.1760  0.4294
 1308SOL    HW215561   0.686   0.361   5.106 -0.3168 -0.0405 -0.4240
 1309SOL     OW15562   3.619   3.765  17.368 -0.4560  0.3953  0.4367
 1309SOL    HW115563   3.566   3.688  17.384  3.3654 -2.1735  0.7371
 1309SOL    HW215564   3.664   3.790  17.449 -2.2030 -0.9360  1.8175
 1310SOL     OW15565   1.088   4.596  15.050  0.3027 -0.3898  0.2973
 1310SOL    HW115566   1.144   4.671  15.067 -0.9969  0.8024 -0.7242
 1310SOL    HW215567   1.123   4.533  15.113 -0.5271  0.6857  1.8450
 1311SOL     OW15568   1.507   4.199   4.400  0.0101  0.0313  0.0644
 1311SOL    HW115569   1.507   4.139   4.326  0.2329 -0.5005  0.4993
 1311SOL    HW215570   1.469   4.281   4.368  0.5190  0.5016  0.6685
 1312SOL     OW15571   0.360   0.959   0.082  0.1049  0.3413  0.5628
 1312SOL    HW115572   0.312   1.009   0.016 -0.2661 -2.8344 -1.5760
 1312SOL    HW215573   0.345   1.023   0.151  1.5476  1.7239 -0.3792
 1313SOL     OW15574   0.394   4.400   2.274 -0.3337  0.3028 -0.1968
 1313SOL    HW115575   0.390   4.441   2.361 -1.3193  2.0097 -1.0445
 1313SOL    HW215576   0.382   4.308   2.300 -0.5061  0.6642  0.9873
 1314SOL     OW15577   1.052   0.367  17.392 -0.2006  0.0002 -0.1111
 1314SOL    HW115578   1.089   0.453  17.411  1.6366 -0.4303 -1.8665
 1314SOL    HW215579   0.960   0.387  17.410 -0.3920  1.0378 -2.1885
 1315SOL     OW15580   3.146   0.395   4.856  0.2989  0.9747 -0.3617
 1315SOL    HW115581   3.165   0.471   4.800  1.4302  0.7889 -0.2220
 1315SOL    HW215582   3.170   0.427   4.943  0.5382  0.3742 -0.2063
 1316SOL     OW15583   1.588   0.620   1.890  0.1409  0.2458  0.2478
 1316SOL    HW115584   1.564   0.657   1.806 -1.0375  0.1383  0.5419
 1316SOL    HW215585   1.503   0.586   1.916 -0.0972 -2.9114 -4.6966
 1317SOL     OW15586   3.422   3.650   3.496 -0.9415 -0.0310 -0.2992
 1317SOL    HW115587   3.419   3.589   3.570  0.7113 -2.8866 -2.5959
 1317SOL    HW215588   3.393   3.593   3.425 -1.6298 -0.0854  0.0207
 1318SOL     OW15589   2.829   1.101  12.574 -0.8884 -0.3670  0.1236
 1318SOL    HW115590   2.841   1.139  12.487  0.2728 -0.9365  0.0388
 1318SOL    HW215591   2.801   1.179  12.622  0.1992  0.7136 -0.9966
 1319SOL     OW15592   2.499   1.465   5.722 -0.7478 -0.0903  0.3812
 1319SOL    HW115593   2.455   1.499   5.799  0.7296  0.8207  0.8361
 1319SOL    HW215594   2.517   1.376   5.751  0.0161  0.2892  1.0700
 1320SOL     OW15595   3.735   2.824   4.649  0.3605 -0.4262  0.3086
 1320SOL    HW115596   3.668   2.885   4.679 -2.5931 -2.5015 -2.0769
 1320SOL    HW215597   3.713   2.803   4.558  2.4427  1.0543 -0.5335
 1321SOL     OW15598   0.427   2.184   2.937  0.3658 -0.0866 -0.4276
 1321SOL    HW115599   0.388   2.271   2.929  0.4697 -0.0734 -0.7755
 1321SOL    HW215600   0.445   2.183   3.031  3.3019  0.2445 -0.9838
 1322SOL     OW15601   3.704   3.127   0.427 -0.3201  0.0275  0.4238
 1322SOL    HW115602   3.660   3.044   0.446 -1.6379  0.1055 -2.2794
 1322SOL    HW215603   3.636   3.180   0.385  0.6590 -0.1244 -1.3394
 1323SOL     OW15604   1.303   1.203   1.371 -0.1976 -0.0755 -0.3222
 1323SOL    HW115605   1.383   1.150   1.371  0.7019  1.2633  0.0929
 1323SOL    HW215606   1.250   1.161   1.438 -0.6008 -1.0605 -1.2579
 1324SOL     OW15607   3.784   3.343   7.793  0.3126  0.1602  0.1011
 1324SOL    HW115608   3.848   3.407   7.821 -1.2243  1.8788 -0.3175
 1324SOL    HW215609   3.786   3.280   7.865  2.2312  0.7762  0.5615
 1325SOL     OW15610   2.699   1.240   3.100  0.0363  0.0866  0.2270
 1325SOL    HW115611   2.639   1.177   3.061 -2.7333  2.0153  1.4033
 1325SOL    HW215612   2.649   1.264   3.178 -1.8287 -1.7023 -0.4089
 1326SOL     OW15613   1.974   3.404   5.167 -0.0327 -0.0455  0.6656
 1326SOL    HW115614   2.060   3.393   5.128  1.3572  1.1471  3.4223
 1326SOL    HW215615   1.989   3.376   5.257  0.8311 -0.9244  0.2425
 1327SOL     OW15616   0.186   0.055   2.761  0.1923 -0.5164 -0.0601
 1327SOL    HW115617   0.234   4.740   2.699  1.4948  0.0353  0.4690
 1327SOL    HW215618   0.182   0.141   2.719 -1.9584 -0.2050  0.7556
 1328SOL     OW15619   2.680   1.405   8.275 -0.2825  0.0714 -0.1726
 1328SOL    HW115620   2.774   1.413   8.291 -0.4070  0.9550  0.1219
 1328SOL    HW215621   2.671   1.310   8.266 -0.0229  0.1072 -0.7952
 1329SOL     OW15622   1.564   2.043   4.607 -0.7652 -0.6732 -0.4290
 1329SOL    HW115623   1.475   2.074   4.592  0.0627  1.9951  0.1539
 1329SOL    HW215624   1.542   1.988   4.682  0.2639 -0.1232  0.2911
 1330SOL     OW15625   0.520   1.083   8.587  0.0612  0.3007  0.4819
 1330SOL    HW115626   0.492   1.059   8.499 -2.8200 -2.2874  2.1021
 1330SOL    HW215627   0.454   1.146   8.614  0.7428  1.6964 -1.1389
 1331SOL     OW15628   2.333   3.918   1.865  0.1033 -0.1385  0.1685
 1331SOL    HW115629   2.248   3.962   1.868 -0.2671 -0.6864 -2.2997
 1331SOL    HW215630   2.339   3.909   1.770 -0.3518  0.8823  0.0389
 1332SOL     OW15631   4.665   2.633  14.073  0.0746 -0.4018 -0.1515
 1332SOL    HW115632   4.708   2.633  14.158  1.2109 -1.7344 -0.7091
 1332SOL    HW215633   4.620   2.548  14.077  1.7716 -1.1570  2.8143
 1333SOL     OW15634   0.739   3.157  15.446 -0.7972  0.3487  0.5311
 1333SOL    HW115635   0.736   3.227  15.511 -1.6375 -0.6038  1.5241
 1333SOL    HW215636   0.665   3.106  15.480 -0.5229 -0.6760 -0.4299
 1334SOL     OW15637   1.370   1.478   5.737  0.4299  0.6294  0.5219
 1334SOL    HW115638   1.446   1.526   5.704 -0.6166  1.9965  0.0784
 1334SOL    HW215639   1.376   1.456   5.829  2.1144 -1.0934 -0.0121
 1335SOL     OW15640   1.466   3.089   5.241  0.0304 -0.0752  0.3612
 1335SOL    HW115641   1.473   3.165   5.299 -2.1535  1.6448 -1.6209
 1335SOL    HW215642   1.557   3.062   5.229  0.4873  0.9743  1.3522
 1336SOL     OW15643   4.058   3.330  12.373  0.1413 -0.0534  0.4019
 1336SOL    HW115644   4.064   3.425  12.358  1.0609  0.1109  1.8649
 1336SOL    HW215645   4.002   3.332  12.451  0.1573 -0.4586  0.4218
 1337SOL     OW15646   0.966   4.645   8.794  0.0636 -0.0414  0.0922
 1337SOL    HW115647   0.989   4.558   8.761 -1.2167 -0.7100  0.9697
 1337SOL    HW215648   0.986   4.643   8.888 -3.0317  0.6798  0.7572
 1338SOL     OW15649   1.478   1.573  13.748 -0.1968 -0.8063 -0.3093
 1338SOL    HW115650   1.384   1.565  13.766 -0.7046  0.2757 -2.4055
 1338SOL    HW215651   1.505   1.499  13.801  0.3434  0.3408  1.0084
 1339SOL     OW15652   0.978   0.738   1.482  0.6268  0.3773  0.4041
 1339SOL    HW115653   0.981   0.710   1.573 -2.1322 -0.4675  0.2285
 1339SOL    HW215654   1.041   0.679   1.440 -0.2162  1.7495 -2.8224
 1340SOL     OW15655   2.923   1.749   2.064  0.3972  0.3256 -0.3400
 1340SOL    HW115656   2.863   1.757   1.990 -0.9169 -1.8983  0.4779
 1340SOL    HW215657   2.865   1.763   2.138  0.8223  0.5420 -0.0486
 1341SOL     OW15658   1.542   1.315  12.116 -0.9271 -0.4896 -0.3257
 1341SOL    HW115659   1.467   1.261  12.140 -1.3535  0.5987  0.7489
 1341SOL    HW215660   1.616   1.274  12.161  0.8905  2.4200 -0.6846
 1342SOL     OW15661   0.236   2.856   2.550 -0.4969 -0.2409  0.4054
 1342SOL    HW115662   0.178   2.795   2.595 -0.5422 -0.7870 -0.3883
 1342SOL    HW215663   0.314   2.800   2.543  0.8028  1.7819 -1.4181
 1343SOL     OW15664   2.815   2.495  17.261 -0.2115  0.2911  0.3455
 1343SOL    HW115665   2.884   2.429  17.259 -1.5847 -1.1580  0.2682
 1343SOL    HW215666   2.744   2.443  17.222  0.1234  0.0396  0.0734
 1344SOL     OW15667   1.473   4.323   5.647  0.1489  0.3609 -0.2493
 1344SOL    HW115668   1.534   4.334   5.719 -0.3735  1.9856 -0.0507
 1344SOL    HW215669   1.468   4.407   5.600 -2.4366  0.5771  0.4368
 1345SOL     OW15670   0.079   1.045   3.484 -0.3376  0.1328  0.1374
 1345SOL    HW115671   0.110   1.095   3.409 -0.3560 -0.5373 -0.3153
 1345SOL    HW215672   0.133   1.082   3.554  0.8706 -0.2864 -0.5819
 1346SOL     OW15673   1.059   2.290   4.587 -0.2498 -0.1676  0.3188
 1346SOL    HW115674   0.966   2.268   4.590  0.2188 -2.4604 -1.8257
 1346SOL    HW215675   1.084   2.300   4.679  0.6257 -2.3063  0.3125
 1347SOL     OW15676   0.221   0.099  17.416 -0.5937  0.0715 -0.5114
 1347SOL    HW115677   0.205   0.159  17.344 -0.6991  2.2936  1.3406
 1347SOL    HW215678   0.297   0.140  17.459 -0.6445  0.0791 -0.4288
 1348SOL     OW15679   1.882   1.841   8.279 -0.2590 -0.0596  0.0332
 1348SOL    HW115680   1.915   1.876   8.196  2.1046  0.2442  1.0941
 1348SOL    HW215681   1.799   1.887   8.290 -0.2906 -0.6688  2.2928
 1349SOL     OW15682   4.044   2.554   6.912 -0.1735 -0.6145  0.0104
 1349SOL    HW115683   3.981   2.489   6.881 -2.6456  1.2141  1.2070
 1349SOL    HW215684   4.007   2.635   6.879 -2.3958 -1.2243  1.0248
 1350SOL     OW15685   0.044   2.941  14.212  0.3318  0.5962  0.7954
 1350SOL    HW115686   0.110   2.876  14.189 -1.7393 -1.0458 -0.4865
 1350SOL    HW215687   0.069   2.971  14.300  0.8301  1.3101  0.4084
 1351SOL     OW15688   1.323   4.531   1.196  0.0861  0.5250 -0.0677
 1351SOL    HW115689   1.357   4.480   1.269  0.5812 -0.4883 -0.9972
 1351SOL    HW215690   1.392   4.522   1.130  0.4684 -1.2726  0.5938
 1352SOL     OW15691   2.712   4.642   5.736 -0.5152  0.1578 -0.0383
 1352SOL    HW115692   2.692   4.695   5.659 -1.7439 -0.5792 -0.2237
 1352SOL    HW215693   2.680   4.559   5.701 -0.4305  1.0145 -2.1449
 1353SOL     OW15694   4.141   2.542   5.422  0.1854  0.1953  0.2529
 1353SOL    HW115695   4.110   2.632   5.433  0.3805  0.6582 -2.9713
 1353SOL    HW215696   4.127   2.534   5.328 -1.5081 -0.8876  0.5994
 1354SOL     OW15697   0.026   2.401   6.022 -0.0434  0.6926 -0.2393
 1354SOL    HW115698   0.121   2.401   6.035 -0.0803 -1.9901  0.0052
 1354SOL    HW215699   0.023   2.346   5.943 -2.7102 -0.2602  0.5214
 1355SOL     OW15700   0.451   2.800   8.478 -0.0592  0.3112 -0.3935
 1355SOL    HW115701   0.411   2.761   8.401  1.1867  2.1227 -1.9785
 1355SOL    HW215702   0.456   2.725   8.537  0.9381 -0.1796 -1.1139
 1356SOL     OW15703   1.706   4.328  12.508  0.1017  0.7140 -0.1892
 1356SOL    HW115704   1.772   4.305  12.573 -1.9593  0.1063  1.6617
 1356SOL    HW215705   1.705   4.423  12.518 -2.3281  0.7535 -0.7544
 1357SOL     OW15706   1.576   3.095   4.020 -0.9650  0.3707 -0.6840
 1357SOL    HW115707   1.494   3.143   4.016 -1.8767 -1.1786 -0.5181
 1357SOL    HW215708   1.580   3.054   3.934  1.2777  0.9640 -0.8800
 1358SOL     OW15709   4.738   2.623  16.704  0.3431  0.5894  0.5359
 1358SOL    HW115710   4.694   2.707  16.697  2.0456  1.5960  2.0682
 1358SOL    HW215711   4.652   2.580  16.710  0.3188  0.7129  1.0714
 1359SOL     OW15712   4.555   0.598   2.360 -0.1332  0.5665 -0.1198
 1359SOL    HW115713   4.540   0.559   2.274 -0.2234  0.7813 -0.2048
 1359SOL    HW215714   4.500   0.551   2.422  1.1899  0.8755  1.2619
 1360SOL     OW15715   1.519   2.302   7.786 -0.1629 -0.2391 -0.5253
 1360SOL    HW115716   1.533   2.225   7.731  0.3303 -0.4305 -0.1338
 1360SOL    HW215717   1.499   2.362   7.715  4.0417  0.3542 -1.2482
 1361SOL     OW15718   2.060   4.262   6.405  0.3498  0.5363  0.1734
 1361SOL    HW115719   2.070   4.352   6.376  3.3052  0.3070  0.4774
 1361SOL    HW215720   2.095   4.274   6.493  0.2124  1.0353  0.1561
 1362SOL     OW15721   2.257   3.507  11.986  0.7105  0.3457 -0.3479
 1362SOL    HW115722   2.244   3.443  12.056  0.2063  0.1137 -0.6557
 1362SOL    HW215723   2.177   3.518  11.935 -0.1410 -0.6961  0.7577
 1363SOL     OW15724   2.590   4.615   7.457 -0.2675  0.1990  0.0414
 1363SOL    HW115725   2.670   4.626   7.509 -0.4838  0.6495  0.2761
 1363SOL    HW215726   2.606   4.673   7.383  2.8810  0.9888  1.3137
 1364SOL     OW15727   0.442   4.542   7.210  0.0936  0.0684  0.4784
 1364SOL    HW115728   0.443   4.482   7.136  1.9099  0.1273  0.4665
 1364SOL    HW215729   0.415   4.488   7.284  0.4678  0.3151  0.7951
 1365SOL     OW15730   0.677   1.238  10.193 -0.2678 -0.1195  0.2356
 1365SOL    HW115731   0.715   1.212  10.277 -1.2473 -2.9214 -0.2024
 1365SOL    HW215732   0.594   1.194  10.211 -0.9968  0.8084 -0.8699
 1366SOL     OW15733   2.838   0.865   4.161  0.2771 -0.5591  0.4045
 1366SOL    HW115734   2.922   0.881   4.118 -0.0274 -1.9604 -0.6902
 1366SOL    HW215735   2.864   0.813   4.236 -0.3635  0.1690  1.1319
 1367SOL     OW15736   2.217   3.007   0.142 -0.2820  0.0207  0.1137
 1367SOL    HW115737   2.209   3.093   0.099 -1.2258 -0.0323  0.1684
 1367SOL    HW215738   2.206   3.029   0.234  2.3626 -0.6680  0.5804
 1368SOL     OW15739   0.248   1.002  12.117 -0.3372  0.3866 -0.1446
 1368SOL    HW115740   0.320   1.025  12.059 -0.5574  0.3920 -0.4148
 1368SOL    HW215741   0.186   1.066  12.081 -0.2833  0.0371 -0.8500
 1369SOL     OW15742   3.237   0.302   2.009 -0.1782  0.4047  0.1085
 1369SOL    HW115743   3.300   0.374   2.014 -0.9375  1.1871 -1.5972
 1369SOL    HW215744   3.283   0.225   2.045 -1.0902 -0.5939 -0.8495
 1370SOL     OW15745   1.376   1.677   3.449 -0.2105 -0.2755 -0.6037
 1370SOL    HW115746   1.297   1.648   3.493 -0.6441 -0.4565 -1.4979
 1370SOL    HW215747   1.403   1.605   3.391 -1.0455 -1.1329  0.0725
 1371SOL     OW15748   0.186   3.804   0.321 -0.4125 -0.5040 -0.1080
 1371SOL    HW115749   0.255   3.794   0.387  1.2431 -0.8850 -1.9056
 1371SOL    HW215750   0.139   3.878   0.359  2.2659 -0.2471  2.7754
 1372SOL     OW15751   1.419   3.566  17.252 -0.0178  0.0144 -0.0603
 1372SOL    HW115752   1.354   3.576  17.182  0.5054  2.6352 -0.1795
 1372SOL    HW215753   1.490   3.530  17.200  0.2858  0.5993 -0.0555
 1373SOL     OW15754   0.642   0.008  11.195 -0.5710  0.0240  0.2239
 1373SOL    HW115755   0.629   4.724  11.287 -2.8254  0.2702 -0.0305
 1373SOL    HW215756   0.679   0.095  11.213 -4.0633  1.4715  0.3056
 1374SOL     OW15757   0.991   2.947   9.818 -0.6544 -0.5982 -0.4514
 1374SOL    HW115758   1.059   2.884   9.794  1.0136  2.0871 -2.7046
 1374SOL    HW215759   1.003   2.958   9.912  1.3249 -1.4221 -0.6175
 1375SOL     OW15760   2.048   4.223   2.571 -0.6647 -0.5375 -0.4170
 1375SOL    HW115761   2.043   4.277   2.650 -0.3516  2.4983 -2.4908
 1375SOL    HW215762   2.111   4.276   2.522 -0.1217 -0.1591  0.6834
 1376SOL     OW15763   0.045   3.080   2.071  0.5954 -0.0943 -0.4839
 1376SOL    HW115764   0.075   3.098   2.160  3.2564 -0.3584 -1.3384
 1376SOL    HW215765   4.702   3.033   2.078  1.2597 -0.9188  1.7200
 1377SOL     OW15766   0.165   2.142   0.621  0.0389 -0.4381 -0.9842
 1377SOL    HW115767   0.196   2.162   0.709  2.0564 -0.8558 -1.6063
 1377SOL    HW215768   0.241   2.162   0.567  0.5154 -0.7205 -0.4164
 1378SOL     OW15769   0.581   2.706   5.854  0.4590 -0.5473 -1.2078
 1378SOL    HW115770   0.646   2.678   5.919  0.4692 -0.3282 -1.1228
 1378SOL    HW215771   0.503   2.673   5.899  1.2317  0.7168  1.0551
 1379SOL     OW15772   1.750   4.416   7.855 -0.0491 -0.1629 -0.0637
 1379SOL    HW115773   1.703   4.459   7.783  0.4681  1.6973  0.7090
 1379SOL    HW215774   1.687   4.348   7.880 -1.5846  1.5218  0.6598
 1380SOL     OW15775   1.721   0.330   3.734  0.2320  0.1737 -0.1031
 1380SOL    HW115776   1.748   0.255   3.787  0.8919  1.9187  2.0200
 1380SOL    HW215777   1.765   0.403   3.778  0.0750  0.7678 -0.9340
 1381SOL     OW15778   0.041   3.109   8.733  0.1730 -0.1782 -0.1126
 1381SOL    HW115779   0.007   3.033   8.687  1.2298 -0.3637 -0.5930
 1381SOL    HW215780   0.117   3.134   8.680  1.2797  0.7320  1.8821
 1382SOL     OW15781   1.880   0.799   1.696 -0.1427  0.1235  0.4282
 1382SOL    HW115782   1.921   0.757   1.621  0.0972  2.1521 -0.5750
 1382SOL    HW215783   1.947   0.800   1.764 -0.6184  0.3185  0.8977
 1383SOL     OW15784   0.612   2.401  13.587  0.4666 -0.2021  0.1224
 1383SOL    HW115785   0.537   2.350  13.617 -1.0436  1.8330 -0.1360
 1383SOL    HW215786   0.619   2.377  13.494 -0.1791 -0.0280  0.0262
 1384SOL     OW15787   2.102   3.161   7.454  0.2559 -0.1500 -0.3599
 1384SOL    HW115788   2.080   3.162   7.361 -0.1753  0.5218 -0.2516
 1384SOL    HW215789   2.186   3.208   7.455 -0.7353  1.5976  2.3650
 1385SOL     OW15790   3.652   3.907  10.691  0.0120  0.0043 -0.1854
 1385SOL    HW115791   3.602   3.960  10.754 -2.0131 -1.9823 -0.1263
 1385SOL    HW215792   3.731   3.893  10.743 -0.0235  2.7230  0.6128
 1386SOL     OW15793   4.142   1.385  10.874  0.2697  0.1878 -0.2849
 1386SOL    HW115794   4.115   1.308  10.925  0.3472  0.1249 -0.3381
 1386SOL    HW215795   4.196   1.354  10.801 -0.8528 -1.5288 -0.3921
 1387SOL     OW15796   1.848   0.235   4.416  0.6424  0.2673  0.5381
 1387SOL    HW115797   1.784   0.226   4.487 -1.2271  1.6430 -0.9624
 1387SOL    HW215798   1.920   0.177   4.441  1.9862  2.1028  0.9641
 1388SOL     OW15799   4.080   1.236   2.420  0.8565 -0.1504 -0.1194
 1388SOL    HW115800   4.114   1.210   2.334 -3.0061 -0.7120 -1.4937
 1388SOL    HW215801   4.167   1.237   2.459  1.0678 -0.2392 -0.5887
 1389SOL     OW15802   1.109   1.609   7.912 -0.2280 -0.2083 -0.3835
 1389SOL    HW115803   1.018   1.581   7.904 -0.3425 -0.2797  1.2025
 1389SOL    HW215804   1.153   1.525   7.921  0.4250  0.2249  0.6165
 1390SOL     OW15805   4.625   4.518   1.641  0.3332 -0.3189 -0.2886
 1390SOL    HW115806   4.628   4.589   1.577 -0.9903  0.1202  0.1407
 1390SOL    HW215807   4.570   4.458   1.590 -0.1644 -0.7875  0.8031
 1391SOL     OW15808   3.060   0.035   2.599 -0.5087 -0.0121 -0.2925
 1391SOL    HW115809   3.146   0.071   2.619 -0.4666 -0.4885  0.3652
 1391SOL    HW215810   3.007   0.114   2.583 -0.0287  0.8782  2.4576
 1392SOL     OW15811   4.319   2.780  14.086 -0.1169 -0.1355  0.1717
 1392SOL    HW115812   4.371   2.851  14.123  0.2178 -0.1576 -0.2519
 1392SOL    HW215813   4.291   2.808  13.999 -0.0385 -0.0580  0.1712
 1393SOL     OW15814   0.345   0.261  16.018  0.0095 -0.3432 -0.4277
 1393SOL    HW115815   0.389   0.228  15.940 -0.3316 -0.6395 -0.4930
 1393SOL    HW215816   0.344   0.177  16.063 -0.9482  1.3217  2.6440
 1394SOL     OW15817   0.483   3.143  16.324  0.1099 -0.0913  0.1520
 1394SOL    HW115818   0.530   3.070  16.364 -0.0233  0.1065  0.6836
 1394SOL    HW215819   0.419   3.100  16.267 -0.5740  2.0989 -0.7626
 1395SOL     OW15820   1.914   3.361  16.928  0.0880  0.1322 -0.5196
 1395SOL    HW115821   1.951   3.420  16.993  2.6378 -0.1180 -1.7331
 1395SOL    HW215822   1.830   3.348  16.971  0.1211 -1.0483 -0.8286
 1396SOL     OW15823   0.960   3.962   6.930  0.2310  0.4407 -0.0098
 1396SOL    HW115824   1.043   3.915   6.927  0.9240  1.5455  1.5040
 1396SOL    HW215825   0.937   3.960   6.838 -0.1191 -0.9749  0.1058
 1397SOL     OW15826   1.995   0.177   1.700  0.2819  0.2069 -0.3540
 1397SOL    HW115827   2.001   0.094   1.747  1.9192 -0.7499 -2.2336
 1397SOL    HW215828   2.026   0.246   1.759  0.0780 -0.9181  1.0666
 1398SOL     OW15829   0.057   1.164  12.008 -0.4109 -0.3421  0.2398
 1398SOL    HW115830   4.715   1.153  12.054 -0.4478  1.6607  0.6751
 1398SOL    HW215831   0.034   1.132  11.921 -1.7014  0.9146  0.1292
 1399SOL     OW15832   1.656   3.434   9.485  0.0437  0.0392 -0.2481
 1399SOL    HW115833   1.656   3.373   9.412  2.9916 -2.1812  1.6019
 1399SOL    HW215834   1.732   3.492   9.476 -0.4494  0.8896  1.0406
 1400SOL     OW15835   0.058   2.922   8.483  0.3751 -0.4220 -0.1773
 1400SOL    HW115836   0.038   2.829   8.497 -3.4624 -0.0035 -2.7924
 1400SOL    HW215837   4.711   2.960   8.489  0.9806  0.9255  0.1190
 1401SOL     OW15838   4.618   4.065  13.720 -0.0799 -0.1429  0.4369
 1401SOL    HW115839   4.667   3.997  13.674 -0.7301  0.8412 -1.7215
 1401SOL    HW215840   4.527   4.056  13.693  0.2076  0.7162 -0.7717
 1402SOL     OW15841   3.108   2.856   4.757 -0.1915  0.2810 -0.0148
 1402SOL    HW115842   3.139   2.946   4.746 -1.5664  0.6995 -0.4752
 1402SOL    HW215843   3.159   2.820   4.684  0.3858  0.9780  0.0396
 1403SOL     OW15844   1.278   2.306   3.618  0.2995  0.0137  0.2250
 1403SOL    HW115845   1.281   2.393   3.657 -2.7499 -0.4844  1.5787
 1403SOL    HW215846   1.295   2.242   3.687  2.2219  2.6330  2.1234
 1404SOL     OW15847   3.899   1.088  15.627  0.0623  0.2177 -0.0736
 1404SOL    HW115848   3.968   1.083  15.692 -0.5891 -1.1606  0.5004
 1404SOL    HW215849   3.956   1.100  15.550 -1.7830 -1.8813 -1.7745
 1405SOL     OW15850   0.401   3.714   4.419  0.0197 -0.1267  0.1321
 1405SOL    HW115851   0.456   3.636   4.417  0.4721  0.1333  2.6537
 1405SOL    HW215852   0.406   3.746   4.509  0.0137  0.1713  0.0263
 1406SOL     OW15853   2.172   4.710   2.224  0.7977  0.1688 -0.1101
 1406SOL    HW115854   2.245   4.735   2.167  1.4215  1.3527  1.2261
 1406SOL    HW215855   2.205   4.701   2.313 -0.3947 -0.2750  0.2874
 1407SOL     OW15856   3.264   0.941   5.788  0.5038 -0.3930  0.2533
 1407SOL    HW115857   3.322   1.000   5.838  0.2093 -1.2070  1.5714
 1407SOL    HW215858   3.293   0.962   5.699 -1.2969 -2.9040 -0.9226
 1408SOL     OW15859   2.216   3.411   5.752  0.8170  0.0196 -0.1061
 1408SOL    HW115860   2.128   3.440   5.731  0.8917 -1.0342 -1.8742
 1408SOL    HW215861   2.254   3.496   5.776  1.3344  0.0700 -1.1250
 1409SOL     OW15862   2.079   0.246   8.741 -0.8257  0.0426 -0.2871
 1409SOL    HW115863   2.105   0.178   8.680 -1.5212 -1.9145  1.6158
 1409SOL    HW215864   2.016   0.292   8.686 -2.0985 -1.0717  0.2426
 1410SOL     OW15865   2.058   0.728  14.269 -0.2361  0.2853  0.4235
 1410SOL    HW115866   2.028   0.810  14.230 -0.2253 -1.1795 -2.6579
 1410SOL    HW215867   1.995   0.669  14.228  0.8689 -0.2571 -0.5005
 1411SOL     OW15868   0.892   2.523   4.725  0.6021 -0.1193 -0.2045
 1411SOL    HW115869   0.976   2.479   4.714  1.7328  1.5585  1.4375
 1411SOL    HW215870   0.838   2.474   4.787  0.2334  2.8307  1.8317
 1412SOL     OW15871   0.932   3.130   4.398  0.2794  0.4582  0.6292
 1412SOL    HW115872   0.969   3.202   4.348  2.1197 -0.4599  0.6574
 1412SOL    HW215873   1.004   3.067   4.385 -0.7403 -0.1551 -2.1058
 1413SOL     OW15874   1.061   4.451   7.236 -0.1096 -0.2310  0.1407
 1413SOL    HW115875   0.974   4.413   7.222  0.5255 -1.8264  0.4261
 1413SOL    HW215876   1.044   4.544   7.249  1.6200 -0.0476  1.0128
 1414SOL     OW15877   3.212   3.091   4.712  0.1331  0.6697  0.5989
 1414SOL    HW115878   3.254   3.131   4.635  1.9426 -0.9577  0.7303
 1414SOL    HW215879   3.271   3.117   4.783  2.2828 -1.2823 -0.4744
 1415SOL     OW15880   2.820   1.629   7.372 -0.1371 -0.2137  0.0054
 1415SOL    HW115881   2.892   1.599   7.317  1.3800 -0.2821  2.0343
 1415SOL    HW215882   2.867   1.698   7.419 -0.6313  1.4516 -1.9311
 1416SOL     OW15883   0.707   2.976   1.529  0.3918 -0.1818 -0.2055
 1416SOL    HW115884   0.640   2.984   1.461 -1.3373 -0.6213  1.4401
 1416SOL    HW215885   0.701   2.884   1.554  1.7454 -0.4032 -0.7075
 1417SOL     OW15886   3.504   1.461   6.097 -1.1656  0.0980  0.4055
 1417SOL    HW115887   3.576   1.404   6.070 -0.2733  0.3728  2.2781
 1417SOL    HW215888   3.468   1.488   6.012  0.3513 -2.6995 -1.1456
 1418SOL     OW15889   2.102   1.595  11.393  0.4924 -0.0520  0.1367
 1418SOL    HW115890   2.017   1.560  11.368 -0.1337  1.4067  0.2154
 1418SOL    HW215891   2.097   1.690  11.409  1.6470 -0.0203  0.3402
 1419SOL     OW15892   4.241   1.170   4.882  0.1703  0.3489  0.0728
 1419SOL    HW115893   4.273   1.140   4.797  1.7324 -0.3410  0.9041
 1419SOL    HW215894   4.191   1.248   4.858  1.1337  0.6186 -1.0546
 1420SOL     OW15895   2.860   2.590  16.936 -0.7078 -0.5856  0.0421
 1420SOL    HW115896   2.935   2.558  16.986  0.1350  0.5017 -0.5163
 1420SOL    HW215897   2.839   2.666  16.990  0.8902 -0.9456  1.1565
 1421SOL     OW15898   0.960   0.744   3.452  0.1045  0.2218 -0.6113
 1421SOL    HW115899   1.011   0.687   3.511  2.0388  1.0391 -1.4933
 1421SOL    HW215900   0.957   0.822   3.508 -0.4057 -0.8576  0.8655
 1422SOL     OW15901   3.828   3.237   5.662  0.0747  0.0386  0.1944
 1422SOL    HW115902   3.923   3.230   5.652  0.0990  0.8521 -0.1040
 1422SOL    HW215903   3.803   3.319   5.620 -1.4594  0.4465  1.9384
 1423SOL     OW15904   0.465   3.734  10.496 -0.5029 -0.3636 -0.1939
 1423SOL    HW115905   0.533   3.802  10.486 -0.1272 -0.6309  0.5423
 1423SOL    HW215906   0.449   3.729  10.402  1.5220  0.2378 -0.5744
 1424SOL     OW15907   0.599   4.538  12.188 -0.5151  0.4040 -0.1509
 1424SOL    HW115908   0.678   4.591  12.196 -0.5489  0.3565  0.4977
 1424SOL    HW215909   0.598   4.496  12.274  1.8973  0.2677 -0.2116
 1425SOL     OW15910   2.976   0.433   4.621  0.1591 -0.0474 -0.0486
 1425SOL    HW115911   3.021   0.517   4.633  0.6271 -0.4729  1.1746
 1425SOL    HW215912   2.998   0.376   4.695 -1.3127  0.9552  1.1622
 1426SOL     OW15913   0.755   3.729  10.725 -0.3125 -0.1169 -0.1110
 1426SOL    HW115914   0.708   3.811  10.713  0.1213  0.2755  0.8493
 1426SOL    HW215915   0.844   3.745  10.693  0.4860 -2.2047  1.0137
 1427SOL     OW15916   0.658   2.116   1.294  0.1967 -0.0110  0.2009
 1427SOL    HW115917   0.672   2.211   1.295 -0.3363  0.0699  0.5831
 1427SOL    HW215918   0.574   2.103   1.251 -0.2146  1.9016  0.4077
 1428SOL     OW15919   1.553   3.652   3.089  0.2793  0.6998  0.1136
 1428SOL    HW115920   1.536   3.746   3.094 -1.2174  0.4589 -0.6647
 1428SOL    HW215921   1.639   3.657   3.131  0.2894  1.8829 -0.0437
 1429SOL     OW15922   0.019   3.485   5.484 -0.1517  0.1633 -0.1687
 1429SOL    HW115923   0.046   3.535   5.560 -0.3638 -0.1819  0.1319
 1429SOL    HW215924   4.699   3.431   5.535  1.9156 -1.9608  0.0088
 1430SOL     OW15925   4.215   4.056   5.904  0.4764 -0.7046  0.5140
 1430SOL    HW115926   4.179   4.028   5.988 -1.6917  0.8235  0.1039
 1430SOL    HW215927   4.136   4.054   5.850  1.3966  0.1734 -0.8564
 1431SOL     OW15928   4.561   3.659   2.438 -0.0369  0.2561  0.2051
 1431SOL    HW115929   4.562   3.627   2.528 -0.9725 -0.1714  0.0711
 1431SOL    HW215930   4.643   3.707   2.431  1.9306 -3.3601 -1.6756
 1432SOL     OW15931   3.277   3.013  10.263  0.3387  0.2699 -0.2787
 1432SOL    HW115932   3.195   3.012  10.313  0.1305  0.8069 -0.6050
 1432SOL    HW215933   3.321   2.939  10.304 -1.5096 -0.2519  0.7558
 1433SOL     OW15934   1.527   2.254   1.688  0.0411 -0.0682  0.2762
 1433SOL    HW115935   1.500   2.248   1.596  3.2752  1.2398 -0.7910
 1433SOL    HW215936   1.493   2.342   1.704  2.4251  0.8741  0.2876
 1434SOL     OW15937   1.629   1.984   8.329 -0.0167 -0.6710 -0.1433
 1434SOL    HW115938   1.646   2.060   8.273 -0.7672  1.3048  2.2719
 1434SOL    HW215939   1.540   1.996   8.362  0.1144 -2.6009  0.8881
 1435SOL     OW15940   0.749   1.094   2.168 -0.2592 -0.2077  0.5142
 1435SOL    HW115941   0.676   1.057   2.218 -1.1625  2.3795  1.1146
 1435SOL    HW215942   0.757   1.029   2.098  2.3632  0.2641  0.3782
 1436SOL     OW15943   1.474   2.872   3.156  0.4016  0.1630  0.0819
 1436SOL    HW115944   1.405   2.935   3.135 -0.3908 -1.4529 -2.0799
 1436SOL    HW215945   1.418   2.806   3.197 -1.9811  1.8379 -0.4588
 1437SOL     OW15946   4.240   0.148   7.164 -0.0185 -0.1803 -0.0453
 1437SOL    HW115947   4.321   0.144   7.214 -0.2085 -2.1630  0.1306
 1437SOL    HW215948   4.253   0.223   7.107  2.6796  0.0950  0.9596
 1438SOL     OW15949   4.240   1.132  13.180 -0.2091 -0.1112  0.6101
 1438SOL    HW115950   4.201   1.219  13.170 -1.4086 -1.0748 -2.9278
 1438SOL    HW215951   4.318   1.167  13.223 -1.1499  1.4958  1.0000
 1439SOL     OW15952   2.036   4.581  16.064  0.0216 -0.5598  0.4874
 1439SOL    HW115953   2.106   4.635  16.030  1.9653 -1.5232  2.9613
 1439SOL    HW215954   2.090   4.543  16.133  1.6525 -0.9753 -1.0312
 1440SOL     OW15955   2.860   4.348   4.614 -0.1523  0.0574  0.1612
 1440SOL    HW115956   2.850   4.395   4.531  0.3214  1.3182  0.8153
 1440SOL    HW215957   2.951   4.318   4.605  0.1194  1.7478 -2.8967
 1441SOL     OW15958   3.081   1.240   4.654  0.1728  0.1657  0.4001
 1441SOL    HW115959   3.030   1.235   4.735  0.5684 -1.7182  0.5387
 1441SOL    HW215960   3.076   1.335   4.642 -2.1875  0.4230  3.4646
 1442SOL     OW15961   2.355   2.352   6.682 -0.2831  0.0757  0.0628
 1442SOL    HW115962   2.322   2.266   6.655 -0.4362  0.3501 -0.6293
 1442SOL    HW215963   2.443   2.328   6.709 -0.9082 -0.6933  1.4511
 1443SOL     OW15964   0.813   0.022   3.903  0.0123  0.3358  0.1892
 1443SOL    HW115965   0.726   4.735   3.875  0.1334 -0.5656  0.7242
 1443SOL    HW215966   0.867   4.715   3.840  0.6915  2.1912 -0.6524
 1444SOL     OW15967   4.477   3.907   5.873  0.4722  0.4245  0.0985
 1444SOL    HW115968   4.406   3.971   5.882  0.0790 -0.1802  1.2680
 1444SOL    HW215969   4.450   3.851   5.800 -2.4082 -2.1585  3.1485
 1445SOL     OW15970   0.051   1.689   1.830  0.0194 -0.1343  0.0978
 1445SOL    HW115971   4.740   1.656   1.756 -0.8595  1.6861 -0.0871
 1445SOL    HW215972   0.050   1.619   1.895 -0.3295 -0.4959 -0.2963
 1446SOL     OW15973   3.616   1.271   4.895  0.6919 -0.1421  0.4204
 1446SOL    HW115974   3.661   1.348   4.860 -2.3544  1.3918 -0.1943
 1446SOL    HW215975   3.564   1.315   4.962  0.8955  0.4522  0.1914
 1447SOL     OW15976   4.118   2.073  13.844 -0.0298 -0.2071 -0.3327
 1447SOL    HW115977   4.099   2.039  13.757 -1.4061  2.2946 -0.9738
 1447SOL    HW215978   4.104   1.990  13.891 -0.6340 -0.0645 -0.2682
 1448SOL     OW15979   2.286   1.170   3.434  0.1123 -0.5100 -0.2440
 1448SOL    HW115980   2.225   1.137   3.368 -0.0706  0.1705 -0.4090
 1448SOL    HW215981   2.235   1.151   3.512  1.1506  2.2951  1.1159
 1449SOL     OW15982   1.189   0.002  11.868  0.1525 -0.5299  0.2956
 1449SOL    HW115983   1.166   4.665  11.920  0.5953 -0.2148  0.9607
 1449SOL    HW215984   1.100   0.020  11.838  1.3685 -0.9567 -3.6443
 1450SOL     OW15985   1.356   3.505   6.181 -0.1088 -0.0055 -0.1872
 1450SOL    HW115986   1.266   3.507   6.149 -0.4157 -2.0950  0.5929
 1450SOL    HW215987   1.364   3.422   6.227  0.2737  0.7661  1.1603
 1451SOL     OW15988   2.756   1.407   5.967  0.0210 -0.1726 -1.0791
 1451SOL    HW115989   2.664   1.391   5.947 -0.3396  1.4042 -0.6782
 1451SOL    HW215990   2.794   1.327   5.931  2.5879  0.5402  0.0155
 1452SOL     OW15991   2.254   3.740   0.006  0.6105  0.3215 -0.5288
 1452SOL    HW115992   2.173   3.691  17.750  1.4349 -1.7360  1.5269
 1452SOL    HW215993   2.225   3.807   0.067 -1.3554 -0.1970 -0.8776
 1453SOL     OW15994   2.070   0.697  12.370 -0.2345 -0.0540 -0.3251
 1453SOL    HW115995   1.991   0.643  12.373 -0.9982  1.0900  0.2498
 1453SOL    HW215996   2.035   0.786  12.358  0.4205  0.2517  0.0133
 1454SOL     OW15997   4.183   3.331   3.460  0.0116  0.8732  0.2266
 1454SOL    HW115998   4.223   3.284   3.386  0.4507  0.9788  0.3955
 1454SOL    HW215999   4.222   3.290   3.536  1.6297 -0.9478 -1.5829
 1455SOL     OW16000   0.505   1.877   7.932 -0.2746  0.6186  0.6099
 1455SOL    HW116001   0.467   1.909   7.851 -0.3528 -3.1232 -0.8285
 1455SOL    HW216002   0.546   1.796   7.902  2.9474  2.6205 -0.3911
 1456SOL     OW16003   3.971   3.523   9.153 -0.2871 -0.1050  0.2969
 1456SOL    HW116004   4.003   3.488   9.070 -1.3872 -1.2085  0.3381
 1456SOL    HW216005   3.904   3.584   9.122  0.1146 -0.4562 -1.2192
 1457SOL     OW16006   2.970   1.324   2.097  0.5921  0.4269  0.1572
 1457SOL    HW116007   2.916   1.263   2.147  0.9091  0.1094  0.1090
 1457SOL    HW216008   2.938   1.298   2.011  1.8358 -1.5013  0.2806
 1458SOL     OW16009   1.989   0.128   2.831  0.5144 -1.0155  0.5870
 1458SOL    HW116010   1.932   0.155   2.903  1.6776  1.5074  0.5573
 1458SOL    HW216011   1.933   0.150   2.756  3.3532  0.4878 -1.0859
 1459SOL     OW16012   2.035   4.400  12.440  0.4687 -0.0765  0.1134
 1459SOL    HW116013   2.019   4.484  12.397 -0.6470  0.1269  0.9293
 1459SOL    HW216014   2.051   4.338  12.368  0.3508  0.5496 -0.4508
 1460SOL     OW16015   0.088   4.681   6.923  0.2990  0.3986 -0.1532
 1460SOL    HW116016   0.136   4.669   6.841 -1.6311 -0.5459 -1.1545
 1460SOL    HW216017   0.125   0.017   6.968 -3.9197  1.6888  1.1332
 1461SOL     OW16018   0.246   1.948   8.472  0.6110  0.3294 -0.0567
 1461SOL    HW116019   0.341   1.938   8.462  0.8547  1.6159  0.9550
 1461SOL    HW216020   0.224   1.871   8.524 -0.9623  0.4081 -0.5952
 1462SOL     OW16021   2.878   2.006   6.294  0.6754  0.8945 -0.1785
 1462SOL    HW116022   2.938   1.933   6.281 -2.7167 -2.1576  1.0959
 1462SOL    HW216023   2.912   2.067   6.229  1.0272 -0.9655 -1.7406
 1463SOL     OW16024   2.704   3.465  14.445 -0.1538 -0.0497  0.5705
 1463SOL    HW116025   2.746   3.455  14.360  1.7875  0.2907  1.4838
 1463SOL    HW216026   2.722   3.383  14.491 -0.9144 -0.8536 -0.5628
 1464SOL     OW16027   3.691   0.375   5.473 -0.4885 -0.2322  0.2566
 1464SOL    HW116028   3.774   0.407   5.437 -0.2480 -0.0249  0.9942
 1464SOL    HW216029   3.651   0.462   5.466  0.3773  0.2617  1.3571
 1465SOL     OW16030   1.802   3.871   8.901  0.1888  0.3182  0.0495
 1465SOL    HW116031   1.755   3.948   8.868  4.2374  2.0627 -1.5876
 1465SOL    HW216032   1.839   3.894   8.986 -0.0900 -1.1378  0.5595
 1466SOL     OW16033   3.020   4.670   7.792  0.0092 -0.5078 -0.0544
 1466SOL    HW116034   2.968   4.593   7.814 -0.9953 -0.4446 -2.2177
 1466SOL    HW216035   3.001   4.685   7.700 -2.8048  1.3360  0.8120
 1467SOL     OW16036   4.281   0.211  11.275 -0.1974 -0.6412 -0.2715
 1467SOL    HW116037   4.213   0.271  11.306  0.9668  0.0640  0.9544
 1467SOL    HW216038   4.233   0.133  11.302 -1.8762  1.2402  2.1708
 1468SOL     OW16039   3.345   1.263  11.106  0.0112  0.7585 -0.1054
 1468SOL    HW116040   3.379   1.349  11.080  1.5252 -0.3984 -1.8821
 1468SOL    HW216041   3.252   1.276  11.086 -0.4666 -2.1546  0.2182
 1469SOL     OW16042   1.205   3.809   3.809 -0.0672 -0.6023  0.5158
 1469SOL    HW116043   1.196   3.800   3.714  1.1545  0.1938  0.3332
 1469SOL    HW216044   1.126   3.860   3.828 -2.2143 -2.6916 -2.6537
 1470SOL     OW16045   4.261   3.441  10.580 -0.2753 -0.5147  0.2308
 1470SOL    HW116046   4.191   3.408  10.524  1.1272 -0.8370 -1.3441
 1470SOL    HW216047   4.315   3.483  10.513 -1.0009 -3.7532 -2.3584
 1471SOL     OW16048   4.248   2.313   8.216  0.1754  0.1497 -0.4814
 1471SOL    HW116049   4.247   2.408   8.208 -2.2563 -0.0954 -3.3461
 1471SOL    HW216050   4.277   2.291   8.304 -0.9169  2.8055  0.5402
 1472SOL     OW16051   4.225   2.692  13.662 -0.5243 -0.2768  0.1680
 1472SOL    HW116052   4.184   2.693  13.748 -0.8814  1.1084 -0.0108
 1472SOL    HW216053   4.164   2.756  13.623 -0.5425  0.2103  0.9932
 1473SOL     OW16054   1.992   0.474   5.792 -0.6010 -0.4526  0.0711
 1473SOL    HW116055   1.999   0.527   5.713 -0.1986 -1.0920 -0.3202
 1473SOL    HW216056   1.924   0.515   5.845 -0.4196  1.2402 -1.0400
 1474SOL     OW16057   3.975   4.209  11.504 -0.2017 -0.2804  0.0939
 1474SOL    HW116058   3.950   4.294  11.470  0.1093 -0.6227 -0.9811
 1474SOL    HW216059   3.998   4.172  11.419 -1.8293  1.6178 -1.1479
 1475SOL     OW16060   1.791   0.246   3.000  0.2640  0.2403  0.5841
 1475SOL    HW116061   1.744   0.257   3.083  0.0444  0.9025  0.3725
 1475SOL    HW216062   1.820   0.336   2.993 -0.6672  0.4282 -0.9106
 1476SOL     OW16063   1.476   1.066  16.791  1.0811 -0.1849 -0.2145
 1476SOL    HW116064   1.522   1.019  16.722 -0.0150 -0.7685 -0.5388
 1476SOL    HW216065   1.525   1.149  16.784 -1.7710  1.4709 -0.3865
 1477SOL     OW16066   3.647   2.133  17.184  0.1711 -0.1442  0.1225
 1477SOL    HW116067   3.733   2.167  17.209 -1.4005  3.0973  1.1109
 1477SOL    HW216068   3.683   2.054  17.145  1.6318  0.1118  0.9649
 1478SOL     OW16069   3.901   0.690   1.319 -0.0673  0.2861  0.4850
 1478SOL    HW116070   3.872   0.752   1.386 -1.6508 -1.0301  0.9988
 1478SOL    HW216071   3.823   0.636   1.311  1.2128 -1.5350  0.3653
 1479SOL     OW16072   1.791   3.675   7.588 -0.1244  0.0582  0.6341
 1479SOL    HW116073   1.753   3.723   7.662 -1.3191  0.2803 -0.1269
 1479SOL    HW216074   1.886   3.680   7.602 -0.0403  0.5676 -0.1292
 1480SOL     OW16075   1.739   2.134   7.335 -0.4025  0.2859  0.2371
 1480SOL    HW116076   1.718   2.106   7.246  0.9700  0.0811 -0.0218
 1480SOL    HW216077   1.653   2.134   7.378  0.2452  1.3889  1.5102
 1481SOL     OW16078   3.012   2.518   1.775 -0.6316 -0.1334 -0.1561
 1481SOL    HW116079   2.971   2.550   1.695  0.2453  1.9480  0.2162
 1481SOL    HW216080   3.095   2.488   1.736  0.8522  0.1464  2.7803
 1482SOL     OW16081   3.164   0.612  13.032  0.3643  0.4349 -0.1642
 1482SOL    HW116082   3.111   0.557  13.090 -3.1180  3.4246 -0.5826
 1482SOL    HW216083   3.106   0.641  12.962  2.5329  1.0221 -1.7145
 1483SOL     OW16084   1.046   1.675   5.329 -0.3151  0.4121 -0.0091
 1483SOL    HW116085   0.997   1.739   5.380 -1.0918 -0.7697  0.7409
 1483SOL    HW216086   1.137   1.701   5.342 -0.4381  0.1531  1.3915
 1484SOL     OW16087   2.606   1.759  10.679  0.1036 -0.1733  0.0765
 1484SOL    HW116088   2.629   1.819  10.750 -0.2348 -3.1558  2.6972
 1484SOL    HW216089   2.586   1.822  10.610 -1.3512 -1.0466 -0.2985
 1485SOL     OW16090   0.635   4.404   5.725  0.6434  1.0246  0.4835
 1485SOL    HW116091   0.605   4.327   5.773  1.1048  0.4229 -0.1808
 1485SOL    HW216092   0.667   4.356   5.649 -1.9532  0.7088 -0.4069
 1486SOL     OW16093   4.015   0.562   2.201  0.2747  0.0421 -0.4273
 1486SOL    HW116094   4.082   0.512   2.154  1.7999  0.6511  1.1010
 1486SOL    HW216095   3.962   0.593   2.128 -0.7114  0.7319  0.5852
 1487SOL     OW16096   3.251   0.531  12.418  0.2155  0.5878 -0.3534
 1487SOL    HW116097   3.173   0.581  12.394  0.3267  0.6239 -0.6484
 1487SOL    HW216098   3.318   0.599  12.418 -0.4113  1.2219 -2.9381
 1488SOL     OW16099   0.818   3.875  15.458 -0.0830  0.3228  0.1662
 1488SOL    HW116100   0.774   3.908  15.380 -0.3400 -0.3226  0.0432
 1488SOL    HW216101   0.849   3.957  15.497 -0.1008 -0.4855  1.8777
 1489SOL     OW16102   1.876   3.065  13.635 -0.7732 -0.3422  0.1390
 1489SOL    HW116103   1.845   3.153  13.613 -3.3646 -1.8392 -2.2586
 1489SOL    HW216104   1.799   3.009  13.625 -1.1161  0.4226 -1.4898
 1490SOL     OW16105   1.085   2.472   7.705  0.3992 -0.5194  0.2094
 1490SOL    HW116106   1.103   2.566   7.707 -0.0160 -0.4059 -1.4478
 1490SOL    HW216107   1.120   2.445   7.791  0.3782  0.6188  0.5699
 1491SOL     OW16108   2.604   3.033   6.598  0.1328 -0.1524  0.1317
 1491SOL    HW116109   2.693   3.013   6.626  0.4442  0.2085 -0.5950
 1491SOL    HW216110   2.594   2.948   6.556  1.4145 -0.9035  1.3512
 1492SOL     OW16111   4.724   3.941   7.166 -0.1030  0.4935  0.5509
 1492SOL    HW116112   0.033   4.009   7.120  1.5001 -1.2494 -0.3188
 1492SOL    HW216113   4.715   3.983   7.252  1.5928 -1.2465  1.5794
 1493SOL     OW16114   2.336   4.058   9.953  0.2433  0.7658  0.3428
 1493SOL    HW116115   2.392   4.112   9.898 -1.8502  2.0061 -0.5624
 1493SOL    HW216116   2.403   3.990   9.965  0.1168  0.7386  0.9000
 1494SOL     OW16117   4.033   1.227  16.533  0.5953  0.0787 -0.3612
 1494SOL    HW116118   4.052   1.136  16.554  1.4867  0.0628 -1.2214
 1494SOL    HW216119   3.959   1.246  16.590  0.7284 -1.3998  0.3007
 1495SOL     OW16120   0.566   1.641  16.175  0.1722 -0.3764  0.6271
 1495SOL    HW116121   0.640   1.587  16.200 -0.7636 -0.9471  2.1606
 1495SOL    HW216122   0.551   1.626  16.082 -1.0273  0.0345  0.7522
 1496SOL     OW16123   3.437   4.378   2.895 -0.4860 -0.0663  0.8358
 1496SOL    HW116124   3.494   4.423   2.958  0.6948  0.1455 -0.3818
 1496SOL    HW216125   3.499   4.355   2.826 -1.0284  0.3333  0.2248
 1497SOL     OW16126   3.729   3.164   8.862 -0.0543  0.0222 -0.1227
 1497SOL    HW116127   3.693   3.101   8.801 -1.1296  0.0987  0.4252
 1497SOL    HW216128   3.789   3.209   8.803 -0.6925  0.6527 -0.2932
 1498SOL     OW16129   4.710   4.481  17.704 -0.6254  0.5293  0.9921
 1498SOL    HW116130   0.062   4.472  17.726 -0.7215 -0.7702  0.8456
 1498SOL    HW216131   4.714   4.558  17.647  0.3508  2.7855  4.1057
 1499SOL     OW16132   3.774   1.074   4.540 -0.1032  0.2745  0.1385
 1499SOL    HW116133   3.839   1.117   4.485 -1.0108  1.3812 -0.0637
 1499SOL    HW216134   3.799   0.984   4.518 -0.2570 -0.0750  1.3652
 1500SOL     OW16135   4.308   2.020   5.832 -0.0106 -0.2773 -0.2188
 1500SOL    HW116136   4.380   2.059   5.783  1.7805 -0.8020  1.9862
 1500SOL    HW216137   4.252   2.097   5.826 -0.3062 -0.4714  0.0810
 1501SOL     OW16138   2.679   4.386  13.604 -0.2409  0.1517  0.5278
 1501SOL    HW116139   2.647   4.476  13.600 -0.0220  0.2865  2.0480
 1501SOL    HW216140   2.707   4.381  13.512  3.2194 -1.3090  1.6627
 1502SOL     OW16141   1.048   2.954   9.115 -0.8948  0.1917  0.4858
 1502SOL    HW116142   1.010   2.988   9.196  0.0960  0.8393  0.6752
 1502SOL    HW216143   0.978   2.981   9.056  0.8684  1.1136 -1.2114
 1503SOL     OW16144   2.981   1.040  14.410  0.4289  0.1702  0.3647
 1503SOL    HW116145   3.071   1.052  14.439  1.0830 -2.1374 -0.6507
 1503SOL    HW216146   2.949   1.130  14.407 -0.5396 -0.1482  1.1317
 1504SOL     OW16147   1.672   2.299   6.268 -0.3243  0.1445 -0.0446
 1504SOL    HW116148   1.620   2.366   6.225 -0.4806  0.1482  0.1528
 1504SOL    HW216149   1.616   2.227   6.296 -1.4261  0.5453 -1.2502
 1505SOL     OW16150   2.720   2.520  15.177 -0.1483  0.2353 -0.0681
 1505SOL    HW116151   2.813   2.533  15.192 -0.0383 -0.3754 -0.2135
 1505SOL    HW216152   2.698   2.435  15.214  0.4549  0.0598 -0.1252
 1506SOL     OW16153   0.429   2.108   1.170  0.0308  0.0078 -0.3919
 1506SOL    HW116154   0.338   2.102   1.200 -0.3756 -0.5354 -1.7564
 1506SOL    HW216155   0.424   2.081   1.079 -1.0485 -1.5933  0.1509
 1507SOL     OW16156   4.232   3.060   9.058  0.0453  1.1425  0.2547
 1507SOL    HW116157   4.300   3.117   9.093  0.2653 -0.2356  2.0778
 1507SOL    HW216158   4.197   3.020   9.138  0.6520 -0.1881 -0.1411
 1508SOL     OW16159   1.073   2.749   2.612 -0.1144 -0.2859  0.6091
 1508SOL    HW116160   0.995   2.694   2.604 -0.2320 -0.1242  0.6395
 1508SOL    HW216161   1.077   2.798   2.531 -1.5011  1.8128  1.8127
 1509SOL     OW16162   0.444   4.592   5.756  0.7635  0.5476  0.1169
 1509SOL    HW116163   0.491   4.533   5.697  1.9480  0.5071  1.1001
 1509SOL    HW216164   0.518   4.612   5.812  0.8843 -0.9317  0.4840
 1510SOL     OW16165   1.470   3.043  16.388 -0.2613  0.4024 -0.1990
 1510SOL    HW116166   1.430   2.989  16.457  0.5480 -0.6546 -0.5488
 1510SOL    HW216167   1.542   2.982  16.370 -0.1893 -0.1869  2.0995
 1511SOL     OW16168   3.280   2.147   8.951  0.1803  0.1220  0.2655
 1511SOL    HW116169   3.204   2.152   8.892 -0.3977  0.6718  1.0510
 1511SOL    HW216170   3.266   2.073   9.010 -0.2639  0.4184  0.5401
 1512SOL     OW16171   4.598   4.092   2.987  0.1608 -0.0085  0.5143
 1512SOL    HW116172   4.612   4.070   2.895 -0.1745  2.4615 -0.1253
 1512SOL    HW216173   4.518   4.044   3.007  0.8670 -1.5121 -0.2615
 1513SOL     OW16174   1.468   2.513   1.659  0.3091 -0.3978 -0.2598
 1513SOL    HW116175   1.498   2.576   1.725  1.2817  0.2259 -1.2910
 1513SOL    HW216176   1.378   2.537   1.638 -0.6293 -0.1906  4.0116
 1514SOL     OW16177   2.267   0.372   1.986 -0.6198 -0.6289  0.0425
 1514SOL    HW116178   2.304   0.398   1.901  0.6492 -0.0390  0.7835
 1514SOL    HW216179   2.180   0.367   1.946  0.6342 -2.2895 -2.5143
 1515SOL     OW16180   0.423   3.539  12.411  0.4758 -0.1630 -0.1633
 1515SOL    HW116181   0.505   3.553  12.365  0.1541 -1.4290 -1.1182
 1515SOL    HW216182   0.448   3.493  12.492 -0.8095 -2.6502 -1.1533
 1516SOL     OW16183   2.723   1.794   2.257 -0.5929  0.1683 -0.1010
 1516SOL    HW116184   2.744   1.781   2.349 -0.4744  0.7334 -0.0492
 1516SOL    HW216185   2.628   1.780   2.253 -0.5006 -0.4036 -0.2381
 1517SOL     OW16186   2.965   2.703   4.920  0.0046  0.2765  0.4861
 1517SOL    HW116187   2.944   2.754   4.998  1.6527  0.7322  0.6289
 1517SOL    HW216188   3.024   2.762   4.875 -2.0370  1.2473 -0.9230
 1518SOL     OW16189   3.969   2.637   0.088 -0.2942 -0.1648 -0.3142
 1518SOL    HW116190   4.053   2.603   0.058  1.8413  3.5506  1.4513
 1518SOL    HW216191   3.987   2.644   0.182 -3.5570 -0.2352  0.3188
 1519SOL     OW16192   1.549   0.845   1.044  0.1539 -0.1917  0.4975
 1519SOL    HW116193   1.610   0.804   1.105 -2.2310 -1.0307  2.3137
 1519SOL    HW216194   1.568   0.939   1.047 -0.8930  0.1221 -2.5574
 1520SOL     OW16195   1.433   2.748   1.917  0.5179 -0.0644 -0.2419
 1520SOL    HW116196   1.460   2.661   1.945  0.9318 -0.4246 -1.7504
 1520SOL    HW216197   1.399   2.792   1.995  0.3881 -1.1325  0.2899
 1521SOL     OW16198   0.366   2.689   7.716  0.2299 -0.1095 -0.5003
 1521SOL    HW116199   0.330   2.750   7.652  1.3886 -0.6825 -1.6854
 1521SOL    HW216200   0.320   2.609   7.689 -1.4673  0.0390  1.9166
 1522SOL     OW16201   3.429   1.955  10.241 -0.4122  0.2582 -0.2972
 1522SOL    HW116202   3.393   1.884  10.294 -0.5097  1.0584  0.6985
 1522SOL    HW216203   3.396   1.930  10.154 -0.4456  2.0389 -0.7949
 1523SOL     OW16204   0.555   3.445   8.754  0.0234  0.2044 -0.0143
 1523SOL    HW116205   0.625   3.406   8.806 -0.3309 -0.0225  0.2942
 1523SOL    HW216206   0.476   3.438   8.807  0.1475 -1.0346 -0.0030
 1524SOL     OW16207   4.678   0.757   5.292  0.5603 -0.0379  0.0625
 1524SOL    HW116208   4.625   0.682   5.263 -0.8231  0.6564  0.7977
 1524SOL    HW216209   4.721   0.724   5.370 -2.0322 -4.0124 -0.1606
 1525SOL     OW16210   0.276   3.087   5.444  0.7088  0.0613 -0.2939
 1525SOL    HW116211   0.258   3.093   5.538  0.5454 -1.0352 -0.2595
 1525SOL    HW216212   0.325   3.169   5.439  0.6751  0.1834  1.3252
 1526SOL     OW16213   1.271   0.607   6.160 -0.1490 -0.1023  0.4432
 1526SOL    HW116214   1.344   0.548   6.177  1.6723  1.8675 -0.5574
 1526SOL    HW216215   1.270   0.589   6.066  0.5385 -1.4722  0.7029
 1527SOL     OW16216   0.361   3.881   6.926  0.3495  0.3745  0.0377
 1527SOL    HW116217   0.280   3.863   6.879  0.1529  2.1064 -0.2734
 1527SOL    HW216218   0.337   3.952   6.986 -1.2142 -0.1387  0.0096
 1528SOL     OW16219   1.007   3.983   7.881 -0.1708 -0.4037  0.0706
 1528SOL    HW116220   1.062   3.934   7.820 -0.5272  0.2641 -0.7842
 1528SOL    HW216221   0.965   3.910   7.927  1.9074 -1.9341 -0.4984
 1529SOL     OW16222   0.607   4.539  11.896 -0.0371 -0.3809  1.0003
 1529SOL    HW116223   0.587   4.518  11.987 -0.1446  0.1602  1.1002
 1529SOL    HW216224   0.616   4.450  11.862 -2.1436 -0.3463  0.3677
 1530SOL     OW16225   3.887   2.210   4.604  0.2571  0.3149  0.1178
 1530SOL    HW116226   3.839   2.143   4.554 -1.7099  1.8335 -0.0438
 1530SOL    HW216227   3.962   2.207   4.544  0.1958 -1.5846  0.1241
 1531SOL     OW16228   4.360   3.670  14.478  0.4770 -0.3244  0.2347
 1531SOL    HW116229   4.436   3.658  14.421  1.1527  1.6904  0.7136
 1531SOL    HW216230   4.365   3.583  14.517 -3.6900 -1.1729 -1.1997
 1532SOL     OW16231   4.344   1.751  13.723  0.1196 -0.0691  0.1224
 1532SOL    HW116232   4.276   1.694  13.686  1.4106 -0.8409 -1.0310
 1532SOL    HW216233   4.293   1.832  13.720 -1.4321 -0.9220  3.1345
 1533SOL     OW16234   3.829   1.492   6.796  0.4367  0.6990 -0.0693
 1533SOL    HW116235   3.805   1.421   6.855 -1.4603  0.9073 -0.6093
 1533SOL    HW216236   3.915   1.523   6.827  1.2634 -0.2823 -1.3855
 1534SOL     OW16237   2.107   1.731   2.221  0.0252  0.2026 -0.0400
 1534SOL    HW116238   2.124   1.824   2.206  1.1974  0.0879  0.5587
 1534SOL    HW216239   2.029   1.738   2.275  0.2522  2.3707  0.0306
 1535SOL     OW16240   2.459   2.630  14.153 -0.2892 -0.0261  0.5141
 1535SOL    HW116241   2.449   2.708  14.099 -2.1829  0.0181  0.9225
 1535SOL    HW216242   2.376   2.620  14.199  0.5069 -1.3320  1.6819
 1536SOL     OW16243   3.951   4.301   5.741  0.0557  0.1809  0.5186
 1536SOL    HW116244   3.888   4.346   5.685 -0.1250  0.0484  0.6149
 1536SOL    HW216245   4.016   4.264   5.681  0.0777 -1.3063  1.4389
 1537SOL     OW16246   1.555   0.117  14.296 -0.1830  0.4292  0.2288
 1537SOL    HW116247   1.511   0.185  14.347 -0.6006  0.3041  0.0351
 1537SOL    HW216248   1.486   0.083  14.239 -0.2744  0.5485  0.2696
 1538SOL     OW16249   0.611   3.253   8.306 -0.2566 -0.2789  0.3740
 1538SOL    HW116250   0.636   3.163   8.327  1.0776 -0.0694 -0.3085
 1538SOL    HW216251   0.533   3.261   8.361 -0.3573  1.0756  0.0233
 1539SOL     OW16252   0.906   0.856   6.310 -0.0241 -0.2680 -0.0505
 1539SOL    HW116253   0.882   0.949   6.310 -1.4111 -0.6263  3.1469
 1539SOL    HW216254   0.821   0.817   6.330  0.6780 -1.6968  0.1227
 1540SOL     OW16255   4.550   1.135   8.493 -0.4387 -0.2081  0.3769
 1540SOL    HW116256   4.527   1.227   8.481 -1.1659 -0.3051  1.0078
 1540SOL    HW216257   4.598   1.115   8.412  0.2798  0.0879  0.7328
 1541SOL     OW16258   2.239   1.096  16.594 -0.1033 -0.4661  0.5492
 1541SOL    HW116259   2.256   1.189  16.581 -1.0623 -0.2615  0.7602
 1541SOL    HW216260   2.144   1.096  16.599 -0.1230 -2.6947  0.3869
 1542SOL     OW16261   3.051   1.467   3.879  0.0894 -0.1080 -0.1434
 1542SOL    HW116262   3.141   1.489   3.857 -0.3363  0.1891 -1.5201
 1542SOL    HW216263   3.079   1.381   3.912 -2.1904 -0.3205  1.2791
 1543SOL     OW16264   3.799   1.710   2.607  0.3627  0.0165  0.3040
 1543SOL    HW116265   3.887   1.748   2.598 -0.5554  2.1279  0.4110
 1543SOL    HW216266   3.807   1.669   2.693  0.6566  1.0741  0.7826
 1544SOL     OW16267   1.927   0.866   3.922 -0.1596 -0.4272  0.2390
 1544SOL    HW116268   1.877   0.877   3.841  0.3544  0.6482  0.0666
 1544SOL    HW216269   1.949   0.959   3.929 -0.3072 -0.3600 -0.1868
 1545SOL     OW16270   3.195   3.101  16.084  0.6611 -0.4098  0.7513
 1545SOL    HW116271   3.115   3.117  16.035 -0.6028  0.2374  3.0115
 1545SOL    HW216272   3.271   3.155  16.065  1.4163 -0.9480  2.2228
 1546SOL     OW16273   1.527   1.626   5.548  0.6308  0.2025 -0.7374
 1546SOL    HW116274   1.616   1.628   5.584  0.2865  1.0031  0.0717
 1546SOL    HW216275   1.516   1.721   5.546 -2.2661 -0.1394 -0.7300
 1547SOL     OW16276   0.293   0.827   3.175  0.0651  0.1040  0.3480
 1547SOL    HW116277   0.213   0.800   3.220 -0.8987  1.1683 -0.7034
 1547SOL    HW216278   0.311   0.766   3.103 -2.3327  1.6778 -1.6088
 1548SOL     OW16279   1.254   3.247   2.592  0.5078  0.2430 -0.0374
 1548SOL    HW116280   1.320   3.233   2.660  0.2841  0.3306  0.1941
 1548SOL    HW216281   1.288   3.326   2.551 -3.3614  1.9326  0.0704
 1549SOL     OW16282   0.628   2.728   2.260  0.1537 -0.7338  0.6141
 1549SOL    HW116283   0.713   2.734   2.216 -0.4552 -0.2725 -0.5200
 1549SOL    HW216284   0.570   2.758   2.190  0.8439 -0.6350  0.0837
 1550SOL     OW16285   2.225   1.488   5.374 -0.2096  0.3736  0.4217
 1550SOL    HW116286   2.129   1.483   5.379 -0.1313  0.3122  1.7706
 1550SOL    HW216287   2.255   1.568   5.417  1.2422  0.3760 -0.5676
 1551SOL     OW16288   4.373   4.510  13.397 -0.5804 -0.1802 -0.1817
 1551SOL    HW116289   4.343   4.485  13.310 -1.2619  2.5002 -0.7112
 1551SOL    HW216290   4.337   4.438  13.450 -2.4657  0.0270 -1.1863
 1552SOL     OW16291   3.859   0.853  11.217 -0.1041  0.6930  0.2062
 1552SOL    HW116292   3.919   0.779  11.215  0.8975  1.5058 -0.0246
 1552SOL    HW216293   3.842   0.856  11.311 -0.5703 -1.5531  0.1818
 1553SOL     OW16294   0.767   2.054  17.344  0.4719 -0.0314 -0.1554
 1553SOL    HW116295   0.793   2.132  17.296 -0.7010  0.1650 -0.4726
 1553SOL    HW216296   0.803   2.075  17.430 -1.4666  2.8001 -0.0255
 1554SOL     OW16297   1.768   3.001   4.240 -0.2072 -0.2733 -0.2107
 1554SOL    HW116298   1.707   3.026   4.171  2.2062  1.4219 -1.7171
 1554SOL    HW216299   1.843   2.981   4.185 -0.9365  1.9721 -1.9949
 1555SOL     OW16300   0.140   2.689   7.158 -0.0304 -0.1726 -0.3313
 1555SOL    HW116301   0.183   2.757   7.107  0.0230  1.7333  2.2318
 1555SOL    HW216302   0.144   2.612   7.101 -2.5310 -1.6490  1.4942
 1556SOL     OW16303   4.679   2.664   5.560 -0.2557  0.5145  0.0479
 1556SOL    HW116304   4.704   2.704   5.477  0.5983 -1.5074 -0.6624
 1556SOL    HW216305   4.584   2.674   5.551 -0.4623 -1.1973  0.4535
 1557SOL     OW16306   2.680   0.145  13.210  0.3609  0.3343  1.1371
 1557SOL    HW116307   2.676   0.087  13.134 -2.0361  1.1889  0.6139
 1557SOL    HW216308   2.661   0.087  13.284 -0.4688 -1.7742 -0.7197
 1558SOL     OW16309   1.006   3.077   6.687 -0.5362 -0.0946  0.7508
 1558SOL    HW116310   0.960   3.105   6.608  0.4489 -0.5973 -0.0139
 1558SOL    HW216311   1.086   3.051   6.640 -0.3506 -2.1820  2.2009
 1559SOL     OW16312   2.030   2.097   5.995 -0.3870 -0.3265  0.1578
 1559SOL    HW116313   1.982   2.018   6.021 -0.5734 -1.1501 -2.7739
 1559SOL    HW216314   1.987   2.165   6.047 -2.1513 -0.5038 -1.0861
 1560SOL     OW16315   1.529   4.336   3.010 -0.1853 -0.1821  0.5967
 1560SOL    HW116316   1.559   4.383   3.087  1.3361 -0.3147  0.0763
 1560SOL    HW216317   1.461   4.289   3.058 -1.8869  0.8647 -0.7529
 1561SOL     OW16318   0.685   1.693  10.862 -0.3033  0.0105 -0.0207
 1561SOL    HW116319   0.751   1.736  10.808  0.0360  1.3715  1.5011
 1561SOL    HW216320   0.718   1.715  10.949  0.4881 -0.7689 -0.1298
 1562SOL     OW16321   1.020   0.339   2.528  0.2982 -0.0313  0.5919
 1562SOL    HW116322   0.940   0.374   2.488 -1.0774 -0.2842  3.1088
 1562SOL    HW216323   1.091   0.362   2.469 -0.1468 -0.9817 -0.3194
 1563SOL     OW16324   1.169   3.882  11.074 -0.1069  0.0042 -0.7237
 1563SOL    HW116325   1.179   3.867  10.980 -0.5644 -0.9627 -0.6193
 1563SOL    HW216326   1.236   3.950  11.087 -0.5395  0.7652 -2.3491
 1564SOL     OW16327   4.308   3.485   6.757  0.1530  1.0046  0.1505
 1564SOL    HW116328   4.254   3.505   6.834 -0.9318 -1.3012 -0.0101
 1564SOL    HW216329   4.388   3.535   6.773  1.4118 -0.4871 -1.5293
 1565SOL     OW16330   0.976   4.280   3.847 -0.0230 -0.2708 -0.0500
 1565SOL    HW116331   0.905   4.316   3.795 -0.1036  1.3585  1.1831
 1565SOL    HW216332   1.059   4.310   3.809 -0.9438 -0.4934 -2.2013
 1566SOL     OW16333   1.529   2.321   7.508  0.2585  0.0803  0.3890
 1566SOL    HW116334   1.445   2.355   7.480  0.0818  0.8968  1.9254
 1566SOL    HW216335   1.528   2.228   7.483 -2.4369 -0.2551  1.7328
 1567SOL     OW16336   1.999   3.837   6.054  0.2608 -0.0234  1.0430
 1567SOL    HW116337   1.953   3.800   6.129  0.1036 -1.2963  0.3217
 1567SOL    HW216338   2.041   3.919   6.081 -0.2539  0.3899  0.5714
 1568SOL     OW16339   0.257   1.578  13.766  0.4901 -0.2629  0.0742
 1568SOL    HW116340   0.351   1.586  13.754  0.9081 -0.3546  3.2133
 1568SOL    HW216341   0.246   1.486  13.740  2.0108 -0.5688  0.5289
 1569SOL     OW16342   4.223   1.223   4.201  0.3219 -0.2334 -0.5639
 1569SOL    HW116343   4.149   1.164   4.217 -0.3202  0.6581 -0.2189
 1569SOL    HW216344   4.176   1.298   4.166  1.8802  0.3612 -1.3808
 1570SOL     OW16345   4.557   3.128  13.923 -0.4919 -0.0435  0.5994
 1570SOL    HW116346   4.593   3.042  13.901 -1.6725 -1.0588  2.6386
 1570SOL    HW216347   4.574   3.174  13.840 -0.5808  1.3216  1.3419
 1571SOL     OW16348   1.347   3.594   7.170 -0.2345 -0.3501  0.3087
 1571SOL    HW116349   1.261   3.636   7.174  0.4918  1.2172 -0.6048
 1571SOL    HW216350   1.327   3.524   7.107 -0.1485 -0.0875 -0.0122
 1572SOL     OW16351   1.328   2.168   7.002  0.3927  0.0396 -0.4293
 1572SOL    HW116352   1.329   2.254   7.044  2.2596  0.0760 -0.5621
 1572SOL    HW216353   1.253   2.134   7.052  0.7300  2.5525  1.7985
 1573SOL     OW16354   0.108   0.811   8.847  0.1764  0.2539 -0.4301
 1573SOL    HW116355   0.092   0.854   8.763 -1.9716  2.1721  0.9893
 1573SOL    HW216356   0.184   0.866   8.869  0.4216 -0.0883 -0.4134
 1574SOL     OW16357   3.169   1.250  14.548 -0.4074  0.1926 -0.0690
 1574SOL    HW116358   3.096   1.289  14.501 -1.9308  0.1995  2.3030
 1574SOL    HW216359   3.236   1.318  14.553  0.3457 -0.5483  0.0395
 1575SOL     OW16360   2.897   2.402   5.115 -0.5941 -0.5191 -0.1825
 1575SOL    HW116361   2.977   2.418   5.164  0.3680 -0.9394 -1.6181
 1575SOL    HW216362   2.829   2.374   5.177 -1.6960 -0.4994 -1.3784
 1576SOL     OW16363   3.604   3.494   4.022 -0.5034 -0.1892 -0.2292
 1576SOL    HW116364   3.552   3.451   3.954 -1.1521  0.0056  0.1477
 1576SOL    HW216365   3.696   3.476   4.000 -0.4640 -0.4367  0.1407
 1577SOL     OW16366   1.113   2.387  14.834  0.1065 -0.7225 -0.0792
 1577SOL    HW116367   1.116   2.432  14.918 -0.8477 -0.0078 -0.4271
 1577SOL    HW216368   1.178   2.436  14.782 -2.5630  1.0977 -1.7001
 1578SOL     OW16369   4.489   2.746   3.497  0.2378  0.1956  0.2133
 1578SOL    HW116370   4.478   2.657   3.532 -2.7920  0.2464 -0.6116
 1578SOL    HW216371   4.545   2.724   3.422 -1.4839 -2.4245 -0.3184
 1579SOL     OW16372   4.117   3.115   3.186  0.0937 -0.1344 -0.5950
 1579SOL    HW116373   4.146   3.026   3.204  1.0450  0.2070 -0.4113
 1579SOL    HW216374   4.032   3.118   3.229  0.5263  2.6319  0.0624
 1580SOL     OW16375   0.133   3.684  17.161 -0.0657  0.5640  0.3458
 1580SOL    HW116376   0.166   3.751  17.100  1.8518  0.9205  1.7808
 1580SOL    HW216377   0.051   3.725  17.189 -0.4119 -0.0846  0.2661
 1581SOL     OW16378   4.557   1.259  10.453  0.6748  0.6415 -0.2041
 1581SOL    HW116379   4.547   1.268  10.358 -2.0560 -1.0587 -0.0860
 1581SOL    HW216380   4.468   1.235  10.480  0.3300 -0.2142 -2.1023
 1582SOL     OW16381   3.094   3.285  14.208 -0.2594  0.2080  0.5221
 1582SOL    HW116382   3.107   3.320  14.119 -2.3420  2.6865  1.1645
 1582SOL    HW216383   3.183   3.265  14.234  0.8716  2.3934 -1.6096
 1583SOL     OW16384   1.666   2.964   7.133 -0.7417  0.1642  0.1435
 1583SOL    HW116385   1.738   2.985   7.073  0.6713  0.8989  2.0892
 1583SOL    HW216386   1.672   3.045   7.185 -2.4974  0.0641  0.4732
 1584SOL     OW16387   3.018   3.078   6.264 -0.0938 -0.2822  0.0016
 1584SOL    HW116388   3.059   2.994   6.240 -1.6082 -0.4361 -2.0936
 1584SOL    HW216389   3.092   3.138   6.252 -0.5109  0.1171 -0.6008
 1585SOL     OW16390   2.465   2.063  10.118 -0.2701 -0.1037  1.0323
 1585SOL    HW116391   2.423   2.063  10.204 -0.1727 -1.2383  1.0817
 1585SOL    HW216392   2.555   2.036  10.138 -0.0494  0.3422  0.6311
 1586SOL     OW16393   3.293   1.374   8.166 -0.4627 -0.2157 -0.4566
 1586SOL    HW116394   3.332   1.343   8.084 -0.6070  0.0427 -0.6233
 1586SOL    HW216395   3.305   1.299   8.224 -0.6028 -1.6475 -2.2913
 1587SOL     OW16396   4.217   2.874   1.079 -0.1568 -0.2775  0.6424
 1587SOL    HW116397   4.208   2.848   0.987 -1.2137  0.7805  0.4504
 1587SOL    HW216398   4.260   2.960   1.069 -0.0725  0.0141  3.6945
 1588SOL     OW16399   4.503   4.694  12.898  0.0533  0.1684  0.0770
 1588SOL    HW116400   4.515   4.645  12.979  1.0799  1.7426  0.8715
 1588SOL    HW216401   4.573   4.662  12.842  0.8138  3.0540 -0.6293
 1589SOL     OW16402   3.922   1.993   1.477 -0.0600 -0.2678  0.2056
 1589SOL    HW116403   3.965   2.009   1.561  2.7567 -0.2488 -1.2327
 1589SOL    HW216404   3.887   2.081   1.462  1.0741  0.2509  0.5916
 1590SOL     OW16405   2.877   2.906  12.904 -0.3106  0.2570  0.5111
 1590SOL    HW116406   2.934   2.943  12.836 -0.5457 -0.3185 -0.0002
 1590SOL    HW216407   2.843   2.831  12.856 -1.5505  0.3274  1.2908
 1591SOL     OW16408   2.087   1.412   4.204 -0.5052  0.5008  0.6796
 1591SOL    HW116409   2.129   1.395   4.288  0.3930 -1.1930 -0.1090
 1591SOL    HW216410   2.138   1.349   4.154 -1.3205 -1.0403  1.7728
 1592SOL     OW16411   1.555   2.732  11.593 -0.1524  0.7396 -0.1400
 1592SOL    HW116412   1.552   2.815  11.641  0.7402  0.2494  0.7394
 1592SOL    HW216413   1.643   2.750  11.560  0.1024 -0.9623 -0.3622
 1593SOL     OW16414   1.042   4.661  15.387  0.2721  0.0040  0.1823
 1593SOL    HW116415   1.120   4.620  15.349  1.3239  1.4834  0.7462
 1593SOL    HW216416   1.097   4.703  15.454  0.2545  0.3603 -0.0306
 1594SOL     OW16417   1.660   0.123  16.975 -0.1680 -0.3514 -0.1910
 1594SOL    HW116418   1.609   0.197  16.943  0.9887  2.1769  3.8137
 1594SOL    HW216419   1.743   0.168  16.993 -0.9469  0.4632  1.2962
 1595SOL     OW16420   3.300   2.906  10.862  0.1864  0.0550  0.5376
 1595SOL    HW116421   3.366   2.974  10.876  0.7707 -0.7333  1.6747
 1595SOL    HW216422   3.356   2.829  10.876  0.0303  0.1087  1.5078
 1596SOL     OW16423   0.708   1.599  16.600  0.1067  0.1038  0.0283
 1596SOL    HW116424   0.760   1.648  16.664 -0.8627 -0.5511  1.3166
 1596SOL    HW216425   0.766   1.606  16.524  1.3589 -0.5835  0.9163
 1597SOL     OW16426   2.710   0.855  16.432 -0.5213 -0.5784  0.0058
 1597SOL    HW116427   2.657   0.780  16.408  1.1650 -0.9714 -2.5000
 1597SOL    HW216428   2.643   0.921  16.450  1.7110  2.0584 -1.0958
 1598SOL     OW16429   0.288   0.936   7.695  0.1527 -0.1270 -0.2329
 1598SOL    HW116430   0.194   0.937   7.710  0.4576  2.0696  1.4220
 1598SOL    HW216431   0.308   1.018   7.650  0.1611 -1.0029 -1.8328
 1599SOL     OW16432   1.627   0.318   3.196  1.0095 -0.2217 -0.3259
 1599SOL    HW116433   1.588   0.405   3.197  0.0008 -0.7036  1.3771
 1599SOL    HW216434   1.693   0.328   3.265  0.5798  3.9936 -0.5258
 1600SOL     OW16435   1.412   1.325   4.131 -0.3655  0.8754  0.2647
 1600SOL    HW116436   1.431   1.398   4.190  3.1580  0.2008 -0.0604
 1600SOL    HW216437   1.495   1.293   4.096  0.3720  1.6103  1.3448
 1601SOL     OW16438   0.502   1.227   5.559  0.4766 -0.6990 -0.2463
 1601SOL    HW116439   0.597   1.237   5.551  0.2520  1.4987 -0.1792
 1601SOL    HW216440   0.475   1.216   5.468  0.1892 -1.2259 -0.0987
 1602SOL     OW16441   4.121   1.052   6.091 -0.0811 -0.0341 -0.8106
 1602SOL    HW116442   4.206   1.096   6.087 -0.6467  1.0773 -0.7136
 1602SOL    HW216443   4.120   1.020   6.181 -0.3523  1.9537 -0.1000
 1603SOL     OW16444   2.252   1.261   6.891 -0.8908 -0.2844  0.1960
 1603SOL    HW116445   2.341   1.284   6.862 -0.9457  0.6187  0.7566
 1603SOL    HW216446   2.250   1.309   6.973  0.8375 -1.3098  0.8476
 1604SOL     OW16447   3.893   2.293  17.134  0.7592 -0.1197 -0.0063
 1604SOL    HW116448   3.950   2.357  17.091 -1.1802  2.1353  0.7881
 1604SOL    HW216449   3.827   2.354  17.168  0.7659 -0.8573  1.3290
 1605SOL     OW16450   4.200   1.864  12.434  0.1843 -0.0631  0.7794
 1605SOL    HW116451   4.225   1.886  12.344  2.6434 -1.7129  1.0773
 1605SOL    HW216452   4.281   1.825  12.466 -0.4021 -0.1489  2.1467
 1606SOL     OW16453   1.817   2.611  10.416  0.2941 -0.0738 -0.1072
 1606SOL    HW116454   1.749   2.558  10.375  0.5321 -1.1682  0.9322
 1606SOL    HW216455   1.891   2.587  10.361 -0.0221 -0.9007 -0.1670
 1607SOL     OW16456   4.662   0.533  15.929 -0.0850  0.6099 -0.1893
 1607SOL    HW116457   4.674   0.520  15.835  1.6180  1.9718 -0.1671
 1607SOL    HW216458   0.005   0.504  15.965 -2.0726 -1.6362  2.5926
 1608SOL     OW16459   1.355   1.537   8.151  0.0847 -0.5385  0.2934
 1608SOL    HW116460   1.416   1.466   8.173 -0.5830 -0.6440  1.8209
 1608SOL    HW216461   1.398   1.616   8.183  0.2510 -0.4782 -0.0795
 1609SOL     OW16462   3.689   1.084   3.484  0.2726  0.0852 -0.2478
 1609SOL    HW116463   3.709   1.074   3.391 -0.3926  1.3684 -0.5219
 1609SOL    HW216464   3.724   1.005   3.525 -0.6106 -1.1216 -1.8361
 1610SOL     OW16465   2.244   2.014   7.316  0.2986 -0.2852 -0.1287
 1610SOL    HW116466   2.240   2.095   7.267 -1.2346 -1.7573 -2.4584
 1610SOL    HW216467   2.155   2.022   7.352 -0.2041  0.9770 -1.7022
 1611SOL     OW16468   1.447   4.133   5.428 -0.4319 -0.4847 -0.1479
 1611SOL    HW116469   1.404   4.202   5.378 -0.3241 -0.1282  0.2526
 1611SOL    HW216470   1.457   4.175   5.514 -0.7923 -0.3717 -0.1619
 1612SOL     OW16471   3.092   2.167   4.135  0.0085 -0.1487  0.1982
 1612SOL    HW116472   3.084   2.195   4.226 -1.8215 -2.0269  0.6165
 1612SOL    HW216473   3.010   2.121   4.118  0.6127 -1.2518  0.2151
 1613SOL     OW16474   3.962   1.755   7.911 -0.4260 -0.2118  0.1181
 1613SOL    HW116475   3.869   1.738   7.892 -0.5145 -1.1563  1.4057
 1613SOL    HW216476   3.990   1.673   7.870 -2.1324  0.1109 -1.7440
 1614SOL     OW16477   2.494   3.814  16.114  0.3238  0.5879  0.8076
 1614SOL    HW116478   2.518   3.826  16.022  1.1525  3.0880  1.3501
 1614SOL    HW216479   2.577   3.845  16.150  0.4566  1.7846 -0.5529
 1615SOL     OW16480   3.227   2.572   5.897 -0.0796  0.8377 -0.3667
 1615SOL    HW116481   3.206   2.575   5.991 -0.2957 -0.0971 -0.3797
 1615SOL    HW216482   3.166   2.639   5.866 -2.5433 -0.4228  1.7322
 1616SOL     OW16483   3.225   0.733   2.026  0.1939  0.2327 -0.5304
 1616SOL    HW116484   3.167   0.678   2.079  2.3220 -1.7922 -0.2710
 1616SOL    HW216485   3.247   0.807   2.082 -1.5759  0.1683  0.2328
 1617SOL     OW16486   2.668   2.458  15.925 -0.1470 -0.5137 -0.4631
 1617SOL    HW116487   2.737   2.395  15.905  1.1654  0.8044 -0.0836
 1617SOL    HW216488   2.615   2.406  15.986  0.5292 -0.9450 -0.2419
 1618SOL     OW16489   3.064   2.481  17.052 -0.4151  0.0963  0.6415
 1618SOL    HW116490   3.120   2.403  17.053  0.6433  0.8476 -0.4204
 1618SOL    HW216491   3.127   2.552  17.059 -0.6246  0.2574  0.8669
 1619SOL     OW16492   4.417   3.685  15.479 -0.3470  0.1734 -0.2755
 1619SOL    HW116493   4.457   3.605  15.514  0.3794  1.5414  1.9946
 1619SOL    HW216494   4.477   3.707  15.409 -0.8401 -1.1988 -1.1368
 1620SOL     OW16495   1.077   1.579   6.052 -0.2918  0.3555 -0.0286
 1620SOL    HW116496   1.021   1.562   5.976  0.2192  1.4975 -0.6639
 1620SOL    HW216497   1.163   1.590   6.011  0.3523  4.0169  2.2702
 1621SOL     OW16498   4.201   0.464   7.162 -0.5354  0.1517 -0.3009
 1621SOL    HW116499   4.244   0.504   7.086  0.9176 -0.2556  0.3024
 1621SOL    HW216500   4.251   0.508   7.231  0.7164 -2.2891  0.3656
 1622SOL     OW16501   2.545   2.303   7.112 -0.2768  0.4125 -0.0929
 1622SOL    HW116502   2.460   2.265   7.091  0.2897 -0.8767 -0.0675
 1622SOL    HW216503   2.604   2.243   7.066  0.5362  1.1110  0.0394
 1623SOL     OW16504   4.722   0.225   3.823  0.2279  0.8084  1.0574
 1623SOL    HW116505   4.668   0.286   3.773  0.0988  0.7597  1.1364
 1623SOL    HW216506   0.016   0.265   3.902  0.7711  1.9484  0.2372
 1624SOL     OW16507   0.582   0.588   7.787 -0.3616  0.3279  0.7883
 1624SOL    HW116508   0.626   0.665   7.823  2.4329  1.0747 -4.1150
 1624SOL    HW216509   0.602   0.522   7.853  0.7242  1.4728  1.6073
 1625SOL     OW16510   1.452   4.016  12.748 -0.2696 -0.3470 -0.2248
 1625SOL    HW116511   1.487   3.932  12.778 -1.6186 -0.6539  0.4956
 1625SOL    HW216512   1.359   3.996  12.762 -0.7025  0.8012 -1.5452
 1626SOL     OW16513   0.663   0.648   6.648 -0.1725  0.4712 -0.0464
 1626SOL    HW116514   0.690   0.725   6.698  2.3114  0.7490 -1.8103
 1626SOL    HW216515   0.740   0.592   6.662  0.0593  0.2347 -2.2097
 1627SOL     OW16516   1.570   1.788  15.351 -0.1953 -0.0139  0.8662
 1627SOL    HW116517   1.559   1.869  15.401  1.5063  1.1374 -0.6263
 1627SOL    HW216518   1.478   1.770  15.335  0.0370  0.7045 -1.2028
 1628SOL     OW16519   1.683   3.942  12.504 -0.3348  0.8019  0.1054
 1628SOL    HW116520   1.676   3.869  12.442  1.5734  1.4212 -0.8791
 1628SOL    HW216521   1.596   3.981  12.509 -1.2677 -1.5792  2.4053
 1629SOL     OW16522   0.416   3.446   7.123  0.8116  0.3022 -0.1476
 1629SOL    HW116523   0.496   3.395   7.111 -0.2408 -1.3866 -0.0665
 1629SOL    HW216524   0.401   3.483   7.036 -0.0617  0.4318  0.0575
 1630SOL     OW16525   4.048   4.205   4.984 -0.6061  0.3194  0.2851
 1630SOL    HW116526   3.970   4.190   4.929 -1.3507  1.5408  1.0214
 1630SOL    HW216527   4.025   4.283   5.034 -0.4984  1.9262 -2.1429
 1631SOL     OW16528   1.941   4.683   8.257 -0.0458 -0.1051  0.3750
 1631SOL    HW116529   1.945   4.590   8.232 -2.2079 -0.4253  1.2161
 1631SOL    HW216530   2.006   4.718   8.196  1.0207 -1.5778  0.6770
 1632SOL     OW16531   3.297   3.743   3.044 -0.1725 -0.4303 -0.3677
 1632SOL    HW116532   3.216   3.782   3.012 -0.8542 -0.8036  0.9408
 1632SOL    HW216533   3.353   3.816   3.073  0.2135 -0.4980 -0.9396
 1633SOL     OW16534   0.099   1.628   4.163  0.3172  0.1481  0.0280
 1633SOL    HW116535   0.057   1.558   4.213  0.7903  1.0869  1.7468
 1633SOL    HW216536   0.164   1.658   4.227  0.4089  1.0047 -0.4553
 1634SOL     OW16537   0.118   3.145   9.733 -0.1604 -0.1494 -0.0214
 1634SOL    HW116538   0.162   3.198   9.799  1.3474 -0.3749 -0.8450
 1634SOL    HW216539   0.065   3.205   9.681  0.9784 -1.0209 -2.1796
 1635SOL     OW16540   2.801   1.668   4.437 -0.0558 -0.0667  0.1207
 1635SOL    HW116541   2.730   1.729   4.416 -0.1468 -0.6493 -1.2732
 1635SOL    HW216542   2.868   1.722   4.395 -0.3189 -1.4422 -2.1003
 1636SOL     OW16543   2.580   4.456   7.808 -0.5824  0.2591  0.0958
 1636SOL    HW116544   2.555   4.390   7.873  0.3770  1.3732  1.5825
 1636SOL    HW216545   2.496   4.486   7.773 -0.1038 -0.5603 -1.8111
 1637SOL     OW16546   3.050   2.115   1.702 -0.8666  0.0622  0.4186
 1637SOL    HW116547   3.039   2.124   1.607 -0.8326  0.9541  0.5005
 1637SOL    HW216548   3.118   2.179   1.725 -0.0445 -0.6572  0.0092
 1638SOL     OW16549   4.564   2.461   2.217  0.9292  0.4294  0.0011
 1638SOL    HW116550   4.584   2.381   2.168  1.0554 -0.0712  0.8645
 1638SOL    HW216551   4.525   2.517   2.150 -1.2578 -1.2161 -0.1177
 1639SOL     OW16552   2.187   1.286   7.967 -0.1073 -0.4212 -0.4959
 1639SOL    HW116553   2.186   1.286   7.872  0.3833  0.6567 -0.4975
 1639SOL    HW216554   2.281   1.275   7.985 -0.1956  0.2339  0.3557
 1640SOL     OW16555   1.072   4.118   5.207 -0.1831  0.0019  0.1636
 1640SOL    HW116556   1.041   4.058   5.275 -0.2774  2.6634  2.4751
 1640SOL    HW216557   1.041   4.067   5.132 -0.5526 -1.8289  1.5338
 1641SOL     OW16558   2.636   1.848   5.665 -0.1527  0.6178  0.6935
 1641SOL    HW116559   2.561   1.858   5.724 -1.8731 -1.7563 -1.0994
 1641SOL    HW216560   2.665   1.757   5.674  0.0472  0.5035 -1.0880
 1642SOL     OW16561   1.850   4.181   3.064 -0.7314  0.1802 -0.0594
 1642SOL    HW116562   1.830   4.228   3.145 -0.2192  2.0924 -1.0516
 1642SOL    HW216563   1.769   4.180   3.012 -0.3744  0.5025 -0.6282
 1643SOL     OW16564   2.083   2.534  15.762  0.0519  0.7124  0.4060
 1643SOL    HW116565   2.176   2.511  15.767 -0.1777 -0.4025 -0.6354
 1643SOL    HW216566   2.090   2.629  15.768  1.5696  0.7243 -1.5819
 1644SOL     OW16567   4.036   0.303   1.580 -0.0997  0.1487  0.0447
 1644SOL    HW116568   4.036   0.312   1.485 -0.3159  1.4706  0.1721
 1644SOL    HW216569   3.963   0.247   1.607 -1.9373  1.2339 -2.7625
 1645SOL     OW16570   2.685   3.764   2.566  0.2670 -0.1070  0.3433
 1645SOL    HW116571   2.688   3.829   2.495 -1.2289 -0.0054  0.3807
 1645SOL    HW216572   2.775   3.777   2.597 -0.4585  1.7726  1.7231
 1646SOL     OW16573   3.908   3.341   6.953  0.3384  0.0858 -0.8411
 1646SOL    HW116574   3.874   3.375   6.870  1.2686  1.2425 -0.7478
 1646SOL    HW216575   3.862   3.257   6.954  1.1747 -0.3324  0.9251
 1647SOL     OW16576   0.750   0.480   6.898 -0.0521 -0.4912  0.2453
 1647SOL    HW116577   0.666   0.443   6.926 -0.2752 -0.2275 -0.0795
 1647SOL    HW216578   0.745   0.555   6.958  1.6753 -0.1108 -0.1107
 1648SOL     OW16579   1.351   0.134   6.822  0.5358  0.0475 -0.3567
 1648SOL    HW116580   1.413   0.158   6.891 -1.0113  1.8920  0.4255
 1648SOL    HW216581   1.339   0.039   6.815  0.4110  0.0401 -0.0407
 1649SOL     OW16582   0.018   1.528   1.210 -0.8626 -0.7932  0.4135
 1649SOL    HW116583   0.021   1.605   1.153 -0.7280 -0.1879  1.2293
 1649SOL    HW216584   4.668   1.498   1.206 -1.5874  1.2933  1.2279
 1650SOL     OW16585   4.705   1.277   5.225  0.2347 -0.2133 -0.0638
 1650SOL    HW116586   4.660   1.226   5.157  1.7919  0.4205 -1.5780
 1650SOL    HW216587   4.705   1.368   5.194  0.4837 -1.6345 -4.2969
 1651SOL     OW16588   1.175   3.516  14.859  0.7478  0.1324  0.5437
 1651SOL    HW116589   1.135   3.538  14.942 -1.4786 -0.5557 -0.3599
 1651SOL    HW216590   1.107   3.463  14.818  0.8322  1.5951 -1.5123
 1652SOL     OW16591   3.605   2.344   6.188 -0.0479  0.4628 -0.2952
 1652SOL    HW116592   3.622   2.251   6.198  1.2090  1.0526  3.0684
 1652SOL    HW216593   3.529   2.337   6.130  1.1841  0.3184 -1.9121
 1653SOL     OW16594   3.387   2.258  14.806  0.0945  0.3805 -0.6206
 1653SOL    HW116595   3.339   2.291  14.730 -1.0537  0.8022  0.2818
 1653SOL    HW216596   3.420   2.340  14.843 -0.8964  0.3710  0.3098
 1654SOL     OW16597   0.273   4.458   6.850  0.2097  0.0736  0.3790
 1654SOL    HW116598   0.362   4.437   6.821 -0.3788 -0.8010 -0.8373
 1654SOL    HW216599   0.234   4.513   6.782 -0.2993 -1.3534 -0.4905
 1655SOL     OW16600   0.090   0.695   7.729  0.4818 -0.2454 -0.3543
 1655SOL    HW116601   0.173   0.667   7.768  0.1787 -0.1975  0.3247
 1655SOL    HW216602   0.072   0.628   7.663  2.0195 -1.3776  0.3679
 1656SOL     OW16603   0.783   3.192   2.976 -0.5656  0.3370 -0.1443
 1656SOL    HW116604   0.781   3.188   2.880  1.6011 -2.8413 -0.0348
 1656SOL    HW216605   0.733   3.273   2.988  1.2640  1.5635 -0.8664
 1657SOL     OW16606   1.739   1.221   7.604 -0.0948 -0.1846 -0.5565
 1657SOL    HW116607   1.835   1.217   7.601 -0.1043 -0.7572 -0.1291
 1657SOL    HW216608   1.712   1.162   7.675  0.3175  0.2180 -0.0592
 1658SOL     OW16609   2.195   0.355   1.151  0.3658  0.1747  0.1799
 1658SOL    HW116610   2.212   0.357   1.056  4.5679  0.2789  0.9383
 1658SOL    HW216611   2.202   0.264   1.176  0.9326  0.4006  0.8314
 1659SOL     OW16612   2.714   4.093   5.014 -0.5048 -0.0510 -0.1629
 1659SOL    HW116613   2.638   4.041   4.987  0.6013 -1.4826 -0.5284
 1659SOL    HW216614   2.716   4.155   4.940 -1.3855  2.4995  1.9466
 1660SOL     OW16615   1.318   0.088  15.794 -0.0746 -0.3205 -0.2559
 1660SOL    HW116616   1.394   0.108  15.847 -1.7203  1.5974  1.3565
 1660SOL    HW216617   1.269   0.169  15.805 -1.1205 -0.8339 -1.0960
 1661SOL     OW16618   0.288   1.641   9.699  0.1520  0.2499  0.2020
 1661SOL    HW116619   0.250   1.724   9.667  2.1383  1.3011  0.5843
 1661SOL    HW216620   0.285   1.647   9.794 -1.7604 -2.5169  0.3136
 1662SOL     OW16621   2.275   3.409   0.480 -0.1390 -0.5802  0.4225
 1662SOL    HW116622   2.304   3.439   0.394  3.7223  1.0919  2.3230
 1662SOL    HW216623   2.354   3.376   0.523 -0.6963 -0.8427  1.2558
 1663SOL     OW16624   2.881   3.835   5.703  0.3306  0.7357  0.2748
 1663SOL    HW116625   2.915   3.852   5.615 -1.5737 -0.8889 -0.7820
 1663SOL    HW216626   2.790   3.811   5.686  0.2320  0.2102  1.5364
 1664SOL     OW16627   4.003   3.054   3.503  0.4675  0.2725  0.3722
 1664SOL    HW116628   4.048   3.021   3.580  1.0072  2.0336  0.8015
 1664SOL    HW216629   4.073   3.111   3.471 -0.8477  1.4034 -0.4956
 1665SOL     OW16630   1.484   1.906   4.829 -0.0620  0.3027 -0.7715
 1665SOL    HW116631   1.421   1.959   4.878 -1.0668 -0.4921 -1.2062
 1665SOL    HW216632   1.559   1.903   4.890 -0.2769 -3.1588 -0.7070
 1666SOL     OW16633   0.883   4.159   8.731 -0.2378  0.2512  0.0065
 1666SOL    HW116634   0.889   4.073   8.773 -0.3867  0.4792  0.4970
 1666SOL    HW216635   0.792   4.179   8.709  0.5198  2.0216 -1.4843
 1667SOL     OW16636   0.245   3.434   6.086 -0.1453 -0.4250  0.2098
 1667SOL    HW116637   0.226   3.440   6.180  0.2914  0.4335  0.2494
 1667SOL    HW216638   0.341   3.435   6.087 -0.1257 -1.3890 -1.7575
 1668SOL     OW16639   0.398   1.954   7.679  0.0017  1.1600  0.1091
 1668SOL    HW116640   0.424   2.040   7.647 -0.9657  0.8526 -1.4689
 1668SOL    HW216641   0.410   1.900   7.601  0.4156  1.2785  0.0883
 1669SOL     OW16642   2.466   1.797   5.861  0.0092 -0.0927  0.0333
 1669SOL    HW116643   2.388   1.848   5.883  0.3818 -0.0702  1.2845
 1669SOL    HW216644   2.455   1.726   5.924  1.7546 -1.4362 -1.1514
 1670SOL     OW16645   4.506   2.196   2.135 -0.2301  0.4222 -0.1245
 1670SOL    HW116646   4.455   2.161   2.062 -0.7459  0.3316  0.2778
 1670SOL    HW216647   4.443   2.233   2.197 -0.2637 -0.7307  0.5221
 1671SOL     OW16648   2.539   3.356   8.186 -0.6506 -0.0847 -0.3092
 1671SOL    HW116649   2.624   3.391   8.157 -1.9084  0.6345 -3.1613
 1671SOL    HW216650   2.522   3.413   8.261 -1.4439 -0.0036 -0.5500
 1672SOL     OW16651   4.483   2.816   1.203  0.0709 -0.3470 -0.4388
 1672SOL    HW116652   4.431   2.771   1.269 -1.3311 -1.2814 -2.1770
 1672SOL    HW216653   4.471   2.907   1.230  3.1224  0.3391 -1.4523
 1673SOL     OW16654   3.871   3.441   3.927  0.1153  0.0878  0.0299
 1673SOL    HW116655   3.955   3.422   3.885 -0.4231 -1.6731 -0.2884
 1673SOL    HW216656   3.871   3.534   3.908  0.0963  0.6544  2.9141
 1674SOL     OW16657   2.956   1.061   8.395  0.1216 -0.6098 -0.5008
 1674SOL    HW116658   2.984   1.150   8.377  1.0963 -0.8943 -0.3697
 1674SOL    HW216659   3.036   1.025   8.432 -2.0690 -1.0353  3.8630
 1675SOL     OW16660   1.069   3.293   0.618 -0.4655  0.3045  0.4362
 1675SOL    HW116661   1.014   3.332   0.686  0.6199 -0.1602  1.5890
 1675SOL    HW216662   1.012   3.269   0.545  0.6735  0.3551 -0.4851
 1676SOL     OW16663   4.238   3.473  17.380 -0.1379 -0.2583 -0.0584
 1676SOL    HW116664   4.314   3.523  17.350 -0.6294  1.2287  1.1318
 1676SOL    HW216665   4.174   3.532  17.421 -3.6134 -1.8099 -3.2196
 1677SOL     OW16666   3.496   1.574  15.404  0.0442  0.3815  0.1751
 1677SOL    HW116667   3.509   1.660  15.364  0.1676  0.6981  0.8904
 1677SOL    HW216668   3.585   1.542  15.420 -0.7638 -2.2439 -0.7240
 1678SOL     OW16669   2.856   1.340   1.433  0.0284  0.3491 -0.1765
 1678SOL    HW116670   2.947   1.367   1.416 -0.1618  1.0764 -0.0287
 1678SOL    HW216671   2.850   1.296   1.517  2.4517 -2.4711 -1.4602
 1679SOL     OW16672   0.592   3.900  11.494  0.3916 -0.1864 -0.1314
 1679SOL    HW116673   0.653   3.874  11.425  0.3022 -1.7392  0.3895
 1679SOL    HW216674   0.617   3.846  11.569  0.3971  1.0445  0.7751
 1680SOL     OW16675   2.782   4.474   6.945  0.2980  0.1257 -0.3244
 1680SOL    HW116676   2.735   4.407   6.895 -0.9219  1.0785 -0.4254
 1680SOL    HW216677   2.781   4.445   7.036 -0.0822  1.3120  0.0444
 1681SOL     OW16678   0.861   3.492   9.551  0.0978  0.0429 -0.0309
 1681SOL    HW116679   0.920   3.419   9.534  1.4610  1.6167 -2.1737
 1681SOL    HW216680   0.867   3.494   9.647  1.2748  1.4584 -0.1265
 1682SOL     OW16681   1.697   1.763   5.951 -0.2973  0.3756  0.1309
 1682SOL    HW116682   1.701   1.668   5.950 -0.2292  0.3724  0.8600
 1682SOL    HW216683   1.663   1.793   6.035  0.8234  1.4900  0.1853
 1683SOL     OW16684   3.060   4.246  16.007 -0.6129 -0.1383 -0.2809
 1683SOL    HW116685   3.073   4.155  15.983 -1.5834 -0.6320  1.0883
 1683SOL    HW216686   2.991   4.259  15.943 -0.2583  0.0784 -0.6186
 1684SOL     OW16687   1.675   1.474   7.491 -0.1373 -0.2285  0.0435
 1684SOL    HW116688   1.580   1.485   7.487 -0.2169 -0.1911  2.0667
 1684SOL    HW216689   1.680   1.427   7.574  1.3233  1.6155  0.9875
 1685SOL     OW16690   4.054   1.693   6.011 -0.5673  0.4416  0.1176
 1685SOL    HW116691   4.137   1.718   5.969 -0.1835 -0.6278  0.2489
 1685SOL    HW216692   4.080   1.633   6.080 -2.5529  0.2731  0.7139
 1686SOL     OW16693   1.630   3.781   7.315 -0.0323 -0.3879 -0.2016
 1686SOL    HW116694   1.613   3.863   7.362 -0.5452 -0.6666  0.1114
 1686SOL    HW216695   1.556   3.743   7.363 -0.9610 -1.2137 -2.2848
 1687SOL     OW16696   2.281   1.910   8.653  0.1200  0.3113 -0.0328
 1687SOL    HW116697   2.357   1.967   8.666 -1.5282  2.1190  1.7851
 1687SOL    HW216698   2.292   1.882   8.563 -1.5271 -0.0914 -0.1150
 1688SOL     OW16699   4.371   3.242   8.581 -0.0645 -0.0689  0.3746
 1688SOL    HW116700   4.424   3.296   8.522 -0.2694  1.0352  1.2094
 1688SOL    HW216701   4.435   3.214   8.646 -0.4342 -2.6750 -0.3909
 1689SOL     OW16702   3.698   0.399   2.631 -0.1210  0.3459 -0.4280
 1689SOL    HW116703   3.622   0.438   2.587 -0.5518  0.5099  0.4374
 1689SOL    HW216704   3.700   0.311   2.595 -0.2062 -1.3083  3.5969
 1690SOL     OW16705   4.070   2.508  11.540  0.5865  0.0226  0.2350
 1690SOL    HW116706   4.036   2.564  11.470 -0.5518  0.7129  1.3325
 1690SOL    HW216707   4.136   2.576  11.553 -0.7946  1.6693 -1.2892
 1691SOL     OW16708   0.554   0.375   9.525  0.2330 -0.7455  0.2146
 1691SOL    HW116709   0.503   0.349   9.448 -1.1840  0.8639  0.6008
 1691SOL    HW216710   0.642   0.346   9.501  1.1869 -0.5608  3.4894
 1692SOL     OW16711   2.159   2.746   1.651  0.2018 -0.5037 -0.1120
 1692SOL    HW116712   2.105   2.752   1.730  0.5135  0.2799  0.0424
 1692SOL    HW216713   2.185   2.837   1.637  1.7856 -0.7586  1.1265
 1693SOL     OW16714   3.690   2.826   4.378 -0.2420 -0.1988  0.0726
 1693SOL    HW116715   3.638   2.775   4.315  1.9778 -0.2543 -1.7425
 1693SOL    HW216716   3.639   2.906   4.393  1.2365  0.9589 -1.0573
 1694SOL     OW16717   0.820   1.053   8.349 -0.9398 -0.7111  0.3512
 1694SOL    HW116718   0.832   1.068   8.443 -0.9352 -3.7962  0.8215
 1694SOL    HW216719   0.773   1.136   8.339  2.5671  1.1724 -0.8068
 1695SOL     OW16720   2.368   2.061  13.156 -0.3206  0.3116  0.3680
 1695SOL    HW116721   2.297   1.998  13.146 -0.7046  0.6165  1.1802
 1695SOL    HW216722   2.422   2.027  13.228 -1.1209 -1.5090  0.1117
 1696SOL     OW16723   4.237   0.111  17.376  0.6031  0.1802  0.5230
 1696SOL    HW116724   4.257   0.200  17.348  0.2865  0.1340  0.1453
 1696SOL    HW216725   4.324   0.091  17.409  0.8199  0.2090 -0.0234
 1697SOL     OW16726   2.510   2.380   3.480  0.2564 -0.3490 -0.0277
 1697SOL    HW116727   2.447   2.374   3.407  0.8258  1.4072 -0.6809
 1697SOL    HW216728   2.461   2.334   3.548  0.9971 -2.7988 -1.1438
 1698SOL     OW16729   0.622   4.651   6.009 -0.3198 -0.4643  0.4404
 1698SOL    HW116730   0.703   4.680   6.051 -0.2033  0.4239 -0.3978
 1698SOL    HW216731   0.581   4.736   5.992 -0.8129 -0.7782  0.0730
 1699SOL     OW16732   0.788   2.397   4.982 -0.2123 -0.5462  0.2128
 1699SOL    HW116733   0.834   2.315   4.964  2.5779  0.8553  1.0299
 1699SOL    HW216734   0.831   2.426   5.063  0.5515 -0.8654 -0.0822
 1700SOL     OW16735   2.196   0.082  10.851 -0.5006  0.6894 -0.9426
 1700SOL    HW116736   2.185   0.164  10.803  1.7801  0.3704 -2.0304
 1700SOL    HW216737   2.249   0.113  10.924 -0.3811  1.7245 -1.4702
 1701SOL     OW16738   2.128   3.041   4.536  0.1678  0.6734 -0.0238
 1701SOL    HW116739   2.124   3.115   4.476 -2.3085 -1.0481 -1.9709
 1701SOL    HW216740   2.177   3.070   4.613 -1.8281 -0.6584  1.7511
 1702SOL     OW16741   2.364   3.539   6.778 -0.5835  0.7250 -0.1872
 1702SOL    HW116742   2.425   3.476   6.817 -0.2905  0.0111 -1.8117
 1702SOL    HW216743   2.387   3.617   6.829  1.0174  0.1218  0.0129
 1703SOL     OW16744   3.146   3.500   8.514 -0.1540 -0.1379 -0.2438
 1703SOL    HW116745   3.197   3.420   8.508  0.2277 -0.0669  2.0378
 1703SOL    HW216746   3.136   3.511   8.608 -1.4364  0.1318 -0.4059
 1704SOL     OW16747   0.627   2.633  15.793  0.1902  0.1943 -0.6907
 1704SOL    HW116748   0.542   2.591  15.785  0.4007 -0.2113 -0.8291
 1704SOL    HW216749   0.651   2.580  15.869 -4.6543 -0.0081  0.6533
 1705SOL     OW16750   3.681   1.145   7.713 -0.5640 -0.5276  0.0899
 1705SOL    HW116751   3.722   1.129   7.799 -0.4049  1.2354  0.3424
 1705SOL    HW216752   3.757   1.135   7.656 -1.8095 -1.8014 -1.3386
 1706SOL     OW16753   4.682   0.726   3.711  0.2071 -0.2676  0.1118
 1706SOL    HW116754   4.687   0.719   3.806 -1.9059 -0.9184  0.1918
 1706SOL    HW216755   4.587   0.718   3.699 -0.1265  2.4268  1.0153
 1707SOL     OW16756   1.700   0.914  17.090  0.1207  0.1845  0.0448
 1707SOL    HW116757   1.624   0.965  17.116  0.9585  1.2067  0.4968
 1707SOL    HW216758   1.667   0.855  17.022 -2.2083  0.4157  0.9670
 1708SOL     OW16759   3.818   1.384  14.052 -0.0138  0.3887  0.2012
 1708SOL    HW116760   3.847   1.391  14.143 -2.5732 -0.6403  1.0654
 1708SOL    HW216761   3.840   1.295  14.025 -0.4068  0.5497 -0.6606
 1709SOL     OW16762   2.267   3.946   3.168 -0.4148 -0.1096 -0.0618
 1709SOL    HW116763   2.196   3.924   3.108 -1.9204 -2.0442  2.4494
 1709SOL    HW216764   2.343   3.915   3.119  0.8183  0.9577  1.1857
 1710SOL     OW16765   2.329   3.672   5.802 -0.2965  0.4562  0.5003
 1710SOL    HW116766   2.286   3.707   5.724 -0.0614  1.6962  0.9288
 1710SOL    HW216767   2.319   3.741   5.868  0.7162  1.2765 -0.1967
 1711SOL     OW16768   3.482   4.052  10.846 -0.5416  0.3186 -0.5084
 1711SOL    HW116769   3.393   4.048  10.812 -0.7444  1.0532 -0.0834
 1711SOL    HW216770   3.485   4.143  10.877 -0.9054  0.4154 -0.7583
 1712SOL     OW16771   0.314   1.451  10.616  0.3496  0.0875  0.2457
 1712SOL    HW116772   0.348   1.447  10.706 -0.8397 -2.3522  0.5745
 1712SOL    HW216773   0.256   1.527  10.620 -0.3833 -0.3275 -2.7098
 1713SOL     OW16774   3.466   4.701  15.231 -0.0043  0.1551  0.0474
 1713SOL    HW116775   3.509   0.035  15.274 -1.0141  0.2102  0.9795
 1713SOL    HW216776   3.505   4.635  15.288  0.3530 -0.5104 -0.9703
 1714SOL     OW16777   1.351   2.412   6.470  0.4089  0.8749  0.1609
 1714SOL    HW116778   1.395   2.334   6.506  0.2266  1.2576  1.2325
 1714SOL    HW216779   1.372   2.474   6.540  0.1084  0.9711  0.1661
 1715SOL     OW16780   2.467   0.947   1.301  0.9008  0.2174  0.0404
 1715SOL    HW116781   2.483   1.018   1.238 -1.2682  0.5034 -0.1795
 1715SOL    HW216782   2.557   0.918   1.313  0.7999 -0.2526 -0.3577
 1716SOL     OW16783   4.029   0.022  13.953  0.3461 -0.2720 -0.0101
 1716SOL    HW116784   4.108   0.071  13.974 -0.3630  0.4601  0.9696
 1716SOL    HW216785   3.973   0.094  13.921 -0.0617  0.7651  3.0390
 1717SOL     OW16786   0.349   1.924   4.916 -0.0149 -0.3870 -0.1842
 1717SOL    HW116787   0.367   1.983   4.989  0.0221  0.1740 -0.6476
 1717SOL    HW216788   0.433   1.881   4.902 -1.0680 -2.6560  0.3498
 1718SOL     OW16789   2.102   1.759   8.446 -0.8963  0.1499 -0.0454
 1718SOL    HW116790   2.023   1.786   8.400  0.1112  1.4955 -1.0106
 1718SOL    HW216791   2.168   1.816   8.407  0.5721 -0.8079  1.0196
 1719SOL     OW16792   0.736   1.315   9.487 -0.4765  0.2048 -0.5513
 1719SOL    HW116793   0.673   1.387   9.485 -0.0836  0.4937 -2.2817
 1719SOL    HW216794   0.713   1.268   9.567 -1.4319 -1.9718 -2.1177
 1720SOL     OW16795   2.695   0.890   8.602 -1.0019 -0.0226  0.4959
 1720SOL    HW116796   2.784   0.902   8.635 -0.5549  1.9406 -1.3775
 1720SOL    HW216797   2.643   0.961   8.640 -2.7137 -1.4060  0.7348
 1721SOL     OW16798   2.285   0.857   8.515 -0.0702 -0.3655  0.2444
 1721SOL    HW116799   2.289   0.806   8.596  1.9994  1.0614  1.0765
 1721SOL    HW216800   2.216   0.920   8.536  0.4725  0.3229 -0.0352
 1722SOL     OW16801   2.482   3.629   9.446  0.3041 -0.6284  0.1327
 1722SOL    HW116802   2.431   3.599   9.522 -0.6566  0.0698 -0.2278
 1722SOL    HW216803   2.414   3.689   9.413  0.9685  0.1936  0.2575
 1723SOL     OW16804   2.460   2.719  14.631 -0.0399  0.1976 -0.2033
 1723SOL    HW116805   2.388   2.781  14.642  0.4754  1.1494 -2.0920
 1723SOL    HW216806   2.468   2.719  14.536  0.2432  1.8648 -0.1831
 1724SOL     OW16807   1.461   1.319   6.585 -0.0546 -0.0222  0.0715
 1724SOL    HW116808   1.374   1.348   6.558  0.0418 -1.3989 -1.6989
 1724SOL    HW216809   1.443   1.286   6.673  0.1446 -0.4429 -0.0483
 1725SOL     OW16810   4.303   3.500  16.992  0.1922 -0.4512  0.2856
 1725SOL    HW116811   4.217   3.458  16.983 -0.9933  1.4654  2.7312
 1725SOL    HW216812   4.327   3.504  16.900 -1.7532  2.4828 -0.0851
 1726SOL     OW16813   4.642   4.129   0.684 -0.1862  0.1117 -0.8407
 1726SOL    HW116814   4.560   4.120   0.732 -0.7941  1.0479 -1.7146
 1726SOL    HW216815   4.663   4.222   0.691  1.4117 -0.4361  1.4920
 1727SOL     OW16816   1.178   0.155   6.121  0.2182 -1.0901 -0.0682
 1727SOL    HW116817   1.238   0.117   6.186  0.4456 -0.3214  0.1738
 1727SOL    HW216818   1.135   0.225   6.171 -1.1865 -0.3502 -2.3335
 1728SOL     OW16819   1.547   1.752   2.162  0.3894 -0.2034 -0.3809
 1728SOL    HW116820   1.560   1.671   2.112  0.7075 -0.2436 -0.2331
 1728SOL    HW216821   1.505   1.810   2.098  0.2360 -0.3573 -0.4202
 1729SOL     OW16822   1.040   2.490   2.401  0.1622  0.7383 -0.0243
 1729SOL    HW116823   0.968   2.538   2.441 -0.4855  0.0215 -0.3327
 1729SOL    HW216824   0.986   2.434   2.345 -0.4030 -0.0413  1.2867
 1730SOL     OW16825   3.871   4.168   0.858 -0.5811  0.1910 -0.3043
 1730SOL    HW116826   3.944   4.229   0.849  0.9589 -1.5427  0.4538
 1730SOL    HW216827   3.855   4.170   0.952 -2.0113 -1.6222 -0.4912
 1731SOL     OW16828   0.589   0.322  11.663  0.1378 -0.0086 -0.0562
 1731SOL    HW116829   0.572   0.359  11.749 -0.6774 -1.6659  0.4965
 1731SOL    HW216830   0.606   0.232  11.691  0.0309 -1.1874 -3.7753
 1732SOL     OW16831   1.073   4.576  14.712 -0.2007 -0.2538 -0.2581
 1732SOL    HW116832   1.151   4.626  14.733 -1.1639  0.9898  0.3741
 1732SOL    HW216833   1.114   4.512  14.655  0.5437 -1.4280  1.5824
 1733SOL     OW16834   1.798   1.046  14.957  0.0235 -0.4665  0.2450
 1733SOL    HW116835   1.756   0.980  14.902 -1.3318  0.0564  0.6449
 1733SOL    HW216836   1.722   1.093  14.993 -1.3501 -1.6960 -1.0332
 1734SOL     OW16837   2.491   1.036  16.460  0.1830 -0.0079 -0.6468
 1734SOL    HW116838   2.410   1.025  16.511  0.7951 -0.4761  0.2323
 1734SOL    HW216839   2.504   1.130  16.469 -0.4082  0.0444 -0.2997
 1735SOL     OW16840   1.557   0.410  15.795  0.0745 -0.4943  0.2152
 1735SOL    HW116841   1.484   0.381  15.741 -0.2770  0.6683  0.0745
 1735SOL    HW216842   1.536   0.360  15.874 -1.1451 -0.5135 -0.1267
 1736SOL     OW16843   4.009   2.991   6.098 -0.4853 -0.1164 -0.4286
 1736SOL    HW116844   3.975   3.049   6.165 -0.6688 -0.8783  0.1405
 1736SOL    HW216845   3.943   2.970   6.032 -0.7690  1.6838 -0.7008
 1737SOL     OW16846   1.711   4.241   0.577  0.2745  0.4013  0.3522
 1737SOL    HW116847   1.690   4.333   0.598  1.0067  0.7019 -0.2633
 1737SOL    HW216848   1.683   4.240   0.485 -1.6293  1.1058  0.9107
 1738SOL     OW16849   0.132   1.039  16.532  0.5098  0.2791 -0.0102
 1738SOL    HW116850   0.184   0.961  16.515 -1.2496 -0.9993  0.4973
 1738SOL    HW216851   0.081   1.002  16.604  0.1380  0.0855 -0.3790
 1739SOL     OW16852   1.299   3.665  11.906  0.0664  0.0712  0.2426
 1739SOL    HW116853   1.218   3.706  11.937  0.5198  0.9355  0.3057
 1739SOL    HW216854   1.347   3.746  11.888  1.2035 -0.7356 -0.3726
 1740SOL     OW16855   4.577   4.584  13.646 -0.2041 -0.1914  0.6873
 1740SOL    HW116856   4.516   4.642  13.690  1.5894  1.3833  1.0975
 1740SOL    HW216857   4.528   4.559  13.568  0.0332  2.7941 -0.4285
 1741SOL     OW16858   0.183   1.427   7.054 -0.2612 -0.0946 -0.8789
 1741SOL    HW116859   0.131   1.507   7.062  2.4230  1.4272  1.3671
 1741SOL    HW216860   0.229   1.442   6.971 -0.3975  0.9383 -0.7673
 1742SOL     OW16861   3.363   2.751   8.173  0.1919  0.0521 -0.1181
 1742SOL    HW116862   3.306   2.760   8.096 -0.2791 -2.1289 -0.0115
 1742SOL    HW216863   3.325   2.810   8.238  1.8715  0.3687  0.5818
 1743SOL     OW16864   2.484   0.506   4.437  0.7185  0.0256 -0.0770
 1743SOL    HW116865   2.420   0.542   4.375 -0.7912 -2.9883 -0.3172
 1743SOL    HW216866   2.520   0.578   4.487  1.1843 -0.8842  0.9010
 1744SOL     OW16867   3.330   3.365   8.176  0.9842 -0.2394 -0.5048
 1744SOL    HW116868   3.293   3.339   8.261  1.7493  0.5464  0.0772
 1744SOL    HW216869   3.253   3.409   8.140  0.1149 -3.2986 -2.3732
 1745SOL     OW16870   3.858   4.207   3.789  0.7626 -0.2342 -0.0899
 1745SOL    HW116871   3.869   4.297   3.819 -0.6572  0.0516 -0.4498
 1745SOL    HW216872   3.769   4.206   3.755  1.0098 -1.7340 -0.6966
 1746SOL     OW16873   1.616   1.447   7.806  0.5345  0.0450 -0.3303
 1746SOL    HW116874   1.568   1.524   7.836  1.1889  0.0994  0.6037
 1746SOL    HW216875   1.704   1.455   7.843  0.9346 -0.1288 -1.2523
 1747SOL     OW16876   2.516   0.458  11.652  0.8730  0.1098 -0.1553
 1747SOL    HW116877   2.559   0.374  11.665 -0.8179 -0.4825  1.5829
 1747SOL    HW216878   2.427   0.447  11.686  0.7243  1.1377 -0.1954
 1748SOL     OW16879   0.213   0.232   3.624 -0.1508 -0.0283  0.5634
 1748SOL    HW116880   0.227   0.141   3.647  0.8877 -0.2785 -1.0533
 1748SOL    HW216881   0.146   0.268   3.682  0.3568  0.8473  0.6048
 1749SOL     OW16882   4.693   0.251  17.573  0.1998 -0.2992 -0.2751
 1749SOL    HW116883   4.719   0.164  17.544  0.1509 -0.8942  1.4536
 1749SOL    HW216884   0.030   0.301  17.551 -0.3725  0.6718 -0.1190
 1750SOL     OW16885   1.714   2.168  11.989 -0.5385  0.0967 -0.6309
 1750SOL    HW116886   1.732   2.148  12.082 -0.2896 -0.7362 -0.8532
 1750SOL    HW216887   1.757   2.253  11.980  0.5099 -0.1754  1.7886
 1751SOL     OW16888   2.523   0.200   7.691 -0.8761 -0.4053 -0.6498
 1751SOL    HW116889   2.482   0.182   7.607 -0.8959  1.3861 -1.0202
 1751SOL    HW216890   2.610   0.164   7.675 -0.9086 -1.5473  1.7105
 1752SOL     OW16891   3.830   0.617   8.296  0.5508  0.1464 -0.0626
 1752SOL    HW116892   3.856   0.607   8.204 -1.3202 -1.6520 -0.4056
 1752SOL    HW216893   3.880   0.697   8.312 -1.3927  1.4655 -0.6314
 1753SOL     OW16894   2.213   4.462   1.911 -0.1046  0.5194  0.5429
 1753SOL    HW116895   2.276   4.463   1.983  0.6328  1.8513 -0.1077
 1753SOL    HW216896   2.192   4.369   1.917  1.2727  0.2258  0.9815
 1754SOL     OW16897   0.805   3.455   1.655 -0.7923  0.4290  0.9570
 1754SOL    HW116898   0.850   3.408   1.584  0.0620  1.9983  0.4432
 1754SOL    HW216899   0.851   3.416   1.728  1.4304 -1.2327 -1.3251
 1755SOL     OW16900   4.195   3.771   3.439 -0.1268  0.1944 -0.1654
 1755SOL    HW116901   4.185   3.705   3.371 -1.0757  1.2685 -1.0775
 1755SOL    HW216902   4.288   3.792   3.432  0.8562 -3.5908  1.6244
 1756SOL     OW16903   4.253   3.237   2.230 -0.8325  0.3170 -0.0250
 1756SOL    HW116904   4.348   3.235   2.234 -0.8961 -0.2081  1.5009
 1756SOL    HW216905   4.251   3.332   2.220  2.3937  0.4933  1.0787
 1757SOL     OW16906   3.855   2.381   6.826 -0.5475 -0.1526 -0.3199
 1757SOL    HW116907   3.857   2.286   6.839 -0.4955 -0.1380 -0.2199
 1757SOL    HW216908   3.850   2.378   6.730  1.2852  2.5450 -0.5011
 1758SOL     OW16909   0.678   3.414   3.313  0.4356  0.1769 -0.2545
 1758SOL    HW116910   0.733   3.352   3.361 -1.5713 -0.7046  0.8979
 1758SOL    HW216911   0.717   3.495   3.346  1.7046  0.6777 -2.9977
 1759SOL     OW16912   2.235   2.008   3.618 -0.1597  0.2293  0.7217
 1759SOL    HW116913   2.193   2.046   3.694 -1.7961  0.7675 -0.4516
 1759SOL    HW216914   2.282   2.078   3.572 -0.0775 -1.4340 -1.7389
 1760SOL     OW16915   3.867   1.225  12.309  0.4670 -0.2208  0.2755
 1760SOL    HW116916   3.814   1.231  12.389 -1.3421  0.6090 -0.9665
 1760SOL    HW216917   3.818   1.162  12.256  0.8956 -1.5301  1.4570
 1761SOL     OW16918   0.192   1.161  17.746  0.0621 -0.6655 -0.1310
 1761SOL    HW116919   0.271   1.196  17.703  0.4409  0.8852  1.8489
 1761SOL    HW216920   0.130   1.190  17.679 -1.3119  1.0709  1.9206
 1762SOL     OW16921   3.583   4.561   5.936 -0.5532 -0.2040  0.4606
 1762SOL    HW116922   3.558   4.594   6.022  0.0629  1.0475  0.1590
 1762SOL    HW216923   3.615   4.473   5.957 -0.8006 -0.2960  0.4475
 1763SOL     OW16924   3.608   2.074   8.138  0.3937 -0.3063 -0.3464
 1763SOL    HW116925   3.540   2.133   8.171  0.7623  0.0794 -0.2699
 1763SOL    HW216926   3.685   2.131   8.131 -0.0099  0.4068  0.9913
 1764SOL     OW16927   3.617   1.772  11.313  0.2140 -0.0260 -0.1418
 1764SOL    HW116928   3.549   1.799  11.251 -0.4667 -3.0996 -0.7556
 1764SOL    HW216929   3.691   1.820  11.276  0.9593 -0.8765  0.2472
 1765SOL     OW16930   4.069   1.854   1.787  0.4463 -0.5217 -0.2264
 1765SOL    HW116931   4.002   1.791   1.765 -0.8190  0.1455  1.7668
 1765SOL    HW216932   4.041   1.942   1.760 -0.2575 -0.6673  0.0573
 1766SOL     OW16933   0.856   0.546  14.995  0.1884 -0.3042 -0.7277
 1766SOL    HW116934   0.892   0.478  15.051 -0.8774 -0.5636 -0.3586
 1766SOL    HW216935   0.768   0.510  14.984 -0.5085  1.7533 -1.9572
 1767SOL     OW16936   3.243   2.149   6.491 -0.2074  0.4105  0.0409
 1767SOL    HW116937   3.297   2.080   6.451  0.2331  0.7591  0.0331
 1767SOL    HW216938   3.230   2.103   6.574 -0.0245 -1.5212 -0.9772
 1768SOL     OW16939   2.551   0.341   7.200  0.1348 -0.5996 -1.0577
 1768SOL    HW116940   2.496   0.361   7.124  1.4932  1.0062 -1.6038
 1768SOL    HW216941   2.627   0.394   7.178  0.3766 -0.5051 -0.0026
 1769SOL     OW16942   3.416   2.497   8.251  0.4573  0.1656 -0.5703
 1769SOL    HW116943   3.465   2.520   8.330  1.0509 -1.4936 -0.4589
 1769SOL    HW216944   3.387   2.583   8.222 -0.0942  0.9208  2.2846
 1770SOL     OW16945   2.438   1.496   6.734 -0.3940 -0.0078  0.0317
 1770SOL    HW116946   2.464   1.509   6.643 -2.6957 -2.2626 -0.9700
 1770SOL    HW216947   2.488   1.418   6.757  2.1190  2.2163  2.1104
 1771SOL     OW16948   0.094   0.525   2.470 -0.7182 -0.1357 -0.1824
 1771SOL    HW116949   0.102   0.470   2.392  0.0337 -0.0947 -0.1417
 1771SOL    HW216950   4.740   0.530   2.470 -0.6389  1.4907  1.3949
 1772SOL     OW16951   3.537   0.149  14.936  0.6648  0.3703 -0.0734
 1772SOL    HW116952   3.447   0.179  14.948  0.1127 -2.4999  2.8809
 1772SOL    HW216953   3.591   0.208  14.989  0.7131 -0.8426  1.2029
 1773SOL     OW16954   0.524   2.746   1.765 -0.0396 -0.1381 -0.2050
 1773SOL    HW116955   0.440   2.718   1.729 -1.7213  2.9297  1.3552
 1773SOL    HW216956   0.577   2.742   1.685 -0.6002  1.0932 -0.6428
 1774SOL     OW16957   4.500   2.792  14.527  0.1155 -0.1554 -0.7595
 1774SOL    HW116958   4.485   2.727  14.459 -0.4329  0.9178 -1.6675
 1774SOL    HW216959   4.571   2.752  14.576 -0.4765  1.7390  1.6492
 1775SOL     OW16960   1.096   1.058   5.925  0.2670  0.3311  0.2565
 1775SOL    HW116961   1.136   1.000   5.860 -0.7312 -0.4645  0.3492
 1775SOL    HW216962   1.119   1.018   6.009  0.5352 -0.7115 -0.3199
 1776SOL     OW16963   2.173   3.544   6.415  0.6059  0.5558  0.5283
 1776SOL    HW116964   2.262   3.573   6.437  0.2847  1.1890  0.9872
 1776SOL    HW216965   2.180   3.459   6.457 -0.4041 -0.7579 -1.9606
 1777SOL     OW16966   2.116   4.083   7.360  0.4004  0.3116 -0.0831
 1777SOL    HW116967   2.034   4.055   7.400  1.4971  1.3833  2.9446
 1777SOL    HW216968   2.171   4.127   7.425  0.1591  0.5169 -0.0164
 1778SOL     OW16969   0.354   3.295   9.719  0.1829 -1.2472 -0.1776
 1778SOL    HW116970   0.302   3.315   9.641  0.8083 -0.3710 -0.3709
 1778SOL    HW216971   0.442   3.318   9.689 -0.2757  0.4684 -0.2325
 1779SOL     OW16972   3.361   3.017   6.261  0.4133  0.2997  0.3124
 1779SOL    HW116973   3.362   3.104   6.300 -1.0137  0.7149 -0.5740
 1779SOL    HW216974   3.386   2.967   6.339 -0.4784 -1.9197 -0.8128
 1780SOL     OW16975   3.471   1.218   3.364 -0.0494  0.3745  0.7180
 1780SOL    HW116976   3.558   1.198   3.330  0.0786  0.1203  1.1963
 1780SOL    HW216977   3.427   1.158   3.304 -0.5883 -0.0680  1.5494
 1781SOL     OW16978   2.021   2.390   6.394 -0.3140 -1.0823  0.2645
 1781SOL    HW116979   1.959   2.327   6.429 -0.0498 -0.2866  2.1331
 1781SOL    HW216980   2.012   2.378   6.299  2.6213 -3.9153  0.3381
 1782SOL     OW16981   2.931   1.049   2.993 -0.1265 -0.2782  0.6970
 1782SOL    HW116982   2.863   1.113   2.974  0.1882 -0.5406 -1.3092
 1782SOL    HW216983   2.995   1.068   2.925 -1.4868  1.6917 -0.0525
 1783SOL     OW16984   4.614   2.219   6.591  0.2811  0.4689  0.1599
 1783SOL    HW116985   4.564   2.272   6.653 -1.4971  0.3655 -1.1990
 1783SOL    HW216986   4.626   2.284   6.521  1.8791 -0.8887 -0.8437
 1784SOL     OW16987   4.533   3.718   3.729  0.0997  0.4106 -0.6052
 1784SOL    HW116988   4.527   3.739   3.822 -3.8461  0.4547 -0.8795
 1784SOL    HW216989   4.462   3.654   3.718 -0.4797  0.8903  0.4167
 1785SOL     OW16990   2.458   0.598   2.795 -0.2025  0.0501 -0.1689
 1785SOL    HW116991   2.364   0.577   2.797 -0.2020  0.0863  0.2266
 1785SOL    HW216992   2.458   0.663   2.865  0.0550 -0.9165  0.7214
 1786SOL     OW16993   1.313   2.013   5.000  0.6745  0.1140  0.0108
 1786SOL    HW116994   1.285   1.966   5.079 -0.9112  0.7774 -0.1546
 1786SOL    HW216995   1.274   2.098   5.019  2.1235  0.8727 -0.4085
 1787SOL     OW16996   0.010   2.144  15.958 -0.4354 -1.0560  0.0362
 1787SOL    HW116997   4.719   2.062  15.920  0.9567 -1.9223  0.7504
 1787SOL    HW216998   4.689   2.154  16.030  1.5770  0.7700  1.5061
 1788SOL     OW16999   1.036   4.708  16.987 -0.3198 -0.3571 -0.2713
 1788SOL    HW117000   0.995   4.727  16.903 -1.8179 -2.3856  0.0015
 1788SOL    HW217001   1.129   4.719  16.967 -0.5643  0.5648 -0.8479
 1789SOL     OW17002   2.931   1.062   1.316 -0.0832  0.4002  0.0472
 1789SOL    HW117003   2.935   1.031   1.406 -3.8277  0.3435  0.1978
 1789SOL    HW217004   2.890   0.985   1.277 -0.2970  0.3704  0.3314
 1790SOL     OW17005   4.366   3.238   3.909  0.3219  0.5611 -0.3281
 1790SOL    HW117006   4.462   3.241   3.917  0.3326  2.0830 -0.9397
 1790SOL    HW217007   4.345   3.329   3.928  1.1346  0.5717  0.5215
 1791SOL     OW17008   3.046   0.112   3.782 -0.1297  0.0655  0.6097
 1791SOL    HW117009   2.991   0.041   3.814 -0.0483  0.0384  0.6885
 1791SOL    HW217010   2.985   0.185   3.785 -2.3423 -1.7580 -0.0284
 1792SOL     OW17011   1.504   2.330   2.326 -0.0998 -0.1294  0.2830
 1792SOL    HW117012   1.430   2.376   2.286  0.2527 -0.2801 -0.5440
 1792SOL    HW217013   1.536   2.391   2.392 -3.0569  1.9751 -0.1812
 1793SOL     OW17014   3.667   1.544  13.626 -0.2178 -0.3130  0.1285
 1793SOL    HW117015   3.678   1.530  13.532  0.2401  1.5033 -0.0747
 1793SOL    HW217016   3.579   1.580  13.635  0.0263  0.3762 -0.3087
 1794SOL     OW17017   4.372   3.796   5.655  0.6035  0.7205  0.2485
 1794SOL    HW117018   4.411   3.750   5.580  0.4780 -1.3253  1.4440
 1794SOL    HW217019   4.345   3.873   5.604  0.3013  1.2728  1.2474
 1795SOL     OW17020   0.629   4.643   3.575  0.1018 -0.3279 -0.2093
 1795SOL    HW117021   0.577   4.661   3.497 -0.4557  0.2790  0.2945
 1795SOL    HW217022   0.707   4.691   3.548  0.1415  0.4826  1.3319
 1796SOL     OW17023   1.606   3.445   3.309  0.1511  0.1284 -0.0492
 1796SOL    HW117024   1.567   3.513   3.364  1.3414  0.7472  0.0533
 1796SOL    HW217025   1.585   3.486   3.226 -0.1884  0.5835  0.2609
 1797SOL     OW17026   3.907   4.245   9.236  1.2262  0.3699 -0.7985
 1797SOL    HW117027   3.887   4.338   9.246 -1.4379 -0.2584 -0.3045
 1797SOL    HW217028   3.977   4.242   9.170 -0.0380 -1.3980 -2.0718
 1798SOL     OW17029   1.905   3.645   3.714 -0.2333 -0.4810  0.2178
 1798SOL    HW117030   1.847   3.721   3.709  0.1611 -0.2392 -0.8080
 1798SOL    HW217031   1.902   3.593   3.633  0.4145  2.0729 -1.4672
 1799SOL     OW17032   0.788   0.365  12.914 -0.2814 -0.0285 -0.3740
 1799SOL    HW117033   0.850   0.300  12.949 -0.7079  0.0043  0.4398
 1799SOL    HW217034   0.702   0.329  12.935 -0.4271 -0.2493 -1.3436
 1800SOL     OW17035   1.299   3.324   3.207 -0.5128  0.0127  0.9717
 1800SOL    HW117036   1.385   3.299   3.173 -0.1371  1.3194  0.9261
 1800SOL    HW217037   1.242   3.339   3.131 -0.2359  1.0523  0.9658
 1801SOL     OW17038   3.644   1.030   5.415  0.0246  0.0493  0.0811
 1801SOL    HW117039   3.709   1.089   5.378  0.4005 -0.1626  0.3992
 1801SOL    HW217040   3.695   1.010   5.493  1.3795 -0.9728 -1.0516
 1802SOL     OW17041   4.385   3.655   6.434  0.1848  0.2614  0.0045
 1802SOL    HW117042   4.366   3.601   6.357 -1.1220 -1.9857  1.9526
 1802SOL    HW217043   4.299   3.693   6.449 -0.2315 -0.5271 -0.3923
 1803SOL     OW17044   4.008   3.890  13.170 -0.8125 -0.8870 -0.2461
 1803SOL    HW117045   3.960   3.913  13.090  0.1183 -0.1144 -0.5868
 1803SOL    HW217046   4.062   3.820  13.134  0.5325  1.6634 -3.1759
 1804SOL     OW17047   2.857   1.933  13.631 -0.0494 -0.0999  0.1712
 1804SOL    HW117048   2.827   1.881  13.557  1.3289 -0.6526  0.0147
 1804SOL    HW217049   2.793   1.900  13.693 -0.6111  1.6952  0.5603
 1805SOL     OW17050   1.327   0.888  16.913  0.4022 -0.2377 -0.2839
 1805SOL    HW117051   1.370   0.960  16.866 -1.4242  0.2598 -1.2141
 1805SOL    HW217052   1.236   0.907  16.891  0.4393 -1.6508 -1.6995
 1806SOL     OW17053   0.433   1.981   7.359 -0.1929  0.6461 -0.2952
 1806SOL    HW117054   0.480   1.969   7.277 -0.2661  0.2570 -0.2825
 1806SOL    HW217055   0.431   1.895   7.402  0.2203 -1.4659 -4.4868
 1807SOL     OW17056   0.294   2.611   5.002 -0.0776  0.1932  0.1233
 1807SOL    HW117057   0.262   2.567   5.082  0.2840 -0.8905 -0.3210
 1807SOL    HW217058   0.368   2.553   4.984 -0.0463  0.4923 -0.6634
 1808SOL     OW17059   4.057   1.302   7.476  0.2853 -0.2499 -0.2400
 1808SOL    HW117060   4.080   1.234   7.412 -0.7144 -0.6114 -0.2249
 1808SOL    HW217061   4.123   1.273   7.539 -0.9091 -2.6399 -0.0602
 1809SOL     OW17062   3.283   4.579  11.616 -0.7429  0.9325 -0.0297
 1809SOL    HW117063   3.279   4.585  11.712  3.1484 -1.5392  0.3048
 1809SOL    HW217064   3.270   4.670  11.591  1.1504  1.0030 -0.7480
 1810SOL     OW17065   3.766   4.712   4.884  0.2099 -0.2898 -0.1338
 1810SOL    HW117066   3.762   4.701   4.979 -3.9008  1.0291 -0.1181
 1810SOL    HW217067   3.815   4.638   4.849  0.9632  0.1769 -0.0726
 1811SOL     OW17068   1.273   1.860  12.958 -0.4728 -0.9084 -0.3826
 1811SOL    HW117069   1.245   1.940  12.915  0.3983 -0.2239  0.3232
 1811SOL    HW217070   1.207   1.796  12.930 -0.9947  0.1372 -1.5146
 1812SOL     OW17071   1.391   1.067   7.627 -0.5241  0.1747 -0.1290
 1812SOL    HW117072   1.484   1.075   7.647 -0.4727  0.3097 -0.4175
 1812SOL    HW217073   1.389   0.992   7.568  2.0383 -1.5677  2.0248
 1813SOL     OW17074   0.840   0.062   3.472  0.2336  0.3244  0.8821
 1813SOL    HW117075   0.862   0.104   3.389 -1.6489  2.2001  1.3236
 1813SOL    HW217076   0.818   0.140   3.522  3.3698  4.7367 -4.6799
 1814SOL     OW17077   0.629   2.471  16.042  0.3061 -0.1722  0.0142
 1814SOL    HW117078   0.604   2.422  16.120 -1.3852  1.5065  0.5400
 1814SOL    HW217079   0.668   2.546  16.086  0.5830  0.1187 -0.7292
 1815SOL     OW17080   2.703   2.131   5.786  0.2321 -0.0922 -0.2984
 1815SOL    HW117081   2.673   2.106   5.873  0.0614  0.4376 -0.2055
 1815SOL    HW217082   2.763   2.061   5.761  0.4420  0.0906 -0.3123
 1816SOL     OW17083   0.461   2.070   4.258  0.0045  0.2632 -0.1019
 1816SOL    HW117084   0.381   2.091   4.209 -0.4091 -2.8910 -0.8186
 1816SOL    HW217085   0.446   1.979   4.286  1.4833  0.3151  0.8642
 1817SOL     OW17086   2.890   0.375  12.547  0.2095 -0.5337  0.1357
 1817SOL    HW117087   2.814   0.433  12.539  0.4163 -0.5695 -2.2160
 1817SOL    HW217088   2.855   0.286  12.546  0.2420 -0.5507  0.7571
 1818SOL     OW17089   4.626   2.095   4.075 -0.3149 -0.2209 -0.3413
 1818SOL    HW117090   4.585   2.181   4.083  2.0209  0.9587 -0.9382
 1818SOL    HW217091   4.550   2.049   4.040  0.8433 -1.0927 -1.7030
 1819SOL     OW17092   3.922   0.407   4.840  0.0167 -0.8407  0.1579
 1819SOL    HW117093   3.917   0.315   4.812 -2.7527 -1.4662  2.7545
 1819SOL    HW217094   4.007   0.407   4.884 -1.5042 -1.1284  3.0907
 1820SOL     OW17095   3.933   4.077   2.924  0.2886  0.4188 -0.0924
 1820SOL    HW117096   3.849   4.055   2.966 -0.4060  2.7665 -0.2791
 1820SOL    HW217097   3.963   3.992   2.891 -0.5786  0.1406 -0.1915
 1821SOL     OW17098   0.729   0.149  17.384  0.0305 -0.0718  0.3529
 1821SOL    HW117099   0.755   0.099  17.306 -0.0068 -0.9921  0.9328
 1821SOL    HW217100   0.805   0.136  17.441 -1.3023 -2.8205  1.4762
 1822SOL     OW17101   2.079   0.503   7.436  0.3044  0.6724 -0.7776
 1822SOL    HW117102   2.026   0.451   7.376 -0.9361  1.1091 -0.0542
 1822SOL    HW217103   2.024   0.535   7.508 -0.5175 -2.8252  0.1334
 1823SOL     OW17104   0.885   3.355  16.023 -0.0434 -0.1897  0.3824
 1823SOL    HW117105   0.848   3.414  15.957 -2.4221 -1.6289  0.4133
 1823SOL    HW217106   0.816   3.289  16.019  1.8641 -2.1249 -0.5745
 1824SOL     OW17107   2.633   3.920   8.216  0.0873  0.2850  0.0931
 1824SOL    HW117108   2.608   3.970   8.295  1.8110  1.8481 -0.3478
 1824SOL    HW217109   2.729   3.916   8.214  0.1105  0.5049  0.7629
 1825SOL     OW17110   2.627   4.653  15.723 -0.6550  0.1695 -0.2656
 1825SOL    HW117111   2.567   4.586  15.758  0.0309 -0.0928  0.4058
 1825SOL    HW217112   2.664   4.595  15.656  0.4780 -1.2406  1.5745
 1826SOL     OW17113   1.518   3.615   5.462 -0.3045 -0.3891  0.2292
 1826SOL    HW117114   1.531   3.664   5.543 -2.1807  0.2713  0.1309
 1826SOL    HW217115   1.568   3.669   5.400 -0.7109 -0.4279 -0.1302
 1827SOL     OW17116   3.541   1.274  12.236  0.1199  0.6809 -0.0231
 1827SOL    HW117117   3.575   1.186  12.251 -0.0584  0.6841  0.4008
 1827SOL    HW217118   3.568   1.278  12.144 -0.0368  1.1477 -0.0460
 1828SOL     OW17119   4.435   3.107   2.997 -0.3868 -0.0792  0.5709
 1828SOL    HW117120   4.440   3.136   3.088 -0.5192 -0.4995  0.7152
 1828SOL    HW217121   4.424   3.189   2.949  0.6246 -1.9739 -2.8659
 1829SOL     OW17122   0.486   0.523   1.793  0.1102  0.1672 -0.7270
 1829SOL    HW117123   0.545   0.545   1.721  1.7835 -0.2622  0.5341
 1829SOL    HW217124   0.529   0.540   1.876  0.5974 -2.2560 -0.4917
 1830SOL     OW17125   4.215   1.137   3.420  0.3098 -0.3416 -0.4677
 1830SOL    HW117126   4.134   1.170   3.380 -0.5446 -0.9410  0.7786
 1830SOL    HW217127   4.229   1.056   3.371 -0.6213 -0.1187 -1.1058
 1831SOL     OW17128   3.896   4.548   2.999 -0.3061  0.2034 -0.0117
 1831SOL    HW117129   3.921   4.604   3.073  2.8868 -0.9975 -0.1586
 1831SOL    HW217130   3.964   4.481   2.994 -1.8715 -1.4089  0.3921
 1832SOL     OW17131   0.657   3.270  13.129  0.8090  0.1317 -0.0531
 1832SOL    HW117132   0.651   3.216  13.208  2.8980 -0.6664 -0.4547
 1832SOL    HW217133   0.563   3.283  13.112  0.3767 -1.7967  0.7956
 1833SOL     OW17134   4.379   1.482   7.708  0.6172 -0.4517  0.7043
 1833SOL    HW117135   4.427   1.420   7.652  1.4985 -0.1093  1.0878
 1833SOL    HW217136   4.386   1.561   7.654 -1.2834  0.3686  1.6497
 1834SOL     OW17137   1.699   1.321   8.494 -0.0321  0.3919 -0.4011
 1834SOL    HW117138   1.761   1.268   8.443  1.0648  0.4208  0.8813
 1834SOL    HW217139   1.746   1.405   8.498  1.1652 -0.3648  1.8408
 1835SOL     OW17140   0.103   3.555  10.782  0.2089  0.3870 -0.1749
 1835SOL    HW117141   0.028   3.609  10.809  1.7102  2.5178 -0.3020
 1835SOL    HW217142   0.165   3.628  10.779  0.1201  0.4197 -1.3130
 1836SOL     OW17143   3.639   1.556   4.033 -0.2842  0.4093  0.2061
 1836SOL    HW117144   3.688   1.620   3.980 -0.1938  0.5536  0.4658
 1836SOL    HW217145   3.693   1.480   4.011 -1.5711 -0.5349  0.3396
 1837SOL     OW17146   2.109   3.056   1.888  0.2653 -0.1458 -0.4093
 1837SOL    HW117147   2.153   3.105   1.819 -0.1461  0.8688  0.0603
 1837SOL    HW217148   2.058   3.131   1.917  2.7001  1.2262  0.2614
 1838SOL     OW17149   0.286   1.550   6.836 -0.0477  0.0673  0.3453
 1838SOL    HW117150   0.260   1.625   6.783  0.1973  0.4215  0.7230
 1838SOL    HW217151   0.379   1.546   6.814  0.3395 -0.3470  2.0441
 1839SOL     OW17152   3.894   4.413   1.498 -0.3163 -0.0013  0.0068
 1839SOL    HW117153   3.906   4.326   1.537 -1.1307 -0.6169 -1.0971
 1839SOL    HW217154   3.909   4.471   1.572  1.5704 -0.3182 -0.1288
 1840SOL     OW17155   1.023   2.726   8.794 -0.0545 -0.3294  0.2734
 1840SOL    HW117156   1.050   2.728   8.702 -0.4719 -1.3518  0.1312
 1840SOL    HW217157   1.096   2.672   8.826  0.5619 -0.8596 -2.0539
 1841SOL     OW17158   0.416   2.892   8.822 -0.3955  0.0275  0.0094
 1841SOL    HW117159   0.505   2.867   8.848 -0.9119 -0.5806  1.1683
 1841SOL    HW217160   0.423   2.932   8.735  0.0743 -1.4304 -0.6262
 1842SOL     OW17161   3.701   1.638  14.868 -0.0736 -0.7232  0.1695
 1842SOL    HW117162   3.636   1.608  14.805 -0.9885 -1.3139  1.3859
 1842SOL    HW217163   3.646   1.618  14.944  2.5692 -0.1252  2.2422
 1843SOL     OW17164   0.857   0.750   2.195 -0.3028 -0.2726 -0.5751
 1843SOL    HW117165   0.822   0.778   2.280  3.2357  0.1977  0.7559
 1843SOL    HW217166   0.800   0.797   2.135  1.5965  3.0050  0.2155
 1844SOL     OW17167   0.683   2.468   3.876 -1.1158  0.3279  0.1255
 1844SOL    HW117168   0.684   2.375   3.899 -1.3623  0.4055  0.4495
 1844SOL    HW217169   0.776   2.489   3.877 -0.6124 -1.9097  0.2314
 1845SOL     OW17170   2.419   1.530   7.539 -0.0036 -0.6806 -0.1731
 1845SOL    HW117171   2.388   1.573   7.619  2.9978  0.8481  0.1464
 1845SOL    HW217172   2.514   1.527   7.543 -0.0687 -0.6296  1.2224
 1846SOL     OW17173   1.960   0.170   7.516  0.4505  0.0836  0.1955
 1846SOL    HW117174   1.989   0.116   7.443 -1.8196  2.0521 -2.1705
 1846SOL    HW217175   1.947   0.106   7.587 -0.3307  0.1451  0.1013
 1847SOL     OW17176   4.611   1.947   7.927 -0.1308 -0.3014 -0.4462
 1847SOL    HW117177   4.589   2.005   7.854  0.9335  0.1704 -0.3912
 1847SOL    HW217178   4.654   1.872   7.886 -2.1618 -1.7790  0.1183
 1848SOL     OW17179   1.524   0.180   4.008 -0.4845 -0.2028  0.2205
 1848SOL    HW117180   1.551   0.253   4.064  1.6865  0.0593 -1.1886
 1848SOL    HW217181   1.446   0.154   4.057  0.3694 -1.7064  0.7797
 1849SOL     OW17182   3.312   1.200   0.889 -0.3491  0.2497 -0.1836
 1849SOL    HW117183   3.256   1.262   0.936 -0.1726 -0.7447  1.3281
 1849SOL    HW217184   3.383   1.260   0.864  1.2076 -0.6434  2.0670
 1850SOL     OW17185   4.562   0.754   2.647  0.2086  0.1346  0.1708
 1850SOL    HW117186   4.525   0.818   2.586 -0.1157  1.4468  1.7332
 1850SOL    HW217187   4.506   0.762   2.725 -1.4146 -3.8006 -0.5839
 1851SOL     OW17188   3.538   3.249   5.697 -0.5937 -0.7558  0.3894
 1851SOL    HW117189   3.609   3.198   5.736  0.4593 -0.4726 -1.1566
 1851SOL    HW217190   3.497   3.181   5.643 -0.2847  1.2158 -2.3518
 1852SOL     OW17191   4.696   4.126   8.823 -0.0737 -0.2131  0.1740
 1852SOL    HW117192   4.689   4.091   8.735 -1.4383 -0.6650  0.4686
 1852SOL    HW217193   4.674   4.051   8.878 -1.1524 -0.6440 -0.8444
 1853SOL     OW17194   2.212   0.830  15.972  0.4382  0.1569  0.2949
 1853SOL    HW117195   2.213   0.748  15.922 -2.3805 -0.5948  1.4382
 1853SOL    HW217196   2.257   0.882  15.906  1.2753  2.2948  2.5846
 1854SOL     OW17197   3.870   1.149   5.288 -0.4605  0.1252 -0.0740
 1854SOL    HW117198   3.862   1.229   5.340  1.2828 -0.8236  1.6600
 1854SOL    HW217199   3.917   1.178   5.209 -0.7107  0.1347 -0.2204
 1855SOL     OW17200   4.510   0.335   9.481 -0.1290 -0.7117  0.2780
 1855SOL    HW117201   4.501   0.312   9.574 -1.6482  0.7621  0.5042
 1855SOL    HW217202   4.439   0.397   9.463  0.3962  0.1050  1.0035
 1856SOL     OW17203   3.750   1.130  13.562  0.0118 -0.1162 -0.8226
 1856SOL    HW117204   3.680   1.079  13.603  1.0625  0.8930  2.2285
 1856SOL    HW217205   3.795   1.061  13.513  2.4419  0.0150  1.2554
 1857SOL     OW17206   4.445   0.045   4.654  0.0838 -0.2326 -0.5340
 1857SOL    HW117207   4.442   4.725   4.580 -0.7666 -1.4907  0.5433
 1857SOL    HW217208   4.441   0.124   4.599  1.0058  0.4619  0.3826
 1858SOL     OW17209   2.174   4.653  13.664 -0.1089 -0.4720  0.1888
 1858SOL    HW117210   2.250   4.638  13.721  0.3585 -0.4477 -0.4297
 1858SOL    HW217211   2.149   4.739  13.696  1.0386 -0.6569  1.6252
 1859SOL     OW17212   1.546   0.650   2.319 -0.0068  0.2576 -0.3571
 1859SOL    HW117213   1.456   0.616   2.319  0.5700 -1.2577 -2.8661
 1859SOL    HW217214   1.532   0.744   2.333 -1.8962 -0.0309 -0.2193
 1860SOL     OW17215   3.806   1.982   8.773  0.4170 -0.3990  0.3449
 1860SOL    HW117216   3.743   1.961   8.704  1.3126  0.9508 -0.8908
 1860SOL    HW217217   3.889   1.995   8.728  0.5117  0.3607  0.7410
 1861SOL     OW17218   4.248   1.960   7.170  0.6358 -0.3372 -0.2028
 1861SOL    HW117219   4.170   1.996   7.213 -0.7463 -0.0420 -2.9268
 1861SOL    HW217220   4.251   1.869   7.199  0.3721 -0.3528 -0.2220
 1862SOL     OW17221   1.307   2.420   7.117 -0.0671  0.1136 -0.8660
 1862SOL    HW117222   1.229   2.413   7.172 -0.0820  1.6863 -0.6902
 1862SOL    HW217223   1.356   2.476   7.177  0.5821 -0.8305 -0.5123
 1863SOL     OW17224   3.651   2.712   2.226 -0.0246 -0.2617  0.6278
 1863SOL    HW117225   3.612   2.777   2.285 -1.0621  1.6383 -2.1107
 1863SOL    HW217226   3.712   2.765   2.173  2.0667 -1.1365  2.1490
 1864SOL     OW17227   3.926   1.135  16.279 -0.5915 -0.5937 -0.1110
 1864SOL    HW117228   3.890   1.222  16.293  2.0922  0.4392  0.5300
 1864SOL    HW217229   3.969   1.126  16.364 -3.2671 -0.4316  1.2330
 1865SOL     OW17230   3.287   0.643   5.936  0.0213 -0.1939 -0.5141
 1865SOL    HW117231   3.229   0.618   6.008 -1.0325  0.4874 -1.1168
 1865SOL    HW217232   3.221   0.688   5.883  0.8597  1.3924 -0.2400
 1866SOL     OW17233   0.917   0.691   5.304 -0.3034 -0.1377 -0.1519
 1866SOL    HW117234   0.977   0.675   5.232  1.6399  3.0531  0.8006
 1866SOL    HW217235   0.977   0.718   5.374 -0.5862 -0.2408  0.1348
 1867SOL     OW17236   0.323   3.232  16.607 -0.1654 -0.2167 -0.3135
 1867SOL    HW117237   0.396   3.278  16.650 -0.9497 -0.4779  1.2635
 1867SOL    HW217238   0.247   3.280  16.639 -0.4330  0.0448 -1.3494
 1868SOL     OW17239   3.069   3.390   1.176  0.6663  0.3184  0.1309
 1868SOL    HW117240   3.132   3.460   1.190  1.4687 -0.1480 -1.1667
 1868SOL    HW217241   2.984   3.427   1.200 -0.8171 -1.8005 -1.8411
 1869SOL     OW17242   2.208   2.399   1.267 -0.1474  0.2880  0.4723
 1869SOL    HW117243   2.169   2.471   1.315 -0.4139  0.3222  0.2020
 1869SOL    HW217244   2.190   2.320   1.317  0.6703 -0.6818 -0.7472
 1870SOL     OW17245   2.874   0.596   9.329 -0.7674 -0.2225  0.0328
 1870SOL    HW117246   2.921   0.513   9.327  0.9657  0.7685 -1.0827
 1870SOL    HW217247   2.951   0.652   9.343 -1.1043  0.6163 -1.4655
 1871SOL     OW17248   2.314   1.221   1.009 -0.2831 -0.9583 -0.0966
 1871SOL    HW117249   2.381   1.170   1.054 -0.9064 -0.5545  1.2946
 1871SOL    HW217250   2.245   1.235   1.074 -1.3129  0.1214 -1.4277
 1872SOL     OW17251   2.209   1.736  12.381  0.9929  0.3940  0.7293
 1872SOL    HW117252   2.184   1.795  12.452 -2.1130 -1.5094  1.2308
 1872SOL    HW217253   2.223   1.790  12.304  2.8201 -1.4342 -0.2113
 1873SOL     OW17254   0.945   3.547   3.985 -0.5431  0.5919 -0.2508
 1873SOL    HW117255   0.937   3.641   3.971  0.6997  0.5882 -0.9698
 1873SOL    HW217256   1.040   3.543   3.981 -0.5008  1.9958 -0.6208
 1874SOL     OW17257   1.845   2.708   5.845  0.5395 -0.1032  0.0185
 1874SOL    HW117258   1.808   2.716   5.933  0.1543 -1.1539 -0.0477
 1874SOL    HW217259   1.934   2.673   5.857  0.7361  0.3160 -0.2170
 1875SOL     OW17260   3.792   1.897   4.146  0.5333  0.3686  0.1941
 1875SOL    HW117261   3.747   1.980   4.132 -3.6412 -2.2679 -2.0517
 1875SOL    HW217262   3.733   1.854   4.084 -1.1356  2.1221  0.5798
 1876SOL     OW17263   0.062   2.293   3.306 -0.1349 -0.7834  0.3937
 1876SOL    HW117264   4.732   2.291   3.370 -0.0313 -0.0094  0.5361
 1876SOL    HW217265   0.013   2.244   3.240 -0.6861 -0.6427  0.6971
 1877SOL     OW17266   0.744   0.318   2.147  0.3163  0.0619  0.0848
 1877SOL    HW117267   0.664   0.288   2.104  1.0662 -1.5077 -0.2149
 1877SOL    HW217268   0.757   0.227   2.174  0.7292  0.2977  0.6880
 1878SOL     OW17269   0.975   2.963  14.986  0.2422 -0.0347 -0.1365
 1878SOL    HW117270   1.041   3.023  15.020  3.0833 -2.6118 -1.0786
 1878SOL    HW217271   0.899   3.019  14.999 -1.2357 -1.6676 -1.7625
 1879SOL     OW17272   2.214   0.723   7.303  0.2228  0.2347 -0.2985
 1879SOL    HW117273   2.181   0.645   7.348 -0.4517  1.7626  1.8181
 1879SOL    HW217274   2.264   0.687   7.229  1.2138  1.4610 -0.2184
 1880SOL     OW17275   4.481   2.565   8.097 -0.4464  0.1011  0.4261
 1880SOL    HW117276   4.490   2.624   8.172 -1.1329 -0.4585  0.9470
 1880SOL    HW217277   4.558   2.581   8.043 -0.0683 -1.6775  0.4412
 1881SOL     OW17278   1.115   2.810   5.418  0.4976 -0.1092 -0.2028
 1881SOL    HW117279   1.127   2.854   5.334  2.6756 -0.7828 -0.2312
 1881SOL    HW217280   1.163   2.735   5.384 -0.1297 -1.3028  1.5456
 1882SOL     OW17281   4.335   2.385   0.657 -0.3469  0.1135  0.1739
 1882SOL    HW117282   4.243   2.404   0.676 -0.3394  2.4003 -2.1569
 1882SOL    HW217283   4.372   2.462   0.616 -2.6404  0.8155 -0.5623
 1883SOL     OW17284   3.778   4.324   1.080 -0.0818 -0.0788  0.3287
 1883SOL    HW117285   3.800   4.393   1.142 -1.3146  2.7523 -2.3754
 1883SOL    HW217286   3.745   4.377   1.007  0.6440  0.9977  0.7851
 1884SOL     OW17287   0.523   0.653   2.990  0.1319 -0.1284  0.1245
 1884SOL    HW117288   0.479   0.575   2.956  0.5789 -0.3287  0.0050
 1884SOL    HW217289   0.514   0.633   3.083  1.2745 -0.6523  0.1253
 1885SOL     OW17290   0.949   0.107  15.238  0.0271  0.2737  1.4851
 1885SOL    HW117291   0.918   0.081  15.151 -0.3688  0.8700  1.4543
 1885SOL    HW217292   0.983   0.023  15.269 -0.3707 -0.0672  0.9899
 1886SOL     OW17293   0.883   1.367   3.070 -0.4999 -0.4980 -0.0174
 1886SOL    HW117294   0.862   1.450   3.028 -0.8789 -0.9629 -0.7303
 1886SOL    HW217295   0.824   1.352   3.144 -0.0789 -0.5374  0.3166
 1887SOL     OW17296   2.772   3.695   5.013 -0.0056  0.9241  0.1962
 1887SOL    HW117297   2.773   3.653   5.099  0.4991 -1.0853 -0.8050
 1887SOL    HW217298   2.851   3.748   5.022 -0.1153  1.0426  0.4682
 1888SOL     OW17299   1.167   3.289   4.736  0.2766  0.0526  0.1754
 1888SOL    HW117300   1.181   3.322   4.647  0.6623  2.4654  1.1180
 1888SOL    HW217301   1.086   3.240   4.729  0.0953  0.1902  1.3524
 1889SOL     OW17302   1.353   3.037   9.937  0.0673  0.0305 -0.6770
 1889SOL    HW117303   1.323   2.949   9.957 -0.1806 -0.1709 -1.9091
 1889SOL    HW217304   1.368   3.030   9.842  1.0951  0.9553 -0.5980
 1890SOL     OW17305   2.842   1.514  13.933 -0.4238  0.4296 -0.5499
 1890SOL    HW117306   2.895   1.594  13.941  0.8448 -0.5460  0.8796
 1890SOL    HW217307   2.905   1.444  13.947  0.4544  1.2183 -0.5009
 1891SOL     OW17308   3.850   2.818   3.829 -0.1127 -0.3498 -0.5029
 1891SOL    HW117309   3.891   2.804   3.915 -1.3604 -0.7521  0.0286
 1891SOL    HW217310   3.850   2.913   3.818  1.4451 -0.3298 -0.3910
 1892SOL     OW17311   4.087   3.667  14.374  0.4771 -0.2287  0.0447
 1892SOL    HW117312   4.169   3.643  14.418  1.3834  0.3880 -1.3002
 1892SOL    HW217313   4.051   3.583  14.346 -0.6614  1.0116 -2.2495
 1893SOL     OW17314   0.014   4.584   7.420  0.5085 -0.1545 -0.1104
 1893SOL    HW117315   4.685   4.648   7.433  0.6304 -0.2138  0.8132
 1893SOL    HW217316   0.045   4.602   7.331 -0.6119 -0.3520 -0.5423
 1894SOL     OW17317   4.614   3.695   4.312 -0.2477 -0.2491 -0.0255
 1894SOL    HW117318   4.695   3.668   4.271  0.4711  0.4880  0.9113
 1894SOL    HW217319   4.618   3.790   4.317  2.0736 -0.2925 -1.5031
 1895SOL     OW17320   1.584   3.895   0.791  0.1437 -0.0061  0.3599
 1895SOL    HW117321   1.613   3.813   0.751  0.1937 -1.2842  3.0111
 1895SOL    HW217322   1.514   3.871   0.851 -1.0601  0.9966 -0.6249
 1896SOL     OW17323   0.749   0.349   7.479  0.2017 -0.9402  0.4268
 1896SOL    HW117324   0.729   0.291   7.406 -0.1808  0.1440 -0.3253
 1896SOL    HW217325   0.792   0.293   7.544 -0.7465 -0.5123  1.4220
 1897SOL     OW17326   3.313   0.177   4.362  0.5536 -0.0904  0.5797
 1897SOL    HW117327   3.305   0.160   4.455  0.7711  0.1920  0.6503
 1897SOL    HW217328   3.225   0.213   4.346  0.3120 -1.2643 -0.7374
 1898SOL     OW17329   4.478   4.547   5.153  0.0927 -0.0767  0.3614
 1898SOL    HW117330   4.498   4.610   5.084 -0.8389 -0.3286 -0.1371
 1898SOL    HW217331   4.438   4.608   5.214  0.0813  0.3601 -0.0892
 1899SOL     OW17332   3.334   4.154   0.399 -0.1370 -0.4254  0.0472
 1899SOL    HW117333   3.408   4.109   0.439 -0.3964 -0.1105  0.8665
 1899SOL    HW217334   3.324   4.227   0.460  2.0507 -0.7131  0.7477
 1900SOL     OW17335   0.149   2.434   8.559  0.0742  0.6167  0.1548
 1900SOL    HW117336   0.153   2.458   8.651 -0.5372 -0.0640  0.3610
 1900SOL    HW217337   0.236   2.456   8.527  0.0989 -1.2458 -1.0904
 1901SOL     OW17338   3.479   1.181   7.233 -0.0673 -0.1843  0.7829
 1901SOL    HW117339   3.500   1.107   7.176 -1.0438 -0.9184  1.3771
 1901SOL    HW217340   3.459   1.137   7.316  0.8984 -2.7677 -0.3303
 1902SOL     OW17341   2.161   2.348   3.422  0.1437  0.2145 -0.1673
 1902SOL    HW117342   2.212   2.369   3.344 -1.1548  1.4868 -0.6651
 1902SOL    HW217343   2.119   2.262   3.409  1.7029 -0.5570 -0.1118
 1903SOL     OW17344   0.560   3.155   1.701 -0.2210  0.4923 -0.0178
 1903SOL    HW117345   0.574   3.227   1.639 -3.5024  2.3780  1.4528
 1903SOL    HW217346   0.605   3.083   1.656 -0.1045  0.0298  0.8551
 1904SOL     OW17347   1.943   2.124  14.002  0.3450 -0.2114 -0.1173
 1904SOL    HW117348   1.883   2.124  13.927 -0.0193  1.2381  0.1574
 1904SOL    HW217349   1.890   2.083  14.071  0.2248  0.2145  0.0487
 1905SOL     OW17350   2.125   2.670   1.296  0.4858  0.2123 -0.3011
 1905SOL    HW117351   2.176   2.740   1.336  0.7990  0.2520 -0.7683
 1905SOL    HW217352   2.050   2.726   1.278 -0.4552 -1.4625 -1.6868
 1906SOL     OW17353   0.937   0.766  14.349  0.4718 -0.2005 -0.2920
 1906SOL    HW117354   0.894   0.698  14.401 -2.8245  2.2106  0.1598
 1906SOL    HW217355   0.887   0.743  14.271  0.1069 -1.3204  0.2754
 1907SOL     OW17356   4.277   0.742   8.424 -0.5708  0.5441  0.0621
 1907SOL    HW117357   4.332   0.807   8.380  0.2625 -1.6237 -2.0536
 1907SOL    HW217358   4.297   0.761   8.515  0.1267  3.1287 -0.6177
 1908SOL     OW17359   4.492   1.036   5.663 -0.3344  0.4712 -0.1341
 1908SOL    HW117360   4.562   1.054   5.600  0.4723  2.4289  1.3055
 1908SOL    HW217361   4.416   1.034   5.605 -0.4150 -2.3144  0.0693
 1909SOL     OW17362   2.343   0.856   8.794 -0.0137 -0.0976  0.2139
 1909SOL    HW117363   2.261   0.844   8.843 -1.1335  2.6370 -1.0051
 1909SOL    HW217364   2.374   0.942   8.823 -0.0027 -0.2191  0.5727
 1910SOL     OW17365   3.158   0.992  13.642 -0.0245 -0.6987  0.0143
 1910SOL    HW117366   3.105   0.992  13.563  2.0675 -1.7942 -1.3689
 1910SOL    HW217367   3.086   1.015  13.701  1.3604  1.1024  1.0083
 1911SOL     OW17368   0.185   4.642  16.878  0.4372  0.3651  0.5471
 1911SOL    HW117369   0.158   4.658  16.787  1.8218  2.4276  0.5018
 1911SOL    HW217370   0.237   4.722  16.889 -0.5738  0.7899  2.1369
 1912SOL     OW17371   2.976   2.138  17.654 -0.2354  0.1871  0.4520
 1912SOL    HW117372   2.976   2.228  17.622  0.8972  0.0360  0.0268
 1912SOL    HW217373   3.033   2.157  17.728 -0.8567 -1.6633  1.3976
 1913SOL     OW17374   2.059   3.746   2.622 -0.0082  0.0645  0.1246
 1913SOL    HW117375   2.120   3.754   2.695  2.5342  3.9044 -2.4558
 1913SOL    HW217376   2.055   3.831   2.580  1.5722 -0.4438 -1.0216
 1914SOL     OW17377   3.898   1.681  14.036 -0.1833  0.1588 -0.2378
 1914SOL    HW117378   3.882   1.642  13.950  3.8496 -0.6621 -0.6105
 1914SOL    HW217379   3.831   1.647  14.096 -1.3496  3.6934  0.5076
 1915SOL     OW17380   2.200   0.204   2.687  0.1682 -0.0478 -0.2194
 1915SOL    HW117381   2.200   0.300   2.691 -0.0697  0.0031 -1.3848
 1915SOL    HW217382   2.137   0.176   2.753  1.9816 -2.4031  0.4856
 1916SOL     OW17383   0.110   2.420  15.693 -0.3203 -0.2623  0.7965
 1916SOL    HW117384   0.122   2.441  15.785  0.8844  0.2148  0.5331
 1916SOL    HW217385   0.193   2.376  15.673 -0.1777 -0.0349  0.8999
 1917SOL     OW17386   4.030   2.546   4.097  0.2316 -0.4081  0.5215
 1917SOL    HW117387   4.040   2.623   4.040 -2.9229 -0.7164 -0.4623
 1917SOL    HW217388   4.004   2.591   4.177 -0.4333 -0.1888  0.1833
 1918SOL     OW17389   3.008   3.446   5.215 -0.1624  0.5517  0.9425
 1918SOL    HW117390   3.099   3.448   5.185 -0.0583 -0.5243  1.1947
 1918SOL    HW217391   3.016   3.361   5.257 -0.2775 -0.1452 -0.4552
 1919SOL     OW17392   2.347   1.636   7.804 -0.0476 -0.2170 -0.3986
 1919SOL    HW117393   2.381   1.564   7.857  0.1272  0.5725  0.5460
 1919SOL    HW217394   2.417   1.695   7.831 -1.2452  0.1279  1.9784
 1920SOL     OW17395   4.394   0.294   4.497  0.2603  0.4279  0.3028
 1920SOL    HW117396   4.451   0.371   4.493  3.4889 -1.8443  2.2642
 1920SOL    HW217397   4.312   0.320   4.539 -0.3668 -0.3826 -0.4358
 1921SOL     OW17398   1.435   2.683   0.145  0.3384 -0.3419  0.2076
 1921SOL    HW117399   1.521   2.722   0.164  0.5133  0.1237 -1.5824
 1921SOL    HW217400   1.457   2.590   0.147  0.0123 -0.3898  1.6466
 1922SOL     OW17401   1.667   2.589   6.419 -0.4109 -0.1797 -0.5306
 1922SOL    HW117402   1.591   2.606   6.476  0.9110 -0.5085  1.3071
 1922SOL    HW217403   1.636   2.538   6.344  0.1631  0.7289 -1.3883
 1923SOL     OW17404   4.523   0.577   0.746  0.1636 -0.2725 -0.2941
 1923SOL    HW117405   4.462   0.632   0.698  2.6380  3.2694  0.6250
 1923SOL    HW217406   4.572   0.529   0.680 -0.8383  2.1726 -2.7850
 1924SOL     OW17407   1.856   1.448  11.372  0.1713 -0.2333  0.0707
 1924SOL    HW117408   1.910   1.373  11.346 -1.2313 -1.4592  0.6842
 1924SOL    HW217409   1.780   1.401  11.407  0.0882  0.1899  0.4531
 1925SOL     OW17410   2.961   3.026   6.999 -0.0742  0.3615 -0.0051
 1925SOL    HW117411   2.883   3.034   7.055 -1.1738  1.3684 -1.6797
 1925SOL    HW217412   2.994   2.960   7.059  1.5753  0.8363 -0.4064
 1926SOL     OW17413   1.704   0.882  12.917  0.0827  0.0486 -0.6073
 1926SOL    HW117414   1.646   0.958  12.914 -0.1053  0.0167  1.8380
 1926SOL    HW217415   1.780   0.904  12.972 -1.5693  3.7319  0.2477
 1927SOL     OW17416   3.413   0.507  16.667 -0.3728 -0.2749 -0.4984
 1927SOL    HW117417   3.382   0.516  16.577 -2.8909 -1.1483  0.2708
 1927SOL    HW217418   3.367   0.430  16.701  0.7587  0.5741  2.9645
 1928SOL     OW17419   3.844   2.413   5.798  0.3860 -0.2990 -0.3094
 1928SOL    HW117420   3.858   2.346   5.864  0.2968  0.7630  0.7853
 1928SOL    HW217421   3.888   2.372   5.723  0.4173 -0.9257  0.0546
 1929SOL     OW17422   3.312   1.094   8.291 -0.0469  0.0920  0.1805
 1929SOL    HW117423   3.289   1.071   8.381 -1.2013 -2.5505 -0.7974
 1929SOL    HW217424   3.305   1.007   8.253 -0.5752 -0.8055  2.3415
 1930SOL     OW17425   1.812   1.981   3.474  0.1534 -0.5359  0.2728
 1930SOL    HW117426   1.770   1.903   3.437  1.4257 -0.9047 -0.3970
 1930SOL    HW217427   1.822   1.951   3.564 -2.8853 -2.2017  0.0502
 1931SOL     OW17428   0.501   1.568  14.526 -0.0862 -0.0164  0.5638
 1931SOL    HW117429   0.454   1.564  14.609  1.9759 -2.3487  1.6087
 1931SOL    HW217430   0.579   1.618  14.550 -2.3855  4.0860 -0.4270
 1932SOL     OW17431   3.774   1.248   3.703 -0.4062 -1.1532 -0.4243
 1932SOL    HW117432   3.703   1.196   3.741  0.1577 -1.3393  0.3797
 1932SOL    HW217433   3.735   1.252   3.616 -1.8910 -0.1844  0.2799
 1933SOL     OW17434   3.429   0.902   6.300 -0.7516 -0.3855  0.4430
 1933SOL    HW117435   3.439   0.813   6.333  0.9519  0.1379  1.3603
 1933SOL    HW217436   3.438   0.881   6.207 -1.1864  1.0271  0.0831
 1934SOL     OW17437   1.525   1.044   6.274  0.2645 -0.0474  0.5441
 1934SOL    HW117438   1.610   1.077   6.245  0.7742 -0.4812  1.5363
 1934SOL    HW217439   1.524   1.068   6.366  1.6430  0.7429  0.3554
 1935SOL     OW17440   4.666   4.177  16.746  0.2362  0.1755 -0.1077
 1935SOL    HW117441   4.609   4.229  16.803  2.7320  0.7811  1.8518
 1935SOL    HW217442   0.002   4.234  16.747  1.1592 -1.0745 -0.0703
 1936SOL     OW17443   4.209   4.471   6.231  0.0917  0.4519  0.5874
 1936SOL    HW117444   4.121   4.446   6.204  0.0437 -1.2681  2.3271
 1936SOL    HW217445   4.198   4.547   6.287 -2.7783  0.2276  0.3304
 1937SOL     OW17446   1.018   2.207   1.765  0.2515  1.2979  0.7198
 1937SOL    HW117447   0.925   2.231   1.771 -0.3649 -0.7098 -0.8977
 1937SOL    HW217448   1.021   2.182   1.673 -0.1352  0.4631  0.9314
 1938SOL     OW17449   0.523   1.210   6.273  0.8140 -0.5770  0.5237
 1938SOL    HW117450   0.480   1.265   6.338  0.3855  0.2920 -0.4819
 1938SOL    HW217451   0.491   1.257   6.195 -1.5560 -3.4243 -0.2300
 1939SOL     OW17452   2.409   4.461   9.273  0.0294 -0.0063  0.0371
 1939SOL    HW117453   2.331   4.438   9.223 -0.6162  1.0617  0.5654
 1939SOL    HW217454   2.383   4.439   9.362 -0.1835 -1.9535 -0.5046
 1940SOL     OW17455   4.048   3.445   6.336 -0.1973  0.3372  0.2202
 1940SOL    HW117456   4.103   3.471   6.409 -0.3806 -0.4049  0.6218
 1940SOL    HW217457   4.110   3.469   6.267 -2.2976  0.8311 -1.5243
 1941SOL     OW17458   1.785   1.105   2.749 -0.6030  0.1725 -0.1873
 1941SOL    HW117459   1.861   1.047   2.742 -0.7115  0.1284 -1.0885
 1941SOL    HW217460   1.718   1.042   2.723 -0.8287 -0.1662  1.2614
 1942SOL     OW17461   2.933   3.728   3.966 -0.0372  0.5314  0.1105
 1942SOL    HW117462   2.998   3.779   4.013  0.6417  1.5397 -1.9774
 1942SOL    HW217463   2.854   3.749   4.017  0.8378 -1.4643  2.3022
 1943SOL     OW17464   3.950   3.159  13.893  0.0195  0.2422  0.7911
 1943SOL    HW117465   4.040   3.154  13.861 -0.4891  0.3214 -0.6418
 1943SOL    HW217466   3.953   3.184  13.985  0.6677  1.5237  0.4173
 1944SOL     OW17467   2.865   2.798   6.336 -0.2557  0.1855  0.6775
 1944SOL    HW117468   2.844   2.789   6.243 -2.5750  0.8053  1.1323
 1944SOL    HW217469   2.822   2.882   6.351 -0.8605 -0.1604  0.8894
 1945SOL     OW17470   2.543   0.705   7.762  0.5019  0.0381  0.2254
 1945SOL    HW117471   2.614   0.763   7.734  0.3658  0.3612  0.5524
 1945SOL    HW217472   2.591   0.630   7.799  1.2415  0.8020  0.8245
 1946SOL     OW17473   1.153   2.471   6.177  0.1244  0.1581  0.7807
 1946SOL    HW117474   1.186   2.556   6.205 -0.5128  0.4986  0.5057
 1946SOL    HW217475   1.229   2.413   6.178  0.3838  0.4908  0.1172
 1947SOL     OW17476   0.667   0.511   8.989 -0.4433 -0.1386 -0.1435
 1947SOL    HW117477   0.739   0.509   9.053 -1.5387  2.6045  1.1698
 1947SOL    HW217478   0.664   0.419   8.963 -2.7680 -0.5042  1.4470
 1948SOL     OW17479   2.106   2.160  12.705 -0.4647 -0.4320 -0.0126
 1948SOL    HW117480   2.178   2.162  12.768 -0.8616  0.7795  0.4008
 1948SOL    HW217481   2.037   2.200  12.758 -0.6561  1.0520 -1.3839
 1949SOL     OW17482   2.508   0.269   5.872 -0.0099 -0.0879 -0.1691
 1949SOL    HW117483   2.540   0.253   5.961 -2.0360 -0.4867  0.4957
 1949SOL    HW217484   2.415   0.290   5.880  0.0995 -0.4546  2.0920
 1950SOL     OW17485   4.152   2.666   4.577  0.2996 -0.5610 -0.0678
 1950SOL    HW117486   4.165   2.744   4.523 -0.7650 -0.6190 -0.3982
 1950SOL    HW217487   4.215   2.692   4.645 -0.4710  1.7106 -0.2005
 1951SOL     OW17488   2.262   4.674   6.868 -0.4687  0.2157  0.1091
 1951SOL    HW117489   2.262   4.591   6.821 -1.0072 -0.2133  0.8773
 1951SOL    HW217490   2.262   4.731   6.791  2.3800  0.6490  0.4059
 1952SOL     OW17491   4.672   3.369  11.083  0.1527 -0.2975  0.3210
 1952SOL    HW117492   4.588   3.392  11.043 -0.3377  0.2088  1.6625
 1952SOL    HW217493   4.721   3.359  11.001 -1.3363  2.6675 -0.9227
 1953SOL     OW17494   3.102   3.767  13.120 -0.2648  0.3396  0.3018
 1953SOL    HW117495   3.007   3.777  13.130  0.0141  2.6370  0.6253
 1953SOL    HW217496   3.134   3.834  13.179  0.5778  0.2995 -0.1093
 1954SOL     OW17497   3.103   0.660   6.163 -0.5529  0.0204 -0.2481
 1954SOL    HW117498   3.031   0.598   6.155 -1.7537  1.5105 -0.8370
 1954SOL    HW217499   3.061   0.745   6.174 -2.4209 -0.8599 -0.6936
 1955SOL     OW17500   0.811   4.241  13.018 -0.0816  0.3438  0.2369
 1955SOL    HW117501   0.804   4.238  12.922  0.3871 -2.7269  0.2820
 1955SOL    HW217502   0.863   4.160  13.025  1.4767  1.4057  1.0098
 1956SOL     OW17503   3.557   0.013   4.658  0.7910  0.1599 -0.1224
 1956SOL    HW117504   3.629   0.071   4.686  1.2414 -0.8906  0.8758
 1956SOL    HW217505   3.557   4.706   4.741 -1.9168  1.7076  0.7603
 1957SOL     OW17506   3.356   1.183   8.927 -0.1754 -0.7595  0.0252
 1957SOL    HW117507   3.305   1.194   9.007 -0.5896  0.4555 -0.3904
 1957SOL    HW217508   3.369   1.089   8.936 -1.1690 -1.0315 -1.2665
 1958SOL     OW17509   1.791   0.156   6.121  0.5669 -0.1704 -0.2608
 1958SOL    HW117510   1.718   0.138   6.062  1.5193  0.7203 -1.7080
 1958SOL    HW217511   1.812   0.248   6.109  2.0589 -0.0654  3.1729
 1959SOL     OW17512   0.292   2.212   7.808 -0.1987  0.3138 -0.2906
 1959SOL    HW117513   0.236   2.136   7.827 -0.0999 -0.1554 -1.8345
 1959SOL    HW217514   0.312   2.197   7.715  0.7666  1.2792 -0.2354
 1960SOL     OW17515   2.813   4.090   8.708 -0.6106  0.0506  0.2901
 1960SOL    HW117516   2.845   4.016   8.760  0.2924  0.0737 -0.2224
 1960SOL    HW217517   2.864   4.163   8.744  1.6212 -1.2864 -0.1084
 1961SOL     OW17518   1.482   2.486   5.534 -0.2696 -0.4722 -0.2560
 1961SOL    HW117519   1.563   2.515   5.491  0.1027 -2.4088 -0.8501
 1961SOL    HW217520   1.427   2.560   5.508  0.1028 -0.0838  0.0601
 1962SOL     OW17521   0.480   3.793   3.949  0.7154 -0.4243  0.5925
 1962SOL    HW117522   0.423   3.726   3.986 -1.1080 -0.1006 -1.5771
 1962SOL    HW217523   0.425   3.870   3.955  0.1120 -0.7016 -1.3608
 1963SOL     OW17524   0.327   3.726   4.885 -0.6677  0.3486 -0.1117
 1963SOL    HW117525   0.273   3.794   4.845  0.3924  1.3291  0.0845
 1963SOL    HW217526   0.298   3.727   4.976 -0.9499  1.0092 -0.2040
 1964SOL     OW17527   3.921   4.669   3.246  0.2697 -1.0990  0.2699
 1964SOL    HW117528   4.006   4.705   3.275 -0.1708  1.6304 -1.8168
 1964SOL    HW217529   3.890   4.625   3.325  1.8577 -0.5226  1.2367
 1965SOL     OW17530   3.453   0.831   0.831  0.1260  0.4011  0.2572
 1965SOL    HW117531   3.474   0.751   0.783  0.5903 -0.8708  2.6196
 1965SOL    HW217532   3.538   0.875   0.824 -0.1204  1.4384  3.7639
 1966SOL     OW17533   2.776   1.622   7.769  0.0611  0.3733  1.3017
 1966SOL    HW117534   2.741   1.580   7.691  1.6151 -1.4435  1.5669
 1966SOL    HW217535   2.804   1.543   7.816  1.0731  0.5362  0.9741
 1967SOL     OW17536   3.634   1.190   2.061 -0.5051  0.2429 -0.1287
 1967SOL    HW117537   3.539   1.201   2.072 -0.6351 -0.0495 -0.9481
 1967SOL    HW217538   3.678   1.255   2.115 -1.0120  0.9905 -0.6092
 1968SOL     OW17539   4.023   2.077  13.276 -0.2101  0.3217 -0.3725
 1968SOL    HW117540   4.069   2.137  13.216 -2.0808  0.1419 -2.0018
 1968SOL    HW217541   3.957   2.043  13.215 -0.3973  0.4320 -0.2339
 1969SOL     OW17542   3.068   0.804   4.924 -0.0013 -0.6567 -0.3341
 1969SOL    HW117543   3.134   0.873   4.919 -2.0066  1.2674 -0.2002
 1969SOL    HW217544   3.089   0.768   5.010 -0.9236 -2.0503 -0.6779
 1970SOL     OW17545   4.336   2.193   6.529 -0.0050  0.1619  0.6808
 1970SOL    HW117546   4.263   2.208   6.588 -0.8501 -0.8111 -0.1170
 1970SOL    HW217547   4.414   2.215   6.580 -0.3528  1.8964  0.4442
 1971SOL     OW17548   3.579   2.733   3.791 -0.0532  0.1402 -0.5127
 1971SOL    HW117549   3.558   2.826   3.781 -0.1903  0.3213  1.3913
 1971SOL    HW217550   3.672   2.735   3.813  0.1493  1.4930 -1.5339
 1972SOL     OW17551   1.974   4.308   2.833 -0.6461  0.1066  0.0063
 1972SOL    HW117552   2.067   4.303   2.853 -1.4682 -0.2274  3.6755
 1972SOL    HW217553   1.934   4.323   2.918 -1.2465 -2.9970  0.2443
 1973SOL     OW17554   3.763   0.350  11.908  0.1825 -0.3521 -0.1172
 1973SOL    HW117555   3.786   0.422  11.966  0.8252 -0.2759 -0.4689
 1973SOL    HW217556   3.704   0.295  11.959  0.3672 -0.5425 -0.1100
 1974SOL     OW17557   4.160   2.884   4.430 -0.2355 -0.1595 -0.5237
 1974SOL    HW117558   4.220   2.945   4.386 -0.5166  0.6643  0.2386
 1974SOL    HW217559   4.085   2.937   4.455  1.4106  2.3442 -0.8489
 1975SOL     OW17560   0.697   4.091   0.798  0.0570 -0.2833  0.3571
 1975SOL    HW117561   0.702   4.169   0.743 -3.5246  0.9363  1.7148
 1975SOL    HW217562   0.684   4.122   0.888  0.3256 -2.0406  1.0009
 1976SOL     OW17563   3.328   4.568  17.336  0.0284 -0.3447 -0.8537
 1976SOL    HW117564   3.309   4.477  17.312  0.2941 -0.2078 -1.5714
 1976SOL    HW217565   3.370   4.562  17.422 -1.5681  1.0318  0.0214
 1977SOL     OW17566   4.104   4.634   1.993 -0.3649 -0.1979 -0.1063
 1977SOL    HW117567   4.153   4.581   1.931 -0.8651 -0.4714 -0.2687
 1977SOL    HW217568   4.157   4.714   1.999 -1.9398  0.8325  0.2046
 1978SOL     OW17569   0.567   1.601   7.820 -0.3351  0.1761 -0.5269
 1978SOL    HW117570   0.536   1.513   7.802  0.9405 -0.4579  0.3814
 1978SOL    HW217571   0.510   1.612   7.896  3.0320 -1.0460  2.1794
 1979SOL     OW17572   1.744   2.867  11.957 -0.2001 -0.4350 -0.7396
 1979SOL    HW117573   1.721   2.908  11.873  2.5073 -0.3823 -1.4552
 1979SOL    HW217574   1.828   2.827  11.937  1.0489  1.9153 -0.1997
 1980SOL     OW17575   4.354   3.839  12.127  0.0859  0.2158 -0.2550
 1980SOL    HW117576   4.425   3.807  12.072  0.4629 -1.4164  1.2081
 1980SOL    HW217577   4.283   3.838  12.062 -0.1586  2.4043 -0.0343
 1981SOL     OW17578   1.675   1.922   5.053  0.0669  0.1988 -0.1724
 1981SOL    HW117579   1.647   2.010   5.030  2.0860  1.0815  0.6964
 1981SOL    HW217580   1.766   1.922   5.021 -0.4009  0.4253 -1.4979
 1982SOL     OW17581   1.042   4.424   8.239  0.2577  0.4289 -0.1729
 1982SOL    HW117582   1.070   4.339   8.205 -0.1268 -0.4728  1.7726
 1982SOL    HW217583   0.979   4.447   8.170 -0.6455  1.9635  1.1694
 1983SOL     OW17584   4.083   0.266   4.198 -0.4601 -0.2503 -0.4732
 1983SOL    HW117585   4.070   0.235   4.108  1.0920 -0.6290 -0.5760
 1983SOL    HW217586   4.161   0.318   4.180 -0.2017 -0.0298  1.2763
 1984SOL     OW17587   0.986   1.281   8.099  0.1049 -0.1673 -0.0939
 1984SOL    HW117588   0.913   1.236   8.057  1.7071 -1.7168 -1.2492
 1984SOL    HW217589   1.034   1.221   8.158  0.4932 -0.0972 -0.3366
 1985SOL     OW17590   3.087   1.765  13.332  0.1466  0.5365 -0.2688
 1985SOL    HW117591   3.011   1.719  13.297 -0.3230  0.2640  1.0938
 1985SOL    HW217592   3.084   1.843  13.276  0.8013 -0.0866 -1.1729
 1986SOL     OW17593   4.621   1.912   2.749  0.1058 -0.2579  0.5103
 1986SOL    HW117594   4.652   1.835   2.797 -0.5108 -0.6093  0.3379
 1986SOL    HW217595   4.693   1.969   2.776 -0.2862  0.0907  0.8145
 1987SOL     OW17596   0.228   3.381   8.629  0.7660 -0.6784  0.2982
 1987SOL    HW117597   0.145   3.423   8.608  0.4676 -1.8697 -0.9714
 1987SOL    HW217598   0.245   3.418   8.715 -0.0678  1.9950 -0.7010
 1988SOL     OW17599   1.889   2.836   8.184 -0.0835  0.0136  0.0502
 1988SOL    HW117600   1.807   2.787   8.179 -0.0687 -0.0526  0.4570
 1988SOL    HW217601   1.898   2.880   8.100  0.5243 -1.9763 -0.9439
 1989SOL     OW17602   1.840   1.434  12.471  0.3049  0.2071 -0.0260
 1989SOL    HW117603   1.799   1.499  12.414 -0.8321 -1.4795 -1.1299
 1989SOL    HW217604   1.793   1.354  12.448  1.2434 -0.3447 -0.0361
 1990SOL     OW17605   1.595   3.865  10.673 -0.5526  0.1084 -1.0219
 1990SOL    HW117606   1.582   3.812  10.752  1.1051  0.0634 -0.7713
 1990SOL    HW217607   1.579   3.952  10.711  0.6266  0.2076 -0.7344
 1991SOL     OW17608   2.853   2.077   2.516  0.3431  0.1260 -0.6277
 1991SOL    HW117609   2.796   2.079   2.593  3.4840  1.9646  1.6644
 1991SOL    HW217610   2.829   1.993   2.477 -2.7255 -0.4966  2.6375
 1992SOL     OW17611   3.732   0.903   1.188  0.3101 -0.2436  0.0114
 1992SOL    HW117612   3.819   0.919   1.225  0.2916  0.4224 -0.2332
 1992SOL    HW217613   3.685   0.973   1.233 -0.1656 -1.1572  0.9081
 1993SOL     OW17614   2.158   1.369  16.317  0.8203 -0.0411 -0.4919
 1993SOL    HW117615   2.075   1.325  16.331  0.0901  1.0593 -1.4168
 1993SOL    HW217616   2.122   1.450  16.283  2.2338  1.0370  0.5850
 1994SOL     OW17617   1.272   3.820   5.611  0.3454 -1.0676  0.2565
 1994SOL    HW117618   1.259   3.726   5.597 -4.0350 -0.7602  2.1993
 1994SOL    HW217619   1.340   3.849   5.550 -1.4579  0.9569 -0.8133
 1995SOL     OW17620   4.304   1.762   8.574 -0.0202 -0.3214  0.4288
 1995SOL    HW117621   4.341   1.721   8.495 -0.8661 -2.3132  1.0747
 1995SOL    HW217622   4.371   1.820   8.610  0.5510 -0.8563  0.2198
 1996SOL     OW17623   3.627   2.134   0.514  0.0355  0.2950 -0.0990
 1996SOL    HW117624   3.542   2.125   0.556 -0.4066 -0.7291 -1.1882
 1996SOL    HW217625   3.616   2.210   0.456 -2.0841  0.0993  0.0412
 1997SOL     OW17626   2.783   2.155  10.681 -0.7219  0.5575  0.2509
 1997SOL    HW117627   2.865   2.105  10.685 -1.1888 -0.2042  0.3300
 1997SOL    HW217628   2.732   2.091  10.731 -2.1461  1.7525  0.2996
 1998SOL     OW17629   3.187   4.032   5.161  0.3359  0.0672 -0.4371
 1998SOL    HW117630   3.255   3.968   5.180  0.2971  0.1004 -0.1789
 1998SOL    HW217631   3.213   4.114   5.202  0.2258  1.7084 -3.6329
 1999SOL     OW17632   0.550   4.358   6.883  0.3683 -0.0449 -0.1437
 1999SOL    HW117633   0.602   4.437   6.871  1.5540 -0.6843  0.8133
 1999SOL    HW217634   0.610   4.287   6.861  1.9786  1.1761  0.3236
 2000SOL     OW17635   1.608   3.787  11.259  0.0734  0.4790 -0.5834
 2000SOL    HW117636   1.677   3.853  11.258  0.2160  0.3153 -2.2514
 2000SOL    HW217637   1.554   3.829  11.326  1.9442 -0.7119  1.6840
 2001SOL     OW17638   1.067   3.827   9.334 -0.4777 -0.5540  0.0401
 2001SOL    HW117639   1.006   3.901   9.330  2.1767  1.6302 -0.3234
 2001SOL    HW217640   1.088   3.823   9.241 -0.4262  4.0160 -0.1676
 2002SOL     OW17641   2.554   3.354   6.878 -0.4352 -0.3235 -0.0711
 2002SOL    HW117642   2.554   3.258   6.877 -1.1755 -0.3137 -1.3877
 2002SOL    HW217643   2.620   3.376   6.813 -1.8094  2.8109 -0.3854
 2003SOL     OW17644   3.556   1.119   6.390  0.6869 -0.3465 -0.0198
 2003SOL    HW117645   3.585   1.133   6.299  2.2350  1.5066  0.7549
 2003SOL    HW217646   3.501   1.043   6.376 -1.1416  0.5930  2.1941
 2004SOL     OW17647   1.734   1.957  16.147  0.2428  0.2260  0.1822
 2004SOL    HW117648   1.782   2.030  16.107  0.2954 -0.6821 -1.4066
 2004SOL    HW217649   1.649   2.002  16.143 -0.6354 -1.3489  1.4873
 2005SOL     OW17650   4.647   2.771   1.841 -0.2766 -0.3557  0.0324
 2005SOL    HW117651   4.573   2.713   1.825 -0.4352  0.4178 -2.0307
 2005SOL    HW217652   4.710   2.718   1.889 -1.7140 -0.9052  1.3120
 2006SOL     OW17653   2.535   0.377  16.657 -0.0881 -0.2499  0.0053
 2006SOL    HW117654   2.574   0.441  16.717 -0.1908 -2.3024  2.2538
 2006SOL    HW217655   2.493   0.318  16.720  1.7770 -0.3939  1.0945
 2007SOL     OW17656   0.792   0.023  17.118  0.2182 -0.0897  0.1778
 2007SOL    HW117657   0.882   0.011  17.087 -0.1413 -2.1599 -0.0231
 2007SOL    HW217658   0.755   0.066  17.041  0.0419  1.4825  1.1375
 2008SOL     OW17659   1.788   0.692   4.614  0.0988 -0.0672 -0.0364
 2008SOL    HW117660   1.793   0.788   4.607  2.2626 -0.4146 -3.2154
 2008SOL    HW217661   1.880   0.665   4.622  0.5694  1.8334  0.9419
 2009SOL     OW17662   1.003   3.715  10.619  0.2951 -0.0775  0.6563
 2009SOL    HW117663   0.972   3.658  10.548 -1.2041  0.5261  0.8344
 2009SOL    HW217664   1.090   3.676  10.632 -0.4234 -2.0378 -0.2918
 2010SOL     OW17665   0.615   0.343   7.931  0.2469  0.2049 -0.1283
 2010SOL    HW117666   0.697   0.312   7.968  0.7522  1.7056  0.0273
 2010SOL    HW217667   0.574   0.265   7.894  0.5649  0.4983 -1.1244
 2011SOL     OW17668   3.223   0.403  14.533  0.1990  0.2001 -0.1912
 2011SOL    HW117669   3.309   0.361  14.538 -0.7307 -1.6602 -0.1799
 2011SOL    HW217670   3.206   0.428  14.624  3.3528 -3.2209  1.3242
 2012SOL     OW17671   0.340   3.383   9.144  0.5262  0.0514  0.0417
 2012SOL    HW117672   0.268   3.329   9.113  1.7002 -3.6005  3.5870
 2012SOL    HW217673   0.341   3.360   9.237 -2.0311 -0.9305 -0.1928
 2013SOL     OW17674   4.036   0.212   3.595  0.1850  0.0445  0.3654
 2013SOL    HW117675   4.046   0.290   3.540  0.9483 -2.4261 -2.9805
 2013SOL    HW217676   4.072   0.251   3.675  0.1654 -0.9333  0.8475
 2014SOL     OW17677   2.876   2.300   3.527 -0.4271 -0.1572  0.7784
 2014SOL    HW117678   2.815   2.341   3.465  0.4736 -0.0508 -0.0298
 2014SOL    HW217679   2.868   2.207   3.509  2.0470  0.0280 -1.2272
 2015SOL     OW17680   3.120   3.139   1.081  0.7852  0.4561  0.7044
 2015SOL    HW117681   3.087   3.227   1.097  2.4748  0.8744  1.9807
 2015SOL    HW217682   3.212   3.145   1.105  1.1644 -1.3741 -0.3276
 2016SOL     OW17683   1.368   0.418   3.454 -0.1268  0.7102  0.0550
 2016SOL    HW117684   1.280   0.410   3.491  0.5681  1.7969  1.9247
 2016SOL    HW217685   1.351   0.356   3.383  0.8170  0.9355 -0.3546
 2017SOL     OW17686   1.082   3.461   6.380 -0.2858  0.4874 -0.3237
 2017SOL    HW117687   1.096   3.503   6.465 -0.9409  0.3565 -0.1511
 2017SOL    HW217688   0.987   3.448   6.381 -0.1033 -0.9298 -1.3905
 2018SOL     OW17689   3.433   2.763  10.301  0.1030  0.2501 -0.1197
 2018SOL    HW117690   3.501   2.776  10.236  0.4869 -1.4626 -0.0552
 2018SOL    HW217691   3.371   2.706  10.256 -0.5166 -0.3441  1.4827
 2019SOL     OW17692   1.474   0.418   6.181  0.5087  0.3930  0.0615
 2019SOL    HW117693   1.558   0.454   6.209 -0.1454  0.7732  1.5184
 2019SOL    HW217694   1.506   0.385   6.097  0.9544  3.0760 -0.8069
 2020SOL     OW17695   3.480   1.055   2.359 -0.1913 -0.1581  0.2365
 2020SOL    HW117696   3.410   1.088   2.416 -1.5919  0.2234 -1.7143
 2020SOL    HW217697   3.440   1.006   2.288  1.6969  1.1264 -1.7261
 2021SOL     OW17698   3.031   1.546   9.463 -0.5742 -0.0920  0.5223
 2021SOL    HW117699   2.988   1.630   9.481 -0.0063  0.2495  0.2709
 2021SOL    HW217700   2.969   1.491   9.510 -1.9662  0.2929 -0.8517
 2022SOL     OW17701   3.268   1.667   3.783 -0.1854  0.1510 -0.2547
 2022SOL    HW117702   3.252   1.687   3.691  0.4488 -1.1170 -0.6419
 2022SOL    HW217703   3.201   1.722   3.822 -1.6669 -0.9370 -1.2659
 2023SOL     OW17704   4.378   0.723   0.166 -0.2420 -0.0533  0.5350
 2023SOL    HW117705   4.471   0.703   0.162 -0.1193  0.6817 -0.2411
 2023SOL    HW217706   4.367   0.795   0.228 -0.8292  1.9567 -1.8793
 2024SOL     OW17707   2.153   2.805  15.756  0.1200 -0.0239  0.9374
 2024SOL    HW117708   2.192   2.814  15.669  1.5546  0.4124  1.6285
 2024SOL    HW217709   2.111   2.888  15.780  0.0576  0.0257  0.6593
 2025SOL     OW17710   4.248   0.333  12.041  0.3331  0.0467 -0.3806
 2025SOL    HW117711   4.234   0.358  12.132  1.7908  1.2096 -0.4771
 2025SOL    HW217712   4.191   0.257  12.029  0.3254 -0.3287  2.0288
 2026SOL     OW17713   0.030   2.483  15.244  0.2416  0.0579 -0.7770
 2026SOL    HW117714   4.731   2.521  15.166 -1.0557  2.8105  1.2184
 2026SOL    HW217715   4.732   2.547  15.304  0.7305  0.1601 -0.5702
 2027SOL     OW17716   4.202   2.442   2.890 -0.1705 -0.5457  0.1933
 2027SOL    HW117717   4.256   2.521   2.879  2.0539 -2.1191 -0.0837
 2027SOL    HW217718   4.249   2.398   2.961 -0.8312  1.8882  2.1635
 2028SOL     OW17719   2.003   2.507   8.020  0.6938 -0.3281 -0.4891
 2028SOL    HW117720   2.013   2.438   7.954  1.1323 -1.0468  0.3307
 2028SOL    HW217721   1.931   2.473   8.073 -1.1487  2.5385 -1.1320
 2029SOL     OW17722   3.063   1.684   5.157 -0.1757  1.0885 -0.2486
 2029SOL    HW117723   3.039   1.740   5.231  0.7263  0.0837  0.7982
 2029SOL    HW217724   2.980   1.672   5.112 -0.3086  1.1044 -0.0072
 2030SOL     OW17725   0.440   0.213  15.782  0.2124 -0.1099  0.0434
 2030SOL    HW117726   0.472   0.205  15.693 -0.3355  1.5398 -0.3121
 2030SOL    HW217727   0.378   0.287  15.778 -0.7742 -0.9004  0.5687
 2031SOL     OW17728   0.720   1.612   4.095 -0.4351 -0.4632 -0.1699
 2031SOL    HW117729   0.676   1.533   4.124 -2.1554  0.7340  0.4662
 2031SOL    HW217730   0.813   1.586   4.095 -0.1063  0.6374 -4.8176
 2032SOL     OW17731   0.935   1.121   1.374 -0.0043  0.2199  0.0333
 2032SOL    HW117732   0.897   1.057   1.435 -1.3026  2.4277  1.5471
 2032SOL    HW217733   0.874   1.119   1.300  2.6721 -0.7015 -2.1533
 2033SOL     OW17734   0.144   3.338   0.556 -0.3206 -0.1961 -0.1630
 2033SOL    HW117735   0.150   3.415   0.612  0.5636  1.0430 -1.9754
 2033SOL    HW217736   0.072   3.356   0.496 -1.4628 -1.6903  0.7569
 2034SOL     OW17737   2.821   4.519   3.599  0.1105 -0.0743  0.3992
 2034SOL    HW117738   2.750   4.511   3.664 -0.2175  0.3491  0.0951
 2034SOL    HW217739   2.852   4.430   3.611  4.6415  1.7764  2.4977
 2035SOL     OW17740   3.328   1.930   7.073  0.2149 -0.1921  0.8214
 2035SOL    HW117741   3.299   1.859   7.015  3.5833 -1.4184  0.6352
 2035SOL    HW217742   3.418   1.919   7.042 -0.1950  0.6288 -0.6709
 2036SOL     OW17743   1.247   3.867   5.278 -0.4897  0.4519 -0.5257
 2036SOL    HW117744   1.248   3.784   5.230  1.1484  0.0816  0.1504
 2036SOL    HW217745   1.172   3.873   5.336 -0.1214  1.1506 -0.1300
 2037SOL     OW17746   0.137   2.939   2.948  0.2028 -0.0414  0.0765
 2037SOL    HW117747   0.203   3.006   2.933 -0.1542  0.0275 -1.2503
 2037SOL    HW217748   0.072   2.979   2.890  0.3720 -0.3678 -0.3415
 2038SOL     OW17749   4.206   1.232   9.041 -0.3589 -0.1806  0.5149
 2038SOL    HW117750   4.114   1.248   9.063  0.0604 -0.0507  2.1620
 2038SOL    HW217751   4.223   1.166   9.109  2.6496 -0.0040 -0.0635
 2039SOL     OW17752   2.202   0.765   6.026  0.4159  0.1610 -0.1098
 2039SOL    HW117753   2.283   0.725   5.992 -1.0331 -3.0489  0.1869
 2039SOL    HW217754   2.246   0.807   6.100  0.7380 -1.0915  0.4269
 2040SOL     OW17755   2.594   1.549   9.554 -0.1896 -0.0799  0.6337
 2040SOL    HW117756   2.648   1.488   9.604 -1.8384 -0.7459  1.6070
 2040SOL    HW217757   2.521   1.489   9.539 -2.1896  2.3191  0.7765
 2041SOL     OW17758   3.692   4.495  16.399  0.1422  0.1693  0.5080
 2041SOL    HW117759   3.672   4.495  16.493 -1.2195 -2.8797  0.2213
 2041SOL    HW217760   3.604   4.501  16.362 -0.3165  0.4467  1.6457
 2042SOL     OW17761   2.247   2.895   3.309  0.0541  0.3911  0.1667
 2042SOL    HW117762   2.319   2.861   3.256  1.0656  0.5409  1.4301
 2042SOL    HW217763   2.183   2.828   3.287 -0.9440  2.0625 -1.8902
 2043SOL     OW17764   4.450   0.626   4.921 -0.1742 -0.2105 -0.4243
 2043SOL    HW117765   4.464   0.534   4.899 -2.7806 -0.7782  0.3238
 2043SOL    HW217766   4.454   0.628   5.017 -0.8579 -0.5276 -0.3899
 2044SOL     OW17767   0.676   0.865   8.680 -0.0439  0.1715  0.0798
 2044SOL    HW117768   0.639   0.778   8.692  0.5001 -0.1924 -0.8843
 2044SOL    HW217769   0.607   0.912   8.634 -0.9377 -2.4340 -1.2004
 2045SOL     OW17770   4.356   1.705   0.835  0.3365 -0.0883  1.0073
 2045SOL    HW117771   4.391   1.771   0.775 -1.9134  0.7975  0.6597
 2045SOL    HW217772   4.377   1.748   0.918 -0.3798  1.4502  0.3913
 2046SOL     OW17773   0.465   2.719   2.560  0.0627  0.3827  0.0388
 2046SOL    HW117774   0.528   2.785   2.531 -0.2467 -0.8020 -3.3098
 2046SOL    HW217775   0.505   2.677   2.636  0.5010  4.6755  2.2261
 2047SOL     OW17776   3.137   0.340   5.265  0.5029  0.1175 -0.0647
 2047SOL    HW117777   3.226   0.304   5.269  0.4646 -0.0332 -0.4721
 2047SOL    HW217778   3.094   0.296   5.338 -0.4980  1.6357  0.2543
 2048SOL     OW17779   3.882   0.504  11.671  0.1189 -0.2390  0.4751
 2048SOL    HW117780   3.908   0.582  11.720  0.7678  0.0873 -0.3760
 2048SOL    HW217781   3.810   0.468  11.721  0.2127  0.3584  1.0432
 2049SOL     OW17782   4.622   0.808   8.462 -0.2219  0.6253 -0.0328
 2049SOL    HW117783   4.558   0.769   8.521 -0.2928 -1.0733 -1.2154
 2049SOL    HW217784   4.661   0.871   8.522  0.0601  0.4640 -0.0467
 2050SOL     OW17785   4.582   2.586   8.555  0.3353 -0.0609 -0.0721
 2050SOL    HW117786   4.622   2.643   8.620  0.2917  0.0040 -0.1023
 2050SOL    HW217787   4.639   2.509   8.563  0.5878  0.2094  0.6270
 2051SOL     OW17788   1.473   4.614   7.413  0.2211 -0.7762  0.2333
 2051SOL    HW117789   1.530   4.655   7.348 -1.2071 -0.0381 -0.5618
 2051SOL    HW217790   1.424   4.695   7.430  0.2372 -0.9014  0.8616
 2052SOL     OW17791   2.067   1.288  15.499  0.0667  0.5805 -0.2726
 2052SOL    HW117792   2.084   1.352  15.429 -0.8336  1.5285  0.3731
 2052SOL    HW217793   2.128   1.221  15.468  0.6920 -0.9408  4.2988
 2053SOL     OW17794   0.980   4.666  17.719  0.2616  0.4032  0.0126
 2053SOL    HW117795   0.895   4.677   0.001  0.8957 -0.0539  1.4008
 2053SOL    HW217796   0.965   4.715  17.639 -0.9311  1.5206  0.9280
 2054SOL     OW17797   4.235   2.120   8.009  0.2870 -0.5175  0.3959
 2054SOL    HW117798   4.225   2.180   8.083  3.4830  0.7390 -0.1745
 2054SOL    HW217799   4.230   2.184   7.937  1.4743 -0.7531  0.1018
 2055SOL     OW17800   4.352   0.635   7.304 -0.1986  0.2979  0.1479
 2055SOL    HW117801   4.371   0.637   7.398 -0.5431 -1.6998  0.2661
 2055SOL    HW217802   4.280   0.697   7.296 -0.9650 -0.4751  1.1528
 2056SOL     OW17803   1.488   2.697  15.589  0.3344  0.5448 -0.5273
 2056SOL    HW117804   1.559   2.757  15.566  0.7930  0.1850 -0.0345
 2056SOL    HW217805   1.459   2.670  15.502 -3.4051  0.1558  0.8537
 2057SOL     OW17806   3.787   4.390   2.338 -0.3206 -0.1193 -0.0050
 2057SOL    HW117807   3.868   4.362   2.381 -0.0976 -1.9125 -1.6324
 2057SOL    HW217808   3.831   4.463   2.294 -0.6909 -0.3314 -0.7149
 2058SOL     OW17809   3.233   4.245   4.307 -0.2106 -0.0163  0.3351
 2058SOL    HW117810   3.199   4.170   4.258  1.0196 -1.6969  2.0367
 2058SOL    HW217811   3.302   4.274   4.247 -1.9048  2.4590 -0.3843
 2059SOL     OW17812   3.367   1.954   2.252 -0.2588 -0.1110  0.0845
 2059SOL    HW117813   3.286   1.925   2.210 -1.0172 -1.0892  2.2603
 2059SOL    HW217814   3.363   2.049   2.268 -1.3904 -0.1754  0.1815
 2060SOL     OW17815   3.643   1.251   0.762  0.7772 -0.2789 -0.3702
 2060SOL    HW117816   3.644   1.343   0.789 -0.2292 -0.6981  1.1614
 2060SOL    HW217817   3.638   1.207   0.847  2.3420 -0.0572 -0.1718
 2061SOL     OW17818   4.639   0.169  16.784 -0.0160 -0.3095  0.4294
 2061SOL    HW117819   4.712   0.157  16.844  1.9783 -0.7895 -2.1159
 2061SOL    HW217820   4.578   0.218  16.840  2.0946 -0.0845  2.5418
 2062SOL     OW17821   1.492   1.369  10.836 -0.0444 -0.1704  0.1617
 2062SOL    HW117822   1.496   1.444  10.777 -0.1200 -2.6368 -3.0029
 2062SOL    HW217823   1.494   1.417  10.919 -1.2371 -1.7956  1.1352
 2063SOL     OW17824   2.680   2.165   3.214 -0.4394  0.0654 -0.4412
 2063SOL    HW117825   2.614   2.136   3.276  1.9640  0.2425  2.1941
 2063SOL    HW217826   2.741   2.092   3.203 -2.5295 -1.5513 -1.4117
 2064SOL     OW17827   3.522   4.251   7.208 -0.0502 -0.1818 -0.4295
 2064SOL    HW117828   3.462   4.177   7.218 -0.5151  0.1523 -0.7619
 2064SOL    HW217829   3.561   4.239   7.294  0.6637 -0.4530 -0.7886
 2065SOL     OW17830   3.623   3.723   2.544  0.3256 -0.0397  0.4781
 2065SOL    HW117831   3.716   3.745   2.545 -0.1432  2.0200 -1.9789
 2065SOL    HW217832   3.607   3.758   2.632 -2.5484 -1.2994  0.4543
 2066SOL     OW17833   1.589   0.917  16.116 -0.3692  0.0168 -0.6395
 2066SOL    HW117834   1.589   0.908  16.021  0.3044 -0.2583 -0.6171
 2066SOL    HW217835   1.594   0.825  16.141  0.5818  0.0834 -0.5915
 2067SOL     OW17836   0.262   1.575  16.558 -0.5780  0.3224 -0.4242
 2067SOL    HW117837   0.229   1.664  16.569 -1.5724  0.0767 -1.4666
 2067SOL    HW217838   0.343   1.592  16.510 -0.1864  0.5739  0.3341
 2068SOL     OW17839   1.060   4.179   8.107 -0.3879 -0.0781  0.3483
 2068SOL    HW117840   1.061   4.178   8.011  0.9236  0.7197  0.3589
 2068SOL    HW217841   0.975   4.142   8.130 -1.0059  1.2189  0.1757
 2069SOL     OW17842   3.654   2.287   7.746 -0.1689  0.5787  0.4145
 2069SOL    HW117843   3.715   2.281   7.673 -2.4790 -0.4510 -1.4128
 2069SOL    HW217844   3.650   2.194   7.772 -0.2063  0.0626 -1.4432
 2070SOL     OW17845   1.902   0.024  17.145 -0.0139  0.3195  0.4075
 2070SOL    HW117846   1.829   4.736  17.091 -0.4518  2.2115  0.0070
 2070SOL    HW217847   1.963   0.035  17.073 -0.0699  1.2013  0.4959
 2071SOL     OW17848   1.491   2.942   8.546  0.0022 -0.0321  0.3787
 2071SOL    HW117849   1.400   2.942   8.576  0.5037  1.3636  1.9119
 2071SOL    HW217850   1.528   3.027   8.569  0.4662  0.4619 -2.1809
 2072SOL     OW17851   1.999   0.522   4.954 -0.3798  0.0299 -0.2599
 2072SOL    HW117852   1.905   0.538   4.951 -0.2049  1.3688  1.4245
 2072SOL    HW217853   2.029   0.601   4.909 -0.3655  0.0506 -0.2141
 2073SOL     OW17854   1.360   4.333   3.677 -0.2080 -0.0771  0.6848
 2073SOL    HW117855   1.390   4.367   3.761 -1.3025 -0.9401  1.4375
 2073SOL    HW217856   1.440   4.326   3.625 -1.3375 -2.0137 -0.8057
 2074SOL     OW17857   1.905   2.104   4.720  0.1818 -0.0149  0.2272
 2074SOL    HW117858   1.833   2.166   4.705 -0.1033 -1.0035 -2.5371
 2074SOL    HW217859   1.966   2.129   4.651 -0.9818  2.2097 -0.0257
 2075SOL     OW17860   1.004   1.563   0.192 -0.0619  0.0855  0.0165
 2075SOL    HW117861   1.016   1.541   0.284  0.9542 -0.2469 -0.1939
 2075SOL    HW217862   1.040   1.652   0.184 -0.3465  0.1449 -0.6305
 2076SOL     OW17863   4.241   0.537   7.683 -0.2843  0.3203  0.3796
 2076SOL    HW117864   4.257   0.518   7.775  1.5586 -0.0537 -0.0132
 2076SOL    HW217865   4.322   0.577   7.651  0.4367  1.2250  3.4022
 2077SOL     OW17866   3.204   3.758   6.903 -0.3985  0.5463 -0.6453
 2077SOL    HW117867   3.245   3.768   6.989 -0.1027  0.0864 -0.7339
 2077SOL    HW217868   3.112   3.764   6.928 -0.2141  0.9882 -0.0649
 2078SOL     OW17869   4.517   1.938  12.557 -0.1433 -0.1414 -0.0779
 2078SOL    HW117870   4.604   1.927  12.517  0.7913  1.6285  1.5204
 2078SOL    HW217871   4.496   1.844  12.558 -2.0562  0.2676 -2.0788
 2079SOL     OW17872   2.494   1.304   9.929 -0.2972  0.2108  0.0180
 2079SOL    HW117873   2.412   1.254   9.935  0.3712 -0.6910  1.4681
 2079SOL    HW217874   2.549   1.237   9.969  0.6108  0.3428 -1.0179
 2080SOL     OW17875   1.532   4.157  10.203  0.4820  0.1527 -0.1955
 2080SOL    HW117876   1.498   4.109  10.279 -0.3572  4.8092  2.3555
 2080SOL    HW217877   1.589   4.093  10.161  1.5179  1.4186 -0.7030
 2081SOL     OW17878   2.417   3.662   3.371  0.0518 -0.1397  0.0154
 2081SOL    HW117879   2.498   3.710   3.386  0.1943  0.2376 -1.9631
 2081SOL    HW217880   2.359   3.674   3.446 -0.2910 -1.0144 -0.1080
 2082SOL     OW17881   0.180   4.244   3.533 -0.4801  0.1203  0.3454
 2082SOL    HW117882   0.185   4.157   3.572 -0.3710  0.1983  0.5017
 2082SOL    HW217883   0.270   4.272   3.549 -0.5231  0.1096  0.6025
 2083SOL     OW17884   0.673   0.670  15.443 -0.5697  0.3472  0.2190
 2083SOL    HW117885   0.708   0.726  15.374 -0.7554 -0.8713 -0.8670
 2083SOL    HW217886   0.650   0.737  15.506  0.4989  1.0384 -0.1223
 2084SOL     OW17887   2.089   4.738  15.525 -0.8495  0.2899 -0.1638
 2084SOL    HW117888   2.159   4.705  15.470 -0.4862  0.5749  0.1263
 2084SOL    HW217889   2.022   4.672  15.507 -0.3655 -0.2191 -0.0920
 2085SOL     OW17890   2.756   4.058  10.625 -0.2351  0.0436  0.3303
 2085SOL    HW117891   2.741   4.063  10.720 -0.4637  0.1094  0.2919
 2085SOL    HW217892   2.679   4.007  10.597  0.7139 -0.9128 -0.5000
 2086SOL     OW17893   2.072   0.416   0.857 -0.2888 -0.2268 -0.8031
 2086SOL    HW117894   2.099   0.473   0.785  1.5625 -1.6879 -1.2655
 2086SOL    HW217895   1.982   0.445   0.874 -0.0530  0.1972 -0.2980
 2087SOL     OW17896   2.962   3.753   3.161 -0.0100 -0.4507  0.2100
 2087SOL    HW117897   2.993   3.833   3.120  0.6703 -1.6590 -1.6428
 2087SOL    HW217898   2.977   3.693   3.088  0.0470  0.8534 -0.8365
 2088SOL     OW17899   1.942   1.773   2.939  0.0494 -0.4152  0.3026
 2088SOL    HW117900   1.962   1.860   2.904 -0.0836 -1.1949 -1.6938
 2088SOL    HW217901   1.879   1.728   2.883  0.0519  0.6532 -0.5446
 2089SOL     OW17902   3.229   3.386   5.040  0.2190 -0.1279 -0.3764
 2089SOL    HW117903   3.191   3.379   4.952 -1.4745 -0.6431  0.3939
 2089SOL    HW217904   3.270   3.299   5.048 -4.2943 -2.0807  1.5373
 2090SOL     OW17905   2.895   4.057  14.906  0.1638 -0.1437  0.0360
 2090SOL    HW117906   2.916   4.084  14.817  2.3517 -1.4721  0.1421
 2090SOL    HW217907   2.839   4.128  14.936 -0.7365 -0.5826 -0.6136
 2091SOL     OW17908   3.740   4.311   5.517 -0.2147 -0.8006  0.4823
 2091SOL    HW117909   3.649   4.296   5.544 -0.4462  0.8467  0.6043
 2091SOL    HW217910   3.760   4.241   5.456  0.9492  0.6959 -0.8485
 2092SOL     OW17911   3.271   3.572   2.572 -0.5440  0.0649  0.3115
 2092SOL    HW117912   3.306   3.529   2.650  0.1413 -0.2953 -0.1995
 2092SOL    HW217913   3.331   3.646   2.574  1.2495 -1.3351 -0.9087
 2093SOL     OW17914   2.587   3.859   5.902 -0.1049 -0.2680 -0.1641
 2093SOL    HW117915   2.662   3.898   5.946 -2.0238  0.9814  1.9916
 2093SOL    HW217916   2.511   3.893   5.949 -0.5972 -0.6602 -0.6846
 2094SOL     OW17917   3.100   1.913  10.176  0.5211 -0.2794 -0.5650
 2094SOL    HW117918   3.143   1.944  10.096 -0.2278 -0.4796 -1.0472
 2094SOL    HW217919   3.016   1.898  10.132  0.9898  0.4609 -1.7130
 2095SOL     OW17920   2.236   0.574   7.045 -1.0374  0.3230 -0.2403
 2095SOL    HW117921   2.238   0.522   6.964 -0.2141 -0.4459  0.2653
 2095SOL    HW217922   2.319   0.622   7.042 -0.7305 -0.1225  0.9198
 2096SOL     OW17923   4.498   0.427   2.087  0.0267  0.1028  0.4950
 2096SOL    HW117924   4.547   0.491   2.035  0.0830 -3.0658 -3.3844
 2096SOL    HW217925   4.566   0.368   2.120 -0.9776 -0.6262  1.2362
 2097SOL     OW17926   4.732   3.441   2.347  0.5106 -0.1286  0.2126
 2097SOL    HW117927   0.086   3.425   2.344  0.6551  0.6627  0.6104
 2097SOL    HW217928   4.730   3.525   2.302 -0.5330  0.7952  1.9812
 2098SOL     OW17929   0.594   3.132   4.141  0.3721 -0.6929  0.1107
 2098SOL    HW117930   0.525   3.135   4.206 -1.2866  0.0128 -1.6692
 2098SOL    HW217931   0.546   3.133   4.058 -1.3363 -1.4049  1.0945
 2099SOL     OW17932   1.395   3.199   6.225 -0.4800 -0.4202  0.7917
 2099SOL    HW117933   1.458   3.134   6.196 -0.5592  0.5320 -1.4721
 2099SOL    HW217934   1.447   3.240   6.294 -2.2332  1.5737  0.9431
 2100SOL     OW17935   0.016   0.201   0.166 -0.1166  0.3862  0.0963
 2100SOL    HW117936   4.679   0.228   0.118  1.0879  3.1259 -0.3287
 2100SOL    HW217937   0.089   0.205   0.104 -0.6265 -0.9863 -0.5751
 2101SOL     OW17938   2.859   2.219   6.996 -0.1800  0.2723 -0.0573
 2101SOL    HW117939   2.936   2.229   7.053 -0.2223 -0.2615  0.0885
 2101SOL    HW217940   2.858   2.124   6.986 -1.1308  0.4419 -1.5963
 2102SOL     OW17941   2.144   3.163  16.581 -0.3203 -0.1503 -0.5335
 2102SOL    HW117942   2.080   3.093  16.595  1.5677 -1.5002  1.4295
 2102SOL    HW217943   2.126   3.179  16.489  0.3311 -0.0865 -0.6458
 2103SOL     OW17944   1.183   4.388   9.503  0.3546  0.2187 -0.5635
 2103SOL    HW117945   1.175   4.297   9.531 -0.7204 -0.0159 -1.6120
 2103SOL    HW217946   1.256   4.415   9.558  0.3692 -0.1735 -0.3900
 2104SOL     OW17947   2.964   4.213   4.877 -0.0531 -0.0775 -0.3383
 2104SOL    HW117948   2.924   4.148   4.818  0.8424 -0.1060 -0.9042
 2104SOL    HW217949   2.894   4.278   4.885  0.4528  0.4813 -0.5138
 2105SOL     OW17950   4.693   1.730   7.782  0.3827 -0.3750  0.6909
 2105SOL    HW117951   0.033   1.733   7.730  0.3730 -1.0967  0.6306
 2105SOL    HW217952   4.634   1.704   7.711  2.4836 -2.4031 -0.3163
 2106SOL     OW17953   2.767   0.560  14.353 -0.5527  0.3567 -0.8876
 2106SOL    HW117954   2.690   0.599  14.314 -0.7812 -0.0406 -0.8342
 2106SOL    HW217955   2.795   0.644  14.390  1.5702 -0.3721 -0.8333
 2107SOL     OW17956   3.381   0.142   1.530 -0.0428  0.0918 -0.0127
 2107SOL    HW117957   3.309   0.204   1.534  1.4344  1.8524 -0.9459
 2107SOL    HW217958   3.339   0.084   1.465  1.0798 -1.0506  0.2732
 2108SOL     OW17959   2.572   0.254   0.545  0.0204  0.2380  0.7817
 2108SOL    HW117960   2.646   0.314   0.531 -0.6881  0.4940 -1.8177
 2108SOL    HW217961   2.573   0.215   0.457  1.0712 -0.6397  1.1907
 2109SOL     OW17962   2.000   4.430  11.488  0.6651 -0.3195 -0.1750
 2109SOL    HW117963   2.086   4.467  11.470  0.6242 -0.0654  0.1566
 2109SOL    HW217964   1.970   4.489  11.557  2.0267 -0.3202  0.4157
 2110SOL     OW17965   1.888   1.973  10.913 -0.3904 -0.1675  0.0416
 2110SOL    HW117966   1.827   1.905  10.887  0.1009 -0.8772  0.7440
 2110SOL    HW217967   1.934   1.925  10.982 -1.3275 -0.2140  0.6309
 2111SOL     OW17968   4.600   3.357   4.279  0.6439 -0.4662 -0.1019
 2111SOL    HW117969   4.529   3.390   4.335  0.3891 -0.2446 -0.5480
 2111SOL    HW217970   4.617   3.442   4.237 -1.7115  0.5296  0.9425
 2112SOL     OW17971   1.627   2.355   9.095 -0.4239 -0.2136  0.6477
 2112SOL    HW117972   1.649   2.304   9.173 -1.1757  1.8186  2.2221
 2112SOL    HW217973   1.600   2.291   9.031  0.0791  1.1176 -0.8949
 2113SOL     OW17974   3.281   4.048   0.836  0.0712 -0.2515  0.2344
 2113SOL    HW117975   3.348   3.981   0.827  0.8282  0.3479  1.3478
 2113SOL    HW217976   3.318   4.129   0.800 -1.4151 -0.6427 -2.1749
 2114SOL     OW17977   0.925   0.539   6.704  0.2825  0.2858 -0.3479
 2114SOL    HW117978   0.884   0.507   6.784  0.3803 -0.7012 -0.6857
 2114SOL    HW217979   1.001   0.589   6.735  0.9903  0.8120 -2.9318
 2115SOL     OW17980   1.208   2.209   8.470 -0.0876  0.2849  0.3417
 2115SOL    HW117981   1.161   2.155   8.534  0.7670 -0.1081  0.6455
 2115SOL    HW217982   1.135   2.258   8.434  0.3809  2.0588  1.8334
 2116SOL     OW17983   2.068   1.728   9.333  0.0401 -0.1018 -0.1769
 2116SOL    HW117984   2.079   1.667   9.406  1.6352 -0.8400 -1.0322
 2116SOL    HW217985   2.037   1.806   9.379 -1.0465  0.3221 -1.6319
 2117SOL     OW17986   2.883   4.511  14.685  0.2337 -0.2294  0.2951
 2117SOL    HW117987   2.881   4.494  14.591  2.5208  1.6361 -0.1028
 2117SOL    HW217988   2.916   4.601  14.685  0.6308 -0.3718 -1.1875
 2118SOL     OW17989   4.656   2.574   5.049  0.0019  0.0250 -0.4561
 2118SOL    HW117990   4.711   2.630   4.994  0.6757  0.1432  0.3373
 2118SOL    HW217991   4.645   2.502   4.986  2.1110  0.6244 -1.5099
 2119SOL     OW17992   1.457   3.641   3.423  0.0742 -0.5378  0.3315
 2119SOL    HW117993   1.361   3.638   3.422  0.1570 -3.6520  1.9225
 2119SOL    HW217994   1.473   3.715   3.482  2.8592 -1.1119  0.2889
 2120SOL     OW17995   2.394   3.813  16.992  0.2813  0.3160 -0.0202
 2120SOL    HW117996   2.437   3.819  17.077 -3.1268  3.4611  1.4872
 2120SOL    HW217997   2.354   3.727  17.006 -0.6368  0.4996 -1.4974
 2121SOL     OW17998   4.622   0.965   2.020 -0.5507 -1.0369  0.7169
 2121SOL    HW117999   4.675   1.031   2.065  0.6729 -1.9697  0.6401
 2121SOL    HW218000   4.645   0.994   1.931 -0.4006  0.7904  1.3428
 2122SOL     OW18001   3.614   4.563   3.994 -0.1168 -0.2015 -0.1305
 2122SOL    HW118002   3.666   4.589   3.918  0.3428 -2.7961 -0.7135
 2122SOL    HW218003   3.589   4.645   4.036  0.4348 -0.4183  0.6221
 2123SOL     OW18004   2.808   2.866   1.952 -0.2326  0.0830  0.0198
 2123SOL    HW118005   2.768   2.820   1.878  1.1437  0.2661 -0.8309
 2123SOL    HW218006   2.877   2.804   1.978  0.1238 -0.4142 -2.0858
 2124SOL     OW18007   1.678   3.440   4.707  0.0908 -0.0860 -0.1557
 2124SOL    HW118008   1.723   3.361   4.678 -1.9555 -1.8081  1.3662
 2124SOL    HW218009   1.755   3.489   4.735 -0.7151  0.5577  0.9628
 2125SOL     OW18010   3.150   1.535   8.999  0.1791 -0.0275 -0.9015
 2125SOL    HW118011   3.153   1.450   8.955  0.6850 -1.1601  1.3185
 2125SOL    HW218012   3.068   1.523   9.046  0.1964  1.0556 -0.5892
 2126SOL     OW18013   3.476   0.810  16.715 -0.3369 -0.2903 -0.2702
 2126SOL    HW118014   3.551   0.801  16.774 -0.5021 -1.5517 -0.2630
 2126SOL    HW218015   3.477   0.723  16.676  0.2880  0.4351 -1.8626
 2127SOL     OW18016   1.746   2.308   2.159  0.1562  0.0642 -0.2442
 2127SOL    HW118017   1.690   2.302   2.237  0.5796 -2.0393 -0.1157
 2127SOL    HW218018   1.683   2.271   2.098 -1.8259  1.3280  1.0399
 2128SOL     OW18019   0.931   2.973   3.270  0.2369 -0.6087 -0.2798
 2128SOL    HW118020   0.930   2.879   3.254 -1.0781 -0.6427 -0.0473
 2128SOL    HW218021   1.025   2.987   3.261  0.1950  1.7623  3.1428
 2129SOL     OW18022   1.374   2.891  16.622  0.0759 -0.0766 -0.3293
 2129SOL    HW118023   1.411   2.806  16.598 -0.0744  0.0986 -1.1786
 2129SOL    HW218024   1.431   2.902  16.698  1.0750 -1.1104 -0.9300
 2130SOL     OW18025   0.816   2.024  14.905 -0.3382  0.2973 -0.5423
 2130SOL    HW118026   0.785   2.113  14.890 -1.8088  0.3986  2.9769
 2130SOL    HW218027   0.728   1.990  14.892 -0.9167  1.3937  0.5101
 2131SOL     OW18028   0.001   2.190  11.808 -0.0913 -0.4408 -0.1294
 2131SOL    HW118029   0.069   2.256  11.823 -0.7307  0.2149 -0.0633
 2131SOL    HW218030   4.718   2.201  11.716 -0.5115  0.2622  0.0631
 2132SOL     OW18031   1.517   0.467   8.541  1.2575 -0.1971  0.2407
 2132SOL    HW118032   1.461   0.444   8.466 -0.0391  2.7609  0.2983
 2132SOL    HW218033   1.601   0.437   8.506  1.8178 -0.5834  1.9427
 2133SOL     OW18034   0.143   4.138   7.089  0.1278  0.1221 -0.3506
 2133SOL    HW118035   0.127   4.155   6.996 -0.6455 -1.8165 -0.5745
 2133SOL    HW218036   0.221   4.191   7.108 -1.1831  2.0387 -0.2968
 2134SOL     OW18037   1.154   0.523   5.683 -0.0905 -0.3151 -0.1686
 2134SOL    HW118038   1.086   0.489   5.625 -0.0365 -1.8987  0.7014
 2134SOL    HW218039   1.196   0.582   5.621  1.2843  0.4920  1.5448
 2135SOL     OW18040   0.910   2.203   9.497 -0.2275 -0.5340  0.0007
 2135SOL    HW118041   0.938   2.115   9.473  2.9537  0.6356 -0.6312
 2135SOL    HW218042   0.990   2.249   9.470  0.2276 -1.4281 -0.1877
 2136SOL     OW18043   1.570   0.528   3.613 -0.2752 -0.4501  0.6578
 2136SOL    HW118044   1.489   0.509   3.565 -0.7527 -1.1841  1.7589
 2136SOL    HW218045   1.594   0.440   3.642 -1.2818  0.2314  3.5815
 2137SOL     OW18046   4.017   3.846   7.555 -0.1011  0.6183  0.5849
 2137SOL    HW118047   4.104   3.807   7.566 -0.1657  0.9998  2.4373
 2137SOL    HW218048   4.041   3.939   7.554  3.5404 -0.3190 -0.3258
 2138SOL     OW18049   1.577   1.288  17.054 -0.4064 -0.1744  1.1521
 2138SOL    HW118050   1.521   1.223  17.098 -0.7726 -1.4804 -1.2160
 2138SOL    HW218051   1.660   1.277  17.100  0.3251 -1.1557 -0.3965
 2139SOL     OW18052   1.988   4.285   7.756  0.5711 -0.1770 -0.1108
 2139SOL    HW118053   1.904   4.327   7.776  2.7037  3.9518  0.1105
 2139SOL    HW218054   2.044   4.357   7.786  1.4281 -1.4885  1.4332
 2140SOL     OW18055   2.213   2.747  13.338 -0.8223 -0.1813  0.7198
 2140SOL    HW118056   2.279   2.813  13.316 -0.0092 -1.2002  0.0829
 2140SOL    HW218057   2.151   2.798  13.390 -1.9061  1.3606 -2.0883
 2141SOL     OW18058   0.742   2.720   1.594 -0.1820  0.1801 -0.0942
 2141SOL    HW118059   0.820   2.724   1.649  0.6600 -0.0972 -1.2626
 2141SOL    HW218060   0.726   2.626   1.592 -1.7648  0.5644 -4.7594
 2142SOL     OW18061   4.621   1.026  10.977 -0.3104 -0.0322  0.1265
 2142SOL    HW118062   4.651   0.935  10.982  0.7058  0.2727 -0.4157
 2142SOL    HW218063   4.695   1.084  10.957 -0.6305  0.3539  0.0704
 2143SOL     OW18064   0.566   2.116   3.876  0.4591 -0.7055  0.1271
 2143SOL    HW118065   0.548   2.022   3.876  0.9723 -0.8065 -0.9893
 2143SOL    HW218066   0.659   2.117   3.898 -0.1942  0.8510  2.8612
 2144SOL     OW18067   2.096   3.492  15.940  0.9397 -0.7310  0.2128
 2144SOL    HW118068   2.007   3.457  15.933  0.9522 -0.4682 -1.2303
 2144SOL    HW218069   2.131   3.440  15.867  1.0489 -0.4552  0.0684
 2145SOL     OW18070   4.132   2.022   0.562 -0.1182 -0.2649  0.0810
 2145SOL    HW118071   4.083   2.101   0.538  1.0839 -0.1099 -1.8613
 2145SOL    HW218072   4.220   2.052   0.584  0.0740  0.2579 -1.3835
 2146SOL     OW18073   2.822   2.289   9.534 -0.0253 -0.3185 -0.3601
 2146SOL    HW118074   2.769   2.213   9.558 -2.1742  0.5543 -2.3065
 2146SOL    HW218075   2.779   2.333   9.460  1.9356 -0.0002 -1.3174
 2147SOL     OW18076   2.100   3.104  17.602 -0.3188 -0.1948  0.7142
 2147SOL    HW118077   2.021   3.051  17.615  0.1479 -1.6013 -2.1982
 2147SOL    HW218078   2.068   3.182  17.649 -1.3558  2.0579 -3.6833
 2148SOL     OW18079   1.431   3.436   2.541  0.4812  0.8542 -0.4912
 2148SOL    HW118080   1.386   3.516   2.567 -0.1094 -0.2753  2.0588
 2148SOL    HW218081   1.522   3.464   2.538  0.6158  0.3309 -1.1434
 2149SOL     OW18082   1.205   3.638   9.489  0.1246  0.1112  0.0560
 2149SOL    HW118083   1.153   3.711   9.457  1.8529  0.0942 -2.7859
 2149SOL    HW218084   1.204   3.643   9.584 -0.2302 -0.9554  0.1134
 2150SOL     OW18085   0.654   0.712   6.362  0.7677  0.1255 -0.6150
 2150SOL    HW118086   0.661   0.712   6.457  0.6857  2.6363 -0.6063
 2150SOL    HW218087   0.574   0.662   6.352  1.5244 -0.9301 -1.3765
 2151SOL     OW18088   1.575   0.771   1.658  0.3400  0.0038  0.3029
 2151SOL    HW118089   1.657   0.787   1.610 -0.0941  0.8134 -0.1659
 2151SOL    HW218090   1.513   0.776   1.585  1.8130  1.1072 -0.8976
 2152SOL     OW18091   0.016   4.676   5.658  0.3802 -0.4791  0.1377
 2152SOL    HW118092   0.021   4.621   5.736 -2.6614 -0.7805  0.1308
 2152SOL    HW218093   0.108   4.682   5.631 -0.1654 -1.4243 -1.9439
 2153SOL     OW18094   0.228   1.162  11.735  0.3565  0.0285 -0.7324
 2153SOL    HW118095   0.315   1.200  11.722 -0.6946  2.4676 -0.6244
 2153SOL    HW218096   0.185   1.184  11.653 -1.2679 -2.0143 -0.4160
 2154SOL     OW18097   0.463   0.776   2.109  0.1203  0.7276 -0.1922
 2154SOL    HW118098   0.375   0.805   2.086 -0.3226 -0.5495 -0.1093
 2154SOL    HW218099   0.441   0.715   2.179 -0.6204  1.2548  0.0287
 2155SOL     OW18100   3.275   0.435   8.404  0.1274  0.2007  0.4197
 2155SOL    HW118101   3.292   0.388   8.322  0.3868 -0.9547  1.1196
 2155SOL    HW218102   3.184   0.462   8.392 -0.5253 -0.7520  3.0660
 2156SOL     OW18103   1.029   2.131  15.053  0.2234  1.3000  0.6461
 2156SOL    HW118104   0.958   2.081  15.014 -0.1404  1.5629  0.9679
 2156SOL    HW218105   1.022   2.206  14.993 -0.8371  1.0811  0.4929
 2157SOL     OW18106   4.389   0.787  13.167  0.3785 -0.0198 -0.1587
 2157SOL    HW118107   4.424   0.834  13.091 -1.5717 -1.3756 -1.8711
 2157SOL    HW218108   4.466   0.791  13.225  1.1946 -0.0349 -1.2515
 2158SOL     OW18109   0.604   3.846   6.837  0.0840 -0.2712 -0.0521
 2158SOL    HW118110   0.516   3.861   6.872  1.3893  1.3855  2.5671
 2158SOL    HW218111   0.617   3.918   6.776  0.2131 -1.6330 -1.6445
 2159SOL     OW18112   0.287   3.637   8.416 -0.0208  0.2089  0.0312
 2159SOL    HW118113   0.316   3.712   8.363 -0.1557  0.3600  0.1707
 2159SOL    HW218114   0.365   3.585   8.399 -0.0875  0.6225 -1.6345
 2160SOL     OW18115   2.270   3.930   4.910  0.5536 -0.1540 -0.3262
 2160SOL    HW118116   2.354   3.911   4.951  0.7642 -1.4825 -1.3871
 2160SOL    HW218117   2.307   4.009   4.872 -2.1905  1.4438  0.2753
 2161SOL     OW18118   3.936   4.202   1.686 -0.2048 -0.5334 -0.4596
 2161SOL    HW118119   3.915   4.138   1.618 -0.6253 -1.0297  0.1335
 2161SOL    HW218120   3.906   4.153   1.763  0.7322 -0.5204 -0.0894
 2162SOL     OW18121   3.223   2.600   2.388 -0.3267  0.2492 -0.0343
 2162SOL    HW118122   3.161   2.594   2.460 -1.3612  1.1840 -0.8275
 2162SOL    HW218123   3.292   2.541   2.419 -0.3940  0.3588  0.3197
 2163SOL     OW18124   4.499   2.976  13.488  0.3748 -0.1065  0.2422
 2163SOL    HW118125   4.465   2.893  13.455 -2.9396  1.0317  0.7425
 2163SOL    HW218126   4.432   3.034  13.452  0.4911  1.1732  2.0821
 2164SOL     OW18127   0.110   1.839  10.370 -0.0807  0.0608  0.2621
 2164SOL    HW118128   0.112   1.771  10.438 -0.5866  1.2501  1.4545
 2164SOL    HW218129   0.037   1.894  10.400 -0.6785  0.3958 -1.8128
 2165SOL     OW18130   0.201   0.544   8.885  0.5731  0.1417  0.0346
 2165SOL    HW118131   0.174   0.562   8.975  0.7119 -1.2355  0.3574
 2165SOL    HW218132   0.181   0.629   8.846 -0.4084  0.0175  0.2751
 2166SOL     OW18133   1.498   3.612   8.214  0.5414  0.8808 -0.6049
 2166SOL    HW118134   1.417   3.619   8.264  2.9159  0.3521  3.2898
 2166SOL    HW218135   1.490   3.527   8.170 -0.9392  1.0542 -0.6512
 2167SOL     OW18136   4.162   0.330   3.106 -0.3395  0.3632 -0.2339
 2167SOL    HW118137   4.184   0.254   3.160 -0.8530 -0.2126 -0.8356
 2167SOL    HW218138   4.192   0.290   3.024  1.1825  0.7220  0.1406
 2168SOL     OW18139   3.101   3.893   4.897  0.0875  0.3037  0.6187
 2168SOL    HW118140   3.020   3.929   4.860  0.8331  1.5297  0.1923
 2168SOL    HW218141   3.099   3.920   4.989  1.2672  0.6162  0.5527
 2169SOL     OW18142   2.231   4.725  15.989 -0.1880  0.5089 -0.1119
 2169SOL    HW118143   2.203   0.016  15.903  1.8062 -1.0904 -1.3733
 2169SOL    HW218144   2.296   0.049  16.017  1.8100 -0.8406 -1.6127
 2170SOL     OW18145   3.251   1.111  15.590  0.5162  0.6740  0.4759
 2170SOL    HW118146   3.291   1.186  15.634 -1.5796  2.4248 -0.5747
 2170SOL    HW218147   3.237   1.056  15.667 -1.0248 -1.0893 -1.0544
 2171SOL     OW18148   2.593   2.768   4.624 -0.3210  0.3336 -0.2403
 2171SOL    HW118149   2.620   2.858   4.646  1.8624 -0.3976  0.0033
 2171SOL    HW218150   2.562   2.738   4.710 -0.7922 -0.3889 -0.6720
 2172SOL     OW18151   0.094   0.469   2.981 -0.4318 -0.4465 -0.4259
 2172SOL    HW118152   0.076   0.561   2.962 -0.7693 -0.1609  1.2806
 2172SOL    HW218153   0.187   0.466   3.003 -0.3111 -0.5277 -0.9537
 2173SOL     OW18154   4.389   1.513   0.635 -0.0964 -0.2325  0.0012
 2173SOL    HW118155   4.378   1.559   0.717 -1.4812  1.2154 -0.9959
 2173SOL    HW218156   4.367   1.585   0.576 -1.1421  0.9562  1.8746
 2174SOL     OW18157   4.443   0.925   5.261  0.2031  0.5253  0.2493
 2174SOL    HW118158   4.462   0.966   5.345  1.7640 -0.3123  0.3043
 2174SOL    HW218159   4.521   0.874   5.242 -0.6923 -0.2573 -1.3465
 2175SOL     OW18160   2.854   1.075   2.196  0.1352  0.5745  0.0350
 2175SOL    HW118161   2.770   1.076   2.242  0.3686 -0.5376  0.4935
 2175SOL    HW218162   2.830   1.057   2.105 -2.7351  1.4364  0.6183
 2176SOL     OW18163   1.571   3.261   4.916  0.1043 -0.1028 -0.3119
 2176SOL    HW118164   1.604   3.311   4.842 -1.3663  1.6629  0.2246
 2176SOL    HW218165   1.626   3.287   4.991  0.3241  2.5715 -1.3854
 2177SOL     OW18166   0.424   1.389   3.912 -0.3304 -0.2726  0.1066
 2177SOL    HW118167   0.443   1.475   3.874 -2.0064  0.7264  1.5312
 2177SOL    HW218168   0.513   1.356   3.902 -0.4648 -0.6460  0.1693
 2178SOL     OW18169   3.517   1.177  13.959 -0.1598 -0.4296 -0.4154
 2178SOL    HW118170   3.461   1.117  13.911 -1.4148  1.8865 -1.8779
 2178SOL    HW218171   3.569   1.212  13.887 -1.3574 -1.0405 -1.5597
 2179SOL     OW18172   0.325   3.099   3.424 -0.5631  0.1733  0.8154
 2179SOL    HW118173   0.386   3.025   3.417  0.5345  1.2223 -0.7619
 2179SOL    HW218174   0.372   3.174   3.386  0.6865 -0.5195  0.9936
 2180SOL     OW18175   3.260   1.457   9.377 -0.6333 -0.0102 -0.3391
 2180SOL    HW118176   3.225   1.383   9.426 -0.2136  1.9531  2.8825
 2180SOL    HW218177   3.185   1.515   9.392  0.0348  0.3021  1.7474
 2181SOL     OW18178   4.499   4.537   6.340  0.2737  0.0640 -0.1171
 2181SOL    HW118179   4.595   4.542   6.342  0.3633 -1.1765 -1.5849
 2181SOL    HW218180   4.477   4.523   6.248 -1.4674  2.4876 -0.0732
 2182SOL     OW18181   3.755   1.154   2.656  0.1814  0.4734  0.9141
 2182SOL    HW118182   3.814   1.227   2.636 -1.4556  2.0938  1.9847
 2182SOL    HW218183   3.799   1.110   2.729  2.2410  0.2249 -0.4710
 2183SOL     OW18184   0.005   0.055   3.444  0.2542 -0.0350  0.2956
 2183SOL    HW118185   0.097   0.072   3.422  0.2991 -1.7114 -0.8544
 2183SOL    HW218186   4.739   4.701   3.428 -0.9262  0.1567 -0.3071
 2184SOL     OW18187   3.607   1.547   2.128 -0.1044 -0.8187 -0.5343
 2184SOL    HW118188   3.676   1.550   2.194  0.0712  1.3809 -0.8192
 2184SOL    HW218189   3.542   1.598   2.175 -0.1751 -0.2720 -1.2234
 2185SOL     OW18190   1.864   0.413   6.130  0.3260 -0.3629 -0.0033
 2185SOL    HW118191   1.878   0.486   6.070 -0.0960  0.1812  0.5582
 2185SOL    HW218192   1.802   0.452   6.192  3.3716  3.7312  0.4699
 2186SOL     OW18193   4.219   3.165   7.750  0.1665  0.9441 -0.1009
 2186SOL    HW118194   4.195   3.234   7.812 -4.3141 -0.0971 -0.6666
 2186SOL    HW218195   4.142   3.138   7.700 -0.1082  0.3647  0.6394
 2187SOL     OW18196   1.460   2.792  11.863  0.1164 -0.3418  0.6505
 2187SOL    HW118197   1.465   2.814  11.956  0.4267 -0.1159  0.5811
 2187SOL    HW218198   1.383   2.841  11.834 -0.4211 -1.3927  0.2843
 2188SOL     OW18199   1.419   3.803   8.733 -0.4333  0.2377 -0.0097
 2188SOL    HW118200   1.495   3.767   8.688 -1.2216  1.1085 -2.0378
 2188SOL    HW218201   1.427   3.770   8.822  0.0220  1.9096  0.5648
 2189SOL     OW18202   3.387   3.056   5.491 -0.3354 -0.6461 -0.3233
 2189SOL    HW118203   3.460   3.068   5.431 -0.8155  0.9817 -0.5761
 2189SOL    HW218204   3.423   2.981   5.538 -0.8908 -0.5699  0.2239
 2190SOL     OW18205   2.114   3.463   8.431 -0.1931  0.1468  0.7270
 2190SOL    HW118206   2.082   3.445   8.343  0.4939  2.7640 -0.0759
 2190SOL    HW218207   2.076   3.551   8.437  2.1795  1.0576  2.0968
 2191SOL     OW18208   1.099   1.683  16.289 -0.5668 -0.7162 -0.2114
 2191SOL    HW118209   1.052   1.606  16.257 -2.9480  1.7782 -2.7224
 2191SOL    HW218210   1.087   1.687  16.384 -0.5884 -0.3994 -0.2277
 2192SOL     OW18211   2.972   0.902   9.984 -0.2339  0.1569  0.4432
 2192SOL    HW118212   2.985   0.978  10.041 -2.5929  0.8562  0.0685
 2192SOL    HW218213   3.056   0.873   9.949  0.4620 -0.5122  2.6629
 2193SOL     OW18214   0.636   1.150   5.891 -0.1487 -0.0596  0.2595
 2193SOL    HW118215   0.604   1.063   5.867  2.5199 -1.0161  0.2055
 2193SOL    HW218216   0.727   1.123   5.879  0.7731  2.5112  1.6084
 2194SOL     OW18217   4.443   1.021   6.387 -0.0841 -0.4209  0.2757
 2194SOL    HW118218   4.395   0.973   6.454  0.7818 -1.5877  0.0764
 2194SOL    HW218219   4.466   0.957   6.320 -0.1211  0.3946 -0.5160
 2195SOL     OW18220   0.914   1.509   3.410  0.3521  0.3605  0.0065
 2195SOL    HW118221   0.819   1.500   3.406  0.4485  0.0057 -1.3892
 2195SOL    HW218222   0.930   1.566   3.335  1.3061 -1.3215 -1.0840
 2196SOL     OW18223   3.600   3.807   3.770 -0.9072 -0.2558 -0.2538
 2196SOL    HW118224   3.669   3.840   3.712  0.8914 -1.9385  0.9471
 2196SOL    HW218225   3.547   3.755   3.709 -0.5416 -0.8304 -0.0777
 2197SOL     OW18226   3.477   4.626   8.002 -0.0534  0.2050 -0.2606
 2197SOL    HW118227   3.417   4.593   7.934 -0.6956  2.6535 -0.8684
 2197SOL    HW218228   3.442   4.594   8.085  1.9761  0.9434  0.8731
 2198SOL     OW18229   1.082   1.212   3.731 -0.4348 -0.7750 -0.8184
 2198SOL    HW118230   1.157   1.261   3.699 -0.3303 -1.1882 -1.2186
 2198SOL    HW218231   1.015   1.275   3.756 -0.4058 -0.7421 -0.8249
 2199SOL     OW18232   4.229   3.124  12.500  0.1690 -0.3576  0.0478
 2199SOL    HW118233   4.172   3.077  12.561 -1.1759 -0.2846 -1.1428
 2199SOL    HW218234   4.184   3.208  12.494  2.7634  0.9823 -0.6468
 2200SOL     OW18235   4.100   1.189  15.382 -0.0838 -0.2316 -0.0942
 2200SOL    HW118236   4.133   1.179  15.471 -1.9050 -0.6918  0.5272
 2200SOL    HW218237   4.124   1.099  15.359 -1.6562 -0.5126 -0.6737
 2201SOL     OW18238   0.317   3.960  11.706 -0.0959 -0.4647  0.2496
 2201SOL    HW118239   0.234   3.941  11.663 -0.0060  1.0408 -0.5902
 2201SOL    HW218240   0.333   3.874  11.746 -0.5464 -0.4851  0.3801
 2202SOL     OW18241   1.595   2.592   3.718 -0.6948 -0.5929 -0.5263
 2202SOL    HW118242   1.662   2.610   3.784 -2.6135 -0.2382  1.3117
 2202SOL    HW218243   1.599   2.496   3.712  0.6150 -0.6107  0.6143
 2203SOL     OW18244   2.621   3.983   0.306 -0.6423 -0.2121 -0.3380
 2203SOL    HW118245   2.616   3.957   0.398  0.6887  2.5031  0.4852
 2203SOL    HW218246   2.559   4.056   0.307  0.3397  0.6040 -0.0333
 2204SOL     OW18247   2.362   3.817   6.086 -0.1154  0.5936  0.1442
 2204SOL    HW118248   2.298   3.751   6.112 -0.1840  1.1892  1.4927
 2204SOL    HW218249   2.428   3.821   6.155  1.9972 -0.8493 -1.7639
 2205SOL     OW18250   4.593   2.409   6.397 -0.6568  0.1043 -0.7135
 2205SOL    HW118251   4.658   2.473   6.426  0.2368 -0.9862 -0.3242
 2205SOL    HW218252   4.517   2.466   6.405 -0.6480 -0.3873  2.7162
 2206SOL     OW18253   3.760   3.682   4.978 -0.2669  0.2020 -0.1481
 2206SOL    HW118254   3.817   3.672   4.902 -0.7347  0.1211 -0.4912
 2206SOL    HW218255   3.701   3.751   4.947 -0.6867 -0.3372 -0.5621
 2207SOL     OW18256   1.191   4.373  14.540 -0.4793  0.1304  0.0214
 2207SOL    HW118257   1.243   4.453  14.532 -0.4425  0.3104  1.9129
 2207SOL    HW218258   1.162   4.347  14.453  0.9718  2.1702 -1.0718
 2208SOL     OW18259   0.600   1.881  13.815  0.8890 -0.1332  0.1942
 2208SOL    HW118260   0.647   1.912  13.892 -1.3741 -1.7459  2.2064
 2208SOL    HW218261   0.510   1.895  13.843  0.6233  1.9887 -1.7122
 2209SOL     OW18262   1.818   4.255   3.342  0.0937  0.0500  0.8706
 2209SOL    HW118263   1.834   4.303   3.424 -1.0190  1.4160  0.2870
 2209SOL    HW218264   1.893   4.199   3.323  0.6481  0.7542  0.9583
 2210SOL     OW18265   4.331   2.106   3.654 -0.1868  0.4964 -0.0814
 2210SOL    HW118266   4.302   2.155   3.577 -3.4684 -0.3110  0.6417
 2210SOL    HW218267   4.403   2.164   3.679 -0.2402  0.1976  0.7617
 2211SOL     OW18268   1.285   0.002  14.678 -0.1548  0.5962 -0.0041
 2211SOL    HW118269   1.332   0.037  14.754  0.0222  0.9230 -0.2648
 2211SOL    HW218270   1.280   0.082  14.626  1.5628  0.6711 -0.0466
 2212SOL     OW18271   0.112   2.492   8.892 -0.5370 -0.1549  0.4464
 2212SOL    HW118272   0.182   2.429   8.904 -0.3911  0.2056  1.4131
 2212SOL    HW218273   0.122   2.548   8.969  0.9370  1.1769 -0.7207
 2213SOL     OW18274   3.609   3.829   5.522 -0.2329 -0.2085 -0.2318
 2213SOL    HW118275   3.584   3.857   5.434 -3.5537  2.3279  1.5001
 2213SOL    HW218276   3.654   3.746   5.505  1.1093  0.6380 -0.8280
 2214SOL     OW18277   3.874   3.909  11.364 -0.0598  0.4996 -0.4539
 2214SOL    HW118278   3.941   3.977  11.354  0.4559  0.1378  0.5660
 2214SOL    HW218279   3.831   3.908  11.278 -1.4255  1.4165  0.2248
 2215SOL     OW18280   3.439   1.189   4.187 -0.3082  0.0907  0.3897
 2215SOL    HW118281   3.483   1.270   4.212 -2.2129  0.2074  3.3667
 2215SOL    HW218282   3.460   1.174   4.094 -1.8498 -1.3852  0.2629
 2216SOL     OW18283   3.920   1.763  11.833 -0.2251  0.1588 -0.0379
 2216SOL    HW118284   3.929   1.802  11.920  0.3925 -0.6312  0.2466
 2216SOL    HW218285   3.979   1.821  11.784 -0.6539  0.5679 -0.0707
 2217SOL     OW18286   3.765   1.137  10.852  0.3287  0.4752 -0.0333
 2217SOL    HW118287   3.702   1.073  10.883 -0.2282  0.1581 -1.7875
 2217SOL    HW218288   3.752   1.211  10.910 -0.2800  0.0081  0.4226
 2218SOL     OW18289   4.474   3.225   7.033 -0.2717  0.4850  0.7188
 2218SOL    HW118290   4.532   3.201   7.106  0.7870  0.7717 -0.0216
 2218SOL    HW218291   4.534   3.274   6.977  0.0328 -0.2173  0.4368
 2219SOL     OW18292   1.000   2.761  14.287 -0.1677 -0.1494  0.3986
 2219SOL    HW118293   0.949   2.748  14.207 -0.1556  0.4645  0.2911
 2219SOL    HW218294   1.041   2.848  14.279  1.4725 -0.9763 -0.2422
 2220SOL     OW18295   0.203   3.283  12.875 -0.6037 -0.5471  0.0342
 2220SOL    HW118296   0.114   3.282  12.841 -1.3593  2.4896  1.9996
 2220SOL    HW218297   0.250   3.307  12.796 -1.5521  1.3149  0.0436
 2221SOL     OW18298   4.672   2.123   9.336  0.3621 -0.5559  1.0107
 2221SOL    HW118299   4.723   2.131   9.416  0.8904 -1.5738  0.7773
 2221SOL    HW218300   4.579   2.135   9.355  0.0642 -1.1949 -0.0221
 2222SOL     OW18301   2.458   1.844   7.985 -0.5124 -0.4574 -0.1695
 2222SOL    HW118302   2.423   1.931   8.007 -2.1751 -2.2559  4.2587
 2222SOL    HW218303   2.427   1.786   8.054  0.1149 -1.4500 -0.7329
 2223SOL     OW18304   2.609   2.453  14.599 -0.6419  0.7899  0.2504
 2223SOL    HW118305   2.537   2.453  14.536 -0.6441  0.1094  0.2506
 2223SOL    HW218306   2.575   2.520  14.658  0.8085  0.4935  1.4331
 2224SOL     OW18307   0.476   3.717   7.990 -0.4205  0.1871 -0.1206
 2224SOL    HW118308   0.503   3.644   7.934  1.5452 -0.0014  1.0909
 2224SOL    HW218309   0.453   3.663   8.066 -0.3515  0.3870  0.0431
 2225SOL     OW18310   1.551   2.162   3.455 -0.4739 -0.2524  0.6604
 2225SOL    HW118311   1.612   2.092   3.434  0.5602  1.0126 -0.5526
 2225SOL    HW218312   1.469   2.115   3.439 -0.5729  0.0626  0.2332
 2226SOL     OW18313   2.458   1.750   2.179 -0.3936  0.5248  0.1184
 2226SOL    HW118314   2.436   1.769   2.088 -0.8969  0.9644  0.3262
 2226SOL    HW218315   2.415   1.665   2.187 -1.6687  1.5164  3.8221
 2227SOL     OW18316   4.090   4.291   4.725 -0.3177 -0.9511  0.0419
 2227SOL    HW118317   4.175   4.325   4.695 -0.4020  1.0180  2.0764
 2227SOL    HW218318   4.092   4.271   4.818  1.7341  0.4592  0.2973
 2228SOL     OW18319   2.328   3.422   1.760  0.0515  0.4421 -0.3379
 2228SOL    HW118320   2.260   3.360   1.735 -1.1102  1.1941  0.9043
 2228SOL    HW218321   2.377   3.371   1.825 -0.0135 -1.1367 -1.5413
 2229SOL     OW18322   2.132   4.506   7.838  0.3414  0.1965  1.0788
 2229SOL    HW118323   2.219   4.507   7.799  0.3198  1.5382  1.0865
 2229SOL    HW218324   2.130   4.587   7.889 -0.5080 -0.1224  1.5475
 2230SOL     OW18325   0.448   3.308   3.084  0.0464  0.5036  0.0240
 2230SOL    HW118326   0.421   3.398   3.068 -0.0760  0.1757 -1.6023
 2230SOL    HW218327   0.451   3.308   3.180  0.9095 -3.7942  0.0252
 2231SOL     OW18328   3.253   4.572  11.898 -0.5878  0.1053 -0.2885
 2231SOL    HW118329   3.295   4.490  11.923 -1.3131  0.3545  1.7537
 2231SOL    HW218330   3.168   4.575  11.943 -1.0188 -1.5856 -0.9845
 2232SOL     OW18331   3.094   1.821  16.631  0.1171  0.1214 -0.0691
 2232SOL    HW118332   3.013   1.851  16.591 -0.5123 -0.0948  1.0483
 2232SOL    HW218333   3.143   1.782  16.558 -0.7535 -0.4878 -0.3241
 2233SOL     OW18334   3.530   3.255   3.220 -0.1049 -0.5389 -0.3939
 2233SOL    HW118335   3.537   3.164   3.192 -0.4290 -0.8128  0.4201
 2233SOL    HW218336   3.438   3.275   3.205 -0.6277 -4.3178 -2.1408
 2234SOL     OW18337   1.410   1.927   2.643 -0.0531  0.3401  0.3050
 2234SOL    HW118338   1.441   1.915   2.553  1.7370  3.3102  0.5104
 2234SOL    HW218339   1.404   2.022   2.657  0.9489  0.7443 -1.9639
 2235SOL     OW18340   3.244   3.447   2.329  0.3870 -0.4833 -0.1179
 2235SOL    HW118341   3.242   3.485   2.417 -0.0810 -0.7358 -0.0191
 2235SOL    HW218342   3.154   3.466   2.303 -0.5469 -2.8515  1.3428
 2236SOL     OW18343   1.791   1.902   2.702  0.4546  0.3444  0.5529
 2236SOL    HW118344   1.714   1.903   2.644  0.9005  1.0561 -0.0320
 2236SOL    HW218345   1.805   1.808   2.712  1.5900  0.4061 -0.4533
 2237SOL     OW18346   3.959   4.565   7.756  0.7476 -0.1257 -0.0373
 2237SOL    HW118347   4.049   4.599   7.748  1.0498 -0.2789  2.6130
 2237SOL    HW218348   3.922   4.643   7.799  1.1879  1.7549 -3.0741
 2238SOL     OW18349   3.902   0.038   6.474  0.0948 -1.1043  0.5352
 2238SOL    HW118350   3.955   4.702   6.493 -0.0822 -1.7111 -1.4304
 2238SOL    HW218351   3.955   0.110   6.507  0.7081 -1.3732  0.1334
 2239SOL     OW18352   2.095   1.185  14.850 -0.2528 -0.3645 -0.6926
 2239SOL    HW118353   2.105   1.127  14.774 -2.3245  0.2235 -1.4391
 2239SOL    HW218354   2.043   1.252  14.805 -0.1010  0.7674  0.8198
 2240SOL     OW18355   4.080   0.614  12.148 -0.7399  0.2315  0.6063
 2240SOL    HW118356   4.148   0.681  12.141 -1.5847  0.9748 -0.5121
 2240SOL    HW218357   4.113   0.571  12.227 -1.6276  2.6723  2.2898
 2241SOL     OW18358   0.594   2.458   7.705 -0.0858 -0.4763 -0.8601
 2241SOL    HW118359   0.659   2.412   7.652 -0.6196 -2.4427  0.1757
 2241SOL    HW218360   0.512   2.441   7.660 -1.0716  0.1188  0.7324
 2242SOL     OW18361   4.511   0.972  14.320 -0.7790  0.0121  0.0618
 2242SOL    HW118362   4.497   1.020  14.238  1.0018  1.2236  0.4638
 2242SOL    HW218363   4.523   1.038  14.388  2.3521 -0.5675  0.0837
 2243SOL     OW18364   0.406   1.693   6.052 -0.0943  0.0889  0.2206
 2243SOL    HW118365   0.322   1.739   6.049  0.1993  0.6259  0.1366
 2243SOL    HW218366   0.434   1.703   5.961  0.8550  0.5553  0.5567
 2244SOL     OW18367   4.558   2.922   2.100  0.3444 -0.5609  0.6607
 2244SOL    HW118368   4.634   2.883   2.144  1.0864 -0.5046 -0.5942
 2244SOL    HW218369   4.582   2.901   2.010 -1.2145  1.1831 -0.1876
 2245SOL     OW18370   3.015   1.095  11.189 -0.7214  0.4327  0.2879
 2245SOL    HW118371   2.925   1.087  11.159  0.0482  1.9727 -2.4396
 2245SOL    HW218372   3.002   1.112  11.282  1.1104 -1.1202  0.8491
 2246SOL     OW18373   4.013   0.786   7.576 -0.7299  0.2711 -0.0948
 2246SOL    HW118374   3.935   0.748   7.616  0.9315 -3.3200 -0.2602
 2246SOL    HW218375   4.081   0.767   7.640 -0.4907  0.2721 -0.3493
 2247SOL     OW18376   2.909   4.651  12.368 -0.1389  0.5322 -0.1964
 2247SOL    HW118377   2.911   4.670  12.274 -2.9326  1.5288 -0.0641
 2247SOL    HW218378   2.904   4.555  12.364 -2.9807  0.6853 -0.7434
 2248SOL     OW18379   2.689   1.479   7.548  0.2103 -0.3367 -0.0259
 2248SOL    HW118380   2.741   1.511   7.475  2.9251 -0.1749  1.9756
 2248SOL    HW218381   2.722   1.391   7.564 -0.3396 -0.4620  0.4524
 2249SOL     OW18382   1.054   2.653  16.910  0.3445 -0.0887  0.1607
 2249SOL    HW118383   1.096   2.729  16.949  0.4000 -0.1002  0.1243
 2249SOL    HW218384   1.128   2.594  16.897 -0.6242 -1.3562  0.4292
 2250SOL     OW18385   4.465   2.317   9.669  0.0894 -0.5165  0.0502
 2250SOL    HW118386   4.446   2.224   9.674  0.2319 -0.5699 -0.4770
 2250SOL    HW218387   4.508   2.337   9.752 -0.4103 -1.1855  0.4709
 2251SOL     OW18388   2.778   0.246  17.741 -0.0702 -0.0871 -0.0319
 2251SOL    HW118389   2.738   0.223   0.064 -0.0824 -0.0073 -0.0158
 2251SOL    HW218390   2.854   0.191  17.760  0.6579  0.6382 -0.8381
 2252SOL     OW18391   3.246   1.230   2.072  0.4071 -0.4832  0.6356
 2252SOL    HW118392   3.155   1.255   2.053  0.5564 -0.8347 -0.5675
 2252SOL    HW218393   3.287   1.301   2.121  1.0041 -0.0925 -0.4240
 2253SOL     OW18394   4.480   3.587   5.053  0.2907 -0.1523 -0.0720
 2253SOL    HW118395   4.450   3.644   4.982 -2.9580 -2.0765 -0.2228
 2253SOL    HW218396   4.536   3.651   5.097 -0.9830  1.7967 -1.3002
 2254SOL     OW18397   4.587   2.094   5.130  0.6394 -0.1200  0.0472
 2254SOL    HW118398   4.680   2.085   5.106  0.1982  0.0811 -1.7518
 2254SOL    HW218399   4.552   2.065   5.046 -2.4289 -1.1417  1.7052
 2255SOL     OW18400   4.193   4.096   3.399  0.0080  0.2384  0.2694
 2255SOL    HW118401   4.192   4.162   3.330  0.5028  0.7703  0.7701
 2255SOL    HW218402   4.204   4.016   3.349 -0.5669  0.5321 -0.3117
 2256SOL     OW18403   0.308   2.725  10.417 -0.3684 -0.0344 -0.9482
 2256SOL    HW118404   0.295   2.733  10.323  0.1272  1.2175 -0.9006
 2256SOL    HW218405   0.218   2.745  10.445  1.1930  3.5241  1.5223
 2257SOL     OW18406   3.320   2.568   4.169 -0.0694 -0.7165 -0.1930
 2257SOL    HW118407   3.315   2.620   4.089  0.1996 -1.2347 -0.5501
 2257SOL    HW218408   3.242   2.595   4.217  1.1698  1.0274  0.8776
 2258SOL     OW18409   2.639   1.147  12.881 -0.0578 -0.2163  0.5010
 2258SOL    HW118410   2.569   1.127  12.819  1.2462 -0.0021 -1.0303
 2258SOL    HW218411   2.670   1.063  12.916 -0.5042 -0.3469  0.5846
 2259SOL     OW18412   1.143   3.379   5.464 -0.1628 -0.2531 -0.5874
 2259SOL    HW118413   1.107   3.304   5.511  0.6166 -0.4308 -0.2717
 2259SOL    HW218414   1.162   3.344   5.377  0.9939 -1.0641 -0.0110
 2260SOL     OW18415   0.687   4.342   2.162  0.2551 -0.0333 -0.0090
 2260SOL    HW118416   0.611   4.308   2.114  0.6935  0.1711 -0.8600
 2260SOL    HW218417   0.690   4.297   2.246 -0.1795  0.8160  0.4637
 2261SOL     OW18418   3.080   0.225  15.522  0.0520  0.0964  0.1040
 2261SOL    HW118419   3.030   0.145  15.534  2.8267 -1.6761 -0.0268
 2261SOL    HW218420   3.098   0.263  15.608 -0.8385  1.4842 -0.3341
 2262SOL     OW18421   0.900   3.393   8.050 -0.0302 -0.3090 -0.6619
 2262SOL    HW118422   0.917   3.440   7.968  0.5142  0.9166  0.1601
 2262SOL    HW218423   0.970   3.329   8.044  1.4930  1.3528 -0.6751
 2263SOL     OW18424   2.985   0.280  14.469 -0.1923 -0.7552 -0.3232
 2263SOL    HW118425   3.077   0.307  14.473  0.4193 -2.8651 -0.4037
 2263SOL    HW218426   2.983   0.196  14.515  1.6118 -1.1446 -0.9740
 2264SOL     OW18427   4.199   4.617   8.477 -0.1330 -0.0545 -0.3874
 2264SOL    HW118428   4.206   4.532   8.433 -2.3034 -0.8337  0.7747
 2264SOL    HW218429   4.181   4.585   8.565  0.6681 -1.4790 -0.7460
 2265SOL     OW18430   0.419   1.849  16.237  0.3703 -0.7772  0.4566
 2265SOL    HW118431   0.485   1.918  16.243 -0.7059  0.4070 -1.3540
 2265SOL    HW218432   0.478   1.774  16.246  1.2175 -0.0886  0.6729
 2266SOL     OW18433   3.083   3.797  16.230  0.4873  0.6970  0.6905
 2266SOL    HW118434   3.009   3.838  16.276  0.5409 -0.5508  1.8739
 2266SOL    HW218435   3.156   3.854  16.254  0.6441 -0.0980  2.1007
 2267SOL     OW18436   4.398   4.289  15.868 -0.0746 -0.0417  0.0453
 2267SOL    HW118437   4.391   4.350  15.795  1.8566  0.8039  0.5725
 2267SOL    HW218438   4.343   4.337  15.930 -0.3575 -1.1932  0.6823
 2268SOL     OW18439   0.581   4.213   5.902  0.0127 -0.4549  0.8318
 2268SOL    HW118440   0.554   4.125   5.928 -0.1202 -0.0449  2.0800
 2268SOL    HW218441   0.668   4.206   5.941  0.2939  1.6647  0.5834
 2269SOL     OW18442   4.214   3.517   2.193 -0.1368 -0.3189 -0.7877
 2269SOL    HW118443   4.286   3.577   2.172 -0.2073  0.1446  0.2883
 2269SOL    HW218444   4.146   3.577   2.223  1.3883  0.4785  1.1227
 2270SOL     OW18445   0.582   0.474  14.979 -0.3573 -0.4125 -0.6084
 2270SOL    HW118446   0.545   0.544  15.033  1.8134  0.4488 -0.2324
 2270SOL    HW218447   0.531   0.397  15.004  1.7152 -0.6490  2.8556
 2271SOL     OW18448   2.492   1.087  17.358 -0.0968 -0.0312  0.0532
 2271SOL    HW118449   2.455   1.004  17.329 -0.7464  0.4574 -0.5188
 2271SOL    HW218450   2.467   1.093  17.450 -1.1498  0.5465 -0.2669
 2272SOL     OW18451   2.935   4.116   5.504 -0.3341  0.3299 -0.7719
 2272SOL    HW118452   2.981   4.091   5.584  0.3766  2.9444 -0.3562
 2272SOL    HW218453   2.937   4.032   5.459 -1.7003 -0.5821  0.8868
 2273SOL     OW18454   1.475   2.772  14.582  0.8517  0.4759 -0.1120
 2273SOL    HW118455   1.412   2.843  14.570  0.0001 -0.0240  1.4104
 2273SOL    HW218456   1.520   2.788  14.499 -0.9688 -0.2527 -1.2327
 2274SOL     OW18457   2.531   0.317   9.262 -0.5980  0.0350 -0.5828
 2274SOL    HW118458   2.521   0.391   9.201  0.8183  0.4784 -0.2683
 2274SOL    HW218459   2.554   0.363   9.343  1.0229 -3.0224  0.6805
 2275SOL     OW18460   4.414   3.409   2.402 -0.2647 -0.1058  0.2061
 2275SOL    HW118461   4.349   3.475   2.428 -0.1890  0.2204 -0.4400
 2275SOL    HW218462   4.483   3.471   2.379  0.5528  0.0763  3.1018
 2276SOL     OW18463   3.844   2.782   6.332  0.2038  0.0586  0.0022
 2276SOL    HW118464   3.857   2.839   6.256 -0.2131 -0.4487 -0.4461
 2276SOL    HW218465   3.842   2.699   6.285  1.4755 -0.5116  0.9193
 2277SOL     OW18466   1.263   1.162   1.887 -0.4638  0.4507  0.2436
 2277SOL    HW118467   1.344   1.157   1.938 -0.8821 -0.8000  0.7650
 2277SOL    HW218468   1.256   1.257   1.872 -1.9611  0.4501  0.9712
 2278SOL     OW18469   4.110   1.196  11.485  0.5615 -0.0953  0.3079
 2278SOL    HW118470   4.079   1.284  11.507  0.4213 -0.0449 -0.0890
 2278SOL    HW218471   4.163   1.213  11.407 -1.1171 -0.3926 -0.8995
 2279SOL     OW18472   3.901   0.282  11.499 -0.5674  0.2505  0.0629
 2279SOL    HW118473   3.899   0.374  11.524  2.2087  0.2572  0.1692
 2279SOL    HW218474   3.812   0.252  11.516 -1.2577  1.8175 -0.7262
 2280SOL     OW18475   2.203   0.197   3.152  0.2615  0.0459 -0.1554
 2280SOL    HW118476   2.120   0.150   3.140  0.2318  0.3893 -1.3234
 2280SOL    HW218477   2.170   0.285   3.131  1.3757  0.7427  0.9895
 2281SOL     OW18478   3.396   1.009   5.561  0.1119  0.6033  0.1941
 2281SOL    HW118479   3.467   0.978   5.506  0.4443  0.8200  0.5020
 2281SOL    HW218480   3.366   1.085   5.511  0.1565 -0.1937 -1.0377
 2282SOL     OW18481   0.098   0.792   5.053  0.7770 -0.0658  0.0955
 2282SOL    HW118482   0.029   0.803   5.118 -0.1960  1.9143 -1.2495
 2282SOL    HW218483   0.145   0.873   5.073  1.5822 -1.0596  2.2067
 2283SOL     OW18484   3.577   3.138  11.560 -0.0569  0.5895 -1.0045
 2283SOL    HW118485   3.590   3.180  11.645 -0.8622 -0.8342 -0.1804
 2283SOL    HW218486   3.655   3.166  11.512  0.2078  0.1721 -0.8130
 2284SOL     OW18487   3.257   2.506   1.641  0.0906 -0.1394  0.7284
 2284SOL    HW118488   3.334   2.550   1.606 -0.7991  1.1703  0.4273
 2284SOL    HW218489   3.277   2.415   1.620  0.7383  0.5487 -1.6788
 2285SOL     OW18490   0.363   2.956   9.682 -0.5933 -0.1404 -0.1332
 2285SOL    HW118491   0.386   2.935   9.773 -0.1883 -0.4034 -0.2967
 2285SOL    HW218492   0.302   3.029   9.692 -0.0767  0.3606 -0.6244
 2286SOL     OW18493   1.807   2.876   5.596  0.4390 -0.3653 -0.2964
 2286SOL    HW118494   1.804   2.971   5.608  1.3499 -0.5467  1.3068
 2286SOL    HW218495   1.851   2.849   5.676  0.8276 -1.4460 -0.8710
 2287SOL     OW18496   1.346   3.391   3.712 -0.2650 -0.1357  0.1846
 2287SOL    HW118497   1.430   3.365   3.674 -0.8124 -1.9874  0.2291
 2287SOL    HW218498   1.368   3.445   3.788 -0.5118 -1.6167  1.3215
 2288SOL     OW18499   1.520   2.509   2.023 -0.3477  0.4372  0.6130
 2288SOL    HW118500   1.526   2.415   2.006  0.1047  1.0090 -2.5815
 2288SOL    HW218501   1.566   2.519   2.106  0.5293  0.3825  0.1454
 2289SOL     OW18502   3.745   0.110   3.134  0.0468 -0.2207 -0.3877
 2289SOL    HW118503   3.670   0.057   3.162  1.8557 -2.7714 -0.3083
 2289SOL    HW218504   3.816   0.084   3.193  0.2007 -0.5221 -0.7044
 2290SOL     OW18505   2.367   1.249   5.480 -0.1133 -0.2917 -0.4098
 2290SOL    HW118506   2.309   1.324   5.462 -0.7672 -0.0156  2.7720
 2290SOL    HW218507   2.445   1.296   5.511 -0.7633  0.8787 -0.5341
 2291SOL     OW18508   0.961   2.106   7.228  0.1871 -0.2951  0.1973
 2291SOL    HW118509   0.898   2.036   7.215  0.5559 -0.7524  0.8487
 2291SOL    HW218510   0.928   2.183   7.181  1.6049  0.9045  1.1759
 2292SOL     OW18511   3.584   0.833   3.794 -0.0495  0.0805  0.1043
 2292SOL    HW118512   3.524   0.791   3.733 -0.5102  1.7353 -0.6026
 2292SOL    HW218513   3.661   0.793   3.752 -0.1134  1.3840 -1.2766
 2293SOL     OW18514   1.442   3.374  17.692  0.5522  0.1036  0.1109
 2293SOL    HW118515   1.369   3.405  17.639 -0.3234  1.9639  2.4011
 2293SOL    HW218516   1.409   3.288  17.718  1.6027  0.7243  3.5323
 2294SOL     OW18517   3.635   1.064  15.702  0.2287  0.1111 -0.0175
 2294SOL    HW118518   3.613   0.973  15.684 -0.5515  0.4597 -0.8060
 2294SOL    HW218519   3.730   1.069  15.696  0.2933 -0.3337  0.6012
 2295SOL     OW18520   4.275   1.353   9.628 -0.0942  0.3724 -0.6116
 2295SOL    HW118521   4.258   1.368   9.535 -0.9337  3.4925  0.0451
 2295SOL    HW218522   4.198   1.393   9.668  1.2316  1.2850  0.9994
 2296SOL     OW18523   1.318   0.269   2.482  0.4073  0.1173 -0.5109
 2296SOL    HW118524   1.319   0.255   2.577 -1.0251 -0.3858 -0.5758
 2296SOL    HW218525   1.362   0.354   2.484  1.4033 -0.4553  1.9843
 2297SOL     OW18526   2.148   0.383  12.250  0.0527  0.3712 -0.5805
 2297SOL    HW118527   2.102   0.466  12.264  0.0260  0.6028 -2.0537
 2297SOL    HW218528   2.146   0.346  12.339 -1.8347  1.1127 -0.3116
 2298SOL     OW18529   3.923   3.783  16.259  0.9352  0.6361 -0.1036
 2298SOL    HW118530   4.014   3.752  16.259  1.0857  1.0822 -1.0901
 2298SOL    HW218531   3.927   3.853  16.195  0.1341  1.2668  0.5482
 2299SOL     OW18532   0.938   0.669   2.716 -0.5810  0.2172 -0.4216
 2299SOL    HW118533   0.915   0.762   2.721  1.2865  0.5574  1.8563
 2299SOL    HW218534   0.890   0.637   2.792  1.3698  0.0282  0.7426
 2300SOL     OW18535   2.710   0.497  17.702  0.4674  0.5907 -0.1684
 2300SOL    HW118536   2.777   0.545  17.654 -0.9364  1.6068 -1.1058
 2300SOL    HW218537   2.734   0.404  17.707 -1.0273  0.1302 -1.6223
 2301SOL     OW18538   2.302   3.988   0.327  0.0603  0.4304  0.1634
 2301SOL    HW118539   2.342   4.066   0.290  0.7151  0.7985  1.6588
 2301SOL    HW218540   2.277   4.029   0.410 -0.8111  1.5117 -0.6308
 2302SOL     OW18541   0.741   0.175   8.466  0.3066  0.2022 -0.2713
 2302SOL    HW118542   0.687   0.098   8.451  0.8278 -0.5935  1.9540
 2302SOL    HW218543   0.828   0.135   8.472  0.3419  0.2935 -0.1759
 2303SOL     OW18544   1.518   2.010   1.782  0.6058 -0.1878 -0.3392
 2303SOL    HW118545   1.519   2.096   1.740  0.5964  1.0643  2.2299
 2303SOL    HW218546   1.474   1.964   1.711 -1.6829  1.4923  0.0168
 2304SOL     OW18547   1.357   2.541   2.561  0.4138 -0.3550  0.4806
 2304SOL    HW118548   1.291   2.610   2.553  1.6788  0.8229  0.4142
 2304SOL    HW218549   1.306   2.466   2.594  0.2690 -0.2242  0.5517
 2305SOL     OW18550   0.218   3.618   8.064 -0.2895 -0.3330  0.1610
 2305SOL    HW118551   0.177   3.567   8.134 -0.2858 -0.7448 -0.1349
 2305SOL    HW218552   0.176   3.703   8.071  1.1760  0.5180 -1.2393
 2306SOL     OW18553   4.124   2.288   6.680  0.3536  0.1669  0.4055
 2306SOL    HW118554   4.046   2.292   6.625  0.8026  1.4196 -0.1391
 2306SOL    HW218555   4.138   2.382   6.691  1.4681 -0.1312  1.5297
 2307SOL     OW18556   3.186   3.790   8.173 -0.4881 -0.5023 -0.2495
 2307SOL    HW118557   3.241   3.742   8.111 -1.2356  0.3678 -1.5891
 2307SOL    HW218558   3.251   3.837   8.225 -0.6955 -0.7824  0.2581
 2308SOL     OW18559   4.076   1.818   2.633  0.1603  0.2465 -0.2132
 2308SOL    HW118560   4.109   1.794   2.546  0.3625 -0.5681  0.0890
 2308SOL    HW218561   4.059   1.911   2.621  0.5587  0.4858  1.0773
 2309SOL     OW18562   3.876   2.397   8.044  0.1556  0.6331  0.1289
 2309SOL    HW118563   3.903   2.465   8.106  0.7129 -0.7677  1.4087
 2309SOL    HW218564   3.803   2.365   8.097 -0.1931  0.4162 -0.4775
 2310SOL     OW18565   4.634   4.394   2.799  0.1431  0.0401  0.2929
 2310SOL    HW118566   4.583   4.375   2.878  1.2100 -0.8344  0.7770
 2310SOL    HW218567   4.634   4.489   2.811  0.2126  0.1635 -0.7047
 2311SOL     OW18568   3.036   3.525   8.254 -0.0663  0.0084 -0.0786
 2311SOL    HW118569   3.076   3.611   8.244 -0.3359  0.1308 -0.1126
 2311SOL    HW218570   3.071   3.505   8.340 -0.7709 -2.1070 -0.2947
 2312SOL     OW18571   3.963   2.086   0.011 -0.2075 -0.2123  0.3713
 2312SOL    HW118572   3.884   2.117   0.053 -0.1586  0.5593 -0.1122
 2312SOL    HW218573   3.929   2.080  17.683 -1.9583 -2.2284  1.1748
 2313SOL     OW18574   0.935   0.982   5.208 -0.1308 -0.0189  0.3056
 2313SOL    HW118575   0.868   0.922   5.240 -0.6759  0.5379  0.2129
 2313SOL    HW218576   1.011   0.924   5.202  0.2237  0.5015 -0.1862
 2314SOL     OW18577   3.666   3.976  12.114 -0.4155 -0.3893  0.2135
 2314SOL    HW118578   3.756   3.961  12.086 -0.3300  0.7748 -0.1136
 2314SOL    HW218579   3.676   3.970  12.209 -0.2383  0.1662  0.2286
 2315SOL     OW18580   2.486   0.904   3.843 -0.5468 -0.7457  0.3579
 2315SOL    HW118581   2.524   0.851   3.914  0.9185  0.3049  0.3660
 2315SOL    HW218582   2.556   0.926   3.781  0.6506  0.0493  1.9896
 2316SOL     OW18583   0.208   4.375   6.448 -0.5396  0.0312 -0.4916
 2316SOL    HW118584   0.178   4.297   6.496  0.6871  0.2503  0.6215
 2316SOL    HW218585   0.220   4.344   6.358 -1.9952 -0.2306 -0.5981
 2317SOL     OW18586   2.723   3.385   7.672 -0.3118  0.2542 -0.1876
 2317SOL    HW118587   2.728   3.294   7.644 -1.9471 -0.0204  0.3897
 2317SOL    HW218588   2.654   3.383   7.739  1.4187  0.4227  1.6221
 2318SOL     OW18589   0.264   2.751   3.337  0.1193  0.0821  0.3680
 2318SOL    HW118590   0.231   2.666   3.308 -0.5034 -0.5454  2.8997
 2318SOL    HW218591   0.323   2.714   3.402  0.4619 -0.0154  0.0038
 2319SOL     OW18592   0.841   2.446  14.016 -0.5930 -0.4928 -0.3370
 2319SOL    HW118593   0.930   2.411  14.005 -1.9715 -3.5515 -1.5369
 2319SOL    HW218594   0.792   2.366  13.997  0.0570 -0.6189 -1.4440
 2320SOL     OW18595   2.903   3.910   6.676 -0.1905 -0.5957 -0.0847
 2320SOL    HW118596   2.875   3.818   6.679  1.5099 -1.1669 -2.0024
 2320SOL    HW218597   2.828   3.951   6.633  0.3022  1.9427  1.4823
 2321SOL     OW18598   2.257   2.119   4.696  0.1116 -0.2294 -0.7324
 2321SOL    HW118599   2.338   2.139   4.649  0.0591  0.4415 -0.5388
 2321SOL    HW218600   2.189   2.118   4.630 -0.7095  2.0180  0.0598
 2322SOL     OW18601   0.305   0.880   6.089 -0.6694 -0.4901  0.5154
 2322SOL    HW118602   0.362   0.919   6.023 -0.5894  1.2068  1.5893
 2322SOL    HW218603   0.243   0.952   6.105  0.6260  0.9897 -1.1371
 2323SOL     OW18604   3.367   0.609   5.449  0.3238 -0.2024 -0.1615
 2323SOL    HW118605   3.452   0.614   5.406 -0.1368  1.3608 -0.9213
 2323SOL    HW218606   3.351   0.516   5.464 -0.8915  0.2076  1.0901
 2324SOL     OW18607   2.740   1.692   8.562  0.1476 -0.2723  0.0804
 2324SOL    HW118608   2.684   1.679   8.485  0.0480  0.9445 -0.0466
 2324SOL    HW218609   2.747   1.786   8.579  1.1948 -0.1226 -1.1743
 2325SOL     OW18610   4.457   4.651   7.639  0.7225  0.1999 -0.2879
 2325SOL    HW118611   4.432   4.559   7.647  0.1443  0.3944  0.1499
 2325SOL    HW218612   4.435   4.678   7.549  0.0490  0.9669  0.1045
 2326SOL     OW18613   1.224   1.111   6.390 -0.0127 -0.1287  0.6080
 2326SOL    HW118614   1.140   1.145   6.421  0.4406 -0.0673  1.7743
 2326SOL    HW218615   1.217   1.016   6.386  2.3262 -0.3141  1.0427
 2327SOL     OW18616   4.202   1.754  14.757  0.2844 -0.4261 -0.3504
 2327SOL    HW118617   4.109   1.741  14.737  0.2176 -0.7183  0.1569
 2327SOL    HW218618   4.220   1.847  14.744  0.6800 -0.3037  1.0500
 2328SOL     OW18619   3.583   1.605   1.839 -0.1582 -0.0366  0.1403
 2328SOL    HW118620   3.556   1.693   1.868 -0.3544 -0.4105  1.0883
 2328SOL    HW218621   3.551   1.561   1.918 -1.5726  2.0066  0.7154
 2329SOL     OW18622   0.864   3.801   5.969  0.4732  0.6725  0.0305
 2329SOL    HW118623   0.806   3.833   5.900  0.0646  0.1966  0.1540
 2329SOL    HW218624   0.877   3.710   5.941  0.4040  0.9179 -0.8122
 2330SOL     OW18625   4.700   3.168   9.525 -0.5931 -0.0904 -0.2506
 2330SOL    HW118626   0.042   3.190   9.481  0.0620  1.6705  1.8850
 2330SOL    HW218627   4.707   3.072   9.528  1.3780  0.0427 -0.0939
 2331SOL     OW18628   2.963   3.241   4.686  0.0025  0.4782 -0.0219
 2331SOL    HW118629   2.912   3.163   4.708  0.2192  0.8760  1.8965
 2331SOL    HW218630   3.041   3.194   4.656 -0.9619 -3.7786  4.1104
 2332SOL     OW18631   4.710   3.387   7.336  0.4837 -0.4713 -0.7125
 2332SOL    HW118632   4.724   3.370   7.429 -0.2884  0.2254 -0.4632
 2332SOL    HW218633   0.013   3.471   7.318 -0.9093  0.5640  0.6857
 2333SOL     OW18634   3.330   3.510   7.422 -0.7749 -0.3068 -1.0069
 2333SOL    HW118635   3.383   3.532   7.346 -1.0848 -0.5849 -1.3031
 2333SOL    HW218636   3.331   3.416   7.404  1.9732 -0.4917  0.0946
 2334SOL     OW18637   1.430   2.496   9.245  0.4835 -0.2385  0.1113
 2334SOL    HW118638   1.378   2.476   9.168 -1.2660  1.3224  0.8922
 2334SOL    HW218639   1.509   2.443   9.232 -0.8082 -1.8810 -0.8701
 2335SOL     OW18640   2.462   1.561   9.983  0.8662 -0.2161  0.0357
 2335SOL    HW118641   2.478   1.467   9.973 -1.8177 -0.5951 -0.6490
 2335SOL    HW218642   2.426   1.578   9.896  0.8206  0.3351  0.1641
 2336SOL     OW18643   3.775   0.778   4.527 -0.0874 -0.3182  0.3934
 2336SOL    HW118644   3.817   0.759   4.611  2.3837  1.8667 -0.3562
 2336SOL    HW218645   3.820   0.720   4.465 -0.3619  0.6038 -0.6619
 2337SOL     OW18646   1.096   0.680   3.016 -0.0087 -0.0610 -0.2815
 2337SOL    HW118647   1.015   0.632   3.029 -0.3051  0.3961 -0.4390
 2337SOL    HW218648   1.062   0.769   3.008  0.4566  0.3707  2.4100
 2338SOL     OW18649   0.331   1.050   3.044 -0.5831  0.2230  0.0060
 2338SOL    HW118650   0.279   1.025   2.968  0.9969 -2.1370 -0.3140
 2338SOL    HW218651   0.316   0.972   3.097 -1.0053 -1.5894 -2.7826
 2339SOL     OW18652   1.550   3.913   9.952 -0.3553  0.0002  0.4936
 2339SOL    HW118653   1.480   3.978   9.952 -0.4846 -0.1272  2.1338
 2339SOL    HW218654   1.548   3.904   9.857 -1.6576 -1.7005  0.6769
 2340SOL     OW18655   4.407   2.126   7.697  0.3621 -0.3217  0.7920
 2340SOL    HW118656   4.336   2.099   7.638  0.6561 -1.9178  1.1731
 2340SOL    HW218657   4.473   2.080   7.645  0.5260  1.3343 -0.4441
 2341SOL     OW18658   3.746   2.460   2.185  0.2769 -0.5083  0.3646
 2341SOL    HW118659   3.829   2.434   2.227  0.6622 -1.4798 -0.9968
 2341SOL    HW218660   3.739   2.555   2.190  1.8836 -0.3224 -0.9079
 2342SOL     OW18661   1.013   4.607   6.580  0.0552  0.4906 -0.2591
 2342SOL    HW118662   1.070   4.542   6.540 -0.2768  0.3139 -0.4425
 2342SOL    HW218663   1.050   4.596   6.667 -0.0894  0.0292 -0.2552
 2343SOL     OW18664   2.401   2.653   2.455 -0.0320 -0.7857 -0.2765
 2343SOL    HW118665   2.344   2.627   2.383 -0.6188  1.1971 -0.5456
 2343SOL    HW218666   2.426   2.739   2.421 -0.1949  0.1756  2.0275
 2344SOL     OW18667   2.156   4.578   4.292 -0.0463  0.3794 -0.1494
 2344SOL    HW118668   2.182   4.487   4.302 -0.8893  0.0457 -0.9756
 2344SOL    HW218669   2.227   4.606   4.235 -0.7844 -0.3837 -1.4614
 2345SOL     OW18670   2.627   3.122   3.394  0.3761 -0.4382  0.0003
 2345SOL    HW118671   2.644   3.073   3.473  0.3043 -0.7339 -0.1688
 2345SOL    HW218672   2.531   3.126   3.388  0.2333  0.9175  3.0604
 2346SOL     OW18673   4.533   4.168   3.825  0.2990  0.3272 -0.0048
 2346SOL    HW118674   4.470   4.227   3.784 -0.7221 -0.9448 -0.2567
 2346SOL    HW218675   4.536   4.190   3.918 -0.0548 -1.7011  0.4700
 2347SOL     OW18676   2.044   3.772   3.356 -0.9089 -0.2334  0.0466
 2347SOL    HW118677   2.075   3.750   3.268  0.1341 -2.0633  0.8673
 2347SOL    HW218678   1.954   3.801   3.337  0.1654  1.7874 -1.9525
 2348SOL     OW18679   3.952   2.046  11.248 -0.4509 -0.4225 -0.3194
 2348SOL    HW118680   4.030   2.082  11.207 -0.2886  0.3998  0.6826
 2348SOL    HW218681   3.919   2.124  11.294 -1.5154 -1.2703  0.3500
 2349SOL     OW18682   1.915   4.512   7.016 -0.1262  0.4116  0.2416
 2349SOL    HW118683   1.875   4.425   7.016  0.7593  0.0056  0.0741
 2349SOL    HW218684   2.006   4.482   7.015 -0.6807 -1.2255 -0.5683
 2350SOL     OW18685   0.270   4.455   8.096 -0.5311  0.0272 -0.4773
 2350SOL    HW118686   0.182   4.436   8.064 -1.3943  3.1217  0.0260
 2350SOL    HW218687   0.315   4.374   8.072  1.3049  0.7574  0.5081
 2351SOL     OW18688   0.828   2.548   6.954  0.4972  0.3682  0.0609
 2351SOL    HW118689   0.866   2.619   7.007  1.7878 -0.1747 -0.1222
 2351SOL    HW218690   0.832   2.574   6.862  1.9570  0.8325  0.2515
 2352SOL     OW18691   3.127   0.043  12.588  0.2833 -0.8179  0.0696
 2352SOL    HW118692   3.133   0.106  12.660 -0.9757 -0.4200 -0.1705
 2352SOL    HW218693   3.147   0.106  12.519 -0.8464 -2.0141 -1.3474
 2353SOL     OW18694   1.930   1.263   4.707  0.1670  0.2717  0.7958
 2353SOL    HW118695   1.906   1.336   4.764  0.8405  0.9529  0.2173
 2353SOL    HW218696   1.851   1.254   4.654  0.3630  0.0507  0.5413
 2354SOL     OW18697   4.098   4.283  16.397 -0.6948 -0.3221 -0.2728
 2354SOL    HW118698   4.053   4.284  16.481  0.3054  0.1034  0.2523
 2354SOL    HW218699   4.043   4.352  16.359 -1.6668 -0.8322  0.2350
 2355SOL     OW18700   2.007   1.727  13.621 -0.0443 -0.0385  0.6963
 2355SOL    HW118701   1.928   1.678  13.646 -1.1134  0.6436 -1.3821
 2355SOL    HW218702   2.056   1.690  13.694  0.3648 -1.4242 -0.2763
 2356SOL     OW18703   0.571   1.935   1.734  0.4729  0.4444 -0.3507
 2356SOL    HW118704   0.591   1.930   1.827 -3.7456 -2.2317  0.4179
 2356SOL    HW218705   0.487   1.979   1.745  0.6406  1.4617 -3.0092
 2357SOL     OW18706   1.106   3.475   6.111  0.0756 -0.2827 -0.7774
 2357SOL    HW118707   1.054   3.443   6.184  0.7511 -0.9373 -0.5880
 2357SOL    HW218708   1.033   3.486   6.050  0.2685 -0.2077 -0.9931
 2358SOL     OW18709   2.131   4.702   1.029 -0.4989  0.5759 -0.5785
 2358SOL    HW118710   2.070   4.732   1.097 -0.9813  0.7327 -1.0722
 2358SOL    HW218711   2.122   0.042   0.978 -1.9320  0.9905  0.3242
 2359SOL     OW18712   1.762   1.449  15.737 -0.6058 -0.2207  0.1709
 2359SOL    HW118713   1.704   1.462  15.812  0.4639 -2.3769  1.3447
 2359SOL    HW218714   1.745   1.518  15.672  2.1678  0.5573  0.3013
 2360SOL     OW18715   2.421   1.987  15.359 -0.3601 -0.2794 -0.6781
 2360SOL    HW118716   2.407   2.079  15.381  0.3584 -0.4480  0.4764
 2360SOL    HW218717   2.430   1.981  15.264 -0.2396  2.1181 -0.8162
 2361SOL     OW18718   1.772   1.727   2.290  0.0056 -0.1947 -0.1313
 2361SOL    HW118719   1.826   1.806   2.286 -1.1743  0.6015 -0.2402
 2361SOL    HW218720   1.698   1.737   2.230  0.4742 -0.0344 -0.6839
 2362SOL     OW18721   2.340   4.482  14.310  0.1541 -0.4843 -0.1503
 2362SOL    HW118722   2.351   4.571  14.342  1.9081 -1.1573  1.0927
 2362SOL    HW218723   2.254   4.485  14.267 -0.7008  1.0443  1.6807
 2363SOL     OW18724   4.224   0.524   5.336  0.2281  0.2208  0.3932
 2363SOL    HW118725   4.177   0.588   5.389 -0.3937 -0.4667  0.6802
 2363SOL    HW218726   4.156   0.461   5.311  1.2439 -0.6112 -0.2707
 2364SOL     OW18727   3.266   3.908   6.341 -0.2192 -0.3643 -0.6039
 2364SOL    HW118728   3.294   3.904   6.432 -0.3269  1.4456 -0.5061
 2364SOL    HW218729   3.341   3.867   6.297 -1.5017 -0.7329 -2.4893
 2365SOL     OW18730   0.750   1.260  16.702 -0.2777  0.4015 -0.0883
 2365SOL    HW118731   0.725   1.223  16.786  3.3692  0.6645  1.1077
 2365SOL    HW218732   0.811   1.327  16.733 -2.1672  2.9978 -2.0118
 2366SOL     OW18733   2.505   4.313   6.942 -0.5806  0.2371  0.7005
 2366SOL    HW118734   2.535   4.344   6.857  3.1193  1.0253  2.3206
 2366SOL    HW218735   2.564   4.243   6.970 -0.3225 -0.1306 -0.7371
 2367SOL     OW18736   2.054   1.268   9.230 -0.3233  0.6559 -0.2347
 2367SOL    HW118737   1.991   1.235   9.166 -0.2869  0.8125 -0.3491
 2367SOL    HW218738   2.080   1.188   9.276  0.8742  1.5382  0.6255
 2368SOL     OW18739   4.465   2.142   7.362  0.2664 -1.0800 -1.0684
 2368SOL    HW118740   4.377   2.161   7.331  0.5162  1.2776 -0.3306
 2368SOL    HW218741   4.512   2.225   7.367 -1.2468 -0.2475 -0.5652
 2369SOL     OW18742   4.511   2.254  10.413 -0.1803  0.0928  0.1987
 2369SOL    HW118743   4.477   2.309  10.484  1.3970  0.1221  0.9279
 2369SOL    HW218744   4.602   2.265  10.438  0.0115  0.9027 -0.8873
 2370SOL     OW18745   4.647   2.122   3.174  0.3930  0.3469  0.2888
 2370SOL    HW118746   4.676   2.062   3.105  2.6478  2.2687 -0.4709
 2370SOL    HW218747   4.611   2.067   3.243 -1.4029  1.0980 -0.0527
 2371SOL     OW18748   4.272   1.800   4.659  0.3693  0.2119 -0.8781
 2371SOL    HW118749   4.279   1.730   4.593  0.7725 -1.3462  0.8014
 2371SOL    HW218750   4.337   1.866   4.635 -0.5521  1.9450  1.4103
 2372SOL     OW18751   2.284   0.470  11.772 -0.1827 -0.0707  0.5339
 2372SOL    HW118752   2.210   0.463  11.713 -0.1066 -0.9240  0.5430
 2372SOL    HW218753   2.260   0.550  11.818  2.8301  0.2745  1.5223
 2373SOL     OW18754   1.363   2.632   1.289 -0.2589 -0.2793 -0.0767
 2373SOL    HW118755   1.296   2.627   1.222 -0.3500 -1.1688  0.0825
 2373SOL    HW218756   1.405   2.546   1.288 -1.6774 -1.0030  2.3310
 2374SOL     OW18757   3.263   3.538   6.732  0.1221 -0.5418 -0.4020
 2374SOL    HW118758   3.358   3.543   6.745 -0.2778  2.7216  1.4232
 2374SOL    HW218759   3.223   3.596   6.797  0.0108 -0.8138 -0.2265
 2375SOL     OW18760   3.109   0.215   3.262  0.0900  0.5197 -0.6496
 2375SOL    HW118761   3.085   0.304   3.288  1.3732  0.4193  0.8004
 2375SOL    HW218762   3.143   0.182   3.344  0.7903 -1.1459 -1.6057
 2376SOL     OW18763   4.248   4.604   4.541  0.1667 -0.3446  1.1678
 2376SOL    HW118764   4.330   4.640   4.507 -0.2921 -0.7399 -0.3250
 2376SOL    HW218765   4.276   4.513   4.540 -1.0140 -0.6735 -1.1375
 2377SOL     OW18766   0.891   4.445   8.021  0.5002  0.2637 -0.2981
 2377SOL    HW118767   0.960   4.442   7.956 -0.0881 -1.4989 -0.8461
 2377SOL    HW218768   0.840   4.367   7.997 -0.7893  0.8483  0.5608
 2378SOL     OW18769   4.013   1.010   5.837  0.0661  0.5084  0.5212
 2378SOL    HW118770   4.013   1.002   5.932 -1.5053 -1.2448  0.3709
 2378SOL    HW218771   4.080   1.075   5.816 -0.8506  1.4232  0.3676
 2379SOL     OW18772   4.370   4.131  15.560  0.4295  0.1066  0.1004
 2379SOL    HW118773   4.464   4.138  15.574  0.7251  0.4887 -2.1217
 2379SOL    HW218774   4.348   4.040  15.582  0.6033 -0.7628 -3.3886
 2380SOL     OW18775   1.003   4.393   6.163  0.0552  0.5365  0.4514
 2380SOL    HW118776   1.089   4.355   6.146 -0.2274  0.4348 -0.7649
 2380SOL    HW218777   1.027   4.484   6.149  0.6249  0.2757 -0.2386
 2381SOL     OW18778   3.734   0.730   1.789 -0.1444  0.8882 -0.2008
 2381SOL    HW118779   3.656   0.783   1.809 -0.8894 -0.5073  0.5731
 2381SOL    HW218780   3.685   0.652   1.764  1.3470 -0.3443  0.7137
 2382SOL     OW18781   2.946   4.039   3.346  0.3409  0.2674  0.3238
 2382SOL    HW118782   2.897   4.067   3.269  0.8770  0.2192 -0.0334
 2382SOL    HW218783   3.001   3.966   3.316 -1.1001 -1.2324  1.3544
 2383SOL     OW18784   2.963   1.653   2.665  0.1301  0.1744 -0.5505
 2383SOL    HW118785   2.974   1.609   2.750  0.5794  0.8859 -0.2400
 2383SOL    HW218786   3.030   1.602   2.618  0.4831  1.0913 -1.0335
 2384SOL     OW18787   3.574   3.465   4.902 -0.1242 -0.5771  0.3265
 2384SOL    HW118788   3.661   3.428   4.883 -0.1844 -0.1187 -0.8362
 2384SOL    HW218789   3.583   3.540   4.843  0.4936 -2.1235 -1.5837
 2385SOL     OW18790   4.663   1.803   4.530  0.7460  0.0220  0.4056
 2385SOL    HW118791   4.625   1.715   4.521  0.8103  0.2696 -2.3427
 2385SOL    HW218792   4.590   1.855   4.496  1.0217 -0.0940 -0.3745
 2386SOL     OW18793   2.336   4.375   9.518  0.0042 -0.2736 -0.3440
 2386SOL    HW118794   2.394   4.376   9.594  1.7516  2.9694 -1.7551
 2386SOL    HW218795   2.257   4.335   9.555  0.4196 -1.4163 -0.6873
 2387SOL     OW18796   2.708   0.173  11.900  0.1820  0.1101 -0.2055
 2387SOL    HW118797   2.758   0.250  11.872  0.7603  0.5103  1.8626
 2387SOL    HW218798   2.638   0.175  11.836  0.3928 -2.3698 -0.5359
 2388SOL     OW18799   0.362   0.193   5.007 -0.2949 -0.5767 -0.0348
 2388SOL    HW118800   0.331   0.114   5.050 -1.8506  1.2236  2.1692
 2388SOL    HW218801   0.288   0.205   4.948 -0.7624 -2.5800  0.1534
 2389SOL     OW18802   4.151   3.629  11.281 -0.5193  0.4392  0.2107
 2389SOL    HW118803   4.174   3.700  11.221 -0.8848  1.3371  1.1296
 2389SOL    HW218804   4.233   3.616  11.330  0.6021  1.5922 -1.3563
 2390SOL     OW18805   1.561   3.850   5.654 -0.5405 -0.1112 -0.2771
 2390SOL    HW118806   1.622   3.907   5.606 -0.6278 -1.0009 -1.4556
 2390SOL    HW218807   1.516   3.918   5.704 -0.2486  1.3107 -1.9508
 2391SOL     OW18808   4.576   4.665   7.991 -0.5280 -0.1209 -0.0828
 2391SOL    HW118809   4.496   4.615   8.009  0.5813 -1.9012 -0.1102
 2391SOL    HW218810   4.587   4.637   7.900  0.4517 -0.6102  0.1925
 2392SOL     OW18811   2.997   3.562   3.727 -0.0991 -0.2490  0.3668
 2392SOL    HW118812   3.078   3.600   3.694  0.1024 -0.0123  1.1299
 2392SOL    HW218813   3.011   3.581   3.820  0.5121  0.8961  0.0281
 2393SOL     OW18814   3.857   2.116   6.875  0.2655 -0.3245  0.7759
 2393SOL    HW118815   3.952   2.115   6.886  0.6065 -0.7647 -2.2896
 2393SOL    HW218816   3.850   2.026   6.844 -0.2644 -0.6542  1.8152
 2394SOL     OW18817   2.232   4.286   2.893  0.0072 -0.3666 -0.2158
 2394SOL    HW118818   2.296   4.356   2.876 -0.2864  0.0695  0.4836
 2394SOL    HW218819   2.265   4.263   2.980  4.0791  1.4361 -1.2570
 2395SOL     OW18820   1.989   4.609  12.258 -0.2214 -0.7194 -0.1063
 2395SOL    HW118821   1.956   4.692  12.225  1.1910  0.3142  1.0650
 2395SOL    HW218822   2.007   4.557  12.180  0.1406 -0.4676 -0.1892
 2396SOL     OW18823   2.938   2.980   2.312  0.2258 -0.0187 -0.5674
 2396SOL    HW118824   2.905   2.921   2.379  0.5761 -0.6110 -0.9177
 2396SOL    HW218825   3.027   2.945   2.300  0.7209  1.5062 -1.3520
 2397SOL     OW18826   1.187   0.196   8.371 -0.2440 -0.4126  0.5047
 2397SOL    HW118827   1.174   0.144   8.450 -0.2042 -1.0166  0.1126
 2397SOL    HW218828   1.113   0.164   8.319  0.1755 -0.5279 -0.0264
 2398SOL     OW18829   0.862   3.852   3.844  0.4179 -0.0095 -0.1722
 2398SOL    HW118830   0.852   3.773   3.791  1.6736  0.5762 -1.2727
 2398SOL    HW218831   0.837   3.929   3.794 -0.5128  1.3288  2.3308
 2399SOL     OW18832   4.551   2.183  14.307  0.2207 -0.5187 -0.1780
 2399SOL    HW118833   4.639   2.204  14.338 -1.0833  2.3741  1.5740
 2399SOL    HW218834   4.556   2.234  14.226 -0.8877  0.3492  0.3055
 2400SOL     OW18835   4.734   0.327   9.864  0.1823  0.0967 -0.0913
 2400SOL    HW118836   0.025   0.354   9.951  1.0675  1.4042 -0.8145
 2400SOL    HW218837   0.063   0.356   9.806 -2.0711  0.3333 -2.6600
 2401SOL     OW18838   3.854   1.176   8.846 -0.4858 -0.6773  0.1520
 2401SOL    HW118839   3.776   1.179   8.791 -0.0567  0.3238 -0.4116
 2401SOL    HW218840   3.865   1.264   8.882 -0.2310 -0.8316  0.4511
 2402SOL     OW18841   0.424   2.839   3.132 -0.3188 -0.2870  0.1868
 2402SOL    HW118842   0.380   2.843   3.217  0.8026  1.6066  0.6849
 2402SOL    HW218843   0.484   2.911   3.147  0.7193 -1.5023  1.8196
 2403SOL     OW18844   0.396   3.776   0.116 -0.1857 -0.7989 -0.4186
 2403SOL    HW118845   0.383   3.681   0.123 -1.3408 -0.6824 -0.9024
 2403SOL    HW218846   0.334   3.799   0.185  0.4570 -0.2559 -0.0271
 2404SOL     OW18847   2.606   3.497   4.398  0.0568  0.5270  0.0402
 2404SOL    HW118848   2.573   3.410   4.377 -1.8823  1.1762  0.3875
 2404SOL    HW218849   2.683   3.483   4.452  0.0610  1.4092  0.2713
 2405SOL     OW18850   2.093   0.260   5.042  0.3370 -0.6808 -0.2736
 2405SOL    HW118851   2.065   0.352   5.035  0.4130 -0.6726 -0.4907
 2405SOL    HW218852   2.187   0.274   5.056  0.3757 -1.0774 -0.1650
 2406SOL     OW18853   2.852   0.043   5.933 -0.8228 -0.0976  0.9532
 2406SOL    HW118854   2.821   0.056   6.023  2.3448  0.5062  1.9776
 2406SOL    HW218855   2.779   0.006   5.883 -1.0733  0.2614  1.0566
 2407SOL     OW18856   2.882   2.892  13.201  0.7591  0.7004 -0.2293
 2407SOL    HW118857   2.888   2.905  13.106  0.3566 -0.3870 -0.4033
 2407SOL    HW218858   2.817   2.955  13.230 -1.3781 -0.9590 -1.4191
 2408SOL     OW18859   1.702   1.034   4.343 -0.5159 -0.2076 -0.3053
 2408SOL    HW118860   1.739   1.101   4.285 -1.8410  0.9104  0.1673
 2408SOL    HW218861   1.781   0.982   4.358 -0.5351 -0.0284  0.3970
 2409SOL     OW18862   1.301   3.930   7.874 -0.1150 -0.0765  0.1763
 2409SOL    HW118863   1.318   4.012   7.828 -0.7625 -0.7578 -1.2725
 2409SOL    HW218864   1.238   3.877   7.826  0.0648  0.6493 -0.8396
 2410SOL     OW18865   1.252   0.005   8.614  0.9329  0.9753 -0.3891
 2410SOL    HW118866   1.299   4.683   8.669 -1.9290 -1.1822 -0.3591
 2410SOL    HW218867   1.241   4.687   8.539  0.4478 -0.1617  0.5666
 2411SOL     OW18868   0.258   2.511   2.495 -0.2947  0.7217  0.2642
 2411SOL    HW118869   0.330   2.572   2.511  0.1679  0.2651 -0.0783
 2411SOL    HW218870   0.311   2.431   2.494 -0.2531  0.7365  0.9485
 2412SOL     OW18871   1.903   4.689   7.682 -0.5606 -0.2406  0.4981
 2412SOL    HW118872   1.872   4.653   7.599 -0.5566 -1.9727  1.2588
 2412SOL    HW218873   1.983   4.641   7.701 -0.3933 -0.5033 -0.8647
 2413SOL     OW18874   4.026   2.096   2.993  0.0581 -0.1164  0.3606
 2413SOL    HW118875   3.966   2.042   3.045  0.6823 -2.3500 -1.2027
 2413SOL    HW218876   3.964   2.136   2.932 -2.1580 -3.1073  0.6564
 2414SOL     OW18877   0.141   4.721  14.030  0.2222 -0.2249 -0.2655
 2414SOL    HW118878   0.075   0.035  14.072  1.9905 -1.0854  3.6020
 2414SOL    HW218879   0.084   4.657  13.986 -0.3133  2.0632 -2.8820
 2415SOL     OW18880   1.133   3.028   0.156  0.3669  0.4754  0.2326
 2415SOL    HW118881   1.198   3.066   0.098  0.8225 -1.0013 -0.2195
 2415SOL    HW218882   1.175   2.952   0.195  1.4797  1.5563  1.1047
 2416SOL     OW18883   2.692   1.072   7.074 -0.6191 -0.6817  0.1483
 2416SOL    HW118884   2.740   1.093   6.994  0.2908 -3.1281  0.0834
 2416SOL    HW218885   2.704   0.978   7.086  2.0496 -0.3346  0.1110
 2417SOL     OW18886   4.702   1.949   6.573  1.0662  0.7191  0.6267
 2417SOL    HW118887   4.674   2.039   6.592  2.4114  1.1611  0.4782
 2417SOL    HW218888   4.645   1.923   6.501  1.7816  0.3702  0.1973
 2418SOL     OW18889   0.008   1.197   2.101  0.4633  0.3225  0.2514
 2418SOL    HW118890   4.658   1.203   2.071  0.7808 -1.7974 -1.1338
 2418SOL    HW218891   0.028   1.288   2.118 -0.6799  0.4311  1.0103
 2419SOL     OW18892   0.401   1.995   6.316 -0.5849  0.0925  0.0204
 2419SOL    HW118893   0.402   1.992   6.220 -0.3870 -0.3227  0.0361
 2419SOL    HW218894   0.310   1.973   6.336  0.3580 -2.1883  1.6820
 2420SOL     OW18895   3.895   1.924   0.272  0.2144  0.5329 -0.5787
 2420SOL    HW118896   3.846   2.007   0.269 -0.7039 -0.0298 -1.1878
 2420SOL    HW218897   3.937   1.919   0.186  0.7939 -0.0145 -0.2614
 2421SOL     OW18898   3.887   2.872  11.900 -0.3646  0.9505  0.2853
 2421SOL    HW118899   3.863   2.782  11.882  1.5240  0.0626  2.1911
 2421SOL    HW218900   3.891   2.903  11.810 -0.9292 -0.3511 -0.1785
 2422SOL     OW18901   1.987   1.961   8.730  0.2556 -0.4326  0.2218
 2422SOL    HW118902   2.081   1.946   8.717  0.0449 -2.7476  1.3248
 2422SOL    HW218903   1.982   1.987   8.821  1.0916 -1.7937  0.6634
 2423SOL     OW18904   4.689   3.757   5.132  0.1407 -0.6377  0.3352
 2423SOL    HW118905   0.034   3.715   5.127  0.7669  0.3904  2.2712
 2423SOL    HW218906   4.696   3.797   5.219  1.6735 -0.9985  0.3775
 2424SOL     OW18907   1.185   1.838   3.068  0.0172  0.5962 -0.4933
 2424SOL    HW118908   1.138   1.773   3.119  1.9558 -0.2040  0.2781
 2424SOL    HW218909   1.136   1.915   3.097 -0.1358 -0.6099  2.4502
 2425SOL     OW18910   1.704   3.228  14.278  0.5031  0.5465 -0.0793
 2425SOL    HW118911   1.629   3.288  14.273 -1.0414 -1.3766 -0.2667
 2425SOL    HW218912   1.777   3.289  14.285 -1.1817  2.4666  0.6569
 2426SOL     OW18913   4.055   1.198   2.983  0.3770  0.0635 -0.0204
 2426SOL    HW118914   3.984   1.143   2.949  1.7932 -1.1151 -1.0392
 2426SOL    HW218915   4.102   1.231   2.907 -0.2471 -3.1144 -1.7754
 2427SOL     OW18916   2.399   3.749   8.559 -0.7024  0.0766 -0.1627
 2427SOL    HW118917   2.321   3.794   8.526 -0.2414  0.6126 -0.5235
 2427SOL    HW218918   2.379   3.735   8.652 -1.0890  0.4996 -0.1848
 2428SOL     OW18919   1.444   1.946   3.038 -0.3493  0.0281  0.2979
 2428SOL    HW118920   1.361   1.902   3.023  0.6458 -0.7151 -3.0484
 2428SOL    HW218921   1.424   2.038   3.019  1.6779  0.4220  0.0072
 2429SOL     OW18922   1.387   3.994  12.487 -0.4270  0.0895 -0.8721
 2429SOL    HW118923   1.394   3.967  12.578  1.4482  0.0941 -1.0126
 2429SOL    HW218924   1.329   3.921  12.463  0.3368 -0.6979 -0.3288
 2430SOL     OW18925   2.144   3.011   0.406 -0.5067  0.2101  0.3465
 2430SOL    HW118926   2.119   3.061   0.483 -1.0391  0.3591  0.0750
 2430SOL    HW218927   2.071   2.950   0.414 -0.8279  0.5222 -0.1639
 2431SOL     OW18928   3.997   1.970   5.775  0.2433 -0.0080 -0.2874
 2431SOL    HW118929   4.019   2.060   5.751  0.0822  0.6186  1.9466
 2431SOL    HW218930   4.055   1.922   5.715 -1.0867 -1.3932 -0.4734
 2432SOL     OW18931   1.440   3.951   9.692  0.4059 -0.6191  0.4004
 2432SOL    HW118932   1.350   3.947   9.723  0.9388 -0.1365  2.0149
 2432SOL    HW218933   1.434   3.972   9.598 -0.7726  2.7214  1.2336
 2433SOL     OW18934   0.647   1.550   2.911 -0.4486 -0.2525  0.4706
 2433SOL    HW118935   0.621   1.472   2.860 -0.1741 -1.2185  1.8106
 2433SOL    HW218936   0.727   1.579   2.869 -1.1959 -0.1998 -0.9262
 2434SOL     OW18937   4.555   0.879   0.352 -0.0466  0.1610  0.1512
 2434SOL    HW118938   4.568   0.890   0.446 -3.7066  0.4544  0.6274
 2434SOL    HW218939   4.545   0.968   0.320 -0.0220  1.1502  2.8928
 2435SOL     OW18940   3.509   0.516   9.968 -0.1658 -0.1799  0.0590
 2435SOL    HW118941   3.578   0.555   9.914 -0.6214 -2.0236 -1.8880
 2435SOL    HW218942   3.553   0.432   9.981 -0.4303 -0.4577 -0.8283
 2436SOL     OW18943   0.659   3.846   7.448  0.0848  0.2478  0.9435
 2436SOL    HW118944   0.657   3.905   7.524 -1.8140  1.3440  0.0546
 2436SOL    HW218945   0.574   3.802   7.460  0.0683  0.3184  1.0893
 2437SOL     OW18946   0.810   4.316  15.726 -0.6574  0.5551 -0.1772
 2437SOL    HW118947   0.726   4.363  15.733 -0.7243  0.8461 -2.8588
 2437SOL    HW218948   0.824   4.293  15.818  1.6608 -1.6376 -1.1110
 2438SOL     OW18949   2.437   3.660   3.818 -0.2739  0.3039 -0.1323
 2438SOL    HW118950   2.396   3.594   3.763 -0.8214  0.6923 -0.1938
 2438SOL    HW218951   2.479   3.611   3.889  2.4500 -0.9230 -2.5865
 2439SOL     OW18952   2.614   1.983  10.834  0.0731 -0.3929  0.1537
 2439SOL    HW118953   2.528   1.999  10.872 -0.5631 -2.8738 -0.2027
 2439SOL    HW218954   2.669   1.987  10.912 -0.0533 -0.5851  0.2538
 2440SOL     OW18955   2.067   1.740   2.596 -0.5609 -0.0703 -0.5272
 2440SOL    HW118956   2.161   1.749   2.614 -0.9367 -0.3547  1.6600
 2440SOL    HW218957   2.029   1.828   2.589  1.7889  0.8981 -1.2187
 2441SOL     OW18958   1.218   0.751   7.224 -0.0972 -0.6161  0.0788
 2441SOL    HW118959   1.288   0.816   7.222 -0.4435 -0.2722 -0.7226
 2441SOL    HW218960   1.257   0.696   7.292 -0.0013  2.9301  2.9220
 2442SOL     OW18961   0.765   1.383   1.412 -0.2140 -0.6413  0.1644
 2442SOL    HW118962   0.738   1.343   1.330  0.7783 -2.0876  0.5519
 2442SOL    HW218963   0.722   1.468   1.422  0.3157 -0.5715  1.9068
 2443SOL     OW18964   3.300   1.535   7.551 -0.2203  0.7908 -0.2269
 2443SOL    HW118965   3.371   1.512   7.491 -1.6192 -0.0867 -1.5465
 2443SOL    HW218966   3.296   1.466   7.617  1.9236  1.0052  0.1509
 2444SOL     OW18967   1.914   2.010  14.716  0.0693 -0.5790 -0.2281
 2444SOL    HW118968   1.943   1.933  14.668 -1.2713 -0.5540 -1.0722
 2444SOL    HW218969   1.970   2.081  14.685 -0.3085  0.0139  0.4619
 2445SOL     OW18970   0.276   0.263   6.790 -0.0833 -0.1851 -0.8736
 2445SOL    HW118971   0.289   0.235   6.700 -0.7048  0.4350 -1.1587
 2445SOL    HW218972   0.358   0.242   6.833  1.4606  1.7371 -2.9006
 2446SOL     OW18973   1.009   3.070   7.483  0.2459  0.0620  0.0426
 2446SOL    HW118974   1.103   3.059   7.471  0.3539  1.4422 -0.3230
 2446SOL    HW218975   0.976   3.014   7.412  0.3410 -0.5275  0.4592
 2447SOL     OW18976   0.776   3.923   6.182  0.3565 -0.1179 -0.1542
 2447SOL    HW118977   0.810   3.888   6.100  0.1384  1.4697 -0.9277
 2447SOL    HW218978   0.835   3.894   6.252  1.1841  2.5377  0.2477
 2448SOL     OW18979   0.483   1.153   6.829  0.3220 -0.1043 -0.0230
 2448SOL    HW118980   0.528   1.174   6.747 -0.1775  0.2730 -0.2043
 2448SOL    HW218981   0.441   1.070   6.810  1.3783 -0.9584  1.4026
 2449SOL     OW18982   4.518   0.896   9.740  0.2202  0.5353  0.2223
 2449SOL    HW118983   4.479   0.955   9.677 -1.9741  0.0010  1.0861
 2449SOL    HW218984   4.477   0.815   9.712  0.0136  0.1964  1.4719
 2450SOL     OW18985   4.551   1.990   9.599 -0.1401 -0.5303  0.0546
 2450SOL    HW118986   4.642   2.021   9.600 -1.0969  2.1756  1.9197
 2450SOL    HW218987   4.543   1.971   9.692 -0.8157  0.2978  0.1571
 2451SOL     OW18988   1.164   2.540  12.892  0.2064 -0.9154  0.1749
 2451SOL    HW118989   1.177   2.446  12.875  1.6025 -0.4719 -1.2134
 2451SOL    HW218990   1.216   2.563  12.968 -0.8875  0.2041  0.5692
 2452SOL     OW18991   2.240   1.489   9.119 -0.3996  0.7543 -0.5814
 2452SOL    HW118992   2.263   1.567   9.169  0.3150  0.9313 -1.1859
 2452SOL    HW218993   2.146   1.481   9.135  0.0437 -1.0727  1.1086
 2453SOL     OW18994   3.105   0.527  14.799 -0.1723  0.5245  0.9326
 2453SOL    HW118995   3.018   0.500  14.830 -0.8234 -2.1971 -3.3973
 2453SOL    HW218996   3.083   0.583  14.725 -0.0460 -1.1248 -0.3407
 2454SOL     OW18997   2.637   1.306   4.982  0.0437  0.0369 -0.2511
 2454SOL    HW118998   2.545   1.330   4.985  0.9143  2.9714  3.3669
 2454SOL    HW218999   2.668   1.396   4.991  0.6014 -0.2534  0.7484
 2455SOL     OW19000   4.293   1.266  10.096  0.2355  0.0556 -0.2340
 2455SOL    HW119001   4.315   1.298  10.009 -1.2761 -2.4177 -1.5063
 2455SOL    HW219002   4.376   1.278  10.143  1.1858 -0.9257 -1.6773
 2456SOL     OW19003   3.265   4.585   4.116  0.4371  0.1921  0.2680
 2456SOL    HW119004   3.187   4.605   4.167 -0.9714 -2.2223 -0.9365
 2456SOL    HW219005   3.307   4.670   4.102 -0.7890  0.5180 -1.4296
 2457SOL     OW19006   0.845   2.129   5.629  0.2734  0.2270 -0.5309
 2457SOL    HW119007   0.912   2.061   5.619  1.5866  1.6220 -1.1632
 2457SOL    HW219008   0.862   2.158   5.718 -1.3538  0.7230 -0.3754
 2458SOL     OW19009   1.435   0.738   2.826  0.3928 -0.0090  0.6828
 2458SOL    HW119010   1.397   0.799   2.890  0.8089  2.1636 -1.1662
 2458SOL    HW219011   1.358   0.687   2.798  1.5326 -0.7365 -1.0799
 2459SOL     OW19012   2.665   3.375   3.534 -0.0897  0.1982  0.4850
 2459SOL    HW119013   2.650   3.291   3.491  1.5240 -0.4369  1.2003
 2459SOL    HW219014   2.733   3.412   3.477 -2.0208  3.7804  0.5074
 2460SOL     OW19015   4.123   2.528  13.022 -0.2682 -0.1765  0.0740
 2460SOL    HW119016   4.213   2.498  13.010  0.5619  1.2962  2.5787
 2460SOL    HW219017   4.134   2.585  13.098 -0.9542  2.3092 -1.7035
 2461SOL     OW19018   3.370   3.282   6.329 -0.0289 -0.5208  0.4100
 2461SOL    HW119019   3.389   3.352   6.390 -2.4804 -0.5246  1.1677
 2461SOL    HW219020   3.424   3.307   6.254 -1.0729  0.1280 -0.1184
 2462SOL     OW19021   1.391   4.074   8.791  0.1821  0.5604 -0.3893
 2462SOL    HW119022   1.409   3.984   8.763  0.6807  0.7608 -0.7091
 2462SOL    HW219023   1.324   4.055   8.856 -1.4037  1.0531 -1.8731
 2463SOL     OW19024   4.311   4.148  15.269  0.3156  0.0002 -0.2947
 2463SOL    HW119025   4.328   4.163  15.362  0.7970  0.0109 -0.3832
 2463SOL    HW219026   4.391   4.184  15.230 -1.0649  1.8054 -1.4425
 2464SOL     OW19027   4.131   0.849   5.649  0.2443  0.1706  0.1154
 2464SOL    HW119028   4.167   0.912   5.586  1.5260 -0.2770  0.3980
 2464SOL    HW219029   4.067   0.895   5.703 -1.9185 -1.1075 -1.3649
 2465SOL     OW19030   4.694   1.844   9.378 -1.0341  0.0152 -0.5046
 2465SOL    HW119031   4.628   1.911   9.399 -0.1063  0.8196 -0.1367
 2465SOL    HW219032   4.698   1.846   9.283 -0.8874 -1.0254 -0.5163
 2466SOL     OW19033   4.360   1.160   5.943  0.6065  0.0177 -0.2288
 2466SOL    HW119034   4.375   1.070   5.916 -1.2983  0.0507 -1.4082
 2466SOL    HW219035   4.313   1.196   5.868  0.6128  2.7430  1.0324
 2467SOL     OW19036   0.332   2.818  14.474  0.3811  0.2897 -0.3830
 2467SOL    HW119037   0.360   2.908  14.491 -0.4604 -0.0616  2.9140
 2467SOL    HW219038   0.378   2.774  14.545 -0.0707  0.5133  0.0541
 2468SOL     OW19039   3.493   1.822   8.041 -0.1645 -0.3197 -0.2377
 2468SOL    HW119040   3.546   1.898   8.066 -0.6417  0.2364 -0.8883
 2468SOL    HW219041   3.456   1.793   8.124  1.1632  0.3225  0.5661
 2469SOL     OW19042   2.894   0.989  13.499 -0.1808  0.5421  0.3663
 2469SOL    HW119043   2.866   0.905  13.463  0.1815 -0.3855  2.2621
 2469SOL    HW219044   2.841   1.022  13.572  1.1601  1.3089  0.9957
 2470SOL     OW19045   3.949   4.110   9.600  0.2386  0.6137  0.0441
 2470SOL    HW119046   3.987   4.030   9.562 -2.4770 -1.0862  0.8673
 2470SOL    HW219047   3.882   4.129   9.535  1.2767  0.4714 -1.0780
 2471SOL     OW19048   1.171   2.344   2.884  0.2095  0.4476 -0.1082
 2471SOL    HW119049   1.263   2.321   2.873  0.3403  0.5246  0.8308
 2471SOL    HW219050   1.148   2.376   2.796 -1.8517  0.8944  0.5846
 2472SOL     OW19051   1.698   0.904   2.109 -0.0448 -0.0102  0.2587
 2472SOL    HW119052   1.693   0.809   2.093 -0.9337  0.1348 -0.3186
 2472SOL    HW219053   1.664   0.906   2.198  0.9127  1.5132  0.5785
 2473SOL     OW19054   0.834   1.281  16.121  0.7478 -0.2162 -0.8227
 2473SOL    HW119055   0.820   1.287  16.215  2.0929 -0.0030 -0.6333
 2473SOL    HW219056   0.757   1.229  16.096  1.3598 -0.9690 -1.1525
 2474SOL     OW19057   1.600   0.324  14.676  0.1829 -0.3693 -0.0055
 2474SOL    HW119058   1.620   0.263  14.747 -0.6292  0.0857  0.6203
 2474SOL    HW219059   1.529   0.378  14.712  1.3275  1.7761 -0.9142
 2475SOL     OW19060   2.778   1.531  12.587 -0.7797 -0.0395 -0.3235
 2475SOL    HW119061   2.683   1.536  12.577 -1.0680  0.2285  2.5490
 2475SOL    HW219062   2.792   1.444  12.626 -0.4517 -0.1954 -0.7916
 2476SOL     OW19063   1.475   2.753   2.904 -0.3146 -0.4384 -1.0493
 2476SOL    HW119064   1.479   2.793   2.990  2.9097  0.5615 -1.6673
 2476SOL    HW219065   1.531   2.676   2.913  0.6151  0.0200 -2.8933
 2477SOL     OW19066   4.016   2.805   9.465 -0.3288 -0.0488  0.4088
 2477SOL    HW119067   4.057   2.881   9.423 -0.0276 -0.2643  0.3172
 2477SOL    HW219068   4.090   2.780   9.521 -1.5937 -0.5457  1.8746
 2478SOL     OW19069   2.754   4.411   1.635 -0.0257  0.2156  0.0235
 2478SOL    HW119070   2.693   4.337   1.628 -1.3097  1.2454  0.3303
 2478SOL    HW219071   2.841   4.373   1.646 -0.7933 -1.4359  0.3420
 2479SOL     OW19072   1.969   4.696   9.235 -0.4614  0.1813  0.4583
 2479SOL    HW119073   1.987   4.737   9.150  0.0130 -2.7477 -0.8597
 2479SOL    HW219074   2.030   4.740   9.294  0.8150  0.4754 -1.0877
 2480SOL     OW19075   1.411   1.072   2.602  0.7899  0.5851 -0.2103
 2480SOL    HW119076   1.328   1.044   2.564  1.8745  0.3334 -2.4020
 2480SOL    HW219077   1.396   1.166   2.604  0.3306  0.4991  0.3235
 2481SOL     OW19078   2.283   3.389   4.145  0.2618 -0.4317 -0.0409
 2481SOL    HW119079   2.189   3.371   4.142 -0.0981  1.4890 -0.0568
 2481SOL    HW219080   2.326   3.304   4.143  0.2855 -0.4613  2.1202
 2482SOL     OW19081   3.313   1.523   4.406  0.1222 -0.3432  0.4269
 2482SOL    HW119082   3.344   1.460   4.472  1.8446 -0.9409 -0.9203
 2482SOL    HW219083   3.306   1.597   4.466  3.2316 -0.3591  0.8332
 2483SOL     OW19084   2.780   0.376  16.884 -0.0015 -0.8514  0.2598
 2483SOL    HW119085   2.797   0.375  16.979  1.0817 -0.5961  0.0671
 2483SOL    HW219086   2.796   0.284  16.865  0.9125 -0.5659 -0.3455
 2484SOL     OW19087   2.852   4.601  17.077  0.2553  0.1666 -0.5230
 2484SOL    HW119088   2.817   4.626  16.991  0.7478 -1.9733 -1.3604
 2484SOL    HW219089   2.876   4.690  17.103 -1.5293  0.3255  0.6066
 2485SOL     OW19090   0.494   2.882   3.685  0.1006 -0.1749 -0.3572
 2485SOL    HW119091   0.492   2.916   3.775 -3.0099 -0.3355 -0.3742
 2485SOL    HW219092   0.422   2.819   3.693  0.0491  0.0087  0.6716
 2486SOL     OW19093   3.565   3.187   6.756  0.2326  0.1490  0.0087
 2486SOL    HW119094   3.570   3.195   6.660 -1.1121  0.7038 -0.0111
 2486SOL    HW219095   3.497   3.120   6.764  0.8995 -0.6484 -1.0187
 2487SOL     OW19096   3.169   2.993   2.857 -0.1471  0.0442  0.2479
 2487SOL    HW119097   3.155   2.955   2.770 -0.0891 -0.5516  0.4961
 2487SOL    HW219098   3.097   3.056   2.862 -2.0574 -2.2661  1.7790
 2488SOL     OW19099   1.510   2.805   7.285 -0.3130 -0.0593  0.7693
 2488SOL    HW119100   1.555   2.872   7.235 -0.1415  0.6573  1.8732
 2488SOL    HW219101   1.583   2.759   7.329 -1.8040 -2.0322  1.1889
 2489SOL     OW19102   0.263   0.658   1.838 -0.2025  0.4427  0.2690
 2489SOL    HW119103   0.354   0.631   1.824 -0.6117 -0.5823 -0.3742
 2489SOL    HW219104   0.236   0.616   1.920  0.5618  0.4401  0.5231
 2490SOL     OW19105   3.504   3.904   0.781  0.4714  0.0043  0.0414
 2490SOL    HW119106   3.469   3.884   0.694 -0.0170  1.9201 -0.1907
 2490SOL    HW219107   3.591   3.864   0.775  0.3766 -0.1976  0.0069
 2491SOL     OW19108   4.260   1.197   8.271 -0.5044  0.2323 -0.0437
 2491SOL    HW119109   4.287   1.196   8.363  0.0937  0.2754 -0.2168
 2491SOL    HW219110   4.295   1.283   8.247  0.3812 -0.1781 -0.2213
 2492SOL     OW19111   2.239   3.027  17.017 -0.0815 -0.4248 -0.0474
 2492SOL    HW119112   2.282   3.025  16.932  1.2075 -0.2007  0.6064
 2492SOL    HW219113   2.231   2.934  17.039  1.4866 -0.0194  2.1838
 2493SOL     OW19114   0.596   2.475   5.385  0.2977  0.1375  0.4464
 2493SOL    HW119115   0.579   2.527   5.463  1.1464 -0.9111  1.3417
 2493SOL    HW219116   0.643   2.404   5.429 -0.4925 -1.3332 -1.0776
 2494SOL     OW19117   1.917   0.755  17.193  0.2747 -0.3587  0.3101
 2494SOL    HW119118   1.993   0.788  17.146 -0.0000 -1.0479 -0.6171
 2494SOL    HW219119   1.847   0.810  17.159 -0.7916 -1.2836  0.9913
 2495SOL     OW19120   2.763   1.805   2.525  0.2621 -0.3247 -0.2118
 2495SOL    HW119121   2.692   1.762   2.572 -1.6265  2.0875 -0.7910
 2495SOL    HW219122   2.836   1.754   2.558  0.5841  0.2930  0.0401
 2496SOL     OW19123   3.309   3.255   8.438  0.4291 -0.0273 -0.3959
 2496SOL    HW119124   3.384   3.196   8.447 -0.4629 -0.9252  1.0098
 2496SOL    HW219125   3.258   3.226   8.513  0.0741 -0.0746 -0.6555
 2497SOL     OW19126   1.317   3.651   2.198 -0.3302 -0.4832 -0.7319
 2497SOL    HW119127   1.400   3.614   2.230  0.0553  0.5996 -0.4805
 2497SOL    HW219128   1.256   3.587   2.235 -0.1364 -0.8180 -0.9802
 2498SOL     OW19129   3.235   2.278   1.835 -0.4733  0.2088  0.2838
 2498SOL    HW119130   3.168   2.270   1.904 -1.9220  1.6532 -0.9565
 2498SOL    HW219131   3.270   2.364   1.858  0.9292 -0.1310 -0.6137
 2499SOL     OW19132   2.374   0.462   2.203 -0.3372  0.6631 -0.5495
 2499SOL    HW119133   2.437   0.519   2.159 -0.3246 -0.1231 -1.5589
 2499SOL    HW219134   2.337   0.427   2.122 -0.0234  1.2611 -0.9473
 2500SOL     OW19135   1.275   4.531   3.117  0.1893 -0.1367 -0.6218
 2500SOL    HW119136   1.352   4.572   3.079 -0.3041  0.2067 -1.2643
 2500SOL    HW219137   1.246   4.599   3.179  0.4411  0.5173 -1.2169
 2501SOL     OW19138   0.064   4.300   8.470 -0.6142  0.5229 -0.2465
 2501SOL    HW119139   0.095   4.387   8.496  0.6780 -0.1285  0.3637
 2501SOL    HW219140   4.731   4.319   8.411 -1.3032  1.0898  0.7882
 2502SOL     OW19141   2.385   4.260   5.814 -0.8629 -0.7617 -0.5737
 2502SOL    HW119142   2.353   4.191   5.872  0.9264 -1.2550 -0.1540
 2502SOL    HW219143   2.341   4.226   5.737 -3.0068  0.5701  0.0714
 2503SOL     OW19144   1.480   0.632   3.948  0.1436  0.0830 -0.5405
 2503SOL    HW119145   1.507   0.559   4.005  1.6188  1.6888  0.7965
 2503SOL    HW219146   1.521   0.710   3.986  0.2480  0.7647 -2.0920
 2504SOL     OW19147   1.563   2.478  12.293  0.3389 -0.2140 -0.0162
 2504SOL    HW119148   1.608   2.529  12.226 -1.8025  1.4337 -0.1763
 2504SOL    HW219149   1.636   2.456  12.352  2.6618  0.2208 -2.7165
 2505SOL     OW19150   1.550   0.058   1.812 -1.0487 -0.2451 -0.2010
 2505SOL    HW119151   1.474   0.115   1.823 -0.5896  0.0435  1.3544
 2505SOL    HW219152   1.588   0.083   1.727 -0.4231  0.5493  0.3148
 2506SOL     OW19153   4.489   2.780   9.581 -0.5926  0.0336 -0.2779
 2506SOL    HW119154   4.448   2.855   9.624 -1.4160 -0.8066  0.4038
 2506SOL    HW219155   4.561   2.810   9.525 -0.0830  1.8576  1.3396
 2507SOL     OW19156   0.927   1.259  12.544  0.0901 -0.1847 -0.3980
 2507SOL    HW119157   0.934   1.196  12.472 -1.1424 -0.7528 -0.0243
 2507SOL    HW219158   0.921   1.344  12.500  2.2214 -0.7150 -1.6800
 2508SOL     OW19159   0.497   4.290   7.806  0.8391  0.5377 -0.6641
 2508SOL    HW119160   0.476   4.244   7.887  0.3786 -0.7596 -1.5292
 2508SOL    HW219161   0.585   4.259   7.782  0.3318 -1.0624 -0.4505
 2509SOL     OW19162   1.201   3.554   8.124  0.4248  0.3008 -0.8701
 2509SOL    HW119163   1.257   3.511   8.059  1.5063  0.0686  0.2241
 2509SOL    HW219164   1.137   3.602   8.071  1.9577  2.5167 -0.7173
 2510SOL     OW19165   3.809   4.597  11.198 -0.3222  0.7523 -0.3097
 2510SOL    HW119166   3.753   4.609  11.121 -0.2940  0.1494 -0.4230
 2510SOL    HW219167   3.891   4.638  11.172 -1.5350  1.8289 -2.3664
 2511SOL     OW19168   4.136   3.315   7.961  0.2427 -0.1745  0.3300
 2511SOL    HW119169   4.137   3.406   7.933  0.6752  0.0969  1.2324
 2511SOL    HW219170   4.217   3.314   8.012  0.6345  0.8246 -0.2673
 2512SOL     OW19171   0.867   4.306   5.344 -0.0315  0.6664 -0.1677
 2512SOL    HW119172   0.894   4.304   5.436  0.9944  0.3345 -0.4875
 2512SOL    HW219173   0.921   4.241   5.299  1.7256  1.8936  0.2132
 2513SOL     OW19174   2.294   4.219   8.461  0.2466  0.4453 -0.2754
 2513SOL    HW119175   2.259   4.133   8.486 -0.8639  0.9403 -0.1087
 2513SOL    HW219176   2.226   4.258   8.406 -1.3258 -2.4316 -0.4078
 2514SOL     OW19177   2.050   4.403  14.713  0.5073  0.4332 -0.2262
 2514SOL    HW119178   2.100   4.474  14.753  0.5468  0.3680 -0.1582
 2514SOL    HW219179   2.069   4.338  14.782 -3.6357 -1.3628 -0.7649
 2515SOL     OW19180   3.043   2.840  13.392  0.0991 -0.2361  0.0147
 2515SOL    HW119181   3.114   2.884  13.346 -0.3337  1.0074  0.5347
 2515SOL    HW219182   2.978   2.848  13.323  0.1444 -0.6906 -0.0818
 2516SOL     OW19183   1.618   2.066   5.777  0.0019  0.1256 -0.5757
 2516SOL    HW119184   1.677   2.065   5.702  0.6774  1.7116 -0.0487
 2516SOL    HW219185   1.663   2.106   5.850 -2.7363 -1.3987  1.9481
 2517SOL     OW19186   2.941   1.207   8.746 -0.3373 -0.9219 -0.3613
 2517SOL    HW119187   2.931   1.229   8.839 -1.6734  2.7270 -1.3775
 2517SOL    HW219188   2.874   1.264   8.709 -0.3185 -0.0353  0.9686
 2518SOL     OW19189   1.678   4.211   8.244  0.8834  0.2477 -0.2668
 2518SOL    HW119190   1.625   4.264   8.303 -2.6967 -1.3348 -2.0469
 2518SOL    HW219191   1.684   4.131   8.297 -0.2598  0.4445  0.1464
 2519SOL     OW19192   1.653   3.217   5.572  0.0084  0.2084 -0.1643
 2519SOL    HW119193   1.656   3.262   5.656 -0.4596 -0.3622  0.1619
 2519SOL    HW219194   1.591   3.273   5.525 -0.2635  0.3502  0.3713
 2520SOL     OW19195   4.198   1.753   7.587  0.0259  0.0932 -0.2160
 2520SOL    HW119196   4.187   1.738   7.681  0.3858 -1.7455 -0.4611
 2520SOL    HW219197   4.125   1.700   7.557 -1.6897  1.2330  1.9357
 2521SOL     OW19198   3.883   4.004   1.856 -0.4432  0.6857  0.1018
 2521SOL    HW119199   3.871   3.910   1.846 -1.1009  0.5566  2.0569
 2521SOL    HW219200   3.838   4.032   1.936  0.8779  2.2212  0.2993
 2522SOL     OW19201   3.806   3.224   3.244  0.2412  0.2664 -0.2037
 2522SOL    HW119202   3.787   3.174   3.324 -0.0055  0.0502 -0.3989
 2522SOL    HW219203   3.713   3.235   3.225 -0.0230  2.1002  2.0656
 2523SOL     OW19204   0.707   2.624  11.334 -1.0606  0.0779  0.5441
 2523SOL    HW119205   0.656   2.632  11.414 -1.5209 -0.8174  0.3319
 2523SOL    HW219206   0.761   2.548  11.353 -1.7371 -0.4710  0.2593
 2524SOL     OW19207   1.778   2.706   2.569 -0.6551  0.3138  0.0455
 2524SOL    HW119208   1.719   2.779   2.586 -0.8596  0.8541 -3.0530
 2524SOL    HW219209   1.845   2.741   2.511 -0.5666  1.5796  0.9067
 2525SOL     OW19210   1.714   1.345   6.178 -0.0909  0.2677  0.1419
 2525SOL    HW119211   1.786   1.285   6.156 -0.0610 -0.3627  1.9778
 2525SOL    HW219212   1.692   1.323   6.268  1.1623  0.0109  0.3948
 2526SOL     OW19213   2.702   1.708   9.961  0.5168  0.4231  0.4009
 2526SOL    HW119214   2.632   1.644   9.970 -0.2318  1.1166 -0.4491
 2526SOL    HW219215   2.767   1.656  10.008  1.0629  0.1020 -0.7190
 2527SOL     OW19216   2.679   3.744   3.188  0.4311 -0.2363  0.4771
 2527SOL    HW119217   2.677   3.758   3.282  1.0810 -1.2707  0.6518
 2527SOL    HW219218   2.770   3.762   3.162  0.9472 -1.3533  1.4846
 2528SOL     OW19219   2.759   3.961  15.524 -0.0120  0.0797  0.1666
 2528SOL    HW119220   2.830   4.010  15.483  0.5755 -0.4750  0.5251
 2528SOL    HW219221   2.746   4.020  15.599 -0.6965  0.7600 -0.4941
 2529SOL     OW19222   2.422   4.245   9.004 -0.3414  0.1796  0.1992
 2529SOL    HW119223   2.430   4.208   8.916  0.3486  1.5893 -0.3325
 2529SOL    HW219224   2.355   4.310   8.985 -0.1538  0.1993 -0.3965
 2530SOL     OW19225   4.280   4.310   2.689  0.0374  0.2424  0.2790
 2530SOL    HW119226   4.263   4.298   2.596  0.0635 -0.2489  0.3381
 2530SOL    HW219227   4.341   4.383   2.679 -0.9674  0.7853 -1.8747
 2531SOL     OW19228   1.632   0.861  15.729 -0.0881  0.0590 -0.3050
 2531SOL    HW119229   1.610   0.877  15.637 -1.9475  0.7839  0.2628
 2531SOL    HW219230   1.693   0.934  15.743  0.1860 -0.1243 -0.5429
 2532SOL     OW19231   2.059   0.905  14.062  0.7748 -0.3330 -0.6471
 2532SOL    HW119232   2.002   0.945  13.996  1.9731  1.5886 -0.5264
 2532SOL    HW219233   2.133   0.965  14.067  1.4736 -1.2602 -0.0001
 2533SOL     OW19234   4.602   4.423   4.427 -0.9844 -0.2065 -0.0784
 2533SOL    HW119235   4.578   4.443   4.337 -1.0196 -0.1733 -0.0613
 2533SOL    HW219236   4.609   4.328   4.414  0.9328 -0.1561  0.5964
 2534SOL     OW19237   2.628   4.118   1.178 -1.2224 -0.5729  0.0671
 2534SOL    HW119238   2.550   4.063   1.185 -0.7677 -1.3706 -1.0348
 2534SOL    HW219239   2.681   4.061   1.121 -1.1838 -2.2943  1.8207
 2535SOL     OW19240   4.444   3.256   5.863  0.1345 -0.2184 -0.3266
 2535SOL    HW119241   4.471   3.184   5.807  1.5289  0.1544 -0.1492
 2535SOL    HW219242   4.414   3.198   5.933 -2.0853  0.2901 -0.8718
 2536SOL     OW19243   1.871   0.064  15.250 -0.4371  0.1623 -0.0502
 2536SOL    HW119244   1.932   0.013  15.197 -2.2547 -0.4972 -1.4908
 2536SOL    HW219245   1.860   0.017  15.333 -0.3986  2.1773  1.0926
 2537SOL     OW19246   4.192   4.638   4.811  0.5581  0.0728 -0.0060
 2537SOL    HW119247   4.184   4.637   4.716  0.3556 -3.1572  0.0592
 2537SOL    HW219248   4.209   4.548   4.837 -0.8079  0.9348  3.9207
 2538SOL     OW19249   0.557   2.051  12.845  0.0734  0.1277 -0.0465
 2538SOL    HW119250   0.597   2.127  12.885  1.6524  1.1450 -3.5489
 2538SOL    HW219251   0.627   1.992  12.818  1.7914  2.0600  0.2305
 2539SOL     OW19252   1.713   4.445  14.662 -0.0932 -0.0161  0.1849
 2539SOL    HW119253   1.688   4.531  14.628  3.3022  1.7232  2.1476
 2539SOL    HW219254   1.676   4.438  14.751 -1.6611  0.4603 -0.4270
 2540SOL     OW19255   3.400   3.326   3.900 -0.4439 -0.2702 -0.2113
 2540SOL    HW119256   3.397   3.243   3.851  1.4769 -0.4390 -0.0705
 2540SOL    HW219257   3.359   3.305   3.984 -0.5207 -1.4724 -0.5376
 2541SOL     OW19258   2.583   1.836   4.375 -0.1710 -0.2020  0.9756
 2541SOL    HW119259   2.526   1.772   4.417 -2.0143  0.3046 -0.7451
 2541SOL    HW219260   2.536   1.869   4.298 -0.3257 -1.4314  0.5405
 2542SOL     OW19261   2.025   1.081   8.601 -0.3486  0.0797 -0.4349
 2542SOL    HW119262   2.108   1.124   8.580  0.5479 -1.4931 -0.1066
 2542SOL    HW219263   1.974   1.100   8.522 -0.5139  2.2102  0.1637
 2543SOL     OW19264   2.645   1.138   5.243  0.4599  0.3265 -0.5221
 2543SOL    HW119265   2.638   1.230   5.268  0.3987  0.3064 -0.4636
 2543SOL    HW219266   2.729   1.135   5.199  1.4367 -1.7754  1.4927
 2544SOL     OW19267   2.892   3.904   8.906 -0.3325  0.3863 -0.4951
 2544SOL    HW119268   2.833   3.830   8.894  1.3571 -0.8309 -1.1736
 2544SOL    HW219269   2.948   3.874   8.977  0.5044  0.0949 -1.2840
 2545SOL     OW19270   4.639   2.421  10.861 -0.3806 -0.2368 -0.1620
 2545SOL    HW119271   4.550   2.456  10.852  0.0589  0.6464 -1.0773
 2545SOL    HW219272   4.691   2.500  10.876 -0.7401 -0.0793  0.2790
 2546SOL     OW19273   1.405   0.627   4.316 -0.1620  0.1470 -1.2385
 2546SOL    HW119274   1.310   0.637   4.309 -0.3601 -0.7537  0.2248
 2546SOL    HW219275   1.437   0.712   4.348  1.3420  0.6256 -4.0074
 2547SOL     OW19276   3.088   3.674   5.760 -0.5302  0.2290 -0.3434
 2547SOL    HW119277   3.089   3.710   5.848  1.4886 -1.7988  0.4495
 2547SOL    HW219278   3.006   3.712   5.730 -0.7232 -0.2468 -0.4086
 2548SOL     OW19279   0.266   4.108   8.431 -0.1985 -0.5848  0.0105
 2548SOL    HW119280   0.181   4.138   8.463 -0.4276  1.0042 -2.0678
 2548SOL    HW219281   0.319   4.188   8.440  0.3153 -0.9520  0.2337
 2549SOL     OW19282   0.059   4.521   3.418  0.0884 -0.3208  0.1708
 2549SOL    HW119283   0.136   4.466   3.430 -0.5530 -2.1896 -4.0427
 2549SOL    HW219284   4.729   4.456   3.415  0.8928 -1.2688  1.6829
 2550SOL     OW19285   0.570   3.540  11.412  0.3267 -0.2872  0.1667
 2550SOL    HW119286   0.515   3.524  11.335  0.2202 -1.5354  0.5054
 2550SOL    HW219287   0.614   3.619  11.382  0.7204 -1.4124 -2.2337
 2551SOL     OW19288   0.391   2.780   0.115 -0.0460  0.2101  0.3453
 2551SOL    HW119289   0.424   2.822   0.035 -0.5727 -2.1280 -1.1085
 2551SOL    HW219290   0.349   2.705   0.072  0.7880  0.0037 -0.1088
 2552SOL     OW19291   0.798   1.488  10.132  0.4402  0.0322 -0.2671
 2552SOL    HW119292   0.746   1.505  10.054  2.3808  2.6885 -1.0131
 2552SOL    HW219293   0.778   1.399  10.158 -1.8723  0.2127 -1.4555
 2553SOL     OW19294   2.579   0.797   4.085  0.5003 -0.3286  0.3113
 2553SOL    HW119295   2.545   0.833   4.166  1.5555 -1.7169  1.3615
 2553SOL    HW219296   2.671   0.823   4.090  0.7177 -1.1533  0.5693
 2554SOL     OW19297   2.240   4.116   5.651  0.0423  0.0675  0.0483
 2554SOL    HW119298   2.200   4.052   5.710  0.7515 -0.9347 -0.5604
 2554SOL    HW219299   2.193   4.092   5.571 -1.8340  2.9858  0.2500
 2555SOL     OW19300   4.731   3.292  11.337 -0.4888 -0.1373 -0.1514
 2555SOL    HW119301   4.714   3.322  11.248  0.6042  2.6090  0.5539
 2555SOL    HW219302   0.064   3.236  11.312 -0.1766 -0.2959  1.1165
 2556SOL     OW19303   4.360   0.912  16.965  0.3862  0.6257  0.3759
 2556SOL    HW119304   4.275   0.951  16.943  1.7918  2.9027 -1.0851
 2556SOL    HW219305   4.417   0.985  16.941 -2.5291  2.8834  0.2144
 2557SOL     OW19306   2.837   3.449   4.541  0.1947  0.2171 -0.2701
 2557SOL    HW119307   2.825   3.497   4.623  0.1029  1.1513 -0.8405
 2557SOL    HW219308   2.882   3.369   4.568  2.8160  1.7715 -0.0672
 2558SOL     OW19309   0.052   3.851   8.134  1.1223  0.4270  0.9268
 2558SOL    HW119310   4.715   3.824   8.182  0.9324 -0.1441  0.2905
 2558SOL    HW219311   0.115   3.867   8.205  1.5307 -0.4230  0.7487
 2559SOL     OW19312   1.590   1.542  12.298  0.2464  0.0176 -0.0014
 2559SOL    HW119313   1.607   1.459  12.255  0.9880 -0.3012  0.9024
 2559SOL    HW219314   1.557   1.590  12.222  2.1467 -0.0482 -0.8661
 2560SOL     OW19315   4.266   0.198  11.757 -0.1896  0.1017  0.0238
 2560SOL    HW119316   4.275   0.191  11.662 -0.9157 -0.8049  0.0170
 2560SOL    HW219317   4.204   0.271  11.753 -1.8032 -1.4185 -2.9527
 2561SOL     OW19318   3.728   2.895  11.306 -0.3880  0.1704  0.4406
 2561SOL    HW119319   3.816   2.857  11.309 -0.9474 -1.3862 -2.3251
 2561SOL    HW219320   3.735   2.984  11.341  1.3587  1.4283 -3.1387
 2562SOL     OW19321   3.076   0.708   8.568  0.1688 -0.0864  0.0414
 2562SOL    HW119322   3.055   0.646   8.498 -1.8385  1.3009 -0.5823
 2562SOL    HW219323   3.170   0.726   8.562 -0.3324  3.1993  2.0004
 2563SOL     OW19324   1.812   2.285   5.888  0.3918 -0.3028  0.6934
 2563SOL    HW119325   1.888   2.282   5.830  0.2613  0.2037  0.5020
 2563SOL    HW219326   1.753   2.339   5.837  1.7883  1.4673  0.9566
 2564SOL     OW19327   4.404   0.357  16.808  0.6152 -0.4771  0.1653
 2564SOL    HW119328   4.320   0.341  16.766  0.4336 -1.3829  0.8761
 2564SOL    HW219329   4.382   0.385  16.897  2.0157  1.2318 -0.0211
 2565SOL     OW19330   1.806   2.268  14.968  0.3088 -0.8109 -1.1528
 2565SOL    HW119331   1.894   2.277  14.931  1.3631  0.6608  1.6485
 2565SOL    HW219332   1.755   2.319  14.905  1.6589  0.3754 -1.2947
 2566SOL     OW19333   0.331   2.271  15.681  0.5631  0.1575 -0.4142
 2566SOL    HW119334   0.301   2.216  15.754  0.0174  1.0918  0.0685
 2566SOL    HW219335   0.331   2.209  15.608 -0.7583  0.8835 -1.0249
 2567SOL     OW19336   0.370   2.035   3.276 -0.1336  0.0093 -0.1652
 2567SOL    HW119337   0.420   2.113   3.252  0.6885 -0.3906  0.2697
 2567SOL    HW219338   0.328   2.018   3.191 -0.2100 -2.7007  0.4228
 2568SOL     OW19339   0.649   4.174   4.423  0.4376  0.1034  0.2454
 2568SOL    HW119340   0.572   4.230   4.408 -0.6148 -1.4897 -0.3605
 2568SOL    HW219341   0.684   4.148   4.338 -1.7298 -1.6784 -0.1240
 2569SOL     OW19342   1.829   4.602   6.068  0.1553  0.1581 -0.2191
 2569SOL    HW119343   1.829   4.684   6.118 -0.6275 -0.6259  1.0408
 2569SOL    HW219344   1.801   4.544   6.139  1.1849  2.5081  2.1042
 2570SOL     OW19345   1.220   3.356   5.192 -0.1841 -0.0133 -0.4031
 2570SOL    HW119346   1.305   3.314   5.178 -0.3579 -0.4248 -0.2160
 2570SOL    HW219347   1.233   3.435   5.140  2.1564  2.6461  4.2801
 2571SOL     OW19348   2.451   0.331  15.814  0.1456  0.5509 -0.5474
 2571SOL    HW119349   2.543   0.330  15.787 -0.4614 -2.7492 -2.5040
 2571SOL    HW219350   2.410   0.309  15.731 -3.3739  2.4091  0.6925
 2572SOL     OW19351   0.617   1.200  17.358 -0.1070  0.5233  0.0103
 2572SOL    HW119352   0.693   1.258  17.356 -0.7208  1.3290 -0.2696
 2572SOL    HW219353   0.575   1.216  17.273  0.5685  0.5754 -0.3141
 2573SOL     OW19354   2.607   3.109  11.716  0.0246 -0.0985 -0.2092
 2573SOL    HW119355   2.642   3.085  11.802 -1.4609 -0.0302  0.4205
 2573SOL    HW219356   2.682   3.157  11.682  1.7161  0.1096  3.7202
 2574SOL     OW19357   0.538   1.333  17.111  0.0987 -0.0280  0.1795
 2574SOL    HW119358   0.586   1.401  17.157  0.8226 -0.9021  0.7172
 2574SOL    HW219359   0.474   1.388  17.065 -1.7511 -1.1918  1.3527
 2575SOL     OW19360   0.459   4.048   3.742 -0.3478  0.0083  0.2994
 2575SOL    HW119361   0.402   4.054   3.819  0.7199  1.5661  0.9695
 2575SOL    HW219362   0.469   3.953   3.734  0.3610  0.1203 -0.1091
 2576SOL     OW19363   0.910   3.183   4.685  0.1985 -0.3248 -0.4635
 2576SOL    HW119364   0.880   3.099   4.720 -2.4783  0.7125 -0.1893
 2576SOL    HW219365   0.935   3.162   4.595  0.1583  0.5396 -0.6803
 2577SOL     OW19366   2.888   2.868  10.195  0.2401  0.2860  0.3170
 2577SOL    HW119367   2.951   2.915  10.250  1.7208 -1.1411 -0.1554
 2577SOL    HW219368   2.931   2.864  10.109 -1.5322 -1.0619 -0.4960
 2578SOL     OW19369   2.539   0.732   6.333 -0.2356  0.0722 -0.1384
 2578SOL    HW119370   2.503   0.644   6.325 -1.1990  0.4323  0.1733
 2578SOL    HW219371   2.629   0.704   6.347 -0.4379  0.6229  2.3648
 2579SOL     OW19372   4.587   3.059   5.047 -0.6812  0.2096  0.9286
 2579SOL    HW119373   4.539   3.136   5.018 -1.6190 -0.0261  1.8432
 2579SOL    HW219374   4.675   3.071   5.011 -1.8888  0.5055 -1.9236
 2580SOL     OW19375   3.527   4.731  14.520  0.3629 -0.4879 -0.2349
 2580SOL    HW119376   3.568   0.034  14.446  0.8087  2.6081  1.8440
 2580SOL    HW219377   3.586   0.017  14.591 -0.7892 -0.9087  0.8760
 2581SOL     OW19378   0.849   0.344   1.858  0.1987 -0.1284 -0.0245
 2581SOL    HW119379   0.927   0.397   1.873  0.6916 -1.4766  2.1774
 2581SOL    HW219380   0.829   0.303   1.942  0.7694  2.3884  1.3511
 2582SOL     OW19381   2.850   1.456  10.738  0.1492  0.4591 -0.5341
 2582SOL    HW119382   2.824   1.412  10.819 -0.9703  0.2328 -1.0192
 2582SOL    HW219383   2.936   1.487  10.765  0.5275 -1.0002 -0.0599
 2583SOL     OW19384   0.721   3.411   3.937  0.3126 -0.2128  0.0819
 2583SOL    HW119385   0.683   3.460   4.010  0.7613  0.8403 -0.4015
 2583SOL    HW219386   0.807   3.452   3.936  1.4053 -2.5239 -0.9690
 2584SOL     OW19387   1.920   0.446   2.862  0.2546  0.0177  0.3665
 2584SOL    HW119388   1.877   0.383   2.805  1.6653 -2.8261  2.4203
 2584SOL    HW219389   1.866   0.524   2.869  0.8131  0.5298 -1.0936
 2585SOL     OW19390   0.693   2.221   4.179  0.4689  0.0340 -0.4217
 2585SOL    HW119391   0.616   2.164   4.185  0.3452  0.3176  0.8317
 2585SOL    HW219392   0.745   2.171   4.116  1.2300 -1.2517  1.1873
 2586SOL     OW19393   0.916   0.987   3.612  0.0872  0.0119 -0.4610
 2586SOL    HW119394   0.902   0.978   3.706  0.7772 -3.2441 -0.6815
 2586SOL    HW219395   0.990   1.047   3.613 -0.4350  0.6304  0.9403
 2587SOL     OW19396   2.599   3.216   2.570  0.2463  0.4268 -0.2730
 2587SOL    HW119397   2.678   3.250   2.527 -0.3235 -0.0620 -1.6983
 2587SOL    HW219398   2.527   3.266   2.532 -0.7150 -0.7073  0.0546
 2588SOL     OW19399   2.169   0.333   7.208  0.2371  0.6403 -0.7307
 2588SOL    HW119400   2.173   0.268   7.139  1.4316  0.0191 -0.0884
 2588SOL    HW219401   2.192   0.420   7.174  2.8453  0.3848  0.3440
 2589SOL     OW19402   1.521   4.559   5.521 -0.0500  0.2645 -0.5397
 2589SOL    HW119403   1.525   4.647   5.559 -1.0277  0.3195 -0.5565
 2589SOL    HW219404   1.452   4.574   5.457 -0.2536 -1.2060 -0.6496
 2590SOL     OW19405   2.631   2.845  17.402 -0.0300 -0.1927  0.4277
 2590SOL    HW119406   2.623   2.900  17.479 -1.6528 -0.7445  0.6599
 2590SOL    HW219407   2.712   2.885  17.371 -0.8123  0.7068 -0.4831
 2591SOL     OW19408   2.290   4.592   3.336  0.1247 -0.2533 -0.0320
 2591SOL    HW119409   2.257   4.514   3.291  0.3415  0.6806 -1.7988
 2591SOL    HW219410   2.372   4.555   3.369  1.1233 -0.6785 -3.0297
 2592SOL     OW19411   0.850   1.560   9.079  0.6938 -0.4370 -0.0564
 2592SOL    HW119412   0.845   1.468   9.104  1.1948 -0.7359 -1.0591
 2592SOL    HW219413   0.941   1.586   9.059  0.5764  0.8071  1.0263
 2593SOL     OW19414   1.093   4.160   7.380 -0.9002  0.3650 -0.3975
 2593SOL    HW119415   1.129   4.244   7.350  0.5050 -0.3876 -0.8040
 2593SOL    HW219416   1.020   4.182   7.437 -1.2836 -2.4777  0.1789
 2594SOL     OW19417   2.371   1.582   3.561 -0.4284 -0.2968 -0.2706
 2594SOL    HW119418   2.345   1.525   3.634  1.9517  0.4309  1.1471
 2594SOL    HW219419   2.447   1.530   3.533  0.0490  0.2182  0.0648
 2595SOL     OW19420   1.100   2.740   7.731 -0.2256  0.3140 -0.2910
 2595SOL    HW119421   1.089   2.824   7.687 -0.7034 -0.4408 -1.6420
 2595SOL    HW219422   1.106   2.768   7.822  0.0626 -0.7679  0.0188
 2596SOL     OW19423   4.582   3.420  16.387 -0.4669 -0.4595 -0.0233
 2596SOL    HW119424   4.638   3.409  16.463 -0.2770  1.4522  0.1271
 2596SOL    HW219425   4.614   3.497  16.340 -2.6932  0.2074 -0.4654
 2597SOL     OW19426   2.792   3.494   8.449 -0.0400  0.3810 -0.0345
 2597SOL    HW119427   2.758   3.573   8.491 -0.5482 -0.4477  1.0824
 2597SOL    HW219428   2.843   3.537   8.380 -0.4739  3.9402  1.8458
 2598SOL     OW19429   0.801   1.015  16.573 -0.1433 -0.1704  0.5830
 2598SOL    HW119430   0.772   1.061  16.494 -0.2772 -0.8383  0.2453
 2598SOL    HW219431   0.759   1.073  16.637  2.0594 -0.6414  2.4472
 2599SOL     OW19432   0.950   0.710  10.180  0.2959  0.2497 -0.0194
 2599SOL    HW119433   0.924   0.633  10.229  0.9103  0.9774  1.4593
 2599SOL    HW219434   0.979   0.676  10.095 -2.5189 -0.5507 -0.6449
 2600SOL     OW19435   0.317   1.059   1.746  0.4139 -0.2186 -0.1491
 2600SOL    HW119436   0.369   0.986   1.714 -1.2809 -2.0764  1.2857
 2600SOL    HW219437   0.233   1.018   1.728 -0.8047  1.8009  0.9034
 2601SOL     OW19438   2.168   1.961   9.802  0.0341 -0.0300 -0.4200
 2601SOL    HW119439   2.132   1.963   9.713  1.3737  2.1668 -0.9242
 2601SOL    HW219440   2.144   2.047   9.837  2.6618  1.4165 -2.2179
 2602SOL     OW19441   2.950   3.882   2.155  0.0805  0.3894 -0.1945
 2602SOL    HW119442   2.912   3.794   2.162 -1.7553  1.2696  0.8891
 2602SOL    HW219443   3.034   3.881   2.202 -1.2861  0.7015  2.2661
 2603SOL     OW19444   2.545   1.441  12.230 -0.2223 -0.8895  0.1894
 2603SOL    HW119445   2.590   1.526  12.234 -0.0569 -0.8573 -2.4019
 2603SOL    HW219446   2.455   1.471  12.244 -0.2868 -1.4859  1.0365
 2604SOL     OW19447   3.312   4.208   3.112  0.5872  0.5004 -0.0455
 2604SOL    HW119448   3.378   4.151   3.073 -2.3448 -2.4890 -0.6464
 2604SOL    HW219449   3.288   4.258   3.034  0.8004 -0.2360 -0.5852
 2605SOL     OW19450   4.507   2.982  14.152 -0.7963 -0.6519 -0.2080
 2605SOL    HW119451   4.594   2.946  14.138 -0.0788  1.0489 -0.1039
 2605SOL    HW219452   4.508   3.045  14.081  0.9097  2.5063  2.6414
 2606SOL     OW19453   0.350   0.312   3.397 -0.1521  0.2877 -0.3731
 2606SOL    HW119454   0.326   0.262   3.475 -1.0918  4.4909  2.0402
 2606SOL    HW219455   0.267   0.360   3.397 -1.3779 -1.8457  2.0440
 2607SOL     OW19456   1.643   1.980   2.445  0.1785  0.2852 -0.2517
 2607SOL    HW119457   1.606   1.930   2.372  3.2943 -1.4899 -0.6197
 2607SOL    HW219458   1.737   1.974   2.428  0.2511  0.2157  0.1793
 2608SOL     OW19459   1.228   1.775   6.404  0.5924  0.0753 -0.4246
 2608SOL    HW119460   1.203   1.773   6.312 -0.1068 -1.3837 -0.2005
 2608SOL    HW219461   1.307   1.722   6.415 -0.2775 -1.2030 -0.4238
 2609SOL     OW19462   1.013   2.932   6.924 -0.4426  0.9686 -0.5110
 2609SOL    HW119463   0.993   2.986   6.848 -0.9626 -0.8250 -1.6532
 2609SOL    HW219464   1.103   2.959   6.942 -0.3630 -1.2537  2.3817
 2610SOL     OW19465   4.069   2.484  10.768 -0.0514  0.5694  0.7001
 2610SOL    HW119466   4.085   2.398  10.729  0.5775  0.9029  0.2138
 2610SOL    HW219467   4.008   2.527  10.709 -1.4510 -0.3306  1.5071
 2611SOL     OW19468   2.590   1.141   8.658  0.0644 -0.3637 -0.1754
 2611SOL    HW119469   2.580   1.153   8.564  1.5454  2.7727  0.0794
 2611SOL    HW219470   2.625   1.226   8.683 -0.0989  0.9843 -4.5897
 2612SOL     OW19471   2.230   2.572  12.643  0.0679  0.3746 -0.1202
 2612SOL    HW119472   2.276   2.568  12.727  0.0516  1.0236 -0.0779
 2612SOL    HW219473   2.174   2.647  12.663  1.7446  1.4829  0.4435
 2613SOL     OW19474   3.165   0.095   7.999 -0.1982 -0.5466  0.3069
 2613SOL    HW119475   3.130   0.055   7.920 -0.9399 -0.9276  0.8182
 2613SOL    HW219476   3.085   0.089   8.053  0.2555  1.6682  1.2587
 2614SOL     OW19477   3.255   4.197   7.480  0.2155  0.3345  0.3128
 2614SOL    HW119478   3.211   4.229   7.401 -0.4822  2.6107  1.6416
 2614SOL    HW219479   3.245   4.103   7.466  1.5703  0.2303  0.0445
 2615SOL     OW19480   4.339   1.589   8.004  0.6172 -0.8046 -0.2779
 2615SOL    HW119481   4.271   1.584   7.936  0.7992 -1.0882 -0.4390
 2615SOL    HW219482   4.342   1.682   8.026  1.4588 -0.6580 -1.0432
 2616SOL     OW19483   2.449   0.303   8.948  0.3980  0.0789 -0.2017
 2616SOL    HW119484   2.396   0.263   9.016 -0.0961  1.6978  0.3669
 2616SOL    HW219485   2.404   0.384   8.926 -0.6312 -0.6032 -0.6137
 2617SOL     OW19486   2.353   3.591   1.119 -0.5657  0.1511 -0.6377
 2617SOL    HW119487   2.433   3.539   1.116  0.8657  2.3700 -0.5428
 2617SOL    HW219488   2.349   3.625   1.029  1.6740 -0.9093 -1.1281
 2618SOL     OW19489   1.718   3.801  15.461  0.0005 -0.1588 -0.2554
 2618SOL    HW119490   1.676   3.716  15.449  0.8662 -0.6775  0.3056
 2618SOL    HW219491   1.682   3.854  15.391 -0.7089  0.2105  0.3828
 2619SOL     OW19492   3.619   3.794  15.929  0.0817  0.2911 -0.4096
 2619SOL    HW119493   3.615   3.852  16.005 -0.3582  1.7066 -1.5080
 2619SOL    HW219494   3.703   3.748  15.935 -0.1968 -0.1265  0.2681
 2620SOL     OW19495   4.256   3.373  13.531  0.0354 -0.5067 -0.5154
 2620SOL    HW119496   4.303   3.456  13.526 -0.1281 -0.3425  0.8619
 2620SOL    HW219497   4.175   3.401  13.574  1.7289 -0.8214  2.8895
 2621SOL     OW19498   2.191   3.358   6.628  0.4748 -0.1591  0.3889
 2621SOL    HW119499   2.247   3.287   6.598 -1.1656 -2.1052  1.9381
 2621SOL    HW219500   2.231   3.378   6.713  0.2126 -0.6533  0.6292
 2622SOL     OW19501   3.370   2.596   0.896  0.2262  0.1312 -0.0881
 2622SOL    HW119502   3.407   2.543   0.966 -2.3056 -0.4551  0.7998
 2622SOL    HW219503   3.320   2.539   0.837  4.0464  1.3015 -4.4183
 2623SOL     OW19504   3.543   1.861   8.879  0.2140  0.2924  0.4338
 2623SOL    HW119505   3.554   1.951   8.910  0.3720  0.0407  1.1079
 2623SOL    HW219506   3.520   1.878   8.788  2.3414  1.0018  0.0335
 2624SOL     OW19507   1.183   0.917   8.048 -0.1475  0.6914 -0.0381
 2624SOL    HW119508   1.164   0.992   7.992  0.1267  0.5525 -0.3223
 2624SOL    HW219509   1.262   0.954   8.085  0.4225  0.2530 -0.8069
 2625SOL     OW19510   0.318   0.789   8.540 -0.1297  0.6134 -0.4591
 2625SOL    HW119511   0.351   0.835   8.617 -1.5509 -0.3849  0.7428
 2625SOL    HW219512   0.351   0.847   8.471 -0.7879  1.2471 -0.2421
 2626SOL     OW19513   4.490   2.931  15.332  0.6321  0.3237  0.2976
 2626SOL    HW119514   4.490   2.853  15.388  0.9619  1.3628  1.7334
 2626SOL    HW219515   4.464   2.894  15.247 -0.7756  1.4262  0.2508
 2627SOL     OW19516   0.011   1.633  10.518 -0.1855 -0.4812 -0.1232
 2627SOL    HW119517   4.673   1.580  10.523  0.5683 -1.4864  1.1615
 2627SOL    HW219518   0.039   1.635  10.610 -1.3615  0.9648  0.2020
 2628SOL     OW19519   4.694   1.963   7.029  0.0431  0.1182  0.5013
 2628SOL    HW119520   4.612   2.005   7.003  0.9874  1.9817  0.5365
 2628SOL    HW219521   4.696   1.974   7.124 -0.8089  0.9661  0.4220
 2629SOL     OW19522   3.809   2.417   8.718 -0.3010  0.8051 -0.1310
 2629SOL    HW119523   3.757   2.497   8.709  2.3964  2.3488 -1.8067
 2629SOL    HW219524   3.794   2.372   8.636  1.7864  1.6710 -0.9829
 2630SOL     OW19525   1.267   3.278   6.553  0.2699 -0.8193  0.1444
 2630SOL    HW119526   1.197   3.329   6.512 -1.1013 -2.8498 -0.0538
 2630SOL    HW219527   1.339   3.303   6.496  0.4520 -1.1180  0.2432
 2631SOL     OW19528   4.610   0.640   8.232 -0.1475 -0.2113 -0.8133
 2631SOL    HW119529   4.517   0.652   8.253  0.6427  0.2815  2.2494
 2631SOL    HW219530   4.647   0.663   8.317 -1.5038  0.0986 -0.3040
 2632SOL     OW19531   1.733   0.964   6.020  0.1951  0.1700  0.1215
 2632SOL    HW119532   1.784   1.045   6.025  1.7204 -0.8606  1.3480
 2632SOL    HW219533   1.793   0.896   6.051 -0.0753  0.3164  0.9729
 2633SOL     OW19534   3.841   0.194  15.444 -0.9988 -0.3384  0.2018
 2633SOL    HW119535   3.899   0.141  15.389 -1.9432 -1.0739 -0.1054
 2633SOL    HW219536   3.872   0.283  15.428  2.1087 -1.2840  0.9671
 2634SOL     OW19537   4.398   3.584   1.106  0.0111 -0.0884  0.2462
 2634SOL    HW119538   4.401   3.669   1.150 -1.4224 -1.3752  2.8158
 2634SOL    HW219539   4.363   3.527   1.174 -1.9385 -0.6948 -1.2664
 2635SOL     OW19540   3.383   2.406  14.277  0.6352 -0.5776  0.4498
 2635SOL    HW119541   3.294   2.379  14.300 -0.0548  0.8791 -0.4866
 2635SOL    HW219542   3.385   2.351  14.199  1.5632  0.9333 -0.6028
 2636SOL     OW19543   3.099   1.274   6.786  0.0268 -0.0931  0.0838
 2636SOL    HW119544   3.118   1.352   6.838  2.4160  0.4998 -1.6486
 2636SOL    HW219545   3.017   1.299   6.744 -0.3207 -1.2183  0.0960
 2637SOL     OW19546   2.011   1.455   3.309 -0.0829 -0.0674 -0.4686
 2637SOL    HW119547   2.031   1.489   3.222 -0.8405 -1.2475 -1.0972
 2637SOL    HW219548   2.018   1.362   3.285 -0.3035 -0.8405  2.4114
 2638SOL     OW19549   1.541   2.203   2.606 -0.0769 -0.7486 -0.3089
 2638SOL    HW119550   1.573   2.264   2.540 -0.5501  0.1956  0.3250
 2638SOL    HW219551   1.584   2.128   2.565  0.1148 -1.0933  0.5232
 2639SOL     OW19552   2.778   0.434   9.093 -0.2074 -0.2884  0.5349
 2639SOL    HW119553   2.748   0.454   9.182  3.1298 -0.4490  1.6951
 2639SOL    HW219554   2.789   0.523   9.059  1.2384  0.3951  2.7814
 2640SOL     OW19555   3.175   2.144  16.000 -0.1410 -0.1127 -0.3428
 2640SOL    HW119556   3.265   2.155  16.031  0.1039 -1.0169 -0.7477
 2640SOL    HW219557   3.159   2.227  15.954 -0.5580  0.1757  0.3206
 2641SOL     OW19558   3.416   0.456   2.474  0.1931  0.0383 -0.1657
 2641SOL    HW119559   3.445   0.417   2.391 -1.5619 -2.1030  0.2410
 2641SOL    HW219560   3.473   0.532   2.461  0.5159 -0.0992  0.4429
 2642SOL     OW19561   3.827   3.532  13.824 -0.1175  0.0285  0.1165
 2642SOL    HW119562   3.772   3.610  13.838  0.2680  0.4302 -0.6165
 2642SOL    HW219563   3.774   3.487  13.759 -0.1885  0.0457  0.1623
 2643SOL     OW19564   0.876   4.500  14.891 -0.1894  0.0539  0.6292
 2643SOL    HW119565   0.942   4.533  14.951  0.3516  0.8824 -0.4132
 2643SOL    HW219566   0.913   4.521  14.805  1.8308 -0.0118  1.4843
 2644SOL     OW19567   2.070   0.749   2.218 -0.1201 -0.6803 -0.0019
 2644SOL    HW119568   2.082   0.778   2.308  0.1378  0.0416 -0.2694
 2644SOL    HW219569   2.029   0.663   2.230 -1.1127 -0.0588  1.0146
 2645SOL     OW19570   0.472   1.787   4.036 -0.1926 -0.3612  0.1157
 2645SOL    HW119571   0.395   1.843   4.042 -0.1817 -0.3644  0.2770
 2645SOL    HW219572   0.471   1.745   4.122 -1.2559 -1.2107 -0.3155
 2646SOL     OW19573   4.367   4.340   4.640  0.3941  0.1620  0.2426
 2646SOL    HW119574   4.424   4.395   4.693  0.1030  0.2575  0.4567
 2646SOL    HW219575   4.408   4.255   4.654  1.6795  0.4454 -1.8269
 2647SOL     OW19576   1.865   3.811  10.561  0.3261 -0.4045 -0.0017
 2647SOL    HW119577   1.771   3.809  10.580 -0.0001  1.9087 -1.3735
 2647SOL    HW219578   1.898   3.881  10.616  1.9198  1.2602 -3.0334
 2648SOL     OW19579   4.528   1.121   5.041  0.1409 -0.2564 -0.3415
 2648SOL    HW119580   4.514   1.063   4.966  2.2582  0.7407 -1.5238
 2648SOL    HW219581   4.461   1.082   5.097 -2.7081  2.0269 -2.1556
 2649SOL     OW19582   4.504   2.826  10.815  0.0067 -0.4213  0.1762
 2649SOL    HW119583   4.572   2.812  10.750 -0.0183 -0.5479  0.1774
 2649SOL    HW219584   4.425   2.800  10.768  0.2070  0.6038 -0.7150
 2650SOL     OW19585   3.569   0.375   6.681  0.4918  0.4381 -0.5597
 2650SOL    HW119586   3.606   0.463   6.685  1.7513 -0.0971 -0.2945
 2650SOL    HW219587   3.642   0.336   6.729 -2.6346 -0.0592  3.7280
 2651SOL     OW19588   3.693   1.774   0.032 -0.1295 -0.3801  0.1942
 2651SOL    HW119589   3.712   1.699   0.089 -1.0803 -1.4877 -0.9509
 2651SOL    HW219590   3.780   1.796  17.759 -0.5088  1.5515  0.4801
 2652SOL     OW19591   1.629   3.125  16.773 -0.0036 -0.6476  0.1369
 2652SOL    HW119592   1.635   3.051  16.833 -1.0251 -1.4892 -0.8141
 2652SOL    HW219593   1.690   3.190  16.808  1.0332 -2.0075  0.8403
 2653SOL     OW19594   3.021   3.924   1.885  0.2391 -0.5396  0.2714
 2653SOL    HW119595   2.996   3.901   1.975 -0.8054  3.0718  0.9019
 2653SOL    HW219596   3.113   3.900   1.889  0.4078 -0.1272 -1.2163
 2654SOL     OW19597   4.295   0.158   1.965 -0.1372  0.0917 -0.6599
 2654SOL    HW119598   4.377   0.109   1.955  0.3176  0.5172  1.0585
 2654SOL    HW219599   4.262   0.158   1.875 -1.5302 -0.2110 -0.1420
 2655SOL     OW19600   4.159   1.093   8.023 -0.2034 -0.0453  0.2958
 2655SOL    HW119601   4.178   1.143   8.102 -1.9494  1.4104 -0.2048
 2655SOL    HW219602   4.094   1.037   8.063  0.5306 -0.4168  0.9748
 2656SOL     OW19603   4.551   2.571   2.904  0.0310  0.5071  0.0845
 2656SOL    HW119604   4.635   2.616   2.914  0.5293 -0.2673 -0.6132
 2656SOL    HW219605   4.514   2.615   2.828  2.2618  0.8725 -0.7656
 2657SOL     OW19606   3.731   4.244  15.754  0.1816  0.3933 -0.2183
 2657SOL    HW119607   3.758   4.321  15.704  3.7511 -0.7606 -0.0555
 2657SOL    HW219608   3.656   4.206  15.709 -0.4732 -1.3441  2.3506
 2658SOL     OW19609   2.810   3.361   5.474 -0.0687 -0.2692  0.2669
 2658SOL    HW119610   2.845   3.343   5.562  0.0904  0.2282  0.3023
 2658SOL    HW219611   2.741   3.425   5.487  0.1880  0.0274  0.1500
 2659SOL     OW19612   4.362   2.251   4.591  0.3205 -0.3732  0.5413
 2659SOL    HW119613   4.345   2.290   4.677 -3.3788 -0.2445 -0.2292
 2659SOL    HW219614   4.337   2.327   4.538  1.9795  0.4828  0.9973
 2660SOL     OW19615   3.212   2.899   8.348 -0.0990 -0.7132 -0.2743
 2660SOL    HW119616   3.119   2.918   8.336 -0.0883 -0.8258 -0.5320
 2660SOL    HW219617   3.211   2.835   8.420  2.3108  0.8851  1.1915
 2661SOL     OW19618   3.530   2.390   3.250  0.1588 -0.1262 -0.7218
 2661SOL    HW119619   3.590   2.449   3.203  1.3845 -0.1497  0.8198
 2661SOL    HW219620   3.596   2.357   3.310 -0.2059  2.8670  1.3259
 2662SOL     OW19621   4.160   2.217  17.009 -0.4577  0.8521  0.0962
 2662SOL    HW119622   4.101   2.181  16.944  2.1663  0.9264 -2.3421
 2662SOL    HW219623   4.099   2.218  17.083 -1.0663 -1.1683 -0.3824
 2663SOL     OW19624   0.115   1.599   6.399  0.2884 -0.5576  0.2264
 2663SOL    HW119625   0.037   1.654   6.393  1.7744  1.3788 -1.3639
 2663SOL    HW219626   0.067   1.519   6.379  0.6938 -1.1987  1.8202
 2664SOL     OW19627   4.349   4.017   5.483  0.3641  0.1326  0.1803
 2664SOL    HW119628   4.382   3.958   5.415  0.9681 -0.8052  1.2660
 2664SOL    HW219629   4.428   4.069   5.499 -0.4877  2.1441 -2.1888
 2665SOL     OW19630   2.768   3.231   7.129  0.0337  0.2128  0.1977
 2665SOL    HW119631   2.754   3.143   7.164 -1.9849 -0.3792 -2.0550
 2665SOL    HW219632   2.725   3.227   7.044 -3.0525  2.0232  1.6763
 2666SOL     OW19633   0.692   2.712  13.382 -0.5204 -0.1736 -0.8200
 2666SOL    HW119634   0.635   2.647  13.341 -0.7037 -0.7403  0.3296
 2666SOL    HW219635   0.763   2.653  13.409  0.2141  0.8578 -0.5045
 2667SOL     OW19636   3.167   0.814   9.419 -0.4262  0.4291  0.3180
 2667SOL    HW119637   3.143   0.863   9.340  0.1148  1.0397  0.5272
 2667SOL    HW219638   3.128   0.867   9.488  0.5866  1.4160  0.1342
 2668SOL     OW19639   2.985   3.187   6.491  0.7600 -0.0102  0.7765
 2668SOL    HW119640   3.071   3.178   6.533  2.2025  0.4747 -2.1046
 2668SOL    HW219641   2.985   3.126   6.417  1.5712  0.2566  0.5587
 2669SOL     OW19642   0.245   3.241  14.443 -0.2053  0.0429  0.0103
 2669SOL    HW119643   0.192   3.292  14.383 -0.0207 -2.3377 -2.1586
 2669SOL    HW219644   0.325   3.294  14.451 -0.0374 -0.1638 -0.2987
 2670SOL     OW19645   3.965   0.289   7.311 -0.2462  0.3445  0.2075
 2670SOL    HW119646   4.051   0.280   7.272 -0.6951  0.4439 -0.8164
 2670SOL    HW219647   3.996   0.329   7.392  0.1027 -3.2666  1.8308
 2671SOL     OW19648   3.587   0.029   4.391  0.8454  0.5833 -0.7823
 2671SOL    HW119649   3.539   0.104   4.357 -1.3021 -0.9106 -1.0624
 2671SOL    HW219650   3.576   0.029   4.487  0.3123  0.6210 -0.8426
 2672SOL     OW19651   4.663   0.239  13.001  0.2857 -0.5123 -0.1706
 2672SOL    HW119652   4.593   0.302  13.017  1.0684  0.4260 -0.4091
 2672SOL    HW219653   4.611   0.159  12.999  1.0450 -1.0067 -0.2699
 2673SOL     OW19654   1.691   1.226   5.794 -0.3760  0.3997  0.2395
 2673SOL    HW119655   1.731   1.220   5.707 -0.3363  2.1768  0.1413
 2673SOL    HW219656   1.655   1.138   5.805 -0.4055  0.2332 -1.2087
 2674SOL     OW19657   3.831   1.527   5.886  0.2793 -0.3654  0.0436
 2674SOL    HW119658   3.876   1.607   5.914 -0.4941  0.1383 -0.1523
 2674SOL    HW219659   3.779   1.549   5.809 -0.5502  2.1563  1.3216
 2675SOL     OW19660   0.563   0.096   0.952  0.3372 -0.0123 -0.7735
 2675SOL    HW119661   0.639   0.140   0.913  0.2576  0.6746 -0.1665
 2675SOL    HW219662   0.528   0.150   1.024  1.9005 -1.4559  1.0885
 2676SOL     OW19663   4.079   1.931   9.388  0.0882  0.4085 -0.7041
 2676SOL    HW119664   4.149   1.987   9.420  1.4949 -1.1352 -1.0729
 2676SOL    HW219665   4.107   1.923   9.297  1.7978 -3.5998  0.1876
 2677SOL     OW19666   2.168   4.445   9.121  0.0500  0.6175  0.1188
 2677SOL    HW119667   2.076   4.450   9.148  0.4204  1.3361  1.2575
 2677SOL    HW219668   2.166   4.494   9.039 -1.4755  0.2714 -0.0614
 2678SOL     OW19669   3.779   2.732  10.881  0.2644  0.3073  0.1153
 2678SOL    HW119670   3.856   2.682  10.908  1.3734  1.1613 -1.4802
 2678SOL    HW219671   3.800   2.816  10.922 -4.3760  1.0522  0.9733
 2679SOL     OW19672   1.846   0.674  15.355  0.2035  0.0874  0.0396
 2679SOL    HW119673   1.904   0.741  15.320  1.0806  0.2250  1.7673
 2679SOL    HW219674   1.766   0.705  15.312 -0.9968 -2.2207  0.6019
 2680SOL     OW19675   1.084   4.053   6.516  0.2218 -0.4126 -0.1401
 2680SOL    HW119676   1.113   4.102   6.593  0.8487 -0.2551 -0.4692
 2680SOL    HW219677   1.159   3.999   6.491  2.1972  1.4616  1.7036
 2681SOL     OW19678   0.895   1.821   7.534  0.9431  0.5581  0.2951
 2681SOL    HW119679   0.873   1.826   7.442  0.1937 -0.8051  0.4057
 2681SOL    HW219680   0.842   1.891   7.571  0.4129 -0.1266  0.8430
 2682SOL     OW19681   3.813   1.839   9.262  0.4470  0.0139  0.1239
 2682SOL    HW119682   3.837   1.803   9.347  1.7353 -0.7755 -0.5636
 2682SOL    HW219683   3.766   1.915   9.296 -1.0621 -0.2611 -1.3502
 2683SOL     OW19684   3.856   2.804   8.450  0.8592 -0.3038  0.2131
 2683SOL    HW119685   3.899   2.719   8.448  1.0076 -0.1999 -0.9170
 2683SOL    HW219686   3.794   2.789   8.521  1.9223 -0.2468  1.1384
 2684SOL     OW19687   3.327   1.030   0.678  0.2411 -0.1822 -0.5654
 2684SOL    HW119688   3.340   0.944   0.718  0.7499  0.2548  0.2148
 2684SOL    HW219689   3.311   1.080   0.758  1.0481 -0.7361 -0.0578
 2685SOL     OW19690   1.502   2.592  17.133  0.7447 -0.0015  0.0988
 2685SOL    HW119691   1.505   2.638  17.050  2.2858  1.1064  0.7837
 2685SOL    HW219692   1.584   2.543  17.124  0.8978  0.2379  0.2086
 2686SOL     OW19693   0.026   0.863   0.561 -0.8626 -0.0487 -0.2187
 2686SOL    HW119694   0.000   0.771   0.569  1.1074 -0.3616  2.7267
 2686SOL    HW219695   0.076   0.865   0.479  1.4404  1.5157  1.2306
 2687SOL     OW19696   4.467   3.124  12.349 -0.0006 -0.1789  0.7385
 2687SOL    HW119697   4.465   3.220  12.351  0.4581 -0.1922  2.0769
 2687SOL    HW219698   4.403   3.103  12.417 -0.4548  1.7269  0.9006
 2688SOL     OW19699   4.306   4.582   1.775  0.2339  0.1436  0.9620
 2688SOL    HW119700   4.292   4.670   1.739 -3.5444 -1.2399 -0.9730
 2688SOL    HW219701   4.400   4.570   1.766 -0.0976 -0.7707 -1.2395
 2689SOL     OW19702   2.383   3.151  10.041  0.3487 -0.3150 -0.3268
 2689SOL    HW119703   2.342   3.161  10.127  1.5580  2.4606 -0.0544
 2689SOL    HW219704   2.329   3.084   9.999 -0.0921  0.3394 -0.8063
 2690SOL     OW19705   2.861   4.278   8.407 -0.0565  0.2085  0.3538
 2690SOL    HW119706   2.850   4.208   8.342  1.2548  0.3416 -0.0185
 2690SOL    HW219707   2.773   4.297   8.439 -0.4300  1.0444 -1.1541
 2691SOL     OW19708   1.032   3.318  14.735  0.0765  0.8375  0.4504
 2691SOL    HW119709   0.988   3.361  14.662 -1.4826 -2.2135 -0.3807
 2691SOL    HW219710   1.010   3.226  14.724 -1.5204  1.0068  2.1972
 2692SOL     OW19711   0.789   1.680   2.130 -0.1144 -0.1644  0.4988
 2692SOL    HW119712   0.726   1.741   2.167 -0.7688  0.3003 -1.3940
 2692SOL    HW219713   0.779   1.682   2.035 -0.5799  0.2941  0.5605
 2693SOL     OW19714   2.239   2.647   4.393  0.4845 -0.0525 -1.1482
 2693SOL    HW119715   2.329   2.672   4.372  0.7753 -1.2715 -1.3563
 2693SOL    HW219716   2.264   2.565   4.436  1.9547  0.6214 -0.7173
 2694SOL     OW19717   0.325   2.150   6.572  0.0715  0.2168  0.2840
 2694SOL    HW119718   0.322   2.105   6.488 -0.6361 -2.2152  1.6129
 2694SOL    HW219719   0.287   2.088   6.635 -0.1306  0.9962  0.9377
 2695SOL     OW19720   4.067   3.430   8.532  0.4151 -0.5406  0.2937
 2695SOL    HW119721   4.034   3.464   8.448  0.4470  0.2358  0.5977
 2695SOL    HW219722   3.982   3.409   8.570 -0.6495  2.3665 -0.5146
 2696SOL     OW19723   0.702   3.259   3.596 -0.1925  0.4877 -0.6583
 2696SOL    HW119724   0.776   3.314   3.570  0.4686 -0.1777 -0.1834
 2696SOL    HW219725   0.698   3.197   3.523 -0.6948 -0.0219 -0.1948
 2697SOL     OW19726   3.870   2.886  14.557 -0.4610 -0.1630 -0.4452
 2697SOL    HW119727   3.939   2.823  14.576 -0.8503 -1.3526 -2.9034
 2697SOL    HW219728   3.841   2.925  14.639 -3.2212  1.9601 -2.4477
 2698SOL     OW19729   2.348   1.765   6.429 -0.6241  0.0074  0.2309
 2698SOL    HW119730   2.383   1.795   6.513 -2.6006  2.3379  0.2408
 2698SOL    HW219731   2.280   1.827   6.402 -0.5820 -1.0344 -2.2928
 2699SOL     OW19732   3.761   0.750   9.967 -0.0701  0.2591  0.0949
 2699SOL    HW119733   3.780   0.746  10.061 -3.7496  0.1292  0.8385
 2699SOL    HW219734   3.802   0.675   9.923 -0.3609 -0.7919  1.5936
 2700SOL     OW19735   1.602   4.678   3.910  0.1383  0.7523 -0.3848
 2700SOL    HW119736   1.552   4.688   3.829 -0.6772  1.1278  0.1625
 2700SOL    HW219737   1.568   0.020   3.945 -1.2523 -0.8205  1.9978
 2701SOL     OW19738   0.995   2.057  10.685 -0.1273 -0.2123  0.2402
 2701SOL    HW119739   1.011   2.104  10.767 -1.0154  0.1996  0.1766
 2701SOL    HW219740   0.943   2.125  10.642  0.8124 -0.9450 -2.0568
 2702SOL     OW19741   2.014   0.082  16.886 -0.0215  0.3200 -0.0314
 2702SOL    HW119742   2.066   0.152  16.846  0.6995 -1.4431 -2.1354
 2702SOL    HW219743   2.020   0.016  16.817 -0.7362  0.9684 -0.7278
 2703SOL     OW19744   0.621   0.317   6.259 -0.2785  0.2896  0.2256
 2703SOL    HW119745   0.555   0.380   6.288  1.2200  0.9412  2.2940
 2703SOL    HW219746   0.665   0.349   6.181 -1.0376 -0.3610 -0.4602
 2704SOL     OW19747   2.217   2.018   0.208 -0.4919 -0.9045 -0.0419
 2704SOL    HW119748   2.130   2.058   0.208  1.0977  2.5235 -0.0285
 2704SOL    HW219749   2.238   2.008   0.115  0.1220  1.1187 -0.1085
 2705SOL     OW19750   3.293   3.156   5.185  0.5748 -0.1980 -0.3540
 2705SOL    HW119751   3.362   3.090   5.182  0.0356 -0.7630 -0.4271
 2705SOL    HW219752   3.333   3.222   5.241  0.8165  0.1202 -0.8995
 2706SOL     OW19753   4.345   3.885   5.057  0.3146 -0.2536 -0.1731
 2706SOL    HW119754   4.298   3.943   5.116  0.3248 -1.5696  1.1342
 2706SOL    HW219755   4.384   3.962   5.015  1.4575  0.5883  2.4370
 2707SOL     OW19756   1.931   2.566   7.691 -0.4395  0.0037 -0.2756
 2707SOL    HW119757   1.930   2.651   7.735 -0.1484  1.8195 -3.7899
 2707SOL    HW219758   1.953   2.595   7.603  0.6900  0.8306  0.2763
 2708SOL     OW19759   3.476   0.671  16.185  0.1751  0.1843  0.2217
 2708SOL    HW119760   3.524   0.752  16.204  1.9638 -0.5833 -0.9543
 2708SOL    HW219761   3.552   0.613  16.189 -1.3662 -1.6624  2.0719
 2709SOL     OW19762   1.791   1.775   5.671  0.6162  0.3038 -0.4181
 2709SOL    HW119763   1.770   1.861   5.634 -3.2383 -0.5487 -0.1894
 2709SOL    HW219764   1.752   1.780   5.759  0.7613  0.5705 -0.3678
 2710SOL     OW19765   1.365   4.207   7.767  0.3970  0.1709  0.5030
 2710SOL    HW119766   1.354   4.302   7.762  3.5901  0.4540 -1.4086
 2710SOL    HW219767   1.429   4.203   7.838  1.2434  1.0922 -0.1937
 2711SOL     OW19768   4.400   0.992  12.961  0.6843  0.0419  0.3012
 2711SOL    HW119769   4.323   0.970  12.909 -0.1389 -0.1846  1.6267
 2711SOL    HW219770   4.351   1.016  13.039 -0.5619  1.5302 -0.9439
 2712SOL     OW19771   0.169   0.877   0.334  0.0862 -0.3521  0.2023
 2712SOL    HW119772   0.132   0.942   0.275 -1.4691 -0.5205  0.9910
 2712SOL    HW219773   0.258   0.909   0.350  0.8151 -2.0765 -0.3676
 2713SOL     OW19774   0.573   2.175  15.945 -0.1028 -0.1442  0.2977
 2713SOL    HW119775   0.479   2.163  15.934  0.0095 -0.1838 -0.6217
 2713SOL    HW219776   0.574   2.265  15.976 -0.0587  0.5511 -1.7153
 2714SOL     OW19777   1.195   4.101   2.974  0.3192  0.6422  0.4832
 2714SOL    HW119778   1.117   4.046   2.964  0.9763  0.1708 -1.9637
 2714SOL    HW219779   1.260   4.044   3.014 -1.0143 -2.3150 -1.5906
 2715SOL     OW19780   2.900   4.025  13.280  0.4390 -0.0439 -0.3388
 2715SOL    HW119781   2.989   4.045  13.253 -0.2992  2.5784 -0.8981
 2715SOL    HW219782   2.903   4.057  13.370 -1.6632  0.1281 -0.3138
 2716SOL     OW19783   2.011   4.269   5.496  0.0080 -0.2286 -0.7722
 2716SOL    HW119784   2.007   4.306   5.407  1.7620  1.0262 -0.3213
 2716SOL    HW219785   2.021   4.175   5.478 -1.3206 -0.1961 -1.7294
 2717SOL     OW19786   3.564   0.011   6.271  0.0826 -0.1907  0.4535
 2717SOL    HW119787   3.565   0.008   6.366  0.0690  2.5438  0.5437
 2717SOL    HW219788   3.480   4.709   6.253 -0.0358  0.5445 -0.7779
 2718SOL     OW19789   0.529   3.470   6.260  0.0376 -0.1575 -0.0163
 2718SOL    HW119790   0.494   3.420   6.333  0.3639  0.5310  0.6051
 2718SOL    HW219791   0.578   3.407   6.207 -0.6818 -0.3109 -0.5022
 2719SOL     OW19792   2.062   1.416   4.956  0.4071  0.3935 -0.5567
 2719SOL    HW119793   1.999   1.344   4.963  0.6122  0.4939  2.0930
 2719SOL    HW219794   2.008   1.487   4.990  2.3497  0.7198  1.8051
 2720SOL     OW19795   4.692   2.647   7.903 -0.0088 -0.1060  0.1166
 2720SOL    HW119796   4.701   2.597   7.821  0.9645  0.4396 -0.1077
 2720SOL    HW219797   0.029   2.621   7.952 -0.4365  1.3855  1.5708
 2721SOL     OW19798   0.899   1.351   9.268 -0.2637 -0.1986  0.4146
 2721SOL    HW119799   0.980   1.326   9.312  0.5586  0.2697 -0.8214
 2721SOL    HW219800   0.849   1.375   9.345  0.1722  1.6793  0.1236
 2722SOL     OW19801   2.729   0.869  14.710 -0.2881  0.2281  0.0118
 2722SOL    HW119802   2.715   0.963  14.696 -1.2319 -0.1058 -1.3212
 2722SOL    HW219803   2.724   0.842  14.618 -0.5802  0.3290 -0.0018
 2723SOL     OW19804   2.296   3.182  14.603  0.2469  0.4251  0.4499
 2723SOL    HW119805   2.368   3.244  14.610  0.2822  0.3463  0.8328
 2723SOL    HW219806   2.251   3.184  14.687  0.0938  1.3778  0.3349
 2724SOL     OW19807   4.382   0.078   8.175  0.0527 -0.1573 -0.2010
 2724SOL    HW119808   4.454   0.020   8.150  0.6831  0.8809 -0.8579
 2724SOL    HW219809   4.421   0.166   8.176 -0.0792 -0.0947 -0.4817
 2725SOL     OW19810   1.594   1.060   6.550 -0.1644  0.6640  0.1141
 2725SOL    HW119811   1.549   1.143   6.572 -1.0070  0.1541  0.3393
 2725SOL    HW219812   1.539   0.992   6.590  1.2716 -1.4868 -1.5981
 2726SOL     OW19813   3.313   3.473   2.894  0.4006  0.0730  0.5625
 2726SOL    HW119814   3.302   3.392   2.943  0.8924  0.0907  0.6982
 2726SOL    HW219815   3.246   3.531   2.930  0.4247 -0.0033  0.7307
 2727SOL     OW19816   1.080   2.042   5.324  0.1969 -0.3465  0.4982
 2727SOL    HW119817   1.165   2.017   5.288 -0.2489 -1.7981  0.4429
 2727SOL    HW219818   1.081   1.989   5.404  1.2662 -1.0609  0.0113
 2728SOL     OW19819   1.877   3.211   6.184  0.1520  0.6233 -0.0185
 2728SOL    HW119820   1.906   3.215   6.093  0.9029  0.1334  0.2040
 2728SOL    HW219821   1.959   3.237   6.226 -0.4141 -0.8188  1.9885
 2729SOL     OW19822   3.206   0.251  12.388 -0.6954 -0.1577 -0.1185
 2729SOL    HW119823   3.214   0.346  12.403 -1.3372 -0.6791  3.5464
 2729SOL    HW219824   3.113   0.256  12.365 -1.1812  0.6442  1.9899
 2730SOL     OW19825   1.434   1.214   4.584  0.2941 -0.1150  0.2171
 2730SOL    HW119826   1.406   1.146   4.646 -1.1687  0.0572 -0.2548
 2730SOL    HW219827   1.353   1.228   4.535 -0.1673  0.0288  1.0159
 2731SOL     OW19828   4.323   2.047  11.882  0.4676 -0.0758 -0.2655
 2731SOL    HW119829   4.257   2.037  11.950  0.4747 -1.5776 -0.4824
 2731SOL    HW219830   4.315   2.139  11.859  2.1839  0.6243  1.9082
 2732SOL     OW19831   2.452   3.810   2.100 -0.2873 -0.7187 -0.8811
 2732SOL    HW119832   2.524   3.873   2.100  1.2790 -2.5190  0.1433
 2732SOL    HW219833   2.409   3.834   2.018 -0.9060  1.4709  0.0806
 2733SOL     OW19834   1.322   2.669  13.071  0.3365 -0.0191 -0.0793
 2733SOL    HW119835   1.297   2.760  13.084 -0.3043 -0.1801 -0.1561
 2733SOL    HW219836   1.401   2.679  13.018  1.0945 -0.8295  0.9146
 2734SOL     OW19837   4.202   4.666   7.831  0.5834  0.1007 -0.2810
 2734SOL    HW119838   4.270   4.671   7.764  1.5029 -1.9907  0.5127
 2734SOL    HW219839   4.244   4.656   7.916 -0.2799  2.0492  0.3697
 2735SOL     OW19840   3.938   0.461   6.407 -0.3266 -0.0115 -0.3052
 2735SOL    HW119841   4.019   0.498   6.442  0.1601  0.3770 -1.8429
 2735SOL    HW219842   3.935   0.372   6.445  0.4488 -0.8120 -2.1343
 2736SOL     OW19843   2.724   2.463   4.360  0.1812  0.1079 -0.0725
 2736SOL    HW119844   2.730   2.448   4.455 -0.5068 -0.0669 -0.0554
 2736SOL    HW219845   2.760   2.380   4.328 -1.8753 -1.6538  2.1386
 2737SOL     OW19846   4.691   3.123   4.199  0.7827  0.1581 -0.4115
 2737SOL    HW119847   4.701   3.126   4.104 -0.5931 -1.7651 -0.6034
 2737SOL    HW219848   4.648   3.207   4.217 -1.7286 -1.0679 -0.8118
 2738SOL     OW19849   1.321   0.028   6.303  0.9304 -0.2201 -0.3416
 2738SOL    HW119850   1.314   4.677   6.278 -0.4419  0.4052 -2.2424
 2738SOL    HW219851   1.248   0.039   6.363  1.2580 -0.7297  0.1589
 2739SOL     OW19852   3.601   2.098   9.899 -0.5888 -0.1506 -1.0464
 2739SOL    HW119853   3.515   2.123   9.865 -0.3527  0.1123 -1.4488
 2739SOL    HW219854   3.594   2.002   9.904  1.7964 -0.3676 -1.6763
 2740SOL     OW19855   1.069   0.829  12.942  0.4380 -0.0859 -0.1446
 2740SOL    HW119856   1.033   0.753  12.896 -1.9255 -0.4274  2.2798
 2740SOL    HW219857   1.130   0.867  12.879 -0.5790  0.9100 -0.5250
 2741SOL     OW19858   3.939   0.981  14.718  0.4042 -0.3313  0.0732
 2741SOL    HW119859   3.924   1.001  14.625  3.1416 -0.0069 -0.2786
 2741SOL    HW219860   3.916   1.063  14.761 -0.0171  0.0189 -0.8191
 2742SOL     OW19861   3.294   2.195   2.349  0.1673 -0.2607 -0.2647
 2742SOL    HW119862   3.206   2.233   2.348  0.5388  0.6044 -0.1062
 2742SOL    HW219863   3.351   2.270   2.364 -0.3985 -0.0911  1.0790
 2743SOL     OW19864   3.120   0.595   7.872 -0.2519 -0.1010 -0.2640
 2743SOL    HW119865   3.144   0.639   7.791  0.7311  0.4861  0.3553
 2743SOL    HW219866   3.148   0.506   7.851 -1.0463 -0.2088 -0.8798
 2744SOL     OW19867   3.482   2.699   5.877  0.0455 -0.1601  0.9466
 2744SOL    HW119868   3.399   2.657   5.855  1.1872 -2.4316  0.9145
 2744SOL    HW219869   3.479   2.700   5.972  0.1474 -0.2645  0.9525
 2745SOL     OW19870   2.398   3.942   2.395 -0.3094 -0.2342  0.0397
 2745SOL    HW119871   2.351   3.883   2.454  1.2020 -1.3391  0.1363
 2745SOL    HW219872   2.486   3.905   2.398  0.8010  2.1365 -3.5876
 2746SOL     OW19873   0.889   1.289   6.162  0.1704  1.0960 -0.0594
 2746SOL    HW119874   0.962   1.325   6.212  0.6914 -1.5573  1.0871
 2746SOL    HW219875   0.922   1.260   6.077 -0.1064  0.3675  0.0804
 2747SOL     OW19876   4.490   0.269   2.598 -0.6833  0.0531 -0.4741
 2747SOL    HW119877   4.542   0.346   2.622 -1.8877  0.5322  0.5848
 2747SOL    HW219878   4.427   0.311   2.539 -0.7945  0.6681  0.0775
 2748SOL     OW19879   1.087   1.386  16.999  0.3997 -0.0887 -0.4484
 2748SOL    HW119880   1.153   1.330  16.958  1.1654 -0.4976  1.3460
 2748SOL    HW219881   1.139   1.453  17.043 -0.8896 -0.1763  1.2269
 2749SOL     OW19882   2.237   0.776   3.405  0.1459  0.2584  0.0211
 2749SOL    HW119883   2.143   0.793   3.413  0.1718  0.9239 -1.1433
 2749SOL    HW219884   2.229   0.694   3.356  0.8322  1.5520 -2.2510
 2750SOL     OW19885   1.310   2.933  12.713 -0.0854  0.0787  0.0489
 2750SOL    HW119886   1.217   2.955  12.711  0.1654  1.1556  0.1303
 2750SOL    HW219887   1.354   3.017  12.725  1.4204 -0.8400  0.9478
 2751SOL     OW19888   3.078   3.296  11.614  0.2780 -0.5616 -0.1026
 2751SOL    HW119889   3.132   3.315  11.538 -1.7654  2.2402 -0.8201
 2751SOL    HW219890   3.138   3.336  11.677  0.6736 -0.4662 -0.5457
 2752SOL     OW19891   0.832   2.358   7.580  0.7688 -0.6451 -0.0730
 2752SOL    HW119892   0.904   2.413   7.610 -0.2770  0.7227 -0.1002
 2752SOL    HW219893   0.840   2.384   7.488  1.2836 -1.6024 -0.3040
 2753SOL     OW19894   1.799   3.247   3.992 -0.2404  0.5166  0.1473
 2753SOL    HW119895   1.742   3.317   3.958  1.1480  1.4868 -0.1827
 2753SOL    HW219896   1.738   3.175   4.008 -0.0024 -0.1255 -1.7767
 2754SOL     OW19897   4.020   1.174  10.986 -0.1569 -0.2471  0.0524
 2754SOL    HW119898   3.981   1.133  10.909  1.0338  0.4621 -0.9336
 2754SOL    HW219899   3.950   1.229  11.021 -1.0317  0.4490 -2.8234
 2755SOL     OW19900   4.717   0.270   5.842 -0.2867  0.1113  0.0593
 2755SOL    HW119901   4.696   0.178   5.860  0.7844 -0.1109  0.1897
 2755SOL    HW219902   4.634   0.312   5.864  0.0788  0.8706 -0.0377
 2756SOL     OW19903   3.422   2.385  13.551 -0.3477  0.1272  0.1772
 2756SOL    HW119904   3.353   2.345  13.604  1.2432 -2.3204  0.4029
 2756SOL    HW219905   3.373   2.454  13.507  2.9158  2.0764 -0.3607
 2757SOL     OW19906   0.127   2.642   1.972  0.3667  0.3695 -0.1863
 2757SOL    HW119907   0.141   2.570   1.910 -3.4247 -1.1241  0.6521
 2757SOL    HW219908   0.143   2.593   2.052  3.2260  0.5465 -0.6491
 2758SOL     OW19909   3.663   2.097   9.248  0.3888  0.7578 -0.4533
 2758SOL    HW119910   3.608   2.157   9.198  0.0279  0.8459  0.0535
 2758SOL    HW219911   3.723   2.061   9.183  2.1383  4.1993 -0.7519
 2759SOL     OW19912   1.153   2.085   6.070  0.2441 -0.5244  0.1571
 2759SOL    HW119913   1.215   2.075   5.998  1.2842  0.4524  0.9306
 2759SOL    HW219914   1.200   2.115   6.148 -2.1466 -2.5374  2.4018
 2760SOL     OW19915   0.147   3.174  11.130  0.5368 -0.7136 -0.1103
 2760SOL    HW119916   0.234   3.136  11.141 -0.0596 -1.7018  1.1291
 2760SOL    HW219917   0.164   3.241  11.065 -1.5248  0.4144  0.4893
 2761SOL     OW19918   1.808   3.140  16.448 -0.2960 -0.0818 -0.3016
 2761SOL    HW119919   1.800   3.217  16.392 -2.0031  0.3250  0.5077
 2761SOL    HW219920   1.841   3.180  16.528 -0.1713  0.5572 -0.6744
 2762SOL     OW19921   0.824   2.523   1.873  0.2512  0.5808  0.1518
 2762SOL    HW119922   0.741   2.560   1.902  0.4797  2.4166 -1.5545
 2762SOL    HW219923   0.800   2.440   1.832  0.5527  0.4125  0.3150
 2763SOL     OW19924   0.049   2.659   3.057  0.2980 -0.0334  0.3593
 2763SOL    HW119925   0.090   2.740   3.025 -0.0462  0.6257  1.5757
 2763SOL    HW219926   0.119   2.602   3.086  1.4762 -0.1651 -2.7259
 2764SOL     OW19927   4.215   1.756   3.515 -0.5253 -0.4010 -0.0873
 2764SOL    HW119928   4.243   1.674   3.473  0.9347  1.6039 -3.0025
 2764SOL    HW219929   4.220   1.816   3.441 -0.4158  1.5276  1.4892
 2765SOL     OW19930   3.421   2.695  11.497  1.0459  0.9048 -0.3806
 2765SOL    HW119931   3.425   2.781  11.456 -1.7985  0.7531 -0.9530
 2765SOL    HW219932   3.502   2.709  11.546  0.3164  0.0523  1.0831
 2766SOL     OW19933   2.744   4.257   7.558  0.0339 -0.3633  0.1601
 2766SOL    HW119934   2.747   4.258   7.654 -1.4418 -2.5482  0.2130
 2766SOL    HW219935   2.659   4.216   7.542 -0.6682  1.2644 -0.3530
 2767SOL     OW19936   4.702   4.099   5.019 -0.4070  0.1143  1.2541
 2767SOL    HW119937   4.630   4.161   5.030 -0.7094 -0.2817  1.5158
 2767SOL    HW219938   0.001   4.094   5.106  0.6606 -1.1100  0.6800
 2768SOL     OW19939   4.064   2.694   8.695  0.4118  0.4746  0.1372
 2768SOL    HW119940   4.117   2.637   8.751 -0.9952 -2.9471 -2.0097
 2768SOL    HW219941   4.022   2.741   8.767 -0.0594  0.5995 -0.2253
 2769SOL     OW19942   0.159   0.480  17.695  0.3665  0.4413 -0.6692
 2769SOL    HW119943   0.197   0.540  17.760 -0.6090 -0.2195  0.5080
 2769SOL    HW219944   0.208   0.400  17.716  0.5929  0.8738  0.4913
 2770SOL     OW19945   2.386   4.053   6.575 -0.1980  0.4928 -0.1389
 2770SOL    HW119946   2.395   4.007   6.659  0.6016 -1.5332 -1.3311
 2770SOL    HW219947   2.381   3.985   6.508  1.1373 -0.2733  0.5305
 2771SOL     OW19948   1.507   2.149   6.422  0.2944  0.1885 -0.0299
 2771SOL    HW119949   1.432   2.103   6.459  1.2935 -2.8032 -1.7207
 2771SOL    HW219950   1.573   2.081   6.435  0.9406  0.9027  0.4084
 2772SOL     OW19951   0.072   4.585   5.144  0.2408 -0.3601 -0.2538
 2772SOL    HW119952   0.068   4.543   5.058 -0.4827 -0.0526 -0.3688
 2772SOL    HW219953   0.041   4.508   5.193 -0.4095  1.0608  1.5642
 2773SOL     OW19954   1.190   4.569   8.401 -0.3490 -0.1148 -0.3904
 2773SOL    HW119955   1.171   4.558   8.308 -6.0625  2.0390  0.5338
 2773SOL    HW219956   1.171   4.480   8.430  0.3821 -0.3556 -0.6713
 2774SOL     OW19957   3.571   0.802  15.737  0.4158  0.4436 -0.1105
 2774SOL    HW119958   3.502   0.813  15.802  0.4179 -0.0435 -0.0254
 2774SOL    HW219959   3.527   0.734  15.687 -0.2471  0.7745  0.0208
 2775SOL     OW19960   4.680   0.152  10.553 -0.1676 -0.9549  0.1990
 2775SOL    HW119961   4.707   0.196  10.473 -0.7486 -1.2608 -0.1670
 2775SOL    HW219962   4.660   0.062  10.529 -1.6700 -0.3482 -0.8418
 2776SOL     OW19963   0.275   4.087   2.112  0.5226 -0.0605 -0.5280
 2776SOL    HW119964   0.189   4.048   2.123  0.7043 -0.4238 -0.3782
 2776SOL    HW219965   0.309   4.107   2.199 -0.6713  1.0848 -0.3319
 2777SOL     OW19966   1.276   1.301   7.688 -0.3644  0.0578 -0.3229
 2777SOL    HW119967   1.319   1.221   7.659  0.5362  0.2848  0.3908
 2777SOL    HW219968   1.313   1.314   7.775  1.5366  1.1563 -1.2957
 2778SOL     OW19969   2.536   4.099  11.239 -0.2473  0.0714 -0.5705
 2778SOL    HW119970   2.614   4.138  11.279 -1.7310 -0.1781  2.5864
 2778SOL    HW219971   2.546   4.115  11.146 -0.1716 -0.6782 -0.6921
 2779SOL     OW19972   3.637   3.091  16.504 -0.3664 -0.6192 -0.4304
 2779SOL    HW119973   3.635   3.150  16.579 -0.5980 -0.6754 -0.3915
 2779SOL    HW219974   3.718   3.042  16.513 -0.8158 -1.3855 -0.4798
 2780SOL     OW19975   1.968   3.537   5.680 -0.0923 -0.1870 -0.1935
 2780SOL    HW119976   1.953   3.626   5.647  0.8460  0.1275  0.2415
 2780SOL    HW219977   1.964   3.548   5.775 -2.8763 -1.2989 -0.1652
 2781SOL     OW19978   1.032   1.301   0.172 -0.3165  0.1598  0.1370
 2781SOL    HW119979   1.071   1.290   0.086 -2.0668 -0.0839 -0.6309
 2781SOL    HW219980   1.031   1.397   0.179  0.9322  0.0846  1.4621
 2782SOL     OW19981   0.217   0.030  11.745  0.0529 -0.2911 -0.6374
 2782SOL    HW119982   0.229   0.104  11.685  1.0071 -0.1106 -0.2218
 2782SOL    HW219983   0.236   4.700  11.684 -0.3622 -1.7908  0.9993
 2783SOL     OW19984   0.403   3.581  15.896 -0.1021  0.0563 -0.5626
 2783SOL    HW119985   0.315   3.544  15.892 -0.1016 -0.0507  0.4643
 2783SOL    HW219986   0.405   3.601  15.990  0.1037 -0.6871 -0.4103
 2784SOL     OW19987   2.156   4.196   6.645  0.1057 -0.0630 -0.3771
 2784SOL    HW119988   2.228   4.142   6.613  1.2391  1.6227 -0.6704
 2784SOL    HW219989   2.112   4.129   6.697 -0.5091  0.6451  0.0159
 2785SOL     OW19990   4.112   3.861   3.123  0.0991 -0.4321  0.3192
 2785SOL    HW119991   4.125   3.770   3.151  0.8748 -1.1432 -2.3830
 2785SOL    HW219992   4.035   3.873   3.178 -1.1238 -1.4087 -1.1633
 2786SOL     OW19993   2.532   0.677   8.716  0.9344  0.5468 -0.1982
 2786SOL    HW119994   2.454   0.731   8.733 -0.5349 -1.2092 -1.3504
 2786SOL    HW219995   2.594   0.748   8.696 -0.4682  1.7143 -0.4422
 2787SOL     OW19996   1.014   1.262  17.239 -0.2790 -0.2330 -0.2180
 2787SOL    HW119997   1.007   1.178  17.195  0.1420  0.7112 -2.0841
 2787SOL    HW219998   1.037   1.318  17.165 -0.6259 -0.5407 -0.5588
 2788SOL     OW19999   4.416   2.531   4.216  0.3395  0.1380 -0.4278
 2788SOL    HW120000   4.405   2.619   4.251  0.2804 -0.3518  0.7902
 2788SOL    HW220001   4.358   2.484   4.276  0.2659  1.1334  0.2789
 2789SOL     OW20002   4.355   4.149  10.766  0.3516 -0.3656 -0.4385
 2789SOL    HW120003   4.280   4.198  10.733  0.1618 -0.1180  0.3541
 2789SOL    HW220004   4.423   4.157  10.700  1.0106 -0.3179  0.2440
 2790SOL     OW20005   2.258   1.090   1.534  0.0155  0.4599  0.3782
 2790SOL    HW120006   2.340   1.122   1.496  0.0712  0.7062  0.7085
 2790SOL    HW220007   2.287   1.069   1.623  3.1896 -1.5140 -1.0975
 2791SOL     OW20008   2.052   4.713   1.870  0.3326 -0.2448 -0.3993
 2791SOL    HW120009   1.957   4.703   1.872  0.5724 -2.2574  1.1393
 2791SOL    HW220010   2.068   4.619   1.882 -2.9774 -0.6804  0.5442
 2792SOL     OW20011   1.163   0.105  12.655  0.3897  0.2420 -0.1126
 2792SOL    HW120012   1.078   0.127  12.617 -0.1356 -1.6734 -0.0719
 2792SOL    HW220013   1.144   0.097  12.749 -0.5017  1.2868 -0.2075
 2793SOL     OW20014   2.123   0.792   5.643  0.1093  0.0085  0.2583
 2793SOL    HW120015   2.208   0.755   5.621  0.6055  0.8611  0.7621
 2793SOL    HW220016   2.112   0.857   5.573  3.7693  0.6349  0.2948
 2794SOL     OW20017   1.348   4.708  14.140  0.4749  0.2014  0.3432
 2794SOL    HW120018   1.340   4.728  14.047  1.2130  0.3711  0.3139
 2794SOL    HW220019   1.258   4.680  14.156  0.7817 -1.0527 -0.1340
 2795SOL     OW20020   3.788   3.727   1.860 -0.2465  0.6089 -0.0306
 2795SOL    HW120021   3.728   3.696   1.792  0.7831 -2.7791  0.5862
 2795SOL    HW220022   3.779   3.653   1.920  0.6291  0.6276  0.1250
 2796SOL     OW20023   2.103   2.215   8.437  0.1419  0.3908 -0.0765
 2796SOL    HW120024   2.115   2.303   8.402  0.6194  0.8592  1.2799
 2796SOL    HW220025   2.113   2.164   8.357  0.2860 -0.0431  0.2209
 2797SOL     OW20026   1.811   2.327   8.801  0.6980 -0.2941 -0.1226
 2797SOL    HW120027   1.829   2.255   8.740 -0.7438 -1.8157  1.2711
 2797SOL    HW220028   1.723   2.305   8.831  1.4498  0.1248  2.3508
 2798SOL     OW20029   2.559   4.031   5.544 -0.1704  0.4370 -0.1847
 2798SOL    HW120030   2.583   4.018   5.452  3.3301  0.1689  0.7974
 2798SOL    HW220031   2.463   4.040   5.549 -0.1082  1.1533 -0.3630
 2799SOL     OW20032   3.492   4.551  11.153  0.5359 -0.5232  0.4267
 2799SOL    HW120033   3.551   4.563  11.079  0.0298 -3.4008 -0.4543
 2799SOL    HW220034   3.531   4.473  11.192  0.3306 -0.5250  0.6278
 2800SOL     OW20035   0.802   0.282   9.438 -0.1039  0.3676 -0.1834
 2800SOL    HW120036   0.761   0.200   9.409 -2.4012  0.9644  1.4223
 2800SOL    HW220037   0.829   0.313   9.352  2.2214  0.2930  0.5183
 2801SOL     OW20038   3.912   4.007  15.735  0.4525  0.2963  0.0012
 2801SOL    HW120039   3.874   4.093  15.750 -0.5132  0.1417 -1.5718
 2801SOL    HW220040   3.840   3.946  15.753  1.4809  0.0606  3.3675
 2802SOL     OW20041   0.475   1.666   6.344  0.5383  0.3927  0.3131
 2802SOL    HW120042   0.460   1.698   6.255  0.0486 -0.1701  0.1944
 2802SOL    HW220043   0.570   1.664   6.346  0.5333 -0.0640  0.0480
 2803SOL     OW20044   4.531   4.726   8.752  0.3527  0.6359 -0.2687
 2803SOL    HW120045   4.619   4.689   8.744 -0.4644 -1.0562 -1.3458
 2803SOL    HW220046   4.507   0.005   8.661  2.8463 -0.6078 -1.2040
 2804SOL     OW20047   3.640   1.735   6.803  0.0782  0.2166  0.0608
 2804SOL    HW120048   3.715   1.789   6.779 -0.6749 -0.0629 -2.9454
 2804SOL    HW220049   3.662   1.646   6.777  1.2452  0.3128  0.6823
 2805SOL     OW20050   3.343   0.955   1.358 -0.8058  0.2325  0.0612
 2805SOL    HW120051   3.270   0.905   1.322  0.1694 -0.2453 -1.2572
 2805SOL    HW220052   3.297   0.968   1.441 -0.6208 -0.4625  0.2721
 2806SOL     OW20053   1.151   3.218   5.732 -0.2779 -0.0493 -0.8083
 2806SOL    HW120054   1.223   3.249   5.787 -0.7853  0.1510 -0.2396
 2806SOL    HW220055   1.180   3.128   5.719  0.5175 -0.1765  1.8510
 2807SOL     OW20056   1.544   2.972   3.773 -0.2094  0.6293 -0.0202
 2807SOL    HW120057   1.541   3.002   3.682 -0.3272  2.5389  0.6171
 2807SOL    HW220058   1.461   2.924   3.777  0.2000  0.1223  2.0194
 2808SOL     OW20059   3.611   1.748   4.840  0.1019  0.0779 -0.2871
 2808SOL    HW120060   3.609   1.843   4.832  0.0211  0.2841  2.0889
 2808SOL    HW220061   3.525   1.723   4.806 -0.5142 -0.9163  1.9793
 2809SOL     OW20062   1.116   4.218  13.916  0.0223 -0.0570 -0.0345
 2809SOL    HW120063   1.164   4.259  13.989 -1.3194  0.7218  0.4083
 2809SOL    HW220064   1.179   4.179  13.855  0.5521  1.0671 -0.2069
 2810SOL     OW20065   3.602   0.567   7.139 -0.0013  0.5722 -0.4213
 2810SOL    HW120066   3.582   0.584   7.047  1.0078  2.2635 -0.3283
 2810SOL    HW220067   3.533   0.616   7.183 -1.1158  1.2170 -2.9306
 2811SOL     OW20068   1.632   2.557   8.904  0.2543  0.4437  0.3181
 2811SOL    HW120069   1.719   2.539   8.868  0.6904  0.0568  1.5543
 2811SOL    HW220070   1.627   2.497   8.978 -2.4724  0.6964  0.3649
 2812SOL     OW20071   3.122   4.275  15.676 -0.1357 -0.4631 -0.2560
 2812SOL    HW120072   3.120   4.200  15.616  0.3240  1.0595 -2.1389
 2812SOL    HW220073   3.045   4.253  15.728 -0.6537 -1.1055 -1.2905
 2813SOL     OW20074   4.186   3.773  16.270 -0.6382 -0.1687  0.4438
 2813SOL    HW120075   4.251   3.813  16.214 -1.0534  0.1003  0.1550
 2813SOL    HW220076   4.183   3.836  16.342  0.0790 -0.6001  0.8538
 2814SOL     OW20077   1.334   0.014   7.895 -0.0388  0.0194  0.2795
 2814SOL    HW120078   1.270   0.069   7.851 -0.2935 -0.5554 -0.0668
 2814SOL    HW220079   1.408   0.074   7.903 -0.1609  0.5425 -2.6287
 2815SOL     OW20080   1.959   3.098  16.937 -0.1922 -0.3027  0.4680
 2815SOL    HW120081   2.039   3.069  16.981  1.0864 -0.1469 -1.7975
 2815SOL    HW220082   1.957   3.193  16.937 -0.4176 -0.3055 -0.3042
 2816SOL     OW20083   4.440   2.153   2.702 -0.3247  0.5631  0.2485
 2816SOL    HW120084   4.500   2.086   2.670  0.8784  2.0800 -0.6909
 2816SOL    HW220085   4.380   2.100   2.755 -0.0317  1.7479  1.7747
 2817SOL     OW20086   4.464   2.133  10.783 -0.2048  0.3682 -0.8124
 2817SOL    HW120087   4.535   2.197  10.791  1.1663 -1.2272 -0.4051
 2817SOL    HW220088   4.390   2.186  10.815  1.8007  2.0484  1.0234
 2818SOL     OW20089   2.451   0.589   6.660 -0.1821 -0.1017  0.5596
 2818SOL    HW120090   2.360   0.599   6.687 -0.3243  1.6184 -0.5822
 2818SOL    HW220091   2.481   0.677   6.640  2.6314 -1.3376 -0.7175
 2819SOL     OW20092   3.859   2.505  11.269 -0.7067  0.2415  0.5020
 2819SOL    HW120093   3.884   2.421  11.308 -0.6560 -0.0604 -0.1701
 2819SOL    HW220094   3.792   2.527  11.333 -0.0369  0.6850  1.0372
 2820SOL     OW20095   0.815   3.227   5.392  0.0788  0.4120  0.6373
 2820SOL    HW120096   0.906   3.198   5.378 -1.6002 -3.4886 -2.1515
 2820SOL    HW220097   0.789   3.182   5.472 -0.7688 -0.7481 -0.2864
 2821SOL     OW20098   2.112   0.732   3.090 -0.9657  0.2041 -0.8843
 2821SOL    HW120099   2.069   0.745   3.005  1.6526  2.4583 -1.8657
 2821SOL    HW220100   2.052   0.770   3.153  0.1266 -1.1051  0.9454
 2822SOL     OW20101   0.489   2.412   4.712 -0.2211  0.4603 -0.4715
 2822SOL    HW120102   0.491   2.355   4.635 -0.6636  0.4326 -0.4575
 2822SOL    HW220103   0.443   2.488   4.677 -0.1360  0.3784 -0.7637
 2823SOL     OW20104   4.621   4.270   6.102 -0.8740 -0.1660 -0.1914
 2823SOL    HW120105   4.531   4.301   6.093 -0.1684  0.7655 -4.2737
 2823SOL    HW220106   4.626   4.277   6.197 -1.9780  2.4210 -0.3229
 2824SOL     OW20107   4.730   1.107   4.422  0.3943 -0.1622 -0.5426
 2824SOL    HW120108   4.637   1.106   4.446  0.6276 -0.2883  0.3279
 2824SOL    HW220109   0.024   1.135   4.506  1.1424 -0.3910 -0.7733
 2825SOL     OW20110   0.086   4.019   7.705 -0.4058 -0.4032 -0.3809
 2825SOL    HW120111   0.068   4.021   7.611  0.1886  0.4055 -0.4794
 2825SOL    HW220112   0.117   4.108   7.721  0.3592 -1.1892  2.5935
 2826SOL     OW20113   1.839   4.578   8.762  0.2825 -0.3450 -0.5227
 2826SOL    HW120114   1.820   4.506   8.823  1.3009  0.9313  1.3005
 2826SOL    HW220115   1.823   4.539   8.676 -0.0411  0.0418 -0.6366
 2827SOL     OW20116   1.815   4.291   2.341 -0.5251 -0.7015  0.4440
 2827SOL    HW120117   1.775   4.357   2.284 -0.2128 -1.5391 -0.7373
 2827SOL    HW220118   1.889   4.331   2.387 -2.1027 -0.1870  2.5534
 2828SOL     OW20119   4.653   0.810  17.103 -0.1008 -0.3781  0.0740
 2828SOL    HW120120   4.573   0.821  17.154 -1.4124  0.9388 -2.3077
 2828SOL    HW220121   4.618   0.782  17.019 -0.3860 -2.2200  0.8203
 2829SOL     OW20122   2.491   1.689  13.863 -0.0468 -0.0992 -0.0422
 2829SOL    HW120123   2.523   1.650  13.781  0.4530  1.3623 -0.5494
 2829SOL    HW220124   2.402   1.709  13.836 -0.6318 -1.8879  0.5771
 2830SOL     OW20125   4.258   2.001   3.269 -0.0888 -0.9045 -0.0288
 2830SOL    HW120126   4.273   2.091   3.241 -2.0209 -0.2737  1.0104
 2830SOL    HW220127   4.187   1.967   3.215 -1.0106  1.8442 -0.5111
 2831SOL     OW20128   4.471   1.833  11.789 -0.0106 -0.6358  0.1040
 2831SOL    HW120129   4.404   1.783  11.742 -0.4558 -1.1762  1.3200
 2831SOL    HW220130   4.419   1.907  11.822  3.0607  1.9826 -0.9130
 2832SOL     OW20131   3.284   0.569  17.213 -0.4062 -0.7713  0.4194
 2832SOL    HW120132   3.252   0.626  17.142 -2.1765 -2.5836 -0.2316
 2832SOL    HW220133   3.258   0.625  17.287  1.4643  1.1306 -0.3751
 2833SOL     OW20134   0.282   1.578   5.156  0.6260  0.6296  0.1430
 2833SOL    HW120135   0.344   1.646   5.130  0.8357  0.5657  0.4805
 2833SOL    HW220136   0.201   1.619   5.126 -1.6948 -3.9320  0.0855
 2834SOL     OW20137   0.172   2.972  13.832  0.5806 -0.2027 -0.0164
 2834SOL    HW120138   0.114   2.992  13.758  1.5091  2.6985  0.0761
 2834SOL    HW220139   0.116   2.937  13.901 -1.1556  0.0553 -1.2946
 2835SOL     OW20140   0.612   3.256   6.020 -0.3369  0.3736  0.1181
 2835SOL    HW120141   0.647   3.215   5.941 -1.6911 -2.9567  1.2531
 2835SOL    HW220142   0.673   3.229   6.088 -0.7654 -0.2698  0.2471
 2836SOL     OW20143   2.522   4.688  16.187 -0.3447 -0.2612  0.0823
 2836SOL    HW120144   2.571   4.710  16.107  0.9955  0.0270  0.9758
 2836SOL    HW220145   2.432   4.715  16.171  0.0933  1.2842  0.1908
 2837SOL     OW20146   3.523   3.860   8.959  0.4041 -1.0187 -0.4580
 2837SOL    HW120147   3.466   3.788   8.985  0.2742 -2.1869 -4.0633
 2837SOL    HW220148   3.467   3.884   8.885 -2.2097 -1.9921  1.2058
 2838SOL     OW20149   1.527   1.391  13.953 -0.2004 -0.0780 -0.2849
 2838SOL    HW120150   1.545   1.373  14.046 -2.1109 -1.2129 -0.1191
 2838SOL    HW220151   1.493   1.304  13.934 -2.5583  0.8499 -0.3611
 2839SOL     OW20152   4.678   0.187   4.742  0.6249 -0.2089  0.2896
 2839SOL    HW120153   4.662   0.114   4.682 -2.0365 -1.0982  2.1037
 2839SOL    HW220154   4.689   0.146   4.828 -0.6668 -1.1270  0.0179
 2840SOL     OW20155   3.868   2.708   3.408  0.5179 -0.3396 -0.0289
 2840SOL    HW120156   3.844   2.770   3.339  2.0957  1.1197  0.7287
 2840SOL    HW220157   3.850   2.620   3.374  1.5574 -0.5996  0.0930
 2841SOL     OW20158   4.659   0.925  13.082 -0.2676 -0.3650 -0.1922
 2841SOL    HW120159   4.689   0.872  13.008  2.6052  1.2683 -0.1903
 2841SOL    HW220160   4.610   0.989  13.031 -1.3438  0.4633  1.8954
 2842SOL     OW20161   2.026   1.092  15.097 -0.8780 -0.1802  0.5253
 2842SOL    HW120162   2.053   1.144  15.021  0.0366 -0.1984  0.8411
 2842SOL    HW220163   1.940   1.080  15.057 -1.6221  0.0214  2.0967
 2843SOL     OW20164   2.443   2.509  11.061 -0.2320 -0.1269 -0.0869
 2843SOL    HW120165   2.384   2.434  11.051  0.3863 -0.6846  0.3463
 2843SOL    HW220166   2.387   2.579  11.093  0.5386  1.3656 -1.9877
 2844SOL     OW20167   0.293   3.047   6.080 -0.1244 -0.2759 -1.0913
 2844SOL    HW120168   0.240   3.111   6.032  1.2339  2.7551  1.4999
 2844SOL    HW220169   0.305   2.978   6.014 -3.7056  1.5956 -3.7356
 2845SOL     OW20170   4.490   3.480   9.063  0.3176  0.1108 -0.0593
 2845SOL    HW120171   4.574   3.525   9.057  0.6722 -0.4610  0.7086
 2845SOL    HW220172   4.437   3.547   9.107  0.0293  1.2210 -2.1116
 2846SOL     OW20173   2.070   1.839   5.421  0.4114 -0.1919  0.4400
 2846SOL    HW120174   2.024   1.877   5.347 -2.3050 -0.9371  1.7395
 2846SOL    HW220175   2.008   1.831   5.494  0.5337 -2.1412  0.3286
 2847SOL     OW20176   3.747   4.489   9.261 -0.0290  0.1529 -0.0485
 2847SOL    HW120177   3.760   4.524   9.350  1.0874  0.8230 -0.4731
 2847SOL    HW220178   3.749   4.571   9.211 -0.8718 -0.3529 -0.9038
 2848SOL     OW20179   0.326   1.291   8.694 -0.5084  0.0563 -0.0487
 2848SOL    HW120180   0.246   1.280   8.644 -0.3787  0.0945 -0.2641
 2848SOL    HW220181   0.293   1.291   8.784 -0.5627  0.6113 -0.0688
 2849SOL     OW20182   0.106   4.144   6.557  0.1279  0.0051 -0.1483
 2849SOL    HW120183   0.185   4.090   6.555  1.3709  1.8619  0.0145
 2849SOL    HW220184   0.043   4.074   6.579  2.0073 -1.6576 -0.0538
 2850SOL     OW20185   0.507   1.967  11.340 -0.1554  0.2773 -0.2204
 2850SOL    HW120186   0.475   1.897  11.398 -1.4064  1.2266  0.2207
 2850SOL    HW220187   0.563   2.021  11.396  0.7424 -0.5675 -0.2964
 2851SOL     OW20188   0.665   0.229   0.038 -0.6133  0.2446  0.7604
 2851SOL    HW120189   0.618   0.303   0.078 -1.0945 -0.0521  0.7426
 2851SOL    HW220190   0.739   0.276   0.001 -0.2545 -0.4079  0.6572
 2852SOL     OW20191   0.200   1.922   9.779  0.7740  0.0891  0.0987
 2852SOL    HW120192   0.136   1.853   9.799 -1.2654  1.5370 -1.4053
 2852SOL    HW220193   0.262   1.916   9.851  0.8602  3.1292  0.2748
 2853SOL     OW20194   3.240   1.877   1.669 -0.7590 -0.4442  0.2495
 2853SOL    HW120195   3.247   1.899   1.762 -2.6241 -1.4233  0.6198
 2853SOL    HW220196   3.161   1.927   1.649 -0.0901  1.1919  1.6430
 2854SOL     OW20197   0.137   2.050  10.719  0.1277 -0.3422 -0.6227
 2854SOL    HW120198   0.145   2.115  10.788  2.4545 -2.0491  0.6972
 2854SOL    HW220199   0.229   2.037  10.697  0.9079  1.7634  1.4998
 2855SOL     OW20200   3.440   1.291   7.717 -1.0887 -0.3406  0.3836
 2855SOL    HW120201   3.525   1.246   7.710 -0.5957  0.3791  1.6828
 2855SOL    HW220202   3.459   1.362   7.778 -0.3936  0.6492 -0.9890
 2856SOL     OW20203   3.674   3.639   7.562  0.2239 -0.0182  0.3567
 2856SOL    HW120204   3.697   3.590   7.641 -0.4136  0.4259  0.8197
 2856SOL    HW220205   3.705   3.727   7.583 -0.1482  0.2754 -0.2970
 2857SOL     OW20206   4.699   1.560   6.781 -0.3589 -0.1860 -0.3748
 2857SOL    HW120207   0.052   1.551   6.798 -0.1382 -0.7389 -1.8257
 2857SOL    HW220208   4.679   1.612   6.858  0.1260  1.3837 -1.3145
 2858SOL     OW20209   3.028   0.488   8.359  0.6419  0.1057 -0.0664
 2858SOL    HW120210   2.980   0.502   8.277  0.7252  0.1225 -0.1125
 2858SOL    HW220211   2.980   0.417   8.400  0.2231  1.9679  2.7224
 2859SOL     OW20212   4.568   3.682   3.126 -0.0350 -0.4185 -0.1060
 2859SOL    HW120213   4.532   3.597   3.102 -0.8514  0.3988 -1.8357
 2859SOL    HW220214   4.491   3.718   3.170  1.4272  2.9365 -0.2980
 2860SOL     OW20215   2.519   2.010   6.665 -0.3614  0.3069  0.1801
 2860SOL    HW120216   2.560   2.075   6.723 -0.0779  1.3936 -1.2190
 2860SOL    HW220217   2.500   2.067   6.590  1.0800  0.7723  0.1587
 2861SOL     OW20218   3.751   2.006  10.577  0.2922  0.7740  0.0419
 2861SOL    HW120219   3.772   1.984  10.668 -1.9123  2.5404  0.9681
 2861SOL    HW220220   3.675   1.957  10.547  2.0434 -0.3116 -2.6703
 2862SOL     OW20221   2.039   2.806   1.869 -0.1813  0.4145  0.4273
 2862SOL    HW120222   2.078   2.774   1.951 -2.0070 -3.2287 -0.1368
 2862SOL    HW220223   2.066   2.898   1.860  1.6034  0.1284  2.8483
 2863SOL     OW20224   4.564   1.665  12.024 -0.2101  0.3163  0.3007
 2863SOL    HW120225   4.536   1.580  12.058 -0.2727  0.0533 -0.4071
 2863SOL    HW220226   4.510   1.687  11.948 -0.8250  0.4508  0.7811
 2864SOL     OW20227   2.793   2.124   4.708 -0.0465 -0.0177  0.5875
 2864SOL    HW120228   2.794   2.055   4.774  1.0981 -0.8311 -0.2727
 2864SOL    HW220229   2.792   2.064   4.633  0.3986  1.5949 -0.7339
 2865SOL     OW20230   0.392   4.118   4.855  0.3166 -0.2200  0.1985
 2865SOL    HW120231   0.367   4.056   4.924  0.0159  1.0582  1.2327
 2865SOL    HW220232   0.484   4.127   4.881 -0.1033  1.5625  1.0262
 2866SOL     OW20233   2.689   3.108  12.987  0.4220  0.7615  0.4921
 2866SOL    HW120234   2.757   3.044  12.971  0.6890  1.1687  0.0032
 2866SOL    HW220235   2.728   3.165  12.921  0.5207 -1.6744 -1.5174
 2867SOL     OW20236   2.823   2.113  10.397 -0.0690 -0.6821 -0.2269
 2867SOL    HW120237   2.752   2.052  10.412 -1.1667  0.8294  0.7171
 2867SOL    HW220238   2.835   2.153  10.483 -2.2872 -3.9831  1.5723
 2868SOL     OW20239   2.935   4.522   8.110  0.4351 -0.1164  0.7387
 2868SOL    HW120240   2.992   4.445   8.116 -0.2016 -0.6100  0.4055
 2868SOL    HW220241   2.887   4.500   8.031  0.5286  1.8113  0.1297
 2869SOL     OW20242   1.706   4.315  16.168  0.2764 -0.1158  0.5121
 2869SOL    HW120243   1.699   4.246  16.235  1.0406 -1.7462 -1.1004
 2869SOL    HW220244   1.691   4.265  16.088 -2.2837 -2.8841  2.6926
 2870SOL     OW20245   0.503   0.400   5.093 -1.1567  0.8034  0.1578
 2870SOL    HW120246   0.456   0.320   5.070  2.3516 -1.4900  0.9725
 2870SOL    HW220247   0.431   0.460   5.109 -0.7592  1.7804 -1.6879
 2871SOL     OW20248   2.364   4.417  15.021 -0.3912  0.2196  0.2065
 2871SOL    HW120249   2.416   4.476  15.076  0.1191  0.0356 -0.0807
 2871SOL    HW220250   2.384   4.441  14.931  1.4280  0.8300  0.7796
 2872SOL     OW20251   2.968   3.082  13.508 -0.2391 -0.2156 -0.0105
 2872SOL    HW120252   2.987   3.083  13.602 -0.4427 -0.0265  0.0289
 2872SOL    HW220253   2.978   2.990  13.484  1.5290  0.2690 -1.1542
 2873SOL     OW20254   3.070   3.372   0.886 -0.4422  0.5262  0.4073
 2873SOL    HW120255   2.984   3.334   0.904  0.0365 -0.9718 -0.4423
 2873SOL    HW220256   3.095   3.395   0.975  2.2109  0.2606 -0.2689
 2874SOL     OW20257   2.207   2.471  13.374  0.5245  0.2745  0.4872
 2874SOL    HW120258   2.171   2.459  13.462  2.5608  2.3493  1.5851
 2874SOL    HW220259   2.209   2.566  13.363  0.1138  0.2279  0.0185
 2875SOL     OW20260   0.741   0.485  12.623  0.1080 -0.0258 -0.4565
 2875SOL    HW120261   0.777   0.403  12.657 -0.2970 -0.1881 -0.4136
 2875SOL    HW220262   0.759   0.543  12.697 -0.4796 -0.4201 -0.0085
 2876SOL     OW20263   1.264   4.340   9.869  0.4023 -0.1550 -0.2842
 2876SOL    HW120264   1.175   4.373   9.860  1.3515  2.6969  0.6784
 2876SOL    HW220265   1.313   4.398   9.811 -1.4145  0.7229 -0.9437
 2877SOL     OW20266   1.887   0.899   7.832 -0.3714 -0.1676  0.2973
 2877SOL    HW120267   1.983   0.898   7.835 -0.2337 -1.2611 -3.4692
 2877SOL    HW220268   1.879   0.814   7.789 -1.4994  0.2935 -0.3981
 2878SOL     OW20269   1.700   2.705   7.479  0.2450 -0.2086 -0.0016
 2878SOL    HW120270   1.758   2.636   7.449  0.1253  0.1802 -1.1166
 2878SOL    HW220271   1.761   2.770   7.513 -1.6023  2.1034 -1.0667
 2879SOL     OW20272   2.230   2.791   4.757 -0.4145 -0.5386  0.0145
 2879SOL    HW120273   2.135   2.796   4.765 -0.3242 -0.5175  1.1067
 2879SOL    HW220274   2.247   2.790   4.663 -2.8058  1.4997 -0.4373
 2880SOL     OW20275   0.095   2.957   3.239  0.4384 -0.5856 -0.5380
 2880SOL    HW120276   0.144   2.953   3.157  1.0399 -0.0689 -0.2003
 2880SOL    HW220277   0.117   2.872   3.278 -0.9590 -0.4912  0.4514
 2881SOL     OW20278   2.569   1.208  17.735  0.4969  0.3494 -0.5893
 2881SOL    HW120279   2.512   1.142  17.695  0.6388 -0.5949  0.7639
 2881SOL    HW220280   2.645   1.160   0.007  0.4882  0.1010 -0.9369
 2882SOL     OW20281   0.162   2.955  17.315 -0.1657  0.0158 -0.0921
 2882SOL    HW120282   0.207   2.896  17.375 -1.4305 -0.5222  0.3358
 2882SOL    HW220283   0.236   3.008  17.286 -0.0078 -0.5801 -0.7924
 2883SOL     OW20284   0.219   1.557   7.790  0.9970 -0.1801 -0.6074
 2883SOL    HW120285   0.265   1.483   7.828  1.7145 -0.5294 -2.1583
 2883SOL    HW220286   0.205   1.525   7.701 -0.3278  0.1901 -0.5392
 2884SOL     OW20287   0.377   2.978   8.146 -0.4424 -0.2792  0.3854
 2884SOL    HW120288   0.336   3.023   8.071  1.8908  0.8648 -0.2245
 2884SOL    HW220289   0.466   2.956   8.117 -0.2256  1.7182 -0.4870
 2885SOL     OW20290   3.034   1.433   0.248  0.2523 -0.2172 -0.3916
 2885SOL    HW120291   2.949   1.404   0.280 -0.2490  1.3001 -0.3780
 2885SOL    HW220292   3.093   1.410   0.320 -0.6746 -0.9162  0.1342
 2886SOL     OW20293   1.589   0.818   4.106  0.2141  0.3827 -0.8242
 2886SOL    HW120294   1.576   0.862   4.190 -0.2470 -1.9374  0.3142
 2886SOL    HW220295   1.595   0.899   4.056 -1.2610  1.3108  0.4914
 2887SOL     OW20296   3.765   3.974   6.261  0.4114  0.1094 -0.4006
 2887SOL    HW120297   3.831   3.947   6.197 -1.9776 -2.5097 -1.6995
 2887SOL    HW220298   3.806   3.969   6.348  0.0432  0.8132 -0.1837
 2888SOL     OW20299   3.843   0.971   3.285  0.1822  0.0932  0.4437
 2888SOL    HW120300   3.801   0.914   3.220  0.2630  0.8683 -0.2962
 2888SOL    HW220301   3.926   0.925   3.297 -1.1810 -2.5060 -0.0019
 2889SOL     OW20302   4.699   2.756  13.093  0.2352 -0.5726  0.0952
 2889SOL    HW120303   0.045   2.787  13.071  0.7373 -1.7535  0.4507
 2889SOL    HW220304   4.670   2.813  13.165  3.0937  0.6256  0.2653
 2890SOL     OW20305   3.050   2.124   5.211 -0.1725 -0.3943 -0.3417
 2890SOL    HW120306   3.064   2.215   5.241 -0.8119  0.4447 -2.6093
 2890SOL    HW220307   3.141   2.093   5.210 -0.1811 -0.5207  2.2283
 2891SOL     OW20308   1.200   0.342  12.459  0.2554 -0.2426 -1.1742
 2891SOL    HW120309   1.164   0.275  12.517 -1.0535  1.9557  0.5710
 2891SOL    HW220310   1.182   0.426  12.502  0.1472 -0.1544 -1.3907
 2892SOL     OW20311   0.700   3.758   1.966  0.3454 -0.4594 -0.7436
 2892SOL    HW120312   0.738   3.741   2.053  1.2334 -0.0827 -1.0667
 2892SOL    HW220313   0.643   3.828   1.997 -0.1996 -1.7152  1.0793
 2893SOL     OW20314   2.341   2.491  15.752  0.4493  0.2725  0.1856
 2893SOL    HW120315   2.373   2.507  15.663  1.6959  0.2030  0.6212
 2893SOL    HW220316   2.393   2.549  15.807  0.4225 -0.2128  0.7120
 2894SOL     OW20317   1.923   1.848   6.072 -0.3198 -0.8243 -0.1583
 2894SOL    HW120318   1.889   1.819   6.157 -0.4928  0.7676  0.3095
 2894SOL    HW220319   1.861   1.806   6.013 -0.6418  0.3858 -0.6708
 2895SOL     OW20320   0.450   3.739   5.982 -0.6176  0.3169 -0.1835
 2895SOL    HW120321   0.490   3.653   5.963 -0.1007  0.2302  1.3186
 2895SOL    HW220322   0.434   3.732   6.076  1.8309  0.5813  0.2668
 2896SOL     OW20323   3.972   4.529  15.427 -0.1862  0.3891 -0.5276
 2896SOL    HW120324   3.935   4.604  15.380  1.6859  1.2901 -0.5555
 2896SOL    HW220325   4.064   4.521  15.401  0.3015 -3.4077  2.2996
 2897SOL     OW20326   4.575   3.431   3.041  0.5390 -0.0154  0.3015
 2897SOL    HW120327   4.622   3.348   3.049 -1.1123 -1.1452 -1.5628
 2897SOL    HW220328   4.523   3.418   2.961  0.0784  0.0379  0.5941
 2898SOL     OW20329   0.049   4.633   8.719  0.4740  0.1535 -0.0274
 2898SOL    HW120330   0.114   4.588   8.773 -1.0249  0.3407  1.8959
 2898SOL    HW220331   0.080   4.604   8.633 -0.1501 -0.2327 -0.1221
 2899SOL     OW20332   0.503   1.349   7.806 -0.3252 -0.2409 -0.1731
 2899SOL    HW120333   0.495   1.282   7.873  0.3805 -1.0425 -0.8951
 2899SOL    HW220334   0.455   1.317   7.729  0.4580  3.5784 -2.2489
 2900SOL     OW20335   1.580   4.676   6.351  0.3054 -0.4554 -0.5101
 2900SOL    HW120336   1.513   4.732   6.313  2.8553  1.7362 -1.7948
 2900SOL    HW220337   1.522   4.657   6.425 -1.0625 -0.2817 -1.5353
 2901SOL     OW20338   0.720   3.954   8.233  0.4663  0.1429 -0.3860
 2901SOL    HW120339   0.777   4.001   8.294 -0.9891  0.8240  0.4511
 2901SOL    HW220340   0.695   3.883   8.291 -0.4687  1.1490  0.4275
 2902SOL     OW20341   2.053   4.243   4.867 -0.1056 -0.5601  0.1087
 2902SOL    HW120342   1.976   4.197   4.901  0.6611 -1.9927 -0.0617
 2902SOL    HW220343   2.012   4.309   4.811 -1.0598  0.1192  1.6376
 2903SOL     OW20344   4.486   2.286   3.800  0.5695 -0.4791 -0.3296
 2903SOL    HW120345   4.555   2.331   3.849 -1.6765  0.2296  2.2293
 2903SOL    HW220346   4.458   2.215   3.858  0.0701  1.1400  1.3869
 2904SOL     OW20347   4.268   2.208   8.558 -0.7530  0.4890 -0.1296
 2904SOL    HW120348   4.209   2.134   8.575  0.7406 -0.0276  2.8270
 2904SOL    HW220349   4.295   2.234   8.646  0.8687 -1.3411 -0.0919
 2905SOL     OW20350   0.369   3.588   7.453 -0.5181 -0.1780 -0.0950
 2905SOL    HW120351   0.430   3.611   7.523 -1.8556 -0.0131  1.0335
 2905SOL    HW220352   0.341   3.503   7.487 -0.3704  0.2107  1.0217
 2906SOL     OW20353   4.217   3.886   7.832 -0.0925  0.3695 -0.3309
 2906SOL    HW120354   4.281   3.868   7.764  0.2778  1.0434 -0.1541
 2906SOL    HW220355   4.222   3.980   7.846 -1.1231  0.5741 -1.3607
 2907SOL     OW20356   2.101   3.267   2.961 -0.2439 -0.1048  0.2997
 2907SOL    HW120357   2.083   3.179   2.929 -0.2260  0.6312 -1.6857
 2907SOL    HW220358   2.165   3.252   3.031 -0.3423 -0.1866  0.3722
 2908SOL     OW20359   2.890   3.471  15.757  0.5242  0.4833 -0.4746
 2908SOL    HW120360   2.889   3.560  15.724 -0.0911  0.3445 -0.8391
 2908SOL    HW220361   2.801   3.448  15.730  0.3953 -0.8486  1.0742
 2909SOL     OW20362   3.564   4.183   6.216  0.3490  0.7107 -0.0894
 2909SOL    HW120363   3.556   4.157   6.308 -0.3751  0.3454 -0.2522
 2909SOL    HW220364   3.647   4.150   6.181  0.7029  0.2218  1.1868
 2910SOL     OW20365   1.859   3.141   3.292  0.3011 -0.4245 -0.5123
 2910SOL    HW120366   1.818   3.193   3.222  0.5017 -1.4082 -1.3651
 2910SOL    HW220367   1.804   3.062   3.286 -0.9205  0.3591  0.4566
 2911SOL     OW20368   1.407   2.383   3.339  0.3248  0.1290 -0.5330
 2911SOL    HW120369   1.374   2.343   3.258  2.9381  0.1135 -1.6087
 2911SOL    HW220370   1.473   2.314   3.353  0.7945  0.6686 -0.1057
 2912SOL     OW20371   0.124   2.458   1.558 -0.1800 -0.2784 -0.0491
 2912SOL    HW120372   0.089   2.464   1.469 -0.9580  3.4292  0.5363
 2912SOL    HW220373   0.201   2.511   1.537  1.0912 -1.6179  1.2360
 2913SOL     OW20374   2.464   2.561   5.365 -1.0913  0.3364 -0.0700
 2913SOL    HW120375   2.452   2.604   5.449  0.4924  0.7599 -0.0585
 2913SOL    HW220376   2.391   2.499   5.369 -2.6403  2.1590 -0.6329
 2914SOL     OW20377   3.475   0.818   6.034 -0.3635 -0.0500  0.5748
 2914SOL    HW120378   3.555   0.765   6.026 -0.0812  0.3540  0.7258
 2914SOL    HW220379   3.407   0.762   5.996 -0.3095  0.4736 -0.2810
 2915SOL     OW20380   4.387   2.508   1.982 -0.5095  0.3547 -0.5693
 2915SOL    HW120381   4.421   2.419   1.968 -0.4807  0.5968 -1.9732
 2915SOL    HW220382   4.328   2.489   2.055 -0.1269  1.9998  0.1845
 2916SOL     OW20383   1.905   2.092   6.886  0.2260 -0.0604 -0.0612
 2916SOL    HW120384   1.970   2.161   6.873  1.5346 -1.3344 -0.3329
 2916SOL    HW220385   1.956   2.021   6.926 -0.9961 -1.2613 -0.6278
 2917SOL     OW20386   3.690   2.687   8.665  0.4169 -0.0534  0.3882
 2917SOL    HW120387   3.746   2.713   8.739  0.7511 -0.4869  0.2904
 2917SOL    HW220388   3.603   2.695   8.703 -0.0092 -1.8557 -0.1931
 2918SOL     OW20389   0.974   3.633   5.732  0.2044 -0.1028  0.6914
 2918SOL    HW120390   0.901   3.606   5.676  0.0610  1.1471  0.2763
 2918SOL    HW220391   1.004   3.713   5.689 -1.2514  0.6200  1.0279
 2919SOL     OW20392   0.585   0.268   0.661  0.2387 -0.2375  0.3997
 2919SOL    HW120393   0.590   0.242   0.569 -1.0692 -0.1247  0.3003
 2919SOL    HW220394   0.591   0.363   0.667  1.1221 -0.2228 -0.8184
 2920SOL     OW20395   4.618   2.066  17.103  0.1339 -0.5997 -0.8479
 2920SOL    HW120396   4.672   2.145  17.101  0.5964 -0.9675 -3.1731
 2920SOL    HW220397   4.596   2.062  17.009  0.0724  2.5748 -0.9732
 2921SOL     OW20398   3.644   2.815   7.066 -0.1473  0.3619  0.4878
 2921SOL    HW120399   3.703   2.854   7.131  1.7403 -0.2931 -0.8205
 2921SOL    HW220400   3.602   2.742   7.110  3.0759 -1.2564  0.8508
 2922SOL     OW20401   4.027   3.800   7.078 -0.2569  0.1391  0.2616
 2922SOL    HW120402   3.933   3.788   7.073 -0.1122  0.0210 -2.1200
 2922SOL    HW220403   4.046   3.820   6.987  0.5703 -3.1177 -0.2647
 2923SOL     OW20404   1.517   4.547   0.991  0.4351  0.0218 -0.1789
 2923SOL    HW120405   1.607   4.557   1.022  0.2976 -0.4018  0.3639
 2923SOL    HW220406   1.505   4.598   0.911  2.7102  1.7807  0.6393
 2924SOL     OW20407   1.853   2.806   2.852  0.2139  0.6059 -0.2108
 2924SOL    HW120408   1.849   2.723   2.900 -0.1448  0.8332  0.1463
 2924SOL    HW220409   1.838   2.772   2.764  0.9276 -2.2452  0.7601
 2925SOL     OW20410   1.803   0.110   2.072  0.2305 -0.6508  0.2819
 2925SOL    HW120411   1.763   0.175   2.014  1.1546 -1.2858 -1.0467
 2925SOL    HW220412   1.783   0.030   2.024 -1.5656 -0.3260  0.4853
 2926SOL     OW20413   1.621   3.403  15.875  0.0578  0.3369 -0.3242
 2926SOL    HW120414   1.597   3.389  15.967  1.5765  1.1931  0.1980
 2926SOL    HW220415   1.541   3.381  15.827 -0.7466 -0.2136  1.2290
 2927SOL     OW20416   4.380   0.537   6.968 -0.6650 -0.2586 -0.5878
 2927SOL    HW120417   4.452   0.583   7.012  1.0181 -2.2067 -1.3239
 2927SOL    HW220418   4.387   0.443   6.981  1.0349  0.1544  1.6090
 2928SOL     OW20419   0.877   3.017   9.387  0.3054  0.3035 -0.4248
 2928SOL    HW120420   0.795   3.041   9.343 -0.0350 -2.0988 -1.1016
 2928SOL    HW220421   0.848   2.934   9.425  1.8813  0.0492  0.1883
 2929SOL     OW20422   0.362   0.914   6.839 -0.0416  0.0475 -0.6079
 2929SOL    HW120423   0.298   0.856   6.881 -1.3077  1.6405 -0.2981
 2929SOL    HW220424   0.356   0.879   6.751 -0.0126 -0.6057 -0.3459
 2930SOL     OW20425   0.449   1.464   7.448  0.1005  0.3963  0.5786
 2930SOL    HW120426   0.518   1.417   7.496  1.3692  1.5306 -0.1405
 2930SOL    HW220427   0.449   1.419   7.363 -3.3320  0.6707  0.4504
 2931SOL     OW20428   1.459   0.364  14.422 -0.2296  0.2568 -0.4325
 2931SOL    HW120429   1.518   0.356  14.496 -0.3434  1.2506 -0.2431
 2931SOL    HW220430   1.377   0.357  14.471 -1.1951  1.5584 -1.8665
 2932SOL     OW20431   0.122   3.016  14.463 -0.2794 -0.8285 -0.0758
 2932SOL    HW120432   0.172   3.097  14.450 -0.6805 -0.7910 -1.3486
 2932SOL    HW220433   0.184   2.943  14.464  0.4173 -0.2038  3.5766
 2933SOL     OW20434   0.767   2.652   5.260  0.4427  0.1267  0.0470
 2933SOL    HW120435   0.745   2.738   5.295  1.0541  0.1153  0.4696
 2933SOL    HW220436   0.701   2.596   5.299 -0.3014  0.5911 -0.5561
 2934SOL     OW20437   4.274   3.970  10.510  0.5023  0.4263 -0.1853
 2934SOL    HW120438   4.235   3.997  10.593 -0.7022  1.8861 -1.2085
 2934SOL    HW220439   4.213   4.009  10.446  0.0026  1.0348  0.6599
 2935SOL     OW20440   1.616   1.807  13.029  0.2641  0.0782  0.0599
 2935SOL    HW120441   1.557   1.782  13.100  1.6950 -2.2339  0.4278
 2935SOL    HW220442   1.604   1.738  12.963  2.6829  0.3694 -0.7154
 2936SOL     OW20443   2.375   2.891   3.755  0.2307  0.4310 -0.5286
 2936SOL    HW120444   2.344   2.941   3.830  2.0671  0.3953  0.2676
 2936SOL    HW220445   2.404   2.967   3.705 -0.4799 -0.1852 -1.8746
 2937SOL     OW20446   3.369   2.238   8.204  0.4222  0.3050 -0.4898
 2937SOL    HW120447   3.401   2.327   8.200 -0.9592  0.8120 -0.3814
 2937SOL    HW220448   3.298   2.237   8.139  1.5885 -0.4065 -1.7375
 2938SOL     OW20449   2.465   0.359  15.397  0.0173  0.2326  0.3309
 2938SOL    HW120450   2.528   0.380  15.466  1.1431  0.0487 -0.6438
 2938SOL    HW220451   2.503   0.412  15.327  1.1413 -0.0872  0.6931
 2939SOL     OW20452   3.132   0.700  13.586  0.4267  0.2369 -0.3761
 2939SOL    HW120453   3.165   0.784  13.554 -0.5086  1.5693  2.1468
 2939SOL    HW220454   3.072   0.666  13.519 -1.3896  1.9747  0.3868
 2940SOL     OW20455   4.316   1.106   9.249 -0.1147 -0.2860  0.2771
 2940SOL    HW120456   4.399   1.058   9.256 -0.1337 -1.0041 -4.0932
 2940SOL    HW220457   4.256   1.052   9.299  0.6853 -1.0443  0.4190
 2941SOL     OW20458   0.387   2.263   4.501 -0.1285  0.3217  0.0575
 2941SOL    HW120459   0.429   2.196   4.447 -2.1927 -1.4981  0.6834
 2941SOL    HW220460   0.300   2.222   4.501  0.0936 -0.1510 -1.5568
 2942SOL     OW20461   3.491   4.465  16.023  0.4562 -0.1186 -0.1824
 2942SOL    HW120462   3.538   4.400  16.075 -1.8969  0.0410  2.1857
 2942SOL    HW220463   3.460   4.419  15.945  2.0218  0.1856 -0.9683
 2943SOL     OW20464   2.741   4.560   8.350  0.0232  0.1355  0.2263
 2943SOL    HW120465   2.790   4.529   8.274  0.2830  0.6337  0.1881
 2943SOL    HW220466   2.808   4.545   8.417 -0.3818  1.7259  0.9951
 2944SOL     OW20467   0.129   3.595   0.681 -0.1603  0.7018  0.9599
 2944SOL    HW120468   0.091   3.683   0.683 -0.0852  0.7732 -0.3143
 2944SOL    HW220469   0.120   3.571   0.773 -1.7066  0.3062  0.7157
 2945SOL     OW20470   2.009   0.838   7.458  0.3990  0.1723  0.1333
 2945SOL    HW120471   1.922   0.824   7.419  1.3285 -3.4878 -0.6586
 2945SOL    HW220472   2.069   0.820   7.386  1.7675 -0.1390  1.3504
 2946SOL     OW20473   0.836   0.566   4.964  0.1633  0.6165 -0.5367
 2946SOL    HW120474   0.923   0.560   5.003 -0.6643 -1.2711  1.0241
 2946SOL    HW220475   0.792   0.496   5.012 -0.8510  1.7038  0.0947
 2947SOL     OW20476   3.008   2.932   0.954  0.5009  0.3299 -0.0409
 2947SOL    HW120477   3.026   3.007   1.010  0.7536  0.6298 -0.5255
 2947SOL    HW220478   3.080   2.877   0.985  0.3620  0.9714  1.4036
 2948SOL     OW20479   0.029   0.286   7.269  0.2789  0.1757 -0.0368
 2948SOL    HW120480   0.073   0.219   7.217  1.0933  1.6572 -1.2708
 2948SOL    HW220481   0.048   0.360   7.212  2.9013 -0.4363  0.0539
 2949SOL     OW20482   0.867   0.054   4.531  0.2611  0.0643  0.7297
 2949SOL    HW120483   0.827   4.711   4.507 -0.6716  0.8162 -0.3542
 2949SOL    HW220484   0.941   0.018   4.579  2.2398  1.0498 -1.5932
 2950SOL     OW20485   0.156   1.836   2.185 -0.1036 -0.0734  0.0076
 2950SOL    HW120486   0.096   1.905   2.158 -0.1914  0.7180  2.1581
 2950SOL    HW220487   0.203   1.887   2.252  0.6377  0.7938 -1.1853
 2951SOL     OW20488   1.046   3.419   8.285 -0.1707 -0.0100  0.4086
 2951SOL    HW120489   0.956   3.423   8.251  0.3212 -3.0012 -1.2580
 2951SOL    HW220490   1.097   3.457   8.214  0.0892 -0.3856  0.3971
 2952SOL     OW20491   1.163   3.539   3.349 -0.1589  0.4765  0.3482
 2952SOL    HW120492   1.201   3.472   3.293  0.1022 -0.9026  2.1798
 2952SOL    HW220493   1.142   3.480   3.421 -1.6131  2.9607  1.9928
 2953SOL     OW20494   4.243   2.837   6.358 -0.1289 -0.2863  0.3128
 2953SOL    HW120495   4.240   2.827   6.262  1.4942 -2.4727  0.5011
 2953SOL    HW220496   4.205   2.925   6.363  0.0415 -0.1819 -0.2262
 2954SOL     OW20497   1.667   2.239   6.791 -0.4332 -0.9172  0.2108
 2954SOL    HW120498   1.756   2.203   6.796  0.0621  0.2304 -0.2824
 2954SOL    HW220499   1.632   2.212   6.876  0.0996 -1.0782  0.3775
 2955SOL     OW20500   1.664   3.020   7.865 -0.0258 -0.1971 -0.2349
 2955SOL    HW120501   1.745   3.013   7.915 -0.2529 -0.7797  0.0483
 2955SOL    HW220502   1.635   2.930   7.877 -0.0122  0.2240  2.9049
 2956SOL     OW20503   4.703   1.215   5.815 -0.2555 -0.1752  0.6097
 2956SOL    HW120504   4.734   1.138   5.767  0.1591  0.3289  0.0710
 2956SOL    HW220505   4.611   1.190   5.828 -0.2106 -0.2788  0.7245
 2957SOL     OW20506   0.017   4.370   0.399 -0.0403  0.1621 -0.1142
 2957SOL    HW120507   4.667   4.344   0.414 -0.0493 -0.0634 -0.5570
 2957SOL    HW220508   0.067   4.288   0.400 -2.0506 -1.0645 -0.1854
 2958SOL     OW20509   2.734   3.597   6.304  0.4575 -0.1193  0.3260
 2958SOL    HW120510   2.783   3.638   6.232  1.2551 -0.6461  0.5686
 2958SOL    HW220511   2.658   3.571   6.252 -0.9179 -1.5124  3.0641
 2959SOL     OW20512   2.962   4.351  16.775  0.6588  1.1169 -0.1567
 2959SOL    HW120513   3.012   4.284  16.821 -1.6339 -0.7037 -0.3242
 2959SOL    HW220514   2.890   4.378  16.832  0.7117 -1.5167  1.1624
 2960SOL     OW20515   4.605   1.633   8.585  0.2707  0.1829  0.1157
 2960SOL    HW120516   4.573   1.600   8.669  0.5418 -1.5425 -0.4506
 2960SOL    HW220517   4.587   1.726   8.594  0.3496  0.2722 -0.6189
 2961SOL     OW20518   0.837   2.202   3.931 -0.6295 -0.4325  0.4101
 2961SOL    HW120519   0.902   2.159   3.876 -0.8686 -0.2290 -0.0295
 2961SOL    HW220520   0.901   2.254   3.980  0.3557 -2.6243  1.4449
 2962SOL     OW20521   1.630   4.228  13.913  0.0356 -0.0832 -0.3328
 2962SOL    HW120522   1.536   4.215  13.904  0.2232 -1.9107  0.3696
 2962SOL    HW220523   1.659   4.212  13.823  1.1767 -3.6293  0.6451
 2963SOL     OW20524   1.787   0.512  17.175 -0.1188 -0.2345 -0.0276
 2963SOL    HW120525   1.838   0.592  17.179 -1.1194  0.4473 -0.9920
 2963SOL    HW220526   1.825   0.469  17.098  0.9935  0.0874  0.3402
 2964SOL     OW20527   2.275   4.563   1.651 -0.3103 -0.2240 -0.4596
 2964SOL    HW120528   2.252   4.523   1.735  1.8322 -1.4247 -0.4149
 2964SOL    HW220529   2.307   4.650   1.674 -2.3388  0.4308 -0.1508
 2965SOL     OW20530   2.502   2.374   2.269  0.1923 -0.9543 -0.2233
 2965SOL    HW120531   2.456   2.439   2.323  1.0429  0.0768 -0.7587
 2965SOL    HW220532   2.537   2.439   2.208  0.1070 -1.9605 -1.3425
 2966SOL     OW20533   3.028   2.049   5.885  0.1258 -0.3270 -0.1139
 2966SOL    HW120534   3.025   2.074   5.793 -1.9293 -1.0436 -0.2449
 2966SOL    HW220535   3.025   1.955   5.866 -0.4844 -0.0534 -1.3223
 2967SOL     OW20536   2.580   2.337   7.821  0.7565 -0.1856  0.1319
 2967SOL    HW120537   2.609   2.372   7.737 -0.1681  1.0002  0.3113
 2967SOL    HW220538   2.666   2.345   7.864  1.6729 -1.9883 -1.3800
 2968SOL     OW20539   3.096   1.158   9.826  0.0997 -0.5593  0.1619
 2968SOL    HW120540   3.165   1.102   9.862 -1.2610 -1.4294  1.4578
 2968SOL    HW220541   3.034   1.135   9.896  0.4296  4.0161  1.9644
 2969SOL     OW20542   4.621   2.904   7.909 -0.0576  0.0979 -0.1481
 2969SOL    HW120543   4.598   2.812   7.898 -1.1158  0.0799  2.2083
 2969SOL    HW220544   4.696   2.892   7.968 -0.1035  0.2752 -0.0515
 2970SOL     OW20545   0.815   0.719   3.227  0.1570  0.3861  0.3578
 2970SOL    HW120546   0.733   0.760   3.254 -1.3453 -1.6330 -1.2012
 2970SOL    HW220547   0.865   0.737   3.307 -2.3218 -1.8576  2.4236
 2971SOL     OW20548   1.908   3.178   8.551 -0.1963  0.8192 -0.3521
 2971SOL    HW120549   1.971   3.226   8.497  1.0525 -0.3587  0.0659
 2971SOL    HW220550   1.965   3.137   8.616 -3.1741 -0.3268  1.5609
 2972SOL     OW20551   1.323   0.668   7.482  0.1962 -0.6414 -0.1961
 2972SOL    HW120552   1.232   0.654   7.507  0.5809 -2.2114  0.2803
 2972SOL    HW220553   1.352   0.695   7.569 -2.4849  2.1976 -0.1849
 2973SOL     OW20554   0.998   4.574   3.725 -0.2184  0.3425  0.0378
 2973SOL    HW120555   0.949   4.522   3.662  0.5098 -0.0996 -0.1603
 2973SOL    HW220556   1.027   4.645   3.667  3.4700 -0.7911  0.4754
 2974SOL     OW20557   2.962   2.624   2.862 -0.1049 -0.5383 -0.0223
 2974SOL    HW120558   3.023   2.639   2.934 -0.6665  0.7608  0.1817
 2974SOL    HW220559   2.886   2.673   2.894  0.8323  0.3966  0.7591
 2975SOL     OW20560   1.927   1.442   6.724 -0.3640  0.8742 -0.7253
 2975SOL    HW120561   1.976   1.440   6.806  0.2553 -0.6706 -1.1428
 2975SOL    HW220562   1.909   1.350   6.706 -0.7651  0.1773  3.2761
 2976SOL     OW20563   2.348   2.007   6.922  0.2740  0.3684  0.3108
 2976SOL    HW120564   2.416   1.960   6.970 -0.9682 -1.6281  0.1213
 2976SOL    HW220565   2.380   1.984   6.835  1.4157 -0.1249  0.8497
 2977SOL     OW20566   4.721   1.738   5.975  0.1782 -0.0435 -0.2016
 2977SOL    HW120567   0.032   1.757   6.052 -1.3758  0.6721  0.6745
 2977SOL    HW220568   4.729   1.813   5.916  1.8160  0.5301  0.7671
 2978SOL     OW20569   2.215   4.018   2.821  0.3322 -0.2144 -0.7869
 2978SOL    HW120570   2.147   4.017   2.888  0.5268  1.5738 -0.5683
 2978SOL    HW220571   2.230   4.112   2.810 -3.4163  0.2858 -1.5216
 2979SOL     OW20572   4.115   4.651   6.621 -0.0562  0.6523  0.3935
 2979SOL    HW120573   4.165   4.577   6.654  0.8406  1.5289  1.0147
 2979SOL    HW220574   4.149   4.662   6.532 -0.1111 -0.0379  0.2864
 2980SOL     OW20575   2.640   0.927   9.122  0.0815 -0.5485 -0.4373
 2980SOL    HW120576   2.632   0.881   9.038  1.2696 -0.8371 -0.3955
 2980SOL    HW220577   2.642   0.864   9.194  0.6408  0.2306  0.2247
 2981SOL     OW20578   3.549   1.680   7.672 -0.2260  0.2705 -0.8014
 2981SOL    HW120579   3.506   1.632   7.743  0.6885 -2.7621 -2.3314
 2981SOL    HW220580   3.603   1.611   7.633  1.8018  1.4125 -0.0360
 2982SOL     OW20581   3.561   2.406   3.683  0.7131  0.2905  0.4740
 2982SOL    HW120582   3.473   2.393   3.719  0.2653  0.3019 -0.6206
 2982SOL    HW220583   3.580   2.499   3.692 -1.2791  0.9307 -2.1448
 2983SOL     OW20584   3.087   4.574  16.668 -0.2723  0.6938 -0.4550
 2983SOL    HW120585   3.172   4.548  16.631 -1.1499 -1.5250 -0.9011
 2983SOL    HW220586   3.063   4.503  16.728  1.1817 -2.0413 -3.1163
 2984SOL     OW20587   2.299   1.445  11.501  0.2568 -0.2264 -0.5739
 2984SOL    HW120588   2.288   1.467  11.594 -0.1174 -2.0825 -0.1787
 2984SOL    HW220589   2.242   1.509  11.459  1.9942  0.8613 -1.2758
 2985SOL     OW20590   0.457   2.321   1.641  0.1891  0.3384 -0.2606
 2985SOL    HW120591   0.418   2.245   1.597 -2.0385  1.6953 -0.6081
 2985SOL    HW220592   0.478   2.383   1.571  0.8708 -1.2846 -1.4994
 2986SOL     OW20593   0.999   0.473   9.967 -0.2297  0.1389  0.4445
 2986SOL    HW120594   0.927   0.506   9.913 -1.1078 -1.6162  0.5382
 2986SOL    HW220595   0.997   0.382   9.935  1.1045  0.8309 -1.6733
 2987SOL     OW20596   2.746   2.949   7.161  0.2592 -0.5151  0.1995
 2987SOL    HW120597   2.665   2.956   7.211  0.9014 -1.1363  1.3324
 2987SOL    HW220598   2.782   2.885   7.222  1.7488 -1.6221 -1.8159
 2988SOL     OW20599   1.986   3.193  15.633 -0.1961  0.0305  0.2289
 2988SOL    HW120600   1.976   3.137  15.556 -1.9123 -1.5351  1.6057
 2988SOL    HW220601   1.906   3.245  15.626 -1.4859 -1.7750  1.5856
 2989SOL     OW20602   0.058   1.494  13.403 -0.3385 -0.0624  0.3447
 2989SOL    HW120603   0.069   1.590  13.404 -1.7971  0.1345 -2.0955
 2989SOL    HW220604   4.729   1.483  13.468 -0.2258 -1.5103  0.2129
 2990SOL     OW20605   1.805   4.499   2.748  0.0294  0.2726  0.1909
 2990SOL    HW120606   1.855   4.536   2.675 -1.3911  1.0587 -0.3823
 2990SOL    HW220607   1.856   4.422   2.774  1.6360  1.6085  0.9797
 2991SOL     OW20608   3.328   0.003   3.816 -0.3613 -0.2488 -0.3385
 2991SOL    HW120609   3.360   0.040   3.899 -1.9764 -1.6063  0.8841
 2991SOL    HW220610   3.243   0.046   3.814 -0.4089 -0.3035  0.4020
 2992SOL     OW20611   4.527   2.774  11.108 -0.5216  0.3598 -0.0622
 2992SOL    HW120612   4.535   2.866  11.131  0.6637  0.6149 -1.5158
 2992SOL    HW220613   4.517   2.777  11.013  0.0812 -2.0363 -0.1927
 2993SOL     OW20614   1.186   1.028  12.504  0.5056 -0.2131 -0.1606
 2993SOL    HW120615   1.098   1.016  12.470  0.1852  0.7669  0.3307
 2993SOL    HW220616   1.204   1.117  12.476  0.4901 -0.2826 -0.3907
 2994SOL     OW20617   4.508   2.099   5.653  0.1625  0.1584  0.1723
 2994SOL    HW120618   4.519   2.183   5.608  1.2111 -0.1311 -0.1157
 2994SOL    HW220619   4.478   2.041   5.582  1.3068 -1.0233  0.6648
 2995SOL     OW20620   4.222   0.522   6.486  0.4668 -0.5531  0.5325
 2995SOL    HW120621   4.261   0.519   6.573  2.4350  1.9148 -0.2869
 2995SOL    HW220622   4.302   0.511   6.434 -0.8945 -2.6612 -1.1580
 2996SOL     OW20623   3.399   3.406   4.668  0.5468 -0.0732  0.0812
 2996SOL    HW120624   3.417   3.387   4.760  0.9698  1.3247  0.2912
 2996SOL    HW220625   3.304   3.399   4.677  0.4772  1.3726  0.5034
 2997SOL     OW20626   4.705   0.174  16.084  0.0646 -0.5640 -0.7920
 2997SOL    HW120627   4.695   0.245  16.147  1.9089 -1.5630  0.6342
 2997SOL    HW220628   4.613   0.155  16.071 -0.7197  1.6460  1.4310
 2998SOL     OW20629   3.783   1.562   7.856 -0.4332  0.0783 -0.3212
 2998SOL    HW120630   3.725   1.527   7.923  1.3768 -2.4574 -0.0760
 2998SOL    HW220631   3.762   1.510   7.778 -0.4131 -0.8030  0.2673
 2999SOL     OW20632   0.327   2.798  10.150 -0.0722  0.1220  0.0984
 2999SOL    HW120633   0.388   2.868  10.130 -0.9048  0.7705 -0.1842
 2999SOL    HW220634   0.275   2.792  10.070  1.2109  1.4379 -0.8390
 3000SOL     OW20635   3.578   2.236   1.151  0.5542 -0.0170 -0.1557
 3000SOL    HW120636   3.585   2.262   1.242  1.1293 -2.3265  0.4704
 3000SOL    HW220637   3.632   2.304   1.110  3.5619 -1.1549  1.8841
 3001SOL     OW20638   1.243   2.985   2.426 -0.1518  0.4453 -0.1607
 3001SOL    HW120639   1.289   3.046   2.368  0.4112  1.0611  0.9471
 3001SOL    HW220640   1.265   3.024   2.511 -2.0247  0.3866  0.3539
 3002SOL     OW20641   2.805   1.364  17.346  0.0793 -0.0957  0.4703
 3002SOL    HW120642   2.800   1.402  17.258  0.4838 -1.8678 -0.3115
 3002SOL    HW220643   2.885   1.390  17.392 -0.7209  2.2258  0.5512
 3003SOL     OW20644   3.816   1.400   1.996  0.2070  0.1233 -0.1979
 3003SOL    HW120645   3.763   1.356   1.930 -0.5211 -0.3714  0.7023
 3003SOL    HW220646   3.764   1.472   2.032 -0.0025  0.5545 -1.3856
 3004SOL     OW20647   3.591   0.181   8.057 -0.9022 -0.9569  0.4485
 3004SOL    HW120648   3.524   0.119   8.084 -1.9931  1.2201  2.6913
 3004SOL    HW220649   3.664   0.128   8.024 -0.4684  1.2728 -2.1518
 3005SOL     OW20650   3.108   1.735   2.976 -0.3933 -0.2302  0.2443
 3005SOL    HW120651   3.143   1.661   3.026 -0.6453 -0.1793  0.4988
 3005SOL    HW220652   3.189   1.786   2.973 -0.6461  0.0927 -0.8486
 3006SOL     OW20653   0.285   3.321  17.064 -0.5638 -0.4266 -0.3716
 3006SOL    HW120654   0.301   3.372  17.144 -0.1370  1.5771 -1.7488
 3006SOL    HW220655   0.190   3.319  17.059 -0.6246  2.2633 -0.5196
 3007SOL     OW20656   1.369   1.893  13.546  0.1335  0.4816  0.0361
 3007SOL    HW120657   1.401   1.884  13.457 -0.9855 -0.1693 -0.2975
 3007SOL    HW220658   1.333   1.982  13.553 -0.1042  0.1925  2.5254
 3008SOL     OW20659   1.163   2.113  11.370 -0.1520  0.0195  0.2865
 3008SOL    HW120660   1.204   2.197  11.390 -0.5861 -0.0883  1.5859
 3008SOL    HW220661   1.096   2.106  11.439  2.2512  0.8217  2.6850
 3009SOL     OW20662   2.986   3.371   4.036  0.4417 -0.5980 -0.1277
 3009SOL    HW120663   2.921   3.429   3.995  0.5789 -2.2744 -2.6729
 3009SOL    HW220664   3.069   3.414   4.015  0.4099 -0.6298 -0.3172
 3010SOL     OW20665   2.498   3.792   4.305 -0.0055 -0.2858 -0.4989
 3010SOL    HW120666   2.586   3.771   4.274 -0.6995 -0.8943 -2.0241
 3010SOL    HW220667   2.503   3.880   4.342  2.3609 -0.4302 -0.4662
 3011SOL     OW20668   0.632   2.499  10.682  0.1931  0.0153  0.1403
 3011SOL    HW120669   0.540   2.482  10.699  0.7390 -2.0517  1.0679
 3011SOL    HW220670   0.673   2.485  10.768  1.2499  1.2132 -0.1687
 3012SOL     OW20671   0.144   1.176   7.471 -0.0714  0.2642 -0.2570
 3012SOL    HW120672   0.067   1.151   7.521 -0.0054 -1.5331 -1.0640
 3012SOL    HW220673   0.136   1.124   7.392  1.2593  0.2958 -0.4131
 3013SOL     OW20674   4.539   2.600  14.813 -0.0669  0.5387 -0.0572
 3013SOL    HW120675   4.601   2.659  14.770  1.6033 -2.8297 -2.2697
 3013SOL    HW220676   4.525   2.535  14.744 -2.8305  1.3461 -0.2217
 3014SOL     OW20677   2.359   3.063  17.518  0.2209  0.4518 -0.2753
 3014SOL    HW120678   2.348   3.018  17.434 -2.9477 -0.5803  0.7175
 3014SOL    HW220679   2.275   3.072  17.563  0.2472 -1.7401  0.1887
 3015SOL     OW20680   0.553   2.261   5.153  0.3265 -0.1517  0.3658
 3015SOL    HW120681   0.596   2.202   5.214 -1.7774 -2.0651 -0.0305
 3015SOL    HW220682   0.628   2.312   5.122  0.0852  0.1961  0.3584
 3016SOL     OW20683   4.383   4.300  10.081 -0.8573 -0.3254  0.1039
 3016SOL    HW120684   4.447   4.232  10.102  0.8789  0.9441 -1.0654
 3016SOL    HW220685   4.393   4.321   9.989 -0.1997 -0.5454  0.1263
 3017SOL     OW20686   1.420   3.588   1.354  0.3266  0.1187 -0.4339
 3017SOL    HW120687   1.400   3.549   1.269 -0.6609 -0.6175  0.1392
 3017SOL    HW220688   1.369   3.669   1.350  1.6844  1.0556  1.2427
 3018SOL     OW20689   1.882   3.130  14.658 -0.3101  0.4963 -0.1376
 3018SOL    HW120690   1.802   3.117  14.607  0.7584  2.7389 -2.3144
 3018SOL    HW220691   1.927   3.049  14.634  1.5677  0.7792  2.4243
 3019SOL     OW20692   0.632   2.507   4.239  0.3500  0.3678 -0.0755
 3019SOL    HW120693   0.649   2.416   4.215  0.7879 -0.1011  1.9900
 3019SOL    HW220694   0.672   2.501   4.326 -0.2399  0.2061  0.1852
 3020SOL     OW20695   3.558   2.944   8.186  0.1170  0.8935 -0.2384
 3020SOL    HW120696   3.594   2.961   8.099  0.4455  2.0016  0.1133
 3020SOL    HW220697   3.493   2.875   8.173  1.3354 -0.2804 -0.1529
 3021SOL     OW20698   2.610   1.561   2.681  0.2303 -0.3440 -0.3735
 3021SOL    HW120699   2.525   1.572   2.724  0.4508  0.2185 -0.0743
 3021SOL    HW220700   2.573   1.544   2.595  1.1540  0.4855 -0.9300
 3022SOL     OW20701   4.157   4.069   1.481  0.1811 -0.1168  0.5314
 3022SOL    HW120702   4.162   4.148   1.534 -0.3714  1.0042 -1.0997
 3022SOL    HW220703   4.066   4.042   1.494  0.1912  0.4084  1.6417
 3023SOL     OW20704   3.417   1.851   9.478  0.2282 -0.2255  0.1154
 3023SOL    HW120705   3.477   1.924   9.490  1.2681 -0.9614 -0.5833
 3023SOL    HW220706   3.335   1.885   9.514 -1.0462 -0.2664 -2.7363
 3024SOL     OW20707   2.379   1.742  10.176 -0.0428  0.0828 -0.5193
 3024SOL    HW120708   2.307   1.797  10.146 -0.0153  0.3076 -0.1762
 3024SOL    HW220709   2.373   1.668  10.116 -0.2660 -1.8605  1.8530
 3025SOL     OW20710   3.868   0.678   4.769 -0.3266 -0.7161  0.2260
 3025SOL    HW120711   3.911   0.707   4.849 -2.7178  3.0087  0.1142
 3025SOL    HW220712   3.888   0.584   4.773 -1.0208 -0.7658  2.3686
 3026SOL     OW20713   2.026   4.699   7.361 -0.6824  0.3693 -0.4762
 3026SOL    HW120714   2.042   4.627   7.422  1.9442  1.6988  0.3920
 3026SOL    HW220715   2.100   4.682   7.302 -0.7090  1.5845 -0.8617
 3027SOL     OW20716   1.864   4.117  14.515  0.5484 -0.4726 -0.3528
 3027SOL    HW120717   1.936   4.055  14.506  0.6381 -0.1760 -1.7080
 3027SOL    HW220718   1.804   4.078  14.452  2.1413 -3.6845  0.1438
 3028SOL     OW20719   0.880   0.542   6.238  0.0947 -0.1570 -0.5221
 3028SOL    HW120720   0.826   0.471   6.202 -1.0258  0.8321 -0.7995
 3028SOL    HW220721   0.816   0.613   6.234  1.5394  1.1938  0.4072
 3029SOL     OW20722   3.466   2.693   0.624 -0.1375 -0.3893 -0.4295
 3029SOL    HW120723   3.411   2.651   0.558  0.2837 -0.1264 -0.9482
 3029SOL    HW220724   3.425   2.680   0.709  1.5021 -0.1716  0.4020
 3030SOL     OW20725   1.492   2.769   4.030  0.1742  0.2443  0.1505
 3030SOL    HW120726   1.440   2.744   3.953  0.5330  0.9028 -0.3025
 3030SOL    HW220727   1.582   2.782   4.002  1.2059 -4.2725  1.3353
 3031SOL     OW20728   4.740   0.775   4.485  0.4146 -0.2648  0.4477
 3031SOL    HW120729   0.081   0.799   4.443  0.0374 -0.0622 -0.1680
 3031SOL    HW220730   0.037   0.775   4.573  0.3045 -0.9827  0.4910
 3032SOL     OW20731   3.518   2.512   7.885 -0.0772 -0.6217 -0.5670
 3032SOL    HW120732   3.567   2.435   7.856  2.9725  0.7910  0.8991
 3032SOL    HW220733   3.568   2.542   7.960 -0.0419  0.4127 -1.0094
 3033SOL     OW20734   1.855   2.468  11.198 -0.0581  0.6583  0.1305
 3033SOL    HW120735   1.813   2.499  11.118 -0.7898 -0.7804 -0.0453
 3033SOL    HW220736   1.947   2.495  11.193 -0.6816  2.3092 -1.7919
 3034SOL     OW20737   1.657   2.583   6.876 -0.0267  0.3428 -0.0005
 3034SOL    HW120738   1.667   2.503   6.929 -0.6458 -0.2000 -0.7025
 3034SOL    HW220739   1.572   2.613   6.908 -0.4177  0.1736 -0.8885
 3035SOL     OW20740   2.501   0.717  15.178 -0.1070  0.0024  0.0141
 3035SOL    HW120741   2.537   0.685  15.095  0.4077  0.2332  0.1490
 3035SOL    HW220742   2.430   0.653  15.191  0.0728  0.1047  1.4813
 3036SOL     OW20743   1.414   1.969  14.755  0.3518  0.1020  0.2814
 3036SOL    HW120744   1.510   1.969  14.748  0.4379 -0.6909  1.3811
 3036SOL    HW220745   1.398   2.063  14.763  0.6270  0.0754  1.2012
 3037SOL     OW20746   3.094   0.344   4.287 -0.1192  0.0652  0.2133
 3037SOL    HW120747   3.115   0.430   4.325  2.8957 -0.2472 -0.7454
 3037SOL    HW220748   3.044   0.312   4.362  1.1172  0.2091  1.0988
 3038SOL     OW20749   2.379   1.836   9.540 -0.2520  0.0775  0.3122
 3038SOL    HW120750   2.430   1.913   9.566 -0.8746  0.3139  0.8445
 3038SOL    HW220751   2.297   1.882   9.524 -0.5546 -0.2726  0.8587
 3039SOL     OW20752   4.577   4.096  10.929 -0.1074 -0.2597 -0.1254
 3039SOL    HW120753   4.494   4.107  10.883  0.4323 -2.4033 -1.6525
 3039SOL    HW220754   4.608   4.187  10.929  2.5820 -1.1748 -0.8763
 3040SOL     OW20755   3.087   3.899  16.590  0.7166  0.2739 -0.3174
 3040SOL    HW120756   3.141   3.834  16.545  0.4129  0.8390 -1.4887
 3040SOL    HW220757   3.025   3.913  16.519 -0.1590  1.3040  0.6388
 3041SOL     OW20758   1.813   2.836   6.373  0.1303  0.4291  0.4679
 3041SOL    HW120759   1.768   2.755   6.395  0.3262 -0.3890 -2.1362
 3041SOL    HW220760   1.833   2.869   6.461 -0.2866 -0.0372  0.7391
 3042SOL     OW20761   1.903   4.489  15.850  0.3953 -0.0038  0.5185
 3042SOL    HW120762   1.895   4.579  15.819  1.0428 -0.2899 -0.4571
 3042SOL    HW220763   1.961   4.505  15.925  0.9087  0.8146 -0.0489
 3043SOL     OW20764   0.896   0.772  16.656 -0.2812 -0.2196  0.0663
 3043SOL    HW120765   0.861   0.851  16.614 -0.9767 -1.1525 -1.0774
 3043SOL    HW220766   0.943   0.737  16.581  1.3697  0.5852  0.7115
 3044SOL     OW20767   0.262   1.861   5.842  0.4769 -0.2133 -0.0743
 3044SOL    HW120768   0.184   1.914   5.858 -0.5633 -2.2296  1.4549
 3044SOL    HW220769   0.234   1.793   5.781 -2.3025  1.0172 -0.1514
 3045SOL     OW20770   2.398   3.137   7.878 -0.2767  0.5063  0.3903
 3045SOL    HW120771   2.477   3.185   7.854 -0.5013  0.8622  0.3685
 3045SOL    HW220772   2.429   3.069   7.938  0.8425 -1.2360 -2.1699
 3046SOL     OW20773   2.971   0.265   8.963 -0.2170 -0.0196  0.2107
 3046SOL    HW120774   2.898   0.319   8.995  0.1469  1.3447 -1.2714
 3046SOL    HW220775   3.000   0.328   8.897 -0.9705  0.8215  0.6768
 3047SOL     OW20776   3.029   2.260   2.340  0.3848  0.2250 -0.4212
 3047SOL    HW120777   2.971   2.186   2.358 -1.0794  1.4196 -0.2395
 3047SOL    HW220778   3.024   2.306   2.424 -1.1300  0.4017 -0.6190
 3048SOL     OW20779   1.988   3.624   0.007 -0.5032 -0.5342  0.1481
 3048SOL    HW120780   1.964   3.585   0.091 -1.4401  0.9867  0.5821
 3048SOL    HW220781   1.956   3.713   0.017  2.0926  0.7190 -2.6549
 3049SOL     OW20782   1.700   1.679   7.148  0.2854 -0.1017  0.0370
 3049SOL    HW120783   1.773   1.730   7.182  1.0603  0.4702 -2.5017
 3049SOL    HW220784   1.628   1.742   7.147  1.5728  1.3584  1.2374
 3050SOL     OW20785   4.709   1.851  10.833  0.0894  0.2080  0.2619
 3050SOL    HW120786   0.020   1.771  10.826 -0.9714 -0.4158 -0.3209
 3050SOL    HW220787   0.023   1.920  10.793  1.1471 -0.5750  0.3510
 3051SOL     OW20788   3.680   4.247  10.842 -1.0198 -0.5136 -0.1653
 3051SOL    HW120789   3.694   4.178  10.777 -2.6398 -1.6429  0.6998
 3051SOL    HW220790   3.720   4.325  10.804  1.4490 -1.8260 -0.2717
 3052SOL     OW20791   4.662   1.838   9.101  0.1874 -0.0482  0.2212
 3052SOL    HW120792   4.604   1.762   9.100  1.4991 -1.0475  0.9847
 3052SOL    HW220793   4.596   1.905   9.120  1.7625  1.4158  0.5783
 3053SOL     OW20794   0.039   2.852  10.499 -0.2852  0.4735  0.7263
 3053SOL    HW120795   0.047   2.903  10.580 -1.0647  0.3578  0.8761
 3053SOL    HW220796   4.709   2.894  10.451  0.7663  1.8867  0.4023
 3054SOL     OW20797   3.483   1.056   7.470  0.1389  0.3996 -0.1673
 3054SOL    HW120798   3.498   1.124   7.535 -1.9214  0.2169  0.4854
 3054SOL    HW220799   3.571   1.017   7.472 -0.4483 -0.8884  0.5725
 3055SOL     OW20800   0.340   1.145   9.216 -0.6273 -0.9138 -0.2267
 3055SOL    HW120801   0.351   1.138   9.311 -0.4209  4.4759  0.1328
 3055SOL    HW220802   0.387   1.063   9.199  0.6233 -0.7730  2.4629
 3056SOL     OW20803   2.882   3.500   3.381  0.3106  0.0096 -0.0653
 3056SOL    HW120804   2.972   3.491   3.413  0.0567 -0.4792  0.4985
 3056SOL    HW220805   2.900   3.537   3.294  0.1706 -0.6606 -0.3765
 3057SOL     OW20806   0.057   2.170   8.874 -0.0659 -0.5755 -0.0651
 3057SOL    HW120807   4.721   2.193   8.927  0.7030 -1.3405  1.3767
 3057SOL    HW220808   0.039   2.076   8.866 -0.6982 -0.4917  0.3420
 3058SOL     OW20809   1.153   4.418   1.778  0.3996 -0.2490  0.0812
 3058SOL    HW120810   1.128   4.464   1.859  3.2794  3.2365 -0.9908
 3058SOL    HW220811   1.132   4.328   1.802  0.9800  0.0556  1.7615
 3059SOL     OW20812   3.138   1.528   2.463 -0.0095 -0.2914  0.4207
 3059SOL    HW120813   3.134   1.524   2.368 -1.5310 -1.2244  0.5318
 3059SOL    HW220814   3.231   1.542   2.478  0.4200 -1.7121 -0.9343
 3060SOL     OW20815   0.632   3.285   7.053  0.0495 -0.1309 -0.4203
 3060SOL    HW120816   0.657   3.329   6.972 -0.3899  1.9324  0.5564
 3060SOL    HW220817   0.689   3.211   7.032 -2.1373 -1.2723 -2.2995
 3061SOL     OW20818   4.270   2.380   6.102  0.1263 -0.1425 -0.3705
 3061SOL    HW120819   4.305   2.412   6.184  1.9412 -0.3066 -1.0829
 3061SOL    HW220820   4.276   2.453   6.040 -0.7353 -0.5878 -0.9852
 3062SOL     OW20821   4.211   0.357   5.838 -0.3720 -0.6845 -0.7296
 3062SOL    HW120822   4.155   0.285   5.809  0.6766 -2.3172  1.2494
 3062SOL    HW220823   4.183   0.425   5.776 -0.9023  1.1053  1.4594
 3063SOL     OW20824   2.262   2.947   6.684 -0.2080 -0.2083  0.2111
 3063SOL    HW120825   2.259   3.002   6.762 -1.4122 -1.3515  0.9697
 3063SOL    HW220826   2.306   2.867   6.710 -0.2596 -1.3907 -3.3187
 3064SOL     OW20827   4.401   4.108   2.422 -0.6450  0.2752 -0.5065
 3064SOL    HW120828   4.433   4.198   2.433 -1.4645  0.5363 -0.2808
 3064SOL    HW220829   4.309   4.128   2.405 -0.4707  1.4383 -0.0878
 3065SOL     OW20830   0.750   3.129   5.106  0.0120  0.7378 -0.1274
 3065SOL    HW120831   0.779   3.124   5.197  0.8822  1.4310 -0.3623
 3065SOL    HW220832   0.667   3.083   5.105  0.4193  0.1188 -4.1359
 3066SOL     OW20833   2.619   3.941   2.849 -0.0075 -0.1038  0.5869
 3066SOL    HW120834   2.599   4.035   2.853 -0.5034 -0.1113 -1.7250
 3066SOL    HW220835   2.556   3.911   2.784  1.4226 -0.7337 -0.5192
 3067SOL     OW20836   2.358   4.203  12.558 -0.6435  0.1640 -0.0622
 3067SOL    HW120837   2.392   4.157  12.635 -0.2486 -0.0051 -0.3357
 3067SOL    HW220838   2.269   4.230  12.583 -1.0126 -1.6829  0.6404
 3068SOL     OW20839   4.325   0.445   3.919  0.4184  0.2200  0.1961
 3068SOL    HW120840   4.291   0.535   3.919 -2.8082 -0.9986 -2.4078
 3068SOL    HW220841   4.355   0.441   4.010  0.9298 -0.1219  0.0086
 3069SOL     OW20842   0.425   3.638   9.100 -0.0623  0.6495 -0.1329
 3069SOL    HW120843   0.395   3.549   9.122  0.2034  0.8524  1.0549
 3069SOL    HW220844   0.519   3.617   9.099  0.3044  2.2678  1.2094
 3070SOL     OW20845   3.116   2.087   2.679  0.1076 -0.1050 -0.0717
 3070SOL    HW120846   3.039   2.080   2.623  1.1907  2.8257 -1.9356
 3070SOL    HW220847   3.155   2.000   2.690 -0.1000  0.2239  3.4837
 3071SOL     OW20848   3.874   1.316  16.983  0.6352 -0.0063  0.0844
 3071SOL    HW120849   3.904   1.320  16.892 -1.1354  1.3562 -0.4545
 3071SOL    HW220850   3.888   1.224  17.003  0.6134 -0.1857 -0.7191
 3072SOL     OW20851   2.597   1.076  10.018 -0.1628  0.3597  0.2621
 3072SOL    HW120852   2.607   1.071  10.113 -0.3390  4.6004  0.5014
 3072SOL    HW220853   2.644   0.996   9.997 -1.9093 -1.0696  1.7916
 3073SOL     OW20854   2.147   0.528   8.296  0.1198  0.1600  0.0494
 3073SOL    HW120855   2.171   0.619   8.277  0.7983  0.3737  1.9428
 3073SOL    HW220856   2.227   0.479   8.278  2.0624  3.1409  0.4927
 3074SOL     OW20857   0.871   1.931   9.237 -0.7707  0.2284  0.1956
 3074SOL    HW120858   0.853   1.879   9.159 -0.0936 -1.0025  0.8614
 3074SOL    HW220859   0.784   1.969   9.245 -1.2519 -0.9140  0.3082
 3075SOL     OW20860   4.237   3.298  11.272 -0.0180  0.0350 -0.5794
 3075SOL    HW120861   4.307   3.267  11.329 -0.4098 -2.0909 -1.2529
 3075SOL    HW220862   4.264   3.384  11.241 -0.1607 -0.4384 -2.0291
 3076SOL     OW20863   3.375   1.947   5.107 -0.8479  0.2180  0.4326
 3076SOL    HW120864   3.353   1.938   5.200  0.0472  0.2712  0.6484
 3076SOL    HW220865   3.436   2.021   5.106  1.3411 -1.5742  1.2552
 3077SOL     OW20866   4.114   4.485   5.874 -0.0812  0.2251 -1.1081
 3077SOL    HW120867   4.048   4.548   5.903  0.7294  0.2775  0.6420
 3077SOL    HW220868   4.057   4.415   5.843 -0.4953  1.2210 -2.5831
 3078SOL     OW20869   4.299   1.952   2.362  0.4324 -0.0875  0.2297
 3078SOL    HW120870   4.251   1.886   2.413  1.4404  0.7778  2.2953
 3078SOL    HW220871   4.387   1.953   2.399  0.0585 -0.1173  1.1293
 3079SOL     OW20872   3.371   4.125  17.101 -0.5391 -0.6337  0.4282
 3079SOL    HW120873   3.465   4.125  17.081 -0.6832  1.3613 -0.2367
 3079SOL    HW220874   3.366   4.049  17.158 -0.9008  0.9899  2.5758
 3080SOL     OW20875   2.955   0.479  15.235  0.1279 -0.2530  0.0373
 3080SOL    HW120876   3.011   0.403  15.247 -0.4437 -0.6978 -0.0965
 3080SOL    HW220877   3.014   0.549  15.206 -0.3784 -0.2017 -0.8570
 3081SOL     OW20878   0.755   3.081   5.661  0.6770  0.2697 -0.1855
 3081SOL    HW120879   0.815   3.008   5.646 -0.6756  0.1114 -4.8016
 3081SOL    HW220880   0.677   3.043   5.700  0.3578 -1.5466 -2.5604
 3082SOL     OW20881   0.985   3.753   7.511  0.6999  0.3080 -0.1534
 3082SOL    HW120882   1.061   3.789   7.464  0.3246  2.2387  0.7192
 3082SOL    HW220883   0.918   3.796   7.457  0.7911  0.7468  0.0876
 3083SOL     OW20884   2.495   2.800   3.182  0.3957  0.3361  0.2396
 3083SOL    HW120885   2.585   2.809   3.214  1.6497  1.9640 -3.7102
 3083SOL    HW220886   2.497   2.708   3.154 -1.5538 -0.0994  1.6094
 3084SOL     OW20887   0.636   4.347   8.957  0.2739  0.0352 -0.3454
 3084SOL    HW120888   0.555   4.363   8.908  0.5756 -0.0077 -0.8601
 3084SOL    HW220889   0.605   4.267   9.000  1.1909 -0.2473 -0.2079
 3085SOL     OW20890   0.712   0.976   7.572  0.1130  0.1894  0.0078
 3085SOL    HW120891   0.732   0.944   7.484 -1.0383 -0.6810  0.0564
 3085SOL    HW220892   0.626   1.007   7.544 -0.1348  0.4922  1.1212
 3086SOL     OW20893   0.866   4.110  15.892 -0.1011  0.3177 -0.2388
 3086SOL    HW120894   0.785   4.072  15.860  0.5671 -0.3781 -1.1081
 3086SOL    HW220895   0.845   4.123  15.984 -1.4423  1.0598 -0.6509
 3087SOL     OW20896   1.410   0.336  16.959 -0.0618 -0.9599  0.7677
 3087SOL    HW120897   1.341   0.387  16.917  2.3287  0.9496 -0.8423
 3087SOL    HW220898   1.452   0.395  17.021  1.3220 -0.4353 -0.6618
 3088SOL     OW20899   1.803   4.585   1.112 -0.0704  0.3534 -0.2265
 3088SOL    HW120900   1.777   4.676   1.123  0.7611  0.4361  1.0196
 3088SOL    HW220901   1.874   4.571   1.175 -0.3922  1.8550  0.4586
 3089SOL     OW20902   4.280   0.186   5.128 -0.4073 -0.9886  0.3531
 3089SOL    HW120903   4.338   0.129   5.179 -0.8163 -1.0858  0.7038
 3089SOL    HW220904   4.313   0.148   5.046  2.6195  0.5618  0.8198
 3090SOL     OW20905   1.356   2.654   3.259  0.2021  0.4912  0.3486
 3090SOL    HW120906   1.299   2.608   3.320  0.6059 -1.7100 -0.9524
 3090SOL    HW220907   1.419   2.592   3.224  0.3111  0.7158  0.1443
 3091SOL     OW20908   4.095   3.818  11.932 -0.4741 -0.3390 -0.0873
 3091SOL    HW120909   4.024   3.864  11.888  0.9898 -0.0556 -2.1227
 3091SOL    HW220910   4.086   3.734  11.887 -1.4061 -0.6689  0.7015
 3092SOL     OW20911   3.771   1.652   1.263 -0.0878  0.4753  0.1785
 3092SOL    HW120912   3.735   1.723   1.317  4.0193  2.8040 -0.2207
 3092SOL    HW220913   3.722   1.576   1.294 -0.1820  0.1636 -0.7413
 3093SOL     OW20914   2.911   2.645   4.615  0.2001 -0.4181 -0.7460
 3093SOL    HW120915   2.868   2.562   4.632  0.4049 -1.1624 -3.8597
 3093SOL    HW220916   2.947   2.663   4.702  1.4925 -1.4107 -1.0756
 3094SOL     OW20917   4.141   2.420   2.629 -0.4918 -0.1967  0.0916
 3094SOL    HW120918   4.210   2.485   2.614  0.9757 -2.0415 -1.2370
 3094SOL    HW220919   4.163   2.405   2.721 -0.5157  0.1559  0.1565
 3095SOL     OW20920   2.376   2.335   3.244  0.7784 -0.5710 -0.4474
 3095SOL    HW120921   2.315   2.359   3.175 -1.5843  0.0674  1.8619
 3095SOL    HW220922   2.369   2.240   3.245  1.3832 -0.5995  0.7429
 3096SOL     OW20923   0.112   3.620   7.347  0.3061 -0.2271 -0.1595
 3096SOL    HW120924   0.192   3.592   7.391 -0.9147  1.0351  2.9406
 3096SOL    HW220925   0.097   3.682   7.419  1.8865  0.7285 -0.6423
 3097SOL     OW20926   3.503   2.830   5.629  0.2497 -0.1014 -0.0672
 3097SOL    HW120927   3.498   2.783   5.712  1.7532  0.0814  0.1298
 3097SOL    HW220928   3.583   2.875   5.655 -0.9098  0.3752  2.6916
 3098SOL     OW20929   2.087   3.803  11.431  0.3492 -0.0565 -0.3487
 3098SOL    HW120930   2.176   3.835  11.441  0.1456  0.6385 -0.7611
 3098SOL    HW220931   2.049   3.787  11.517 -0.7832 -0.2717 -0.8836
 3099SOL     OW20932   3.159   0.656   4.687 -0.3281  0.4331  0.1985
 3099SOL    HW120933   3.146   0.702   4.770  4.0846  1.6146  0.1852
 3099SOL    HW220934   3.137   0.727   4.627  0.5401 -0.6899 -1.4360
 3100SOL     OW20935   0.277   0.836  16.487  0.0024 -0.0047 -0.2860
 3100SOL    HW120936   0.228   0.766  16.446  0.8803 -0.2135 -0.9950
 3100SOL    HW220937   0.363   0.804  16.514 -0.7204 -3.5673 -2.1861
 3101SOL     OW20938   0.439   0.726   7.597  0.0395 -0.3959 -0.0119
 3101SOL    HW120939   0.382   0.781   7.652 -1.1024 -0.5949 -0.9928
 3101SOL    HW220940   0.492   0.672   7.656 -1.0829  0.4234  1.7806
 3102SOL     OW20941   3.166   4.717  10.649 -0.5559  0.4440 -0.5244
 3102SOL    HW120942   3.076   4.709  10.681 -1.2070  1.1151 -2.2119
 3102SOL    HW220943   3.148   0.034  10.575 -2.3596  0.8167  0.1971
 3103SOL     OW20944   4.693   0.118  14.171 -0.0560 -0.0461 -0.0968
 3103SOL    HW120945   4.640   0.127  14.250 -1.3883  1.4499 -1.1547
 3103SOL    HW220946   0.036   0.125  14.216  0.5623  0.0739 -1.2604
 3104SOL     OW20947   0.322   0.547   4.797  0.2767  0.4590 -0.0354
 3104SOL    HW120948   0.363   0.533   4.882  1.0701  0.1400 -0.4721
 3104SOL    HW220949   0.289   0.459   4.780  2.6482 -0.6042  0.8757
 3105SOL     OW20950   1.059   3.721   9.945  0.4788  0.4901 -0.0068
 3105SOL    HW120951   1.075   3.700   9.853 -0.2045 -0.2257  0.0364
 3105SOL    HW220952   1.140   3.688   9.982  0.7173  1.6725  0.5310
 3106SOL     OW20953   4.170   3.595   3.232 -0.3099 -0.5547 -0.3955
 3106SOL    HW120954   4.096   3.553   3.276 -1.3079  0.3056 -1.2587
 3106SOL    HW220955   4.192   3.520   3.177 -0.0296 -1.7632  1.3532
 3107SOL     OW20956   0.915   0.827   8.272  0.8059  0.7549 -0.2514
 3107SOL    HW120957   0.923   0.814   8.366  0.8902 -1.1920 -0.5150
 3107SOL    HW220958   0.852   0.899   8.272 -0.0408  0.0094  1.6643
 3108SOL     OW20959   0.125   4.624   4.174  0.0577 -0.0944  0.0891
 3108SOL    HW120960   0.057   4.570   4.134  1.3637 -0.9756 -0.9426
 3108SOL    HW220961   0.207   4.575   4.170 -0.6821 -1.1825 -1.4462
 3109SOL     OW20962   3.986   4.135   8.976 -0.3744  0.3774  0.0819
 3109SOL    HW120963   3.976   4.159   8.884  1.5910 -2.6457 -0.9596
 3109SOL    HW220964   3.893   4.130   8.994 -0.5644 -0.5947 -1.1558
 3110SOL     OW20965   0.802   4.194  12.750  0.1935  0.3981 -0.3058
 3110SOL    HW120966   0.888   4.210  12.713  0.4741  0.6709  0.4541
 3110SOL    HW220967   0.767   4.161  12.668  0.0429  0.2735 -0.1922
 3111SOL     OW20968   1.266   0.093   4.934 -0.7008  0.1855 -0.7194
 3111SOL    HW120969   1.210   0.040   4.877 -1.1614  2.2718 -2.2104
 3111SOL    HW220970   1.337   0.125   4.878  0.5550 -0.1366  0.6711
 3112SOL     OW20971   3.908   0.474   5.409 -1.0573  0.1042 -0.3153
 3112SOL    HW120972   3.951   0.468   5.324 -0.2301  0.5094  0.0747
 3112SOL    HW220973   3.935   0.562   5.436 -1.6460  0.3532 -0.5394
 3113SOL     OW20974   2.539   2.739   3.580  0.2800  0.1560  0.4862
 3113SOL    HW120975   2.511   2.734   3.672 -2.1748  0.7827 -0.2100
 3113SOL    HW220976   2.452   2.748   3.540  0.8866 -0.4529 -0.9834
 3114SOL     OW20977   2.502   2.156   4.577  0.3921 -0.8552  0.3034
 3114SOL    HW120978   2.546   2.138   4.493 -1.4055  2.0355 -1.2418
 3114SOL    HW220979   2.573   2.182   4.634  1.3065  1.1930 -1.7729
 3115SOL     OW20980   1.998   0.839  15.193 -0.4319  0.6573 -0.0873
 3115SOL    HW120981   2.005   0.928  15.158 -0.4714  0.5729 -0.3108
 3115SOL    HW220982   2.036   0.787  15.122 -1.2108  2.2506 -1.6770
 3116SOL     OW20983   1.725   2.497  14.029  0.2163 -0.2173 -0.1103
 3116SOL    HW120984   1.818   2.473  14.020  0.0059 -0.8943 -0.4769
 3116SOL    HW220985   1.680   2.433  13.973 -0.6114 -0.2399  0.5885
 3117SOL     OW20986   4.023   1.241   3.821  0.1075 -0.2981  0.3730
 3117SOL    HW120987   4.063   1.178   3.761  1.3877  0.1324  0.7837
 3117SOL    HW220988   3.934   1.239   3.786  0.1610  0.1433  0.2032
 3118SOL     OW20989   0.269   1.223   4.042 -0.8999 -0.0808 -0.0314
 3118SOL    HW120990   0.342   1.274   4.008  1.3283 -3.2651  0.0012
 3118SOL    HW220991   0.192   1.274   4.014 -0.5341  0.2754 -0.3889
 3119SOL     OW20992   0.402   1.754  11.505  0.1801  0.0136  0.1561
 3119SOL    HW120993   0.379   1.667  11.536 -0.2857 -0.3839 -1.3003
 3119SOL    HW220994   0.331   1.809  11.538  0.0456  0.1297 -0.3175
 3120SOL     OW20995   0.079   2.213   6.294  0.1551 -0.2914 -0.0773
 3120SOL    HW120996   0.015   2.277   6.323  0.9969 -0.2238  1.6561
 3120SOL    HW220997   0.114   2.261   6.219  0.0221 -0.9522 -0.5641
 3121SOL     OW20998   3.744   0.046   2.174 -0.3493  0.1064  0.0452
 3121SOL    HW120999   3.797   0.113   2.131  1.0320  0.2663  1.9615
 3121SOL    HW221000   3.817   4.726   2.185 -0.9221 -1.0762 -2.7629
 3122SOL     OW21001   1.527   4.337  14.895  0.0027 -0.0726  0.7860
 3122SOL    HW121002   1.514   4.417  14.946  2.2840  0.2878  0.8033
 3122SOL    HW221003   1.446   4.339  14.845 -0.9328  0.5519  2.3043
 3123SOL     OW21004   4.154   3.452   5.106 -0.3968  0.7247  0.3012
 3123SOL    HW121005   4.173   3.359   5.122  0.3839  0.7511 -0.4511
 3123SOL    HW221006   4.158   3.470   5.012 -0.1447  1.0332  0.3738
 3124SOL     OW21007   2.354   1.976   2.302 -1.0427 -0.7747  0.4160
 3124SOL    HW121008   2.423   2.040   2.322 -2.2642  1.0685 -1.3380
 3124SOL    HW221009   2.406   1.900   2.280 -0.0358  0.6119 -1.9558
 3125SOL     OW21010   3.430   1.832   9.864 -0.0118 -0.5707 -0.4538
 3125SOL    HW121011   3.396   1.771   9.798  1.0851 -1.6670 -0.0169
 3125SOL    HW221012   3.491   1.769   9.903  0.1249  0.5410  1.1099
 3126SOL     OW21013   2.277   3.032   2.780  0.2112 -0.2631  0.3169
 3126SOL    HW121014   2.346   2.965   2.775 -0.4293 -0.9037  0.0375
 3126SOL    HW221015   2.304   3.078   2.860 -0.2507 -2.9438  2.0130
 3127SOL     OW21016   2.828   0.499   6.795  0.0487  0.3702  0.1903
 3127SOL    HW121017   2.799   0.424   6.742  0.3237  0.8847 -0.6889
 3127SOL    HW221018   2.789   0.572   6.747  1.4605 -0.0483 -1.6269
 3128SOL     OW21019   2.185   0.348   7.696 -0.4941 -0.2712 -0.4612
 3128SOL    HW121020   2.208   0.441   7.693 -0.7680 -0.1922 -0.0534
 3128SOL    HW221021   2.200   0.320   7.606  0.0082  1.5675 -0.9466
 3129SOL     OW21022   0.629   2.927  16.111  0.5725 -0.1394  0.0625
 3129SOL    HW121023   0.540   2.919  16.146  0.6957  0.2838  0.4781
 3129SOL    HW221024   0.662   2.993  16.172  1.2229 -0.5833  0.1971
 3130SOL     OW21025   0.004   2.949   5.884  0.2047 -0.0501 -0.0083
 3130SOL    HW121026   4.657   2.952   5.846 -0.4310 -2.1851  1.3199
 3130SOL    HW221027   0.003   3.001   5.964  2.3203  0.3181 -0.2157
 3131SOL     OW21028   0.602   4.105   4.147 -0.0370  0.3989 -0.1582
 3131SOL    HW121029   0.672   4.047   4.119 -1.5480 -0.6208 -1.8159
 3131SOL    HW221030   0.549   4.040   4.192  0.4806 -0.9496 -1.5043
 3132SOL     OW21031   1.934   0.170  16.034 -0.1781 -0.3708 -0.8378
 3132SOL    HW121032   1.925   0.252  15.985  4.8548 -0.7545 -2.3691
 3132SOL    HW221033   2.018   0.144  15.997 -0.1035 -0.7696 -0.3931
 3133SOL     OW21034   4.579   0.348  16.292  0.3835  0.7060 -0.2458
 3133SOL    HW121035   4.578   0.441  16.270  0.6414  0.0513 -2.9985
 3133SOL    HW221036   4.602   0.347  16.385  1.3437 -2.9358 -0.5521
 3134SOL     OW21037   2.536   0.244  16.404  0.5432 -0.2155  0.4664
 3134SOL    HW121038   2.529   0.274  16.494 -0.7390 -2.1264  1.0028
 3134SOL    HW221039   2.471   0.301  16.362  1.3447  0.8789  0.7099
 3135SOL     OW21040   2.003   2.072   7.429 -0.4779 -0.0050  0.5492
 3135SOL    HW121041   1.997   2.083   7.524 -1.3387  0.3890  0.4541
 3135SOL    HW221042   1.922   2.103   7.389 -0.1487 -0.0687 -0.1694
 3136SOL     OW21043   2.987   1.798   5.779 -0.7408  0.3504  0.0039
 3136SOL    HW121044   3.021   1.810   5.690 -0.8149 -0.5877 -0.1443
 3136SOL    HW221045   2.968   1.705   5.786  0.2585  0.0755 -1.0185
 3137SOL     OW21046   1.798   0.711   3.239  0.1592 -0.2722 -0.5502
 3137SOL    HW121047   1.777   0.618   3.242 -1.6286  0.1302 -0.7012
 3137SOL    HW221048   1.736   0.751   3.178  1.6506  0.3810 -1.6415
 3138SOL     OW21049   2.702   2.957   8.416  0.3801  0.2350 -0.0264
 3138SOL    HW121050   2.668   2.997   8.336 -0.9029 -2.2620 -0.7247
 3138SOL    HW221051   2.683   3.021   8.485  0.6982  0.0536  0.2289
 3139SOL     OW21052   0.448   3.613   6.905 -0.0956 -0.2149 -0.0429
 3139SOL    HW121053   0.419   3.700   6.933 -0.4605 -0.5052  0.4695
 3139SOL    HW221054   0.539   3.629   6.879 -0.8436  0.2035 -2.4434
 3140SOL     OW21055   3.321   0.990   3.642  0.6892 -0.4677 -1.0695
 3140SOL    HW121056   3.270   0.933   3.585 -0.2870  0.2162 -0.8848
 3140SOL    HW221057   3.252   1.035   3.691  0.1624 -0.6667 -1.6360
 3141SOL     OW21058   3.205   3.056   6.010  0.0769  0.0902  0.1220
 3141SOL    HW121059   3.296   3.068   6.035  0.5319 -0.4121 -1.3193
 3141SOL    HW221060   3.181   2.987   6.071  1.7656  2.0500  3.0025
 3142SOL     OW21061   1.912   3.861   6.388  0.3720  0.5203  0.1513
 3142SOL    HW121062   1.928   3.950   6.419  0.6780  0.6349 -0.3326
 3142SOL    HW221063   1.997   3.818   6.398 -0.1343 -0.4567  0.2572
 3143SOL     OW21064   4.301   2.228   1.401 -0.3468  0.6356  0.2540
 3143SOL    HW121065   4.333   2.140   1.422  0.4899  0.3426 -2.2321
 3143SOL    HW221066   4.233   2.216   1.334 -0.6036  0.9764  0.4527
 3144SOL     OW21067   1.423   2.291   8.640  0.1613  0.4255  0.1122
 3144SOL    HW121068   1.503   2.245   8.613 -0.0702 -0.5630  1.1280
 3144SOL    HW221069   1.352   2.250   8.591  0.9434 -0.6598 -0.1140
 3145SOL     OW21070   0.717   0.475   2.544 -0.0539  0.6161  0.4124
 3145SOL    HW121071   0.772   0.488   2.466 -2.7955 -2.4457 -2.0200
 3145SOL    HW221072   0.772   0.518   2.610  0.0910  1.1558 -0.0636
 3146SOL     OW21073   0.383   4.668   8.223  0.4882  0.0394  0.1781
 3146SOL    HW121074   0.309   4.729   8.227 -1.4193 -2.2818  0.5418
 3146SOL    HW221075   0.346   4.588   8.187  1.5310  0.2854 -1.4167
 3147SOL     OW21076   0.201   0.909   4.327 -0.7822  0.3435  0.4746
 3147SOL    HW121077   0.170   0.914   4.237 -0.6926 -0.5748  0.3960
 3147SOL    HW221078   0.132   0.963   4.364 -0.3346 -0.5255  2.5666
 3148SOL     OW21079   4.378   4.424   3.776 -0.5280 -0.4688 -0.1722
 3148SOL    HW121080   4.331   4.426   3.693 -0.3455 -1.9537 -0.3170
 3148SOL    HW221081   4.315   4.382   3.835  0.7762  0.7494  2.0910
 3149SOL     OW21082   4.448   3.389   0.110 -0.3324  0.1739 -0.0504
 3149SOL    HW121083   4.355   3.395   0.132 -0.8849 -2.2285 -1.6763
 3149SOL    HW221084   4.487   3.441   0.181  3.0903 -1.1131 -0.9634
 3150SOL     OW21085   4.151   4.340   2.132 -0.1908  0.1634  0.1583
 3150SOL    HW121086   4.124   4.254   2.164 -0.8217  0.1326 -0.4451
 3150SOL    HW221087   4.085   4.341   2.062  0.5471  2.4112 -0.5179
 3151SOL     OW21088   2.312   1.132   8.324 -0.4066  0.2484  0.1836
 3151SOL    HW121089   2.250   1.127   8.251  0.4084  0.0925 -0.5004
 3151SOL    HW221090   2.369   1.063   8.289  0.4334  1.5554 -1.0425
 3152SOL     OW21091   3.436   4.112   6.466 -0.0484 -0.4252 -0.1645
 3152SOL    HW121092   3.465   4.027   6.500 -1.3793 -1.4549 -1.5854
 3152SOL    HW221093   3.341   4.102   6.473  0.0441 -0.5608  0.9065
 3153SOL     OW21094   4.276   0.624   6.745 -0.0927  0.2266  0.4335
 3153SOL    HW121095   4.343   0.693   6.742  0.3898 -0.2200  1.1027
 3153SOL    HW221096   4.315   0.582   6.821  0.7572  1.7447  0.8473
 3154SOL     OW21097   3.949   2.214  10.541 -0.1401  0.1858  0.2916
 3154SOL    HW121098   3.888   2.147  10.573  0.0126  0.0506  0.2960
 3154SOL    HW221099   3.887   2.282  10.514 -0.2326 -0.5002 -1.1767
 3155SOL     OW21100   1.255   0.435   5.918  0.6670  0.3296  0.0643
 3155SOL    HW121101   1.219   0.465   5.835 -2.0742  1.2875  1.6242
 3155SOL    HW221102   1.264   0.341   5.901  1.5974  0.4684 -0.2540
 3156SOL     OW21103   0.859   0.764   4.764  0.2302 -0.2732 -0.3152
 3156SOL    HW121104   0.947   0.801   4.774  0.3698 -0.9373  0.8708
 3156SOL    HW221105   0.859   0.693   4.827  2.3962  0.0093  0.0248
 3157SOL     OW21106   3.955   0.370   6.147 -0.3336 -0.2640  0.2232
 3157SOL    HW121107   3.935   0.435   6.215  1.1279 -0.4219  0.7970
 3157SOL    HW221108   3.867   0.336   6.132 -0.5793  0.4633 -0.0326
 3158SOL     OW21109   3.592   4.148   0.849  0.3166 -0.4383 -0.3365
 3158SOL    HW121110   3.559   4.061   0.827 -1.6436  0.3987 -0.6872
 3158SOL    HW221111   3.677   4.143   0.806 -0.2841  0.8907 -1.6645
 3159SOL     OW21112   3.254   2.966   8.868 -0.2648 -0.2316  0.1909
 3159SOL    HW121113   3.192   2.898   8.892  0.5140 -1.5471 -1.5357
 3159SOL    HW221114   3.242   3.020   8.946  1.0503  0.3207  0.0226
 3160SOL     OW21115   3.931   3.249   1.323  0.2745 -0.0391  0.6078
 3160SOL    HW121116   3.915   3.313   1.254  3.0045 -0.9320 -0.8235
 3160SOL    HW221117   4.026   3.244   1.322  0.1536 -2.2389  0.1790
 3161SOL     OW21118   2.771   4.673   1.891  0.0516  0.2257 -0.3667
 3161SOL    HW121119   2.756   4.601   1.829 -0.3705 -1.2667  1.4669
 3161SOL    HW221120   2.853   4.652   1.934  0.1000  2.3536  0.5861
 3162SOL     OW21121   2.131   1.793   7.219 -0.4500 -0.0988 -0.1796
 3162SOL    HW121122   2.181   1.717   7.247  1.5133  0.8203 -1.1766
 3162SOL    HW221123   2.177   1.866   7.260 -0.2823  0.8335 -2.0085
 3163SOL     OW21124   4.719   2.421   2.578  0.2030  0.0978 -0.1710
 3163SOL    HW121125   0.042   2.370   2.527  0.0948  0.1546 -0.3629
 3163SOL    HW221126   4.681   2.348   2.628  0.8417  1.5293  2.3591
 3164SOL     OW21127   2.715   0.827  17.300 -0.6952  0.6469 -0.0627
 3164SOL    HW121128   2.716   0.922  17.293  2.6050  0.6156 -0.0378
 3164SOL    HW221129   2.779   0.815  17.230 -0.8852 -0.7848  0.0150
 3165SOL     OW21130   4.477   0.268   9.737  0.1967 -0.0849 -0.4672
 3165SOL    HW121131   4.556   0.273   9.790  1.2508 -0.5138 -1.9772
 3165SOL    HW221132   4.410   0.258   9.805  0.2543  0.6958 -0.2946
 3166SOL     OW21133   3.534   0.280   6.434 -0.1981  0.8396 -0.2207
 3166SOL    HW121134   3.589   0.214   6.475  0.5226  1.8535  0.4537
 3166SOL    HW221135   3.531   0.352   6.497  0.6427  0.3460  0.3896
 3167SOL     OW21136   3.808   4.156   4.551  0.0318  0.4398 -1.1911
 3167SOL    HW121137   3.726   4.186   4.513 -0.4969 -0.2258 -0.5747
 3167SOL    HW221138   3.863   4.230   4.524  0.3551  0.7999  0.4462
 3168SOL     OW21139   1.925   3.565   4.768 -0.2797  0.0690  0.1714
 3168SOL    HW121140   2.010   3.598   4.739 -0.9519  1.1825 -0.5236
 3168SOL    HW221141   1.916   3.626   4.841 -2.5709  1.7046 -1.5021
 3169SOL     OW21142   4.436   2.064   6.984 -0.4790  0.0683 -0.3160
 3169SOL    HW121143   4.387   2.030   7.059  1.2355 -2.1306 -0.2023
 3169SOL    HW221144   4.430   1.993   6.920  1.7986 -1.4888  1.2215
 3170SOL     OW21145   1.910   3.773   5.598  0.1362 -0.6738 -0.2535
 3170SOL    HW121146   1.886   3.796   5.508 -0.2910 -0.4094 -0.0736
 3170SOL    HW221147   1.884   3.852   5.645 -0.3688 -1.5621  0.9668
 3171SOL     OW21148   4.579   4.101  16.011 -0.1868  0.2746  0.6001
 3171SOL    HW121149   4.516   4.141  15.951  1.6597  1.9213 -0.2082
 3171SOL    HW221150   4.601   4.178  16.064 -0.7852  0.4969  0.5298
 3172SOL     OW21151   4.252   0.596  12.617 -0.0727 -0.1409 -0.6897
 3172SOL    HW121152   4.331   0.545  12.601  1.6284  1.9498  0.9099
 3172SOL    HW221153   4.234   0.613  12.525 -3.9813  4.7027  0.9549
 3173SOL     OW21154   0.540   2.645  13.714  0.1265  0.0587  0.0555
 3173SOL    HW121155   0.499   2.602  13.789  0.0204 -1.1553 -0.6993
 3173SOL    HW221156   0.568   2.566  13.668 -0.9981  1.4085 -3.0350
 3174SOL     OW21157   1.778   1.580   1.029  0.1834  0.4298 -0.9699
 3174SOL    HW121158   1.771   1.668   0.992  0.6562  0.6816 -0.4652
 3174SOL    HW221159   1.727   1.598   1.108  2.0443  0.7105  0.1716
 3175SOL     OW21160   0.271   2.230   4.926 -0.2988  0.2386 -0.1824
 3175SOL    HW121161   0.295   2.190   4.843 -0.5501 -0.1294 -0.0761
 3175SOL    HW221162   0.326   2.308   4.936  1.7381 -1.2706  0.6053
 3176SOL     OW21163   1.589   0.523   4.534 -0.4845  0.1160  0.2329
 3176SOL    HW121164   1.533   0.525   4.456  2.4917  1.5180 -1.8387
 3176SOL    HW221165   1.646   0.600   4.528 -2.7407  1.7175 -0.6864
 3177SOL     OW21166   0.576   4.670   5.011  0.1907 -0.4598 -0.3551
 3177SOL    HW121167   0.487   4.689   5.041 -0.9847 -1.2602 -3.3325
 3177SOL    HW221168   0.571   4.578   4.985 -0.1038 -0.6957  0.5499
 3178SOL     OW21169   2.019   4.159   7.057  0.0494  0.0450  0.6338
 3178SOL    HW121170   2.030   4.126   7.146 -1.5090 -0.1356  0.7702
 3178SOL    HW221171   1.943   4.218   7.063  0.5251  0.6390  0.7920
 3179SOL     OW21172   2.732   1.430   4.162 -0.5429  0.8371 -0.2393
 3179SOL    HW121173   2.760   1.376   4.088 -0.5663 -1.7535  1.6936
 3179SOL    HW221174   2.796   1.409   4.230  1.0347  3.2075 -0.9710
 3180SOL     OW21175   0.551   2.714   9.149 -0.9837  0.9206  0.2042
 3180SOL    HW121176   0.487   2.756   9.206 -1.4452  1.4167 -0.6762
 3180SOL    HW221177   0.502   2.655   9.092  0.7877 -0.8270  0.4722
 3181SOL     OW21178   0.810   2.102   3.156  0.3147 -0.2888  0.2548
 3181SOL    HW121179   0.803   2.194   3.131  1.7422 -0.4264 -0.6526
 3181SOL    HW221180   0.802   2.107   3.251  0.9170  1.6327  0.1877
 3182SOL     OW21181   0.364   3.794   3.187  0.4630 -0.5108 -0.7285
 3182SOL    HW121182   0.411   3.718   3.152  2.9407  0.2102  1.0998
 3182SOL    HW221183   0.277   3.764   3.161 -0.0320 -1.2798  1.8814
 3183SOL     OW21184   2.920   4.146  14.217 -0.2883  0.4042  0.0749
 3183SOL    HW121185   2.844   4.202  14.236 -0.0391 -0.1445  2.6960
 3183SOL    HW221186   2.929   4.081  14.287  0.1229 -0.8708 -1.1743
 3184SOL     OW21187   2.587   1.641   6.937  0.3829  0.4986  0.8091
 3184SOL    HW121188   2.552   1.730   6.931 -1.6852 -0.3191  0.7703
 3184SOL    HW221189   2.532   1.607   6.866  0.3139  1.7817  0.2535
 3185SOL     OW21190   3.855   4.003   0.644 -0.1119  0.8849  0.6061
 3185SOL    HW121191   3.778   4.046   0.605  1.7120  2.5742 -1.1335
 3185SOL    HW221192   3.858   4.049   0.728  3.0397  0.0074  0.9468
 3186SOL     OW21193   3.574   1.614   9.594 -0.1427 -0.0750 -0.3273
 3186SOL    HW121194   3.626   1.595   9.516 -0.4048 -0.2407 -0.4577
 3186SOL    HW221195   3.495   1.649   9.554  0.1839  1.3130  0.2326
 3187SOL     OW21196   3.273   0.232   4.641  0.1898  0.0899 -0.5620
 3187SOL    HW121197   3.246   0.145   4.669  2.0151 -1.1017 -2.5198
 3187SOL    HW221198   3.244   0.292   4.709 -0.7627 -1.9221  0.8061
 3188SOL     OW21199   2.957   2.596  15.245 -0.1777 -0.0326  0.1047
 3188SOL    HW121200   3.004   2.668  15.286  0.0300 -0.3066  0.3487
 3188SOL    HW221201   3.006   2.590  15.163 -1.3040 -1.0413 -0.5054
 3189SOL     OW21202   0.932   1.788  13.930  0.4359  0.5820 -0.2184
 3189SOL    HW121203   0.884   1.721  13.881  1.4493  0.2354 -0.7622
 3189SOL    HW221204   0.865   1.854  13.943 -1.8265 -2.3920  2.9114
 3190SOL     OW21205   4.495   1.565   4.515  0.2169  1.0210 -0.7061
 3190SOL    HW121206   4.509   1.472   4.532 -2.8125  0.2603 -2.4531
 3190SOL    HW221207   4.403   1.560   4.541  0.6824  1.9829  1.1787
 3191SOL     OW21208   0.647   3.458   2.751 -0.0865  0.4072  0.3914
 3191SOL    HW121209   0.553   3.465   2.764 -0.0794 -0.0201  0.7110
 3191SOL    HW221210   0.681   3.439   2.839 -1.3291 -1.1742  0.5303
 3192SOL     OW21211   4.134   1.540   7.794 -0.4991 -0.1335  0.0946
 3192SOL    HW121212   4.080   1.465   7.772 -0.1974 -0.1025 -0.7340
 3192SOL    HW221213   4.226   1.520   7.775 -0.1402  0.7000  0.9156
 3193SOL     OW21214   3.578   0.878   7.865  0.1949 -0.5201 -0.1293
 3193SOL    HW121215   3.533   0.794   7.863 -0.0488 -0.4930  3.5891
 3193SOL    HW221216   3.528   0.920   7.795  0.0828 -0.5470 -0.0662
 3194SOL     OW21217   3.079   2.475   8.991 -0.8822 -0.0860  1.0454
 3194SOL    HW121218   3.073   2.379   8.993 -0.4316 -0.1394 -0.6781
 3194SOL    HW221219   3.137   2.478   9.068 -2.5694  1.3235  2.2449
 3195SOL     OW21220   0.661   1.847   5.477  0.2593 -0.0481  0.1179
 3195SOL    HW121221   0.623   1.906   5.542  0.0915  0.5557 -0.5356
 3195SOL    HW221222   0.601   1.774   5.492  1.4439 -0.5563  2.4820
 3196SOL     OW21223   4.498   1.689   3.170 -0.1843 -0.0251 -0.0850
 3196SOL    HW121224   4.525   1.621   3.232 -2.2348 -2.4781 -1.8861
 3196SOL    HW221225   4.567   1.688   3.104  1.7759 -0.0334  1.9759
 3197SOL     OW21226   3.933   1.514   8.795  0.0599 -0.8024 -0.1946
 3197SOL    HW121227   4.021   1.548   8.776  0.0101 -0.3837  0.3028
 3197SOL    HW221228   3.910   1.564   8.874 -1.5385  0.7404 -1.6361
 3198SOL     OW21229   3.707   4.614   5.424  0.0733 -0.3463 -0.2529
 3198SOL    HW121230   3.754   4.571   5.496 -0.7594 -2.2550 -0.8382
 3198SOL    HW221231   3.708   4.706   5.448 -1.4132 -0.2333 -0.6538
 3199SOL     OW21232   2.040   0.431   1.840  0.4378  0.7201  0.1265
 3199SOL    HW121233   2.061   0.524   1.839 -0.4556  0.9014 -1.2801
 3199SOL    HW221234   1.954   0.434   1.882  0.3916 -0.3037  0.1053
 3200SOL     OW21235   4.484   3.283   9.404  0.6345 -0.4435 -0.3841
 3200SOL    HW121236   4.553   3.252   9.463  0.5573 -0.6216 -0.3883
 3200SOL    HW221237   4.488   3.372   9.441  3.2803 -0.5032 -0.4970
 3201SOL     OW21238   2.368   3.304   6.128  0.2749 -0.4914  0.1599
 3201SOL    HW121239   2.369   3.340   6.216  1.2673  0.2346 -0.1477
 3201SOL    HW221240   2.287   3.254   6.123  0.1654 -0.4655  1.6682
 3202SOL     OW21241   4.039   4.731   2.396  0.4602 -0.1699 -0.2699
 3202SOL    HW121242   4.059   0.003   2.489 -0.9033 -1.2760  0.1757
 3202SOL    HW221243   4.127   0.009   2.362  1.1002  0.1475  1.5923
 3203SOL     OW21244   2.452   2.780   2.058  0.3908  0.0757  0.0968
 3203SOL    HW121245   2.420   2.698   2.019 -1.2092  0.0744  1.4173
 3203SOL    HW221246   2.545   2.773   2.039  0.6256  1.6081  0.7348
 3204SOL     OW21247   3.156   2.571   4.509  0.1522  0.8301 -0.5329
 3204SOL    HW121248   3.068   2.609   4.516 -0.7065 -1.0041 -1.2203
 3204SOL    HW221249   3.189   2.622   4.435 -1.1247  1.6520 -0.5455
 3205SOL     OW21250   4.709   0.173   8.042  0.1656 -0.6303  0.0976
 3205SOL    HW121251   4.679   0.087   8.013  0.5984 -0.5798 -0.5049
 3205SOL    HW221252   4.641   0.197   8.105 -0.6382  4.4047 -2.6122
 3206SOL     OW21253   2.707   0.626   5.989  0.7407 -0.0711 -0.3188
 3206SOL    HW121254   2.755   0.545   6.007  1.1787  0.0207 -1.0747
 3206SOL    HW221255   2.717   0.678   6.069 -1.8401 -1.8115  1.1478
 3207SOL     OW21256   0.240   2.918   7.046 -0.5730 -0.1393 -0.3866
 3207SOL    HW121257   0.264   2.906   6.954  0.9269  2.1662 -0.2851
 3207SOL    HW221258   0.294   2.992   7.073  0.1787 -1.1032  0.7546
 3208SOL     OW21259   2.213   0.311  13.741  0.2254 -0.3005 -0.0907
 3208SOL    HW121260   2.227   0.278  13.653 -0.2736 -0.2516 -0.1913
 3208SOL    HW221261   2.301   0.334  13.770 -0.1363  0.5017  0.3542
 3209SOL     OW21262   3.408   3.900   8.276 -0.0545 -0.1778  0.1192
 3209SOL    HW121263   3.483   3.868   8.326  0.4835 -1.1742 -1.3549
 3209SOL    HW221264   3.420   3.994   8.262 -2.1134  0.1831  0.7521
 3210SOL     OW21265   0.253   4.154   4.235  0.6526 -0.2495  0.3652
 3210SOL    HW121266   0.307   4.076   4.223  0.8095 -0.0034 -0.5390
 3210SOL    HW221267   0.303   4.214   4.290 -2.4067  1.1615  1.6278
 3211SOL     OW21268   4.281   3.242  16.700 -0.1235  0.6837  0.7126
 3211SOL    HW121269   4.344   3.311  16.681 -2.0829  1.5241 -2.7176
 3211SOL    HW221270   4.228   3.274  16.773 -1.0417 -0.5756  0.5987
 3212SOL     OW21271   0.782   1.509  15.999  0.3132 -0.1039  0.0238
 3212SOL    HW121272   0.866   1.551  15.980 -1.3507  3.1562  0.0229
 3212SOL    HW221273   0.816   1.433  16.047  0.8234 -0.1561 -0.4183
 3213SOL     OW21274   3.011   2.105   8.885  0.4973 -0.4654 -0.0915
 3213SOL    HW121275   3.016   2.042   8.957  0.0089  0.3894  0.6847
 3213SOL    HW221276   2.953   2.165   8.932 -1.7343 -2.2909 -0.5115
 3214SOL     OW21277   4.281   1.319   8.506 -0.0932 -0.0624  0.4231
 3214SOL    HW121278   4.364   1.360   8.482  0.7280 -2.9700 -1.6310
 3214SOL    HW221279   4.286   1.320   8.602 -1.8781 -1.0518  0.5295
 3215SOL     OW21280   2.532   4.472   3.383 -0.1199  0.6026 -0.3130
 3215SOL    HW121281   2.602   4.536   3.397  0.9385 -0.7822  0.6372
 3215SOL    HW221282   2.541   4.443   3.292  1.0390 -0.7901  0.2532
 3216SOL     OW21283   0.028   1.227   4.693  0.4385  0.1709  0.2764
 3216SOL    HW121284   0.051   1.175   4.770 -0.4209  1.4397  1.3867
 3216SOL    HW221285   0.038   1.317   4.724  0.5910  0.0781  0.5018
 3217SOL     OW21286   1.189   0.123   2.282 -0.4705 -0.0937 -0.4519
 3217SOL    HW121287   1.185   0.042   2.334  0.0929  1.3109  1.7658
 3217SOL    HW221288   1.236   0.178   2.344 -0.6923 -0.4318  0.0168
 3218SOL     OW21289   1.485   2.910   1.666 -0.5495  0.2715  0.4942
 3218SOL    HW121290   1.471   2.881   1.756  0.1479  1.7055  1.0649
 3218SOL    HW221291   1.392   2.906   1.644 -0.8868 -0.9230  2.1222
 3219SOL     OW21292   1.475   2.022  16.123  0.1319 -0.0975 -0.6841
 3219SOL    HW121293   1.415   2.036  16.050 -0.3754 -2.2141 -0.6782
 3219SOL    HW221294   1.449   2.090  16.185  0.1268 -0.0512 -0.7374
 3220SOL     OW21295   0.960   2.311   5.198  0.1087 -0.2180 -0.0878
 3220SOL    HW121296   0.965   2.235   5.255 -0.4064  1.4388  2.1630
 3220SOL    HW221297   1.050   2.337   5.179  0.6580  0.6746  3.7922
 3221SOL     OW21298   1.560   2.227  16.627 -0.2134 -0.6666 -0.0108
 3221SOL    HW121299   1.519   2.239  16.713  0.7592 -2.1254  0.6620
 3221SOL    HW221300   1.630   2.292  16.643 -2.0570  1.4571 -0.5470
 3222SOL     OW21301   2.803   3.831   7.231  0.3131 -0.1978  0.0300
 3222SOL    HW121302   2.811   3.767   7.302 -2.7006  0.4203  0.9209
 3222SOL    HW221303   2.746   3.898   7.269  0.0779 -0.3702 -0.0170
 3223SOL     OW21304   2.560   4.494   1.812  0.5198  0.1032  0.4594
 3223SOL    HW121305   2.626   4.479   1.744  1.2164  3.1106  0.4735
 3223SOL    HW221306   2.558   4.402   1.839  0.1735  0.1245  0.5027
 3224SOL     OW21307   3.674   0.569   2.124  0.2187  0.1630  0.7519
 3224SOL    HW121308   3.755   0.539   2.084  2.1633  3.5058  2.1582
 3224SOL    HW221309   3.647   0.640   2.066 -2.1496 -1.6379 -0.3428
 3225SOL     OW21310   4.048   0.426   7.548  0.2597 -0.3335 -0.2599
 3225SOL    HW121311   4.010   0.395   7.631  1.2090  0.3417  0.4333
 3225SOL    HW221312   4.107   0.493   7.583  1.0330 -0.9581 -0.3458
 3226SOL     OW21313   3.270   2.398   8.619 -0.1195  0.4164  0.2307
 3226SOL    HW121314   3.206   2.457   8.659  0.8527  1.3258  0.4410
 3226SOL    HW221315   3.290   2.339   8.691 -0.2030  1.0728  0.7886
 3227SOL     OW21316   1.540   3.743   7.015 -0.2393  0.6289  0.0401
 3227SOL    HW121317   1.496   3.712   7.094 -0.2785 -0.1196 -0.2758
 3227SOL    HW221318   1.633   3.737   7.038 -0.0459  0.7753 -0.6839
 3228SOL     OW21319   1.764   4.209   6.397  0.1848  0.4478 -0.7616
 3228SOL    HW121320   1.848   4.198   6.442 -0.7657 -1.2893  0.5821
 3228SOL    HW221321   1.698   4.184   6.462  0.0301 -1.7726 -1.7501
 3229SOL     OW21322   0.179   2.570   5.824 -0.4880  0.1324 -0.2647
 3229SOL    HW121323   0.163   2.602   5.735 -2.0337 -1.8494 -0.6948
 3229SOL    HW221324   0.181   2.475   5.813  2.8568  0.3005 -1.0794
 3230SOL     OW21325   0.549   1.303  14.731  0.3481  0.4352  0.0316
 3230SOL    HW121326   0.515   1.281  14.644  0.7284 -0.4178  0.0989
 3230SOL    HW221327   0.515   1.392  14.745  0.0750  0.4509 -0.6848
 3231SOL     OW21328   4.250   1.488   3.648  0.1851 -0.2256  0.2901
 3231SOL    HW121329   4.267   1.400   3.683 -1.8528 -0.4711  0.6482
 3231SOL    HW221330   4.275   1.473   3.556  0.5078  2.9840 -0.1297
 3232SOL     OW21331   2.696   4.709   5.262 -1.1497  0.6352  0.2238
 3232SOL    HW121332   2.733   0.057   5.260 -0.1608  0.2043 -0.9373
 3232SOL    HW221333   2.643   4.707   5.182 -1.0189 -1.6228  0.1870
 3233SOL     OW21334   1.916   2.535   2.990  0.0994  0.5523 -0.0838
 3233SOL    HW121335   1.998   2.530   2.941  0.3549  0.5461  0.3390
 3233SOL    HW221336   1.916   2.455   3.044  0.6285 -1.2748 -2.7864
 3234SOL     OW21337   4.297   4.487  12.617 -0.2717 -0.6222 -0.2351
 3234SOL    HW121338   4.314   4.414  12.677  0.0596  0.1179  0.5902
 3234SOL    HW221339   4.330   4.449  12.536 -0.9648 -1.1202 -0.2814
 3235SOL     OW21340   3.447   1.964   1.504 -0.6839 -0.1128  0.2626
 3235SOL    HW121341   3.380   1.944   1.569 -1.9274 -0.4029 -1.1202
 3235SOL    HW221342   3.398   2.028   1.453 -0.3835 -0.6365 -0.6970
 3236SOL     OW21343   4.005   4.456   7.147 -0.4334 -0.3010  0.4991
 3236SOL    HW121344   3.955   4.515   7.204  2.9245  2.6491  0.3561
 3236SOL    HW221345   3.932   4.397   7.125 -0.6300 -0.3528  1.2629
 3237SOL     OW21346   2.462   1.855  15.824 -0.5371 -0.6940 -0.2304
 3237SOL    HW121347   2.459   1.929  15.884 -1.3769 -1.9133  1.2022
 3237SOL    HW221348   2.508   1.893  15.748  1.4696 -0.0577  1.3006
 3238SOL     OW21349   0.407   0.570   6.601 -0.1412 -0.2462  0.2032
 3238SOL    HW121350   0.378   0.657   6.628 -0.7072 -0.1937 -0.5794
 3238SOL    HW221351   0.491   0.578   6.646 -0.2443  0.4335  0.2677
 3239SOL     OW21352   1.375   3.088   9.618 -0.1522  0.0376 -0.7262
 3239SOL    HW121353   1.377   3.161   9.556  0.0115  0.7746  0.1565
 3239SOL    HW221354   1.287   3.052   9.605 -0.5131  0.4059  0.7574
 3240SOL     OW21355   0.403   1.477   4.494  0.8226  0.0932 -0.6888
 3240SOL    HW121356   0.392   1.436   4.408 -1.4854 -1.6182  0.4180
 3240SOL    HW221357   0.390   1.400   4.549 -2.6363  0.2579 -1.2512
 3241SOL     OW21358   1.874   0.517  12.404 -0.5745 -0.0507  0.0379
 3241SOL    HW121359   1.789   0.478  12.383 -1.0773 -0.0006  1.9024
 3241SOL    HW221360   1.919   0.449  12.454 -0.7825 -1.5720 -1.8709
 3242SOL     OW21361   0.743   2.225   4.517  0.5963  0.1335 -0.8022
 3242SOL    HW121362   0.719   2.138   4.485 -2.5845  0.9565 -0.6331
 3242SOL    HW221363   0.721   2.215   4.609 -0.1588 -0.2518 -1.0233
 3243SOL     OW21364   3.020   0.161   5.425 -0.2471  0.6140  0.0274
 3243SOL    HW121365   2.989   0.215   5.497  2.6090  1.1843  0.8217
 3243SOL    HW221366   3.043   0.078   5.466  3.7873  1.4080 -0.6015
 3244SOL     OW21367   0.756   0.227   7.233 -0.3271  0.4386 -0.1103
 3244SOL    HW121368   0.680   0.171   7.251  1.0661 -1.3880  0.0346
 3244SOL    HW221369   0.748   0.237   7.138  0.6278 -0.4907 -0.2868
 3245SOL     OW21370   2.718   1.035   4.931  0.5431  0.2276  0.0278
 3245SOL    HW121371   2.667   1.115   4.943  0.4327  0.2506 -0.5983
 3245SOL    HW221372   2.797   1.073   4.969 -1.0762  3.4272  0.2042
 3246SOL     OW21373   1.260   3.466  17.490 -0.0316  0.6478  0.5049
 3246SOL    HW121374   1.173   3.467  17.450  1.3672  2.4923 -2.5359
 3246SOL    HW221375   1.319   3.499  17.422 -0.3665 -0.8732 -0.5228
 3247SOL     OW21376   3.091   4.079   1.062  0.0876 -0.1182 -0.1229
 3247SOL    HW121377   3.164   4.071   1.000  0.5801  1.9802  0.1739
 3247SOL    HW221378   3.085   4.174   1.047  0.4460 -0.1060 -0.2099
 3248SOL     OW21379   3.163   0.059   5.143  0.2119  0.3869  0.0113
 3248SOL    HW121380   3.132   0.103   5.223 -1.5512  2.1302 -1.6440
 3248SOL    HW221381   3.242   0.106   5.116 -0.8116  0.2062 -3.2713
 3249SOL     OW21382   1.312   1.300   3.044 -0.1103 -0.2847 -0.0817
 3249SOL    HW121383   1.249   1.254   3.100 -0.4842  0.1449 -0.1425
 3249SOL    HW221384   1.337   1.220   2.997  0.5808 -0.6484  0.9255
 3250SOL     OW21385   1.947   4.029   9.137 -0.0347 -0.0522 -0.1692
 3250SOL    HW121386   2.037   4.050   9.112 -0.5598  0.7476 -1.4241
 3250SOL    HW221387   1.902   4.114   9.142  0.6413  0.3119 -0.1923
 3251SOL     OW21388   4.192   0.049   2.641 -0.5060 -0.1397 -0.7137
 3251SOL    HW121389   4.284   0.060   2.616 -0.4401  0.9489  0.0168
 3251SOL    HW221390   4.186   4.715   2.700 -3.0460  0.7894  0.1950
 3252SOL     OW21391   3.612   1.090  15.122  0.0028  0.5728 -0.2322
 3252SOL    HW121392   3.614   1.040  15.040 -0.0704  0.8677 -0.4177
 3252SOL    HW221393   3.658   1.031  15.181  0.8275  2.9204  1.4541
 3253SOL     OW21394   1.330   2.416   8.989 -0.0313 -0.3438 -0.4020
 3253SOL    HW121395   1.305   2.486   8.928  0.6337 -0.2308 -0.5418
 3253SOL    HW221396   1.395   2.382   8.928  0.4645  0.1352 -0.1456
 3254SOL     OW21397   2.966   0.304   2.521 -0.1742 -0.3403  0.5982
 3254SOL    HW121398   2.981   0.332   2.430 -1.4534  0.6914  0.7106
 3254SOL    HW221399   2.891   0.359   2.543  0.2688  0.3541  0.3630
 3255SOL     OW21400   1.400   1.736   2.409 -0.1417 -0.0564 -0.4709
 3255SOL    HW121401   1.462   1.731   2.337  0.5999  1.0269  0.0819
 3255SOL    HW221402   1.365   1.647   2.403 -2.1328  0.8644 -2.5397
 3256SOL     OW21403   2.253   4.410   6.779  0.0563  0.1120 -0.0111
 3256SOL    HW121404   2.219   4.340   6.723  0.4956 -1.2415  1.3964
 3256SOL    HW221405   2.348   4.396   6.779  0.0166 -0.1528 -0.9456
 3257SOL     OW21406   0.370   2.623   6.823  0.3559  0.8712 -0.4473
 3257SOL    HW121407   0.282   2.626   6.784  1.8769  0.5951 -3.9254
 3257SOL    HW221408   0.391   2.532   6.804 -1.4063  0.0523  1.6050
 3258SOL     OW21409   2.180   4.604  14.821 -0.2587 -0.3474  0.3816
 3258SOL    HW121410   2.274   4.595  14.805 -0.4795  1.3476 -1.8710
 3258SOL    HW221411   2.165   4.696  14.801  1.6365 -0.4984 -1.8022
 3259SOL     OW21412   2.239   0.338   5.884  0.1260  0.2284 -0.0328
 3259SOL    HW121413   2.214   0.431   5.889  0.1213  0.2239  0.0212
 3259SOL    HW221414   2.157   0.293   5.900  0.8138 -0.2507  2.0351
 3260SOL     OW21415   2.199   3.553   5.036  0.2815 -0.1166 -0.5774
 3260SOL    HW121416   2.255   3.476   5.040 -0.3796 -0.5312  0.6255
 3260SOL    HW221417   2.207   3.585   4.946 -0.4464  1.4632 -0.0738
 3261SOL     OW21418   4.297   2.102   6.166  0.0351 -0.4448 -0.5145
 3261SOL    HW121419   4.318   2.188   6.128  0.5991 -0.5899 -0.5316
 3261SOL    HW221420   4.297   2.045   6.089  3.4900 -0.9618 -0.1340
 3262SOL     OW21421   0.557   2.199   2.714 -0.0456 -0.5766  0.0964
 3262SOL    HW121422   0.501   2.182   2.790  0.8851 -1.7457  0.5281
 3262SOL    HW221423   0.645   2.208   2.751 -0.1282  0.2928  0.0818
 3263SOL     OW21424   0.340   4.393  12.069 -0.0847  0.3186 -0.5092
 3263SOL    HW121425   0.379   4.342  12.140 -0.9916 -3.1116 -2.4792
 3263SOL    HW221426   0.366   4.483  12.086  4.1892 -0.7935 -0.9754
 3264SOL     OW21427   1.902   0.820  11.154 -0.1094 -0.3227  0.1628
 3264SOL    HW121428   1.877   0.850  11.242  0.7358 -1.0948  0.6612
 3264SOL    HW221429   1.993   0.847  11.149 -0.4805  1.1340  1.0792
 3265SOL     OW21430   0.332   0.240   8.454 -0.3078  0.6015 -0.4465
 3265SOL    HW121431   0.373   0.321   8.484  2.7158 -1.2592  0.4032
 3265SOL    HW221432   0.243   0.272   8.439 -1.4183 -1.9338  0.7344
 3266SOL     OW21433   1.022   2.610  12.491  0.0460  0.0250 -0.0886
 3266SOL    HW121434   1.113   2.627  12.516 -0.2278 -1.6442  1.9772
 3266SOL    HW221435   1.035   2.525  12.449 -2.0547 -0.6841  0.6991
 3267SOL     OW21436   4.087   3.139  13.558  0.2754  0.1430  0.2886
 3267SOL    HW121437   4.125   3.167  13.641  3.4170  0.1644 -1.1565
 3267SOL    HW221438   4.084   3.044  13.575  1.2109  0.3388  1.6095
 3268SOL     OW21439   1.695   3.202   4.527  0.0744  0.3293  0.1693
 3268SOL    HW121440   1.631   3.189   4.457  1.9287 -1.8520 -1.1328
 3268SOL    HW221441   1.778   3.212   4.479  0.1071  1.4437  0.4706
 3269SOL     OW21442   2.865   1.400  10.400  0.2423  0.0313 -0.0927
 3269SOL    HW121443   2.861   1.414  10.494  1.6936  0.8854 -0.1530
 3269SOL    HW221444   2.807   1.325  10.386  0.5146  0.2281 -2.4244
 3270SOL     OW21445   2.287   4.055  16.980 -0.2009 -0.3269  0.1982
 3270SOL    HW121446   2.310   3.962  16.984  1.1319  0.0050  0.1618
 3270SOL    HW221447   2.308   4.086  17.068  1.8483 -0.2330 -0.3248
 3271SOL     OW21448   0.701   1.316   0.880 -0.4162  0.2012  0.6605
 3271SOL    HW121449   0.633   1.351   0.822 -2.8181 -2.8480  1.6727
 3271SOL    HW221450   0.757   1.267   0.819  2.6282  2.1417  1.8879
 3272SOL     OW21451   0.635   1.482   1.957  0.1410 -0.1643 -0.3175
 3272SOL    HW121452   0.716   1.455   1.914 -0.3584 -1.2567 -0.5601
 3272SOL    HW221453   0.611   1.564   1.912  1.1492  0.7252  0.7960
 3273SOL     OW21454   3.746   3.088   3.463 -0.1605 -0.4066  0.2904
 3273SOL    HW121455   3.693   3.009   3.467  0.6015 -0.9633 -0.7491
 3273SOL    HW221456   3.828   3.052   3.498  0.9172 -0.3568 -2.1681
 3274SOL     OW21457   3.860   3.977  16.552  0.0092  0.2483  0.1671
 3274SOL    HW121458   3.834   3.885  16.553 -0.8992  0.4831 -2.2292
 3274SOL    HW221459   3.846   3.999  16.644 -1.4692 -0.2723  0.0671
 3275SOL     OW21460   1.617   2.149   4.130 -0.3141 -0.1834  0.7638
 3275SOL    HW121461   1.671   2.081   4.089 -0.1756 -1.3509  2.8715
 3275SOL    HW221462   1.580   2.195   4.054  0.7945 -0.4567  0.0573
 3276SOL     OW21463   0.167   1.128   2.298  0.4791  0.1906 -0.1639
 3276SOL    HW121464   0.112   1.157   2.226  2.8975  3.2816 -0.7611
 3276SOL    HW221465   0.178   1.216   2.333 -2.3658  0.3175  0.3767
 3277SOL     OW21466   2.257   1.947   9.165 -0.2977  0.2794  0.1040
 3277SOL    HW121467   2.291   1.881   9.104 -1.5628 -1.0670  0.8775
 3277SOL    HW221468   2.336   2.000   9.177 -2.0405  2.4851  1.6703
 3278SOL     OW21469   4.080   0.363   1.851 -0.1785  0.1557 -0.0663
 3278SOL    HW121470   4.052   0.355   1.760  0.5855 -1.5115 -0.1738
 3278SOL    HW221471   4.171   0.390   1.834  0.5373 -0.6936  2.4103
 3279SOL     OW21472   1.619   2.306   3.693 -0.0277  0.3667  0.0220
 3279SOL    HW121473   1.571   2.267   3.620  0.4806  0.6382 -0.4539
 3279SOL    HW221474   1.680   2.239   3.724 -0.6236 -1.1991 -2.2047
 3280SOL     OW21475   1.790   3.282   3.025 -0.0428 -0.1445  0.6068
 3280SOL    HW121476   1.766   3.359   2.974  0.4657 -0.5038 -0.1887
 3280SOL    HW221477   1.882   3.269   2.999 -0.5853  0.5365 -1.6176
 3281SOL     OW21478   0.048   3.484   7.920  0.1468  0.0283 -0.2280
 3281SOL    HW121479   0.062   3.396   7.952 -1.6062 -0.0760  0.2288
 3281SOL    HW221480   0.121   3.527   7.964  0.1189 -2.9656  2.7262
 3282SOL     OW21481   3.933   4.086   4.284 -0.3949 -0.0447 -0.4877
 3282SOL    HW121482   3.980   4.137   4.349  2.1538  2.3593 -4.2271
 3282SOL    HW221483   3.861   4.063   4.342  0.2095  1.3336  0.8193
 3283SOL     OW21484   3.777   3.604  10.691  0.4353  0.1345 -0.4817
 3283SOL    HW121485   3.838   3.582  10.621  0.5552 -1.3701  0.1014
 3283SOL    HW221486   3.833   3.644  10.757 -0.4753 -0.2748  0.5486
 3284SOL     OW21487   3.159   0.439  12.078  0.6039 -0.2490  0.3912
 3284SOL    HW121488   3.096   0.389  12.131  0.0176  0.9167  0.7942
 3284SOL    HW221489   3.098   0.506  12.046  1.4386 -0.0875 -0.8573
 3285SOL     OW21490   2.361   4.155   7.911 -0.1294 -0.0357 -0.0057
 3285SOL    HW121491   2.432   4.156   7.847  1.5004  0.3939  1.8225
 3285SOL    HW221492   2.410   4.171   7.991 -1.2300  2.7690  0.1124
 3286SOL     OW21493   1.983   3.989  16.529  0.3944  0.4865  0.0273
 3286SOL    HW121494   2.047   3.996  16.599  0.0021 -3.1955  0.7629
 3286SOL    HW221495   1.977   4.076  16.490  1.5882  0.5931  0.0919
 3287SOL     OW21496   1.602   1.871  16.593  0.4195  0.0700  0.2903
 3287SOL    HW121497   1.633   1.920  16.516  0.5676  1.3199  1.1390
 3287SOL    HW221498   1.634   1.922  16.667 -2.5015  2.1562  0.1518
 3288SOL     OW21499   4.058   1.091   8.674 -0.2736  0.7708  0.0451
 3288SOL    HW121500   3.988   1.122   8.731 -0.9164 -1.2211  0.3624
 3288SOL    HW221501   4.137   1.107   8.727  0.1155  3.0841 -1.2610
 3289SOL     OW21502   0.919   3.401   0.817 -0.9264 -0.3866  0.0758
 3289SOL    HW121503   0.958   3.489   0.819 -0.9962 -0.3257 -1.5616
 3289SOL    HW221504   0.830   3.425   0.843 -1.0527  1.5157 -2.1445
 3290SOL     OW21505   1.232   2.038   6.462 -0.1718  0.7522  0.3536
 3290SOL    HW121506   1.141   2.041   6.433  0.1004  1.5460 -0.4088
 3290SOL    HW221507   1.245   1.945   6.447 -1.1180  0.5966  0.5293
 3291SOL     OW21508   1.558   1.258   8.986  0.0252 -0.7222  0.2048
 3291SOL    HW121509   1.501   1.244   8.911 -1.0498  1.6722  0.5669
 3291SOL    HW221510   1.588   1.168   8.997 -2.8990 -1.9886 -2.3397
 3292SOL     OW21511   3.088   3.131   3.900 -0.1609  0.3330  0.2139
 3292SOL    HW121512   3.078   3.193   3.972 -2.3100 -1.0668  1.1107
 3292SOL    HW221513   3.022   3.170   3.844  0.7129  1.1287 -0.2632
 3293SOL     OW21514   0.676   3.409   1.266 -0.1728 -0.5039 -0.4096
 3293SOL    HW121515   0.737   3.365   1.207  1.0954  2.0030 -0.9444
 3293SOL    HW221516   0.713   3.497   1.260 -2.7721  0.3878 -2.7748
 3294SOL     OW21517   3.539   1.265  12.712 -0.2514 -0.4323 -0.2104
 3294SOL    HW121518   3.580   1.253  12.798  0.5719 -1.7721 -0.7909
 3294SOL    HW221519   3.503   1.351  12.732 -2.3925 -1.7252  1.6502
 3295SOL     OW21520   4.672   1.317   9.796  0.0341  0.3886 -0.4154
 3295SOL    HW121521   4.691   1.368   9.876  0.0264  1.2333 -0.9484
 3295SOL    HW221522   4.661   1.391   9.735 -1.0814  1.0196  0.5411
 3296SOL     OW21523   3.295   2.949   7.254  0.1918 -0.3933  0.2008
 3296SOL    HW121524   3.200   2.939   7.261  0.0482  2.1896  1.6724
 3296SOL    HW221525   3.315   2.866   7.298  1.9462  0.0825  0.2737
 3297SOL     OW21526   1.806   3.357   8.747  0.2863  0.2945 -0.4609
 3297SOL    HW121527   1.847   3.300   8.682  1.3146 -1.0374  1.3365
 3297SOL    HW221528   1.784   3.294   8.815  0.9403  0.4165 -0.1367
 3298SOL     OW21529   1.354   0.339   5.584 -0.6068  0.0739  0.6486
 3298SOL    HW121530   1.288   0.403   5.612  0.2234  0.8775  0.7698
 3298SOL    HW221531   1.431   0.395   5.580 -1.1468  0.8677  1.4311
 3299SOL     OW21532   3.587   4.232   4.423  0.7578  0.2180 -0.6128
 3299SOL    HW121533   3.538   4.162   4.379 -0.4363 -0.9452  2.4738
 3299SOL    HW221534   3.565   4.313   4.379 -0.9492  0.4138  0.5907
 3300SOL     OW21535   3.813   3.519   6.044  0.6400 -0.0546  0.7047
 3300SOL    HW121536   3.871   3.540   5.970 -0.4361  0.3379 -0.0261
 3300SOL    HW221537   3.812   3.425   6.030  0.5603  0.5345 -3.3161
 3301SOL     OW21538   0.128   4.077   9.088 -0.4097  0.2878  0.2017
 3301SOL    HW121539   0.106   4.171   9.090  0.6692  0.5217  0.6911
 3301SOL    HW221540   0.128   4.061   9.182 -0.9575  2.3209  0.5467
 3302SOL     OW21541   1.726   3.251   9.292  0.3808  0.3751 -0.1442
 3302SOL    HW121542   1.772   3.168   9.284 -0.4803 -0.3695  2.6791
 3302SOL    HW221543   1.709   3.287   9.205  1.5388  2.8926  0.6666
 3303SOL     OW21544   2.534   3.788   7.804 -0.7600  0.3708  0.4629
 3303SOL    HW121545   2.480   3.786   7.884  0.1051 -2.1405  1.0119
 3303SOL    HW221546   2.615   3.747   7.835 -1.3933  0.1061  1.7925
 3304SOL     OW21547   3.908   3.635  12.805 -0.8386 -0.6882  0.0255
 3304SOL    HW121548   3.877   3.710  12.754 -0.9005  0.6847  2.0583
 3304SOL    HW221549   3.851   3.612  12.878 -1.2537  1.1553  0.2863
 3305SOL     OW21550   3.923   4.101   8.494 -0.2990  0.2465 -0.4933
 3305SOL    HW121551   4.003   4.111   8.443 -1.5323 -0.9638 -2.6613
 3305SOL    HW221552   3.913   4.007   8.507  3.3599 -0.0349  0.0670
 3306SOL     OW21553   1.528   4.460   2.761 -0.2522  0.2301 -0.1415
 3306SOL    HW121554   1.618   4.446   2.733 -0.7880  0.9054 -2.2390
 3306SOL    HW221555   1.529   4.456   2.857  1.9676 -2.4884 -0.2764
 3307SOL     OW21556   0.806   1.876   7.275  0.0287 -0.5323  0.0518
 3307SOL    HW121557   0.737   1.820   7.239  2.9383 -3.5047 -0.9097
 3307SOL    HW221558   0.761   1.960   7.263 -0.2576 -0.3664  2.3170
 3308SOL     OW21559   0.452   1.192  17.660 -0.4069 -0.3898  0.1825
 3308SOL    HW121560   0.538   1.235  17.664  0.1393 -1.3680 -1.1971
 3308SOL    HW221561   0.476   1.112  17.708 -0.9739 -1.7443 -1.8245
 3309SOL     OW21562   4.649   2.051   3.512  0.5230 -0.5263  0.1524
 3309SOL    HW121563   4.664   1.983   3.578  1.7893 -1.5257 -1.1366
 3309SOL    HW221564   4.597   2.000   3.449  1.1229 -1.3218  0.2968
 3310SOL     OW21565   3.630   2.634   1.943  0.5950  0.2127  0.2363
 3310SOL    HW121566   3.625   2.665   2.034  0.4135 -0.7170  0.5461
 3310SOL    HW221567   3.618   2.719   1.901 -0.2853  0.8254  1.7016
 3311SOL     OW21568   1.789   0.031  11.599 -0.2419 -0.2285 -0.5001
 3311SOL    HW121569   1.738   0.109  11.619  0.9564  0.2227  0.8256
 3311SOL    HW221570   1.714   4.732  11.555 -0.9129 -0.8375  1.2200
 3312SOL     OW21571   4.354   2.346   8.771  0.7310  0.3170  0.4014
 3312SOL    HW121572   4.341   2.438   8.794 -2.8062  0.3713 -1.7986
 3312SOL    HW221573   4.449   2.338   8.765  0.8999  0.6504  2.7752
 3313SOL     OW21574   1.962   2.713   2.346  0.2566 -0.7776 -0.0633
 3313SOL    HW121575   1.966   2.759   2.262  0.9032 -0.4261  0.1571
 3313SOL    HW221576   1.970   2.621   2.323  1.4093 -0.5637 -0.5227
 3314SOL     OW21577   2.372   1.057   9.136  0.4847  0.1598 -0.1744
 3314SOL    HW121578   2.443   0.999   9.161  1.3553  0.6075 -1.5977
 3314SOL    HW221579   2.387   1.068   9.042 -0.2255 -1.3142 -0.4509
 3315SOL     OW21580   0.163   2.940   3.583  0.1686 -0.2354 -0.1731
 3315SOL    HW121581   0.147   2.860   3.532  1.9353 -0.2416 -0.7295
 3315SOL    HW221582   0.220   2.994   3.528 -1.1972  1.1797 -0.1842
 3316SOL     OW21583   1.473   1.498   4.511 -0.1325  0.5366 -0.5150
 3316SOL    HW121584   1.455   1.406   4.529  0.3757  0.1915 -1.7305
 3316SOL    HW221585   1.463   1.548   4.592 -1.3340 -0.3564 -0.1018
 3317SOL     OW21586   0.591   0.653   7.109 -0.4920 -0.0820  0.6176
 3317SOL    HW121587   0.537   0.575   7.124 -1.7570  0.9391  1.3396
 3317SOL    HW221588   0.527   0.720   7.131 -0.5241 -0.4931  1.7635
 3318SOL     OW21589   4.581   2.420  10.192 -0.2475  0.2175  0.1015
 3318SOL    HW121590   4.650   2.467  10.238  0.2382 -0.8632  0.4886
 3318SOL    HW221591   4.559   2.342  10.243 -2.1958  0.9152  0.3274
 3319SOL     OW21592   1.178   3.974  17.070  0.1157  0.1737 -0.1766
 3319SOL    HW121593   1.125   3.973  17.150  0.9003  2.9569  0.3742
 3319SOL    HW221594   1.131   3.915  17.011  0.4321 -0.1719 -0.0814
 3320SOL     OW21595   3.378   2.155   0.217  0.3832 -0.3759  0.3716
 3320SOL    HW121596   3.442   2.170   0.148 -0.3648  2.7639  0.3446
 3320SOL    HW221597   3.404   2.065   0.237 -0.7357 -0.4671  1.4283
 3321SOL     OW21598   0.795   4.538   9.090  0.4666 -0.1697 -0.1364
 3321SOL    HW121599   0.761   4.594   9.019  0.1631  1.7008  1.4644
 3321SOL    HW221600   0.742   4.461   9.070  0.5032  0.0709 -1.1866
 3322SOL     OW21601   2.977   1.358   0.643  0.1087 -0.6369 -0.2291
 3322SOL    HW121602   2.950   1.448   0.626 -1.5674 -1.3461 -1.2742
 3322SOL    HW221603   3.048   1.352   0.579 -1.3718 -2.1760 -1.7108
 3323SOL     OW21604   3.974   2.036  12.040  0.1353  0.2793  0.7343
 3323SOL    HW121605   3.888   2.005  12.068  0.3135  0.7815  1.8455
 3323SOL    HW221606   3.965   2.130  12.030  0.9338  0.2470 -0.3117
 3324SOL     OW21607   3.422   0.636   8.089 -0.3908  0.2471  0.2837
 3324SOL    HW121608   3.440   0.547   8.122 -0.2929  0.5874  1.1530
 3324SOL    HW221609   3.491   0.690   8.127 -0.2245  0.2791 -0.0652
 3325SOL     OW21610   1.916   0.353  16.994  0.0992 -0.4157  0.5365
 3325SOL    HW121611   1.976   0.307  16.935 -0.7709 -1.1826  0.2415
 3325SOL    HW221612   1.985   0.368  17.058  0.5817  2.5716 -0.6553
 3326SOL     OW21613   1.775   2.058   9.099  0.2696  0.0262 -0.7642
 3326SOL    HW121614   1.862   2.045   9.062  0.7299  0.6697  0.0849
 3326SOL    HW221615   1.790   2.141   9.144 -0.3901 -0.0907 -0.3271
 3327SOL     OW21616   4.238   3.224   4.605 -0.3269  0.0440  0.6019
 3327SOL    HW121617   4.250   3.170   4.527  1.6441  0.8865  0.3368
 3327SOL    HW221618   4.165   3.283   4.586  0.2957  0.1458 -1.5170
 3328SOL     OW21619   4.327   1.234   8.776 -0.7306  0.3981  0.2175
 3328SOL    HW121620   4.307   1.244   8.869  1.0913 -0.7989  0.7512
 3328SOL    HW221621   4.401   1.173   8.781 -2.3421 -1.4293  1.6346
 3329SOL     OW21622   1.483   1.029   1.392  0.1257 -0.3667 -0.0368
 3329SOL    HW121623   1.566   1.043   1.439  0.1551  2.1578 -0.8286
 3329SOL    HW221624   1.520   0.981   1.318 -0.8047  1.3566 -1.6187
 3330SOL     OW21625   2.563   2.331   6.156 -0.0440  0.0213 -0.5936
 3330SOL    HW121626   2.630   2.323   6.088  1.2825  0.4072  0.6716
 3330SOL    HW221627   2.498   2.268   6.127 -0.3367  0.1185 -0.1522
 3331SOL     OW21628   3.690   2.757   2.771 -0.4868  0.3706  0.1842
 3331SOL    HW121629   3.753   2.687   2.755  1.0871  1.8216  0.0371
 3331SOL    HW221630   3.616   2.742   2.712  0.8791  1.5221 -1.8568
 3332SOL     OW21631   4.171   4.662   8.184 -0.4345  0.0745  0.0280
 3332SOL    HW121632   4.149   4.692   8.272  1.4636 -1.3404  0.9853
 3332SOL    HW221633   4.252   4.713   8.173 -0.0530 -0.4464  0.4361
 3333SOL     OW21634   3.952   0.179   2.078  0.2591 -0.3454  0.0141
 3333SOL    HW121635   3.976   0.225   1.997  0.8752 -0.0212  0.3712
 3333SOL    HW221636   4.014   0.214   2.143  0.7213 -0.6226 -0.2744
 3334SOL     OW21637   2.680   4.399   2.133 -0.0941 -0.1541 -0.1158
 3334SOL    HW121638   2.673   4.341   2.057  2.1148 -2.4155  1.4029
 3334SOL    HW221639   2.617   4.469   2.116  0.1335 -0.4769 -2.2654
 3335SOL     OW21640   4.442   2.360   5.491  0.0274  0.7136  0.2002
 3335SOL    HW121641   4.517   2.420   5.502 -0.3763  1.0036  1.3353
 3335SOL    HW221642   4.444   2.340   5.397  3.0345 -0.9237  0.5940
 3336SOL     OW21643   1.508   2.850  16.875  0.4144 -0.4950 -0.2202
 3336SOL    HW121644   1.576   2.895  16.924  0.3490  0.7079 -1.2189
 3336SOL    HW221645   1.432   2.830  16.929 -0.2217  0.2210 -0.8541
 3337SOL     OW21646   2.344   0.573   0.931 -0.3432 -0.2924  0.4911
 3337SOL    HW121647   2.301   0.489   0.943 -1.0068  0.2624  1.9813
 3337SOL    HW221648   2.271   0.620   0.891 -0.1386 -1.3201 -1.0747
 3338SOL     OW21649   2.273   2.049   0.620  1.4873  0.4402  0.3907
 3338SOL    HW121650   2.261   2.110   0.693 -0.1123 -2.7506  2.7725
 3338SOL    HW221651   2.273   1.969   0.673  1.8137 -0.3182 -0.7647
 3339SOL     OW21652   4.361   0.571   7.917 -0.9086 -0.0421 -0.2866
 3339SOL    HW121653   4.358   0.649   7.973 -0.1608  0.5322 -1.0425
 3339SOL    HW221654   4.455   0.557   7.905 -1.2603 -2.3334 -0.2823
 3340SOL     OW21655   3.805   3.639   3.453 -0.0003 -0.2088 -0.2702
 3340SOL    HW121656   3.874   3.574   3.443  0.0713 -0.1207 -0.3473
 3340SOL    HW221657   3.747   3.592   3.392 -1.8153  0.6879  0.7661
 3341SOL     OW21658   1.782   0.303   4.141 -0.6356  0.0327  0.0178
 3341SOL    HW121659   1.714   0.364   4.169  0.2211  1.0840 -0.1585
 3341SOL    HW221660   1.789   0.251   4.220 -0.0820 -0.8108 -0.5829
 3342SOL     OW21661   3.027   1.541  17.452 -0.1918  0.0436  0.0420
 3342SOL    HW121662   2.970   1.616  17.435  0.9882  0.5395 -1.6634
 3342SOL    HW221663   3.005   1.533  17.545  0.3802 -3.0487 -0.1028
 3343SOL     OW21664   3.754   2.033   4.453 -0.2350  0.4119 -0.0174
 3343SOL    HW121665   3.692   1.961   4.465  2.0904 -1.4346  0.9598
 3343SOL    HW221666   3.799   2.000   4.375 -1.1492  0.2430 -0.4667
 3344SOL     OW21667   0.451   0.990   4.412 -0.4671  0.0875  1.0437
 3344SOL    HW121668   0.463   0.906   4.457 -1.0244 -1.3326 -1.4670
 3344SOL    HW221669   0.364   0.972   4.377 -0.5747  2.7191 -0.0322
 3345SOL     OW21670   4.154   1.798  13.957  0.0002 -0.0106  0.1397
 3345SOL    HW121671   4.207   1.721  13.936 -3.0314 -0.9949 -3.7720
 3345SOL    HW221672   4.087   1.752  14.007  0.4553 -2.3335 -1.3733
 3346SOL     OW21673   2.100   2.076   7.707  0.3237 -0.0913  0.5117
 3346SOL    HW121674   2.195   2.081   7.704  0.2061  0.3649 -2.6784
 3346SOL    HW221675   2.092   2.164   7.743 -0.8053  0.8056 -1.8844
 3347SOL     OW21676   4.032   4.304   4.156 -0.9762 -0.5002 -0.2671
 3347SOL    HW121677   3.960   4.339   4.103 -0.4889  2.1112  0.7790
 3347SOL    HW221678   3.990   4.225   4.190 -0.3014 -0.2514  1.1463
 3348SOL     OW21679   3.401   3.767   2.785 -0.5721  0.1101  0.5438
 3348SOL    HW121680   3.491   3.763   2.818 -0.5801 -2.2000  0.3001
 3348SOL    HW221681   3.348   3.746   2.862  0.5059 -0.6643  1.0761
 3349SOL     OW21682   0.729   1.179  16.941 -0.1463 -0.3732  0.2299
 3349SOL    HW121683   0.665   1.198  17.009 -0.0418  1.1448 -0.1049
 3349SOL    HW221684   0.814   1.193  16.982 -0.7018  1.2876  0.8110
 3350SOL     OW21685   1.567   0.659  16.216  0.1667 -0.2199 -0.9532
 3350SOL    HW121686   1.507   0.591  16.245 -0.7818  1.0596  0.0821
 3350SOL    HW221687   1.549   0.649  16.123  0.2701 -2.2590 -0.7434
 3351SOL     OW21688   1.027   3.903   5.698  0.0370 -0.0249 -0.1249
 3351SOL    HW121689   1.116   3.902   5.663  0.9551 -1.5736  2.2628
 3351SOL    HW221690   1.044   3.918   5.791  0.2051 -0.0289 -0.1553
 3352SOL     OW21691   1.595   3.458   7.566 -0.6483  0.2196 -0.6361
 3352SOL    HW121692   1.642   3.384   7.526 -1.5333 -1.7965  2.0642
 3352SOL    HW221693   1.670   3.518   7.565 -0.4927  0.0157 -1.2815
 3353SOL     OW21694   2.333   3.245   0.776 -0.4154  0.5141  0.1627
 3353SOL    HW121695   2.238   3.244   0.769 -0.4188 -0.8478  0.3782
 3353SOL    HW221696   2.365   3.186   0.708  0.4785  0.7705  0.3525
 3354SOL     OW21697   3.512   3.413   2.705  0.5674  0.0665 -0.4257
 3354SOL    HW121698   3.480   3.348   2.642  0.4360  0.4256 -0.7235
 3354SOL    HW221699   3.441   3.418   2.770 -0.7478 -0.9031 -1.7618
 3355SOL     OW21700   4.293   2.207   1.673  0.5993 -0.6556  0.0066
 3355SOL    HW121701   4.296   2.214   1.578 -2.0340  1.7686  0.1056
 3355SOL    HW221702   4.300   2.302   1.686  1.8262 -0.5443 -1.5264
 3356SOL     OW21703   3.492   1.098   2.715 -0.0216 -0.6349 -0.0116
 3356SOL    HW121704   3.585   1.116   2.702 -0.1796  0.2335  0.0927
 3356SOL    HW221705   3.494   1.010   2.676 -0.4576 -0.4655 -0.4093
 3357SOL     OW21706   2.513   0.852   6.609 -0.5604 -0.9219 -0.1822
 3357SOL    HW121707   2.521   0.921   6.675  1.0268 -1.2709 -0.0107
 3357SOL    HW221708   2.540   0.906   6.535 -0.2314  0.1164  0.6865
 3358SOL     OW21709   2.755   0.800  12.666  0.1246  0.1287 -0.4758
 3358SOL    HW121710   2.711   0.829  12.747  1.6006 -0.4634  0.5269
 3358SOL    HW221711   2.691   0.833  12.602  0.2127 -0.8484 -1.0612
 3359SOL     OW21712   1.181   1.598   7.618 -1.1841  0.3317 -0.2245
 3359SOL    HW121713   1.097   1.581   7.577 -2.0709 -0.1126  1.7608
 3359SOL    HW221714   1.192   1.542   7.696 -1.1102 -2.5950 -2.3259
 3360SOL     OW21715   1.111   0.142   6.440 -0.3408  0.1695 -0.1137
 3360SOL    HW121716   1.066   0.223   6.463 -0.1000 -0.2003  1.6503
 3360SOL    HW221717   1.066   0.082   6.500 -0.9826  0.9451  0.1818
 3361SOL     OW21718   2.140   1.527   2.759  0.3091 -0.0968  0.1987
 3361SOL    HW121719   2.133   1.609   2.711  0.5143  1.4632  2.8552
 3361SOL    HW221720   2.073   1.476   2.713 -0.5273  0.8008  0.4340
 3362SOL     OW21721   3.207   0.943   7.878  0.2131  0.2273 -0.0385
 3362SOL    HW121722   3.257   0.878   7.927 -0.3073  1.4723  2.1624
 3362SOL    HW221723   3.212   0.901   7.792  2.4624 -0.3537  0.3743
 3363SOL     OW21724   2.096   4.123   9.831 -0.0263  0.2271 -0.0926
 3363SOL    HW121725   2.026   4.101   9.893  0.6141 -1.1986  0.1191
 3363SOL    HW221726   2.174   4.084   9.870  0.2764  1.1106  0.1898
 3364SOL     OW21727   1.724   3.831   6.750  0.0549  0.4755 -0.1490
 3364SOL    HW121728   1.646   3.862   6.796 -0.8161 -1.3775 -0.4068
 3364SOL    HW221729   1.752   3.766   6.814  0.0375  0.3221 -0.3003
 3365SOL     OW21730   3.413   0.499   2.049 -0.7231 -0.4411  0.1273
 3365SOL    HW121731   3.347   0.567   2.040  0.1328  0.7150  2.5622
 3365SOL    HW221732   3.495   0.547   2.062 -1.6033  1.6707 -2.2816
 3366SOL     OW21733   0.424   3.214   4.365 -0.1440 -0.2778 -0.8592
 3366SOL    HW121734   0.438   3.140   4.424  0.4507 -0.2403 -0.9519
 3366SOL    HW221735   0.488   3.278   4.398  1.4242 -1.9361 -0.6746
 3367SOL     OW21736   1.914   1.867   6.362 -0.3996 -0.1175 -0.3134
 3367SOL    HW121737   1.937   1.790   6.414 -0.2469  0.4223  0.4171
 3367SOL    HW221738   1.996   1.915   6.355 -0.0295 -0.6876  0.1670
 3368SOL     OW21739   4.465   0.975  10.719 -0.6167  0.1361 -0.1773
 3368SOL    HW121740   4.485   0.922  10.642 -1.0558 -1.0272  0.5214
 3368SOL    HW221741   4.458   0.914  10.792  0.5911  0.9415  0.6144
 3369SOL     OW21742   4.241   0.109   1.692 -0.6261  0.1418 -0.2993
 3369SOL    HW121743   4.312   0.161   1.655  0.4820 -0.3858  1.0898
 3369SOL    HW221744   4.169   0.131   1.633 -0.2121 -4.4523 -2.5731
 3370SOL     OW21745   3.220   1.590   1.656  0.4696 -0.5069 -0.0703
 3370SOL    HW121746   3.247   1.680   1.636 -1.6079  0.0325 -0.5458
 3370SOL    HW221747   3.272   1.586   1.735  1.0513 -2.2084 -0.5384
 3371SOL     OW21748   4.196   2.602  10.185 -0.6955  0.2973  0.2659
 3371SOL    HW121749   4.271   2.564  10.139  1.4743  2.0122  2.4066
 3371SOL    HW221750   4.222   2.581  10.275  1.9606  0.9154 -0.3559
 3372SOL     OW21751   1.701   2.655   8.266 -0.4489 -0.1761 -0.3937
 3372SOL    HW121752   1.607   2.666   8.249 -0.5503 -0.1896  0.1624
 3372SOL    HW221753   1.708   2.565   8.296  1.3130 -0.9287 -3.0921
 3373SOL     OW21754   1.261   4.019   4.239 -0.1152 -0.3797 -0.3831
 3373SOL    HW121755   1.239   4.053   4.152  0.6294  0.6307 -0.1841
 3373SOL    HW221756   1.357   4.015   4.241 -0.0301  1.7732  0.6808
 3374SOL     OW21757   4.411   0.775   3.622  0.1760 -0.7027  0.0799
 3374SOL    HW121758   4.451   0.859   3.601 -0.1965 -0.7620 -0.8468
 3374SOL    HW221759   4.372   0.751   3.538 -0.6488  0.7416  0.0468
 3375SOL     OW21760   0.826   4.237  12.434 -1.1232 -0.5975 -0.3029
 3375SOL    HW121761   0.822   4.275  12.346 -0.3919  0.4081  0.0948
 3375SOL    HW221762   0.734   4.213  12.441 -1.2099 -0.1617  0.0371
 3376SOL     OW21763   4.221   1.302   2.799 -0.0493  0.0371  0.0066
 3376SOL    HW121764   4.315   1.299   2.815 -0.5774  0.0176  3.0534
 3376SOL    HW221765   4.209   1.255   2.716 -1.4658 -0.5615  0.5475
 3377SOL     OW21766   1.659   1.047   7.806 -0.1822 -0.2471  0.2887
 3377SOL    HW121767   1.738   0.993   7.800  0.4847  1.0078 -2.1754
 3377SOL    HW221768   1.628   1.029   7.895 -0.0583 -0.6715  0.2467
 3378SOL     OW21769   3.971   3.831   7.923  0.1971 -0.4168  0.1912
 3378SOL    HW121770   3.992   3.852   8.014  2.6283 -1.7306 -0.0890
 3378SOL    HW221771   4.044   3.862   7.870 -0.1932  0.4431  0.1545
 3379SOL     OW21772   3.393   2.695   3.532  0.5040 -0.2708  0.2009
 3379SOL    HW121773   3.316   2.639   3.530  0.4813 -0.2510  0.5271
 3379SOL    HW221774   3.413   2.715   3.623  4.3749  1.5619 -1.0444
 3380SOL     OW21775   0.929   4.553   3.155 -0.4129 -0.4185 -0.1569
 3380SOL    HW121776   0.950   4.639   3.117 -0.8121  0.9937  2.7878
 3380SOL    HW221777   0.985   4.495   3.104  1.2701  0.3763  0.7900
 3381SOL     OW21778   0.917   1.302   1.846  0.4767 -0.3575  0.1209
 3381SOL    HW121779   0.904   1.300   1.751 -0.3934 -3.4099  0.3151
 3381SOL    HW221780   1.008   1.331   1.854 -0.5009  1.9288  2.5347
 3382SOL     OW21781   3.055   0.986   9.584 -0.4158 -0.1813 -0.3156
 3382SOL    HW121782   2.976   1.037   9.567 -0.6339 -1.3583 -2.8849
 3382SOL    HW221783   3.090   1.033   9.659 -0.3431 -1.6969  0.5956
 3383SOL     OW21784   1.931   2.669   5.304 -0.4292 -0.2018  0.3594
 3383SOL    HW121785   1.999   2.694   5.241  0.4529 -1.1165  0.9348
 3383SOL    HW221786   1.875   2.744   5.286  0.6934  0.8669  1.3443
 3384SOL     OW21787   0.915   0.165   5.158  0.0444  0.2866  0.2714
 3384SOL    HW121788   0.856   0.118   5.217  1.4439  1.0417  2.2570
 3384SOL    HW221789   0.924   0.100   5.089 -0.4055  0.1685  0.3249
 3385SOL     OW21790   1.562   2.518   6.164  0.2873  0.3246 -0.1805
 3385SOL    HW121791   1.547   2.509   6.070  0.8018 -2.4325  0.0196
 3385SOL    HW221792   1.494   2.583   6.183  2.0225  2.5163 -1.5304
 3386SOL     OW21793   0.095   2.469   6.985 -0.3244 -0.0040 -0.2689
 3386SOL    HW121794   0.003   2.488   6.966 -0.6308 -1.5372 -0.3709
 3386SOL    HW221795   0.101   2.383   6.942 -0.3156  0.3378 -0.9460
 3387SOL     OW21796   0.253   0.445   4.458  0.0063  0.4766 -0.0881
 3387SOL    HW121797   0.304   0.376   4.416  1.3034  1.0305  0.5598
 3387SOL    HW221798   0.168   0.404   4.447  0.1938 -0.0046  0.2670
 3388SOL     OW21799   3.066   2.412   8.031 -0.3070  0.0163  0.2344
 3388SOL    HW121800   3.080   2.443   8.121 -1.3423  1.2532 -0.0233
 3388SOL    HW221801   3.153   2.386   7.999 -0.2268 -0.6814  1.0317
 3389SOL     OW21802   4.041   1.495   6.203  0.0856  0.3376  0.0592
 3389SOL    HW121803   4.083   1.410   6.192  0.1808  0.3360  0.4528
 3389SOL    HW221804   4.059   1.514   6.295  2.4990  1.4518 -0.6473
 3390SOL     OW21805   2.767   0.305   3.712 -0.1076 -0.5382 -0.1105
 3390SOL    HW121806   2.731   0.392   3.727 -1.2870 -1.5643  3.0540
 3390SOL    HW221807   2.761   0.310   3.617 -1.9762 -0.3413  0.0170
 3391SOL     OW21808   1.557   1.388   8.715 -0.0694 -0.5369 -0.1125
 3391SOL    HW121809   1.582   1.357   8.628  0.4233  1.1610 -0.5871
 3391SOL    HW221810   1.487   1.448   8.688  0.7311  0.7825  0.7636
 3392SOL     OW21811   0.869   2.646   4.195  0.3660 -0.3158 -0.5703
 3392SOL    HW121812   0.787   2.596   4.189  1.1141 -1.5278 -0.7525
 3392SOL    HW221813   0.835   2.731   4.166 -3.9066 -1.9306 -0.3758
 3393SOL     OW21814   4.015   4.020  10.412 -0.4514  0.6862 -0.3635
 3393SOL    HW121815   3.991   3.996  10.323 -1.4877 -1.3672  0.4858
 3393SOL    HW221816   3.959   3.963  10.464  1.9023 -3.0880 -2.0453
 3394SOL     OW21817   3.791   4.288   5.968  0.2696 -0.4314  0.3105
 3394SOL    HW121818   3.850   4.286   5.892 -0.9557 -0.4266 -0.6372
 3394SOL    HW221819   3.715   4.239   5.935  1.9310 -1.3872 -2.1054
 3395SOL     OW21820   0.016   1.560  15.615 -0.4371 -0.4000 -0.1143
 3395SOL    HW121821   0.047   1.626  15.678  0.2648  0.2321 -1.1117
 3395SOL    HW221822   0.095   1.507  15.613 -0.2774 -0.1350 -1.0804
 3396SOL     OW21823   2.814   2.472   7.964  0.1392  0.4180 -0.0305
 3396SOL    HW121824   2.819   2.465   7.869  0.2794  3.6800 -0.2814
 3396SOL    HW221825   2.906   2.459   7.989 -0.3057  1.1702  2.0304
 3397SOL     OW21826   2.595   0.062   9.406 -0.3344  0.3370 -0.0641
 3397SOL    HW121827   2.561   0.131   9.349  0.0017 -0.7765 -1.6314
 3397SOL    HW221828   2.657   0.017   9.348 -1.6389 -0.3404 -0.9217
 3398SOL     OW21829   1.812   3.958   7.758 -0.0490 -0.0197  0.0964
 3398SOL    HW121830   1.739   4.008   7.722 -0.8399 -0.8765  0.5203
 3398SOL    HW221831   1.789   3.941   7.849 -4.2835  0.0950 -0.9656
 3399SOL     OW21832   0.211   2.721  14.240 -0.5660  0.2879  0.4000
 3399SOL    HW121833   0.290   2.729  14.187 -0.0185 -2.7464  0.7934
 3399SOL    HW221834   0.238   2.746  14.329  1.4096  2.6801 -0.8623
 3400SOL     OW21835   0.140   1.183  14.302 -0.5378 -0.2176  0.5176
 3400SOL    HW121836   0.080   1.256  14.290  0.3379  0.0840 -2.1321
 3400SOL    HW221837   0.100   1.129  14.234  0.7897 -2.1129  1.2381
 3401SOL     OW21838   4.533   2.599   2.440 -0.3579 -0.4987 -0.0986
 3401SOL    HW121839   4.529   2.536   2.368 -0.9375  0.3129 -0.7821
 3401SOL    HW221840   4.573   2.542   2.506  2.0233  1.4465  0.1135
 3402SOL     OW21841   1.685   4.618   5.852  0.7528  0.0768  0.3761
 3402SOL    HW121842   1.746   4.607   5.925  0.4029 -2.6454  0.2482
 3402SOL    HW221843   1.643   4.703   5.864  2.7082  0.8257  1.8223
 3403SOL     OW21844   2.158   3.722  17.334 -0.2462 -0.3643  0.3582
 3403SOL    HW121845   2.127   3.783  17.400 -0.6854  0.1110 -0.2813
 3403SOL    HW221846   2.155   3.773  17.253  0.1088 -1.3488 -0.2744
 3404SOL     OW21847   4.392   3.652   4.469 -0.6835  0.1343 -0.2691
 3404SOL    HW121848   4.471   3.641   4.522 -0.5796  1.3566 -0.1604
 3404SOL    HW221849   4.437   3.673   4.387  1.2603  1.1430  1.0515
 3405SOL     OW21850   4.580   1.780   2.185 -0.3736  0.4504 -1.0432
 3405SOL    HW121851   4.651   1.728   2.223 -0.5799 -1.1816 -2.9153
 3405SOL    HW221852   4.522   1.708   2.158  1.4458 -1.2304 -0.4454
 3406SOL     OW21853   1.556   4.205  14.468  0.1589 -0.0811  0.5028
 3406SOL    HW121854   1.557   4.128  14.526  3.2655 -1.7604 -1.8212
 3406SOL    HW221855   1.594   4.271  14.526  1.1810  0.8219 -1.2082
 3407SOL     OW21856   0.915   1.454  16.795 -0.9749  0.4282  0.6255
 3407SOL    HW121857   0.974   1.417  16.860 -0.3020 -0.5616 -0.5471
 3407SOL    HW221858   0.860   1.510  16.850  0.6346  1.7673  0.8382
 3408SOL     OW21859   3.144   3.443  11.366 -0.4025 -0.3825  0.7248
 3408SOL    HW121860   3.061   3.413  11.329  0.1262  0.2185 -0.9460
 3408SOL    HW221861   3.212   3.405  11.311 -1.8390 -2.6021  0.4778
 3409SOL     OW21862   2.171   3.588   0.678  0.1309  0.1190 -0.1551
 3409SOL    HW121863   2.170   3.627   0.591  0.1805  1.4129  0.4310
 3409SOL    HW221864   2.158   3.502   0.638 -2.1102  0.2729  0.2464
 3410SOL     OW21865   4.094   4.234  10.774 -0.4051  0.9921 -0.9620
 3410SOL    HW121866   4.092   4.310  10.832  3.6953  0.2207  0.1850
 3410SOL    HW221867   4.048   4.272  10.699  0.0261 -0.1424 -1.7923
 3411SOL     OW21868   0.818   4.425   8.496  0.1993 -0.2620  0.7995
 3411SOL    HW121869   0.894   4.418   8.553 -1.0711 -0.8154  2.4421
 3411SOL    HW221870   0.751   4.378   8.546 -1.0502  1.2063  0.5192
 3412SOL     OW21871   2.986   2.084  15.792  0.0666  0.4454 -0.0605
 3412SOL    HW121872   3.080   2.081  15.809  0.0417  1.9275  0.3929
 3412SOL    HW221873   2.955   2.017  15.852 -2.5624 -0.0733 -1.9982
 3413SOL     OW21874   1.725   1.501   5.858 -0.3615  0.4650 -0.2350
 3413SOL    HW121875   1.773   1.492   5.776 -0.5836  0.1081 -0.3237
 3413SOL    HW221876   1.683   1.415   5.861  0.4187  0.1120  0.4795
 3414SOL     OW21877   1.501   2.332  13.903 -0.1784 -0.2349 -0.2032
 3414SOL    HW121878   1.452   2.413  13.912 -1.3712 -0.8268 -1.3806
 3414SOL    HW221879   1.443   2.278  13.956  0.5970 -0.3232  0.5541
 3415SOL     OW21880   3.810   3.812   3.239 -0.3501 -0.4589  0.7583
 3415SOL    HW121881   3.741   3.753   3.208 -2.9151  2.2555  1.1824
 3415SOL    HW221882   3.849   3.768   3.314 -1.1279 -0.2760  1.2684
 3416SOL     OW21883   2.448   3.518   9.044 -0.3820  0.0540  0.2746
 3416SOL    HW121884   2.365   3.555   9.075  0.0594  0.8378  0.5416
 3416SOL    HW221885   2.503   3.592   9.018  2.7080 -1.3349  2.8676
 3417SOL     OW21886   1.244   2.260   4.208  0.5814 -0.0534  0.0033
 3417SOL    HW121887   1.313   2.290   4.267  1.0883 -1.9882  0.3940
 3417SOL    HW221888   1.171   2.294   4.260  0.4144  0.4695 -0.5801
 3418SOL     OW21889   1.321   1.694   5.391 -0.2189  0.1060 -0.4652
 3418SOL    HW121890   1.398   1.638   5.397  1.6541  2.7178 -0.3841
 3418SOL    HW221891   1.291   1.691   5.482  2.9497 -0.1090  0.5584
 3419SOL     OW21892   0.940   4.408   2.160 -0.2448 -0.0487 -0.0006
 3419SOL    HW121893   0.847   4.403   2.139 -0.5083 -0.3281  1.1889
 3419SOL    HW221894   0.946   4.490   2.210  0.2058 -0.4512  0.6184
 3420SOL     OW21895   3.021   1.272  12.918  0.3273  0.7162  0.2698
 3420SOL    HW121896   3.024   1.177  12.920 -0.1794  0.7061  1.0175
 3420SOL    HW221897   3.114   1.294  12.927  0.6001 -1.3853  2.5533
 3421SOL     OW21898   3.841   1.649   8.423  0.0148 -0.4051  0.0210
 3421SOL    HW121899   3.906   1.698   8.473  0.1400 -1.3326  0.7836
 3421SOL    HW221900   3.887   1.567   8.404 -0.3691 -1.0141  1.6677
 3422SOL     OW21901   0.801   3.162   2.706 -0.6186 -0.0602  0.2877
 3422SOL    HW121902   0.856   3.159   2.628 -2.6050 -2.4817 -1.0392
 3422SOL    HW221903   0.718   3.180   2.661 -0.6943  2.5336  1.4645
 3423SOL     OW21904   3.694   2.392   7.095  0.0261 -0.4063  0.2580
 3423SOL    HW121905   3.759   2.430   7.036 -0.2194  0.1171  0.3217
 3423SOL    HW221906   3.610   2.385   7.048 -1.2080 -0.8321  2.5299
 3424SOL     OW21907   4.343   2.180  13.996 -0.2842 -0.1928  0.3662
 3424SOL    HW121908   4.329   2.135  13.913  2.3027 -0.0224 -0.1588
 3424SOL    HW221909   4.297   2.137  14.068  1.5436  1.3135  2.4546
 3425SOL     OW21910   0.156   0.436  10.364 -0.4355  0.4972 -0.0192
 3425SOL    HW121911   0.199   0.521  10.377  0.2594  0.2850 -0.9944
 3425SOL    HW221912   0.207   0.390  10.431  1.9573  1.7753 -0.9584
 3426SOL     OW21913   0.345   3.837   2.450 -0.3955  0.6433  0.3476
 3426SOL    HW121914   0.392   3.803   2.375  0.7770 -0.7552  1.7095
 3426SOL    HW221915   0.415   3.869   2.507  1.1711 -1.4752 -0.4306
 3427SOL     OW21916   1.215   0.174  16.668  0.0077  0.2548  0.4317
 3427SOL    HW121917   1.236   0.140  16.755 -0.0781  0.7206  0.6312
 3427SOL    HW221918   1.243   0.109  16.604 -1.5458 -0.4729  0.5021
 3428SOL     OW21919   4.067   2.358   1.906  0.1862  0.6565  0.1177
 3428SOL    HW121920   4.009   2.299   1.955 -0.5865  0.6733 -0.7609
 3428SOL    HW221921   4.068   2.432   1.966  0.2495  0.4797  0.3351
 3429SOL     OW21922   3.913   4.003   7.228  0.3777  0.4139 -0.0911
 3429SOL    HW121923   3.824   3.977   7.251 -0.5017  3.0638 -0.4950
 3429SOL    HW221924   3.943   3.921   7.189  0.1158 -0.6428  1.9882
 3430SOL     OW21925   0.013   1.893   8.815  0.6902 -0.1700 -0.6408
 3430SOL    HW121926   0.079   1.855   8.757  0.5077  2.3255 -2.4592
 3430SOL    HW221927   0.027   1.862   8.905 -0.0799  0.8244 -0.1829
 3431SOL     OW21928   1.550   0.560   3.164  0.6641 -0.3162  0.6482
 3431SOL    HW121929   1.457   0.546   3.146  0.3853 -0.4149  2.1817
 3431SOL    HW221930   1.577   0.572   3.073  0.3214 -0.0041  0.5895
 3432SOL     OW21931   2.185   2.744   4.154  0.3708  0.5045 -0.2108
 3432SOL    HW121932   2.183   2.662   4.106 -1.9442  0.1330  0.5242
 3432SOL    HW221933   2.194   2.720   4.246  0.7041 -0.9367 -0.6168
 3433SOL     OW21934   3.896   0.143  11.818 -0.0213  0.0839  0.0649
 3433SOL    HW121935   3.832   0.078  11.791  0.1084  0.2180 -0.5549
 3433SOL    HW221936   3.841   0.212  11.854 -1.9321 -0.3740 -2.0010
 3434SOL     OW21937   3.093   4.451  12.280 -0.3085  0.2997 -0.0262
 3434SOL    HW121938   3.129   4.431  12.193  1.1454  2.0055  0.1764
 3434SOL    HW221939   3.164   4.506  12.313 -1.3353  2.6902 -1.7345
 3435SOL     OW21940   3.729   4.676  11.491  0.1697 -0.1324  0.3980
 3435SOL    HW121941   3.735   4.700  11.399 -0.8166  1.4830  0.7462
 3435SOL    HW221942   3.761   4.586  11.494 -0.8268 -0.5578 -1.5583
 3436SOL     OW21943   2.087   3.586  11.800 -0.3703  0.1806 -0.1635
 3436SOL    HW121944   2.046   3.668  11.772 -0.6542  0.2442  0.4274
 3436SOL    HW221945   2.126   3.563  11.716  2.1589 -0.9326  1.3125
 3437SOL     OW21946   0.917   3.644   2.923  0.0809 -0.2121 -0.0141
 3437SOL    HW121947   1.011   3.645   2.903  0.0959  2.9646  0.0987
 3437SOL    HW221948   0.881   3.684   2.843 -1.9373  0.9905  1.4863
 3438SOL     OW21949   3.610   0.770   8.236  0.1040 -0.1729  0.2030
 3438SOL    HW121950   3.616   0.820   8.318 -2.3518  0.1233  0.1948
 3438SOL    HW221951   3.673   0.700   8.253  0.5326  0.2907  0.5435
 3439SOL     OW21952   4.044   0.814   4.958 -0.0048 -0.0527  0.2125
 3439SOL    HW121953   3.967   0.787   5.007 -0.9305 -1.8621 -2.2076
 3439SOL    HW221954   4.101   0.826   5.033 -1.2626 -0.3365  1.2134
 3440SOL     OW21955   2.195   0.504   2.771 -0.2332 -0.3942  0.3174
 3440SOL    HW121956   2.153   0.504   2.685  0.3722 -0.4330  0.0229
 3440SOL    HW221957   2.120   0.475   2.824  0.2060 -0.1536  1.0819
 3441SOL     OW21958   1.650   3.686   2.759  0.0656  0.3423  0.0815
 3441SOL    HW121959   1.658   3.708   2.666 -2.3312  0.8165 -0.0235
 3441SOL    HW221960   1.582   3.746   2.789 -0.3805 -1.6296  2.9101
 3442SOL     OW21961   1.544   3.668   3.920 -0.3976 -0.0861  0.1670
 3442SOL    HW121962   1.501   3.625   3.994 -0.6966 -2.5770 -1.4518
 3442SOL    HW221963   1.588   3.590   3.885  0.7452  0.1998  0.9959
 3443SOL     OW21964   3.520   4.101  11.198 -0.0557  0.4629  0.4583
 3443SOL    HW121965   3.432   4.062  11.202 -0.6679  1.6896 -0.8311
 3443SOL    HW221966   3.560   4.031  11.146  0.2776 -0.4411  1.9262
 3444SOL     OW21967   4.694   3.186   4.628  0.5076 -0.6237 -0.4124
 3444SOL    HW121968   0.006   3.146   4.696  0.0167  1.8563  1.4195
 3444SOL    HW221969   0.027   3.212   4.573 -0.7037  0.4264 -1.5468
 3445SOL     OW21970   3.918   1.430  14.626  0.3221 -0.4136 -0.1480
 3445SOL    HW121971   3.902   1.435  14.532  0.8752 -2.6419 -0.3742
 3445SOL    HW221972   3.840   1.385  14.661 -1.2266  2.3768 -0.0309
 3446SOL     OW21973   0.520   2.992   9.330  0.3260 -0.0702 -0.3084
 3446SOL    HW121974   0.591   3.001   9.267  0.2550 -2.8309 -0.8169
 3446SOL    HW221975   0.543   2.909   9.373  3.0578  0.7754 -0.2082
 3447SOL     OW21976   3.852   4.420   4.409 -0.3849 -0.1792  0.6176
 3447SOL    HW121977   3.799   4.394   4.334 -1.3865 -0.6069  1.4737
 3447SOL    HW221978   3.932   4.457   4.372 -0.7194 -0.0221  0.0548
 3448SOL     OW21979   0.164   2.544   2.232  0.0722 -0.2328  0.5896
 3448SOL    HW121980   0.186   2.451   2.223 -4.7654 -1.1577 -1.7020
 3448SOL    HW221981   0.159   2.546   2.328 -1.0200 -0.9303  0.5590
 3449SOL     OW21982   1.373   0.374   8.077  0.1772 -1.1428 -0.2510
 3449SOL    HW121983   1.319   0.349   8.002 -0.6444  1.1839 -0.4320
 3449SOL    HW221984   1.436   0.302   8.068  1.1638 -0.1092 -1.5557
 3450SOL     OW21985   0.239   1.129   3.670 -0.2092 -0.1557  0.6155
 3450SOL    HW121986   0.222   1.223   3.672  0.9911  0.0754  0.3378
 3450SOL    HW221987   0.326   1.142   3.708 -0.0050 -0.4797  0.2578
 3451SOL     OW21988   3.948   0.664   5.912  0.9274 -0.1214  0.1555
 3451SOL    HW121989   3.890   0.641   5.984 -1.1268  1.9639 -0.8723
 3451SOL    HW221990   3.877   0.676   5.849  2.5532  0.8927 -1.5000
 3452SOL     OW21991   0.308   4.054   3.951  0.3591 -0.3642  1.0024
 3452SOL    HW121992   0.298   4.117   4.022  0.3549  0.9619 -0.1704
 3452SOL    HW221993   0.214   4.037   3.945  0.0651  2.0175 -1.2580
 3453SOL     OW21994   1.907   4.170   5.114 -0.1371 -0.0499 -0.0851
 3453SOL    HW121995   1.814   4.165   5.139 -0.6128  2.0292 -1.4855
 3453SOL    HW221996   1.929   4.243   5.173  0.6150 -0.2267 -0.1566
 3454SOL     OW21997   0.397   2.703   8.233 -0.7220  0.2938 -0.3056
 3454SOL    HW121998   0.321   2.660   8.194  0.7767  0.0395 -2.9706
 3454SOL    HW221999   0.393   2.790   8.192 -0.4628  0.4703  0.0464
 3455SOL     OW22000   2.183   1.173  16.958 -0.0992  0.1336 -0.4127
 3455SOL    HW122001   2.228   1.236  16.901 -0.5131 -0.0317 -0.9292
 3455SOL    HW222002   2.148   1.240  17.016 -0.1662 -0.1377 -0.1380
 3456SOL     OW22003   4.719   3.870  12.305 -0.3324 -0.7807 -0.2983
 3456SOL    HW122004   4.724   3.801  12.371  0.3598 -0.8413 -0.4203
 3456SOL    HW222005   0.018   3.827  12.230 -1.0413 -0.8882 -0.6110
 3457SOL     OW22006   1.194   4.618   8.062  0.5228 -0.8185  0.0657
 3457SOL    HW122007   1.259   4.655   8.001 -0.0640  0.9698  0.5336
 3457SOL    HW222008   1.181   4.529   8.029  1.8327 -2.1439  3.1353
 3458SOL     OW22009   0.024   3.805   1.982 -0.2273  0.3416  0.1907
 3458SOL    HW122010   4.679   3.766   1.964  0.2795 -1.2501  1.3098
 3458SOL    HW222011   0.079   3.754   1.922  1.5629  2.2580  0.1905
 3459SOL     OW22012   3.526   0.750   1.994  0.3958  0.5500 -0.2440
 3459SOL    HW122013   3.577   0.830   2.004 -0.1961  0.7517  1.1475
 3459SOL    HW222014   3.434   0.777   1.984  0.5362  0.9774 -0.3546
 3460SOL     OW22015   1.217   4.702  10.198  0.0005  0.1365 -0.0290
 3460SOL    HW122016   1.178   4.619  10.169  0.5089  0.7874 -2.4816
 3460SOL    HW222017   1.231   0.018  10.123 -1.1309 -2.1572 -1.9616
 3461SOL     OW22018   2.482   4.567   8.588  0.0594  0.1028 -0.1469
 3461SOL    HW122019   2.436   4.642   8.549 -0.3871  0.1642  0.4923
 3461SOL    HW222020   2.426   4.504   8.543 -0.9237  1.1051 -0.3433
 3462SOL     OW22021   3.805   1.689   9.755 -0.6884  0.0193  0.3675
 3462SOL    HW122022   3.716   1.663   9.730 -1.6781  4.1217 -0.4817
 3462SOL    HW222023   3.824   1.736   9.674  0.2537 -1.5300 -0.3108
 3463SOL     OW22024   2.723   3.384   9.584 -0.0415 -0.1621 -0.4921
 3463SOL    HW122025   2.817   3.392   9.597 -0.4017  1.4110  1.0848
 3463SOL    HW222026   2.680   3.411   9.665 -2.1235 -0.5600 -1.4467
 3464SOL     OW22027   3.863   1.685   7.554  0.4976  0.2278 -0.0950
 3464SOL    HW122028   3.838   1.606   7.601 -0.5961  1.3018  1.1327
 3464SOL    HW222029   3.797   1.693   7.485  0.6576 -1.6986 -0.4621
 3465SOL     OW22030   4.189   1.699   2.416  0.0143 -0.1073  0.2214
 3465SOL    HW122031   4.264   1.639   2.414  0.4342  0.4944 -1.8396
 3465SOL    HW222032   4.138   1.676   2.338  1.8838 -0.4875 -0.8828
 3466SOL     OW22033   4.184   1.902   5.501 -0.1787 -0.0168 -0.1375
 3466SOL    HW122034   4.266   1.865   5.534 -0.2119  0.4495  0.4773
 3466SOL    HW222035   4.203   1.891   5.408  2.9787  0.2851  0.4684
 3467SOL     OW22036   0.842   0.900   0.116  0.4736  0.1634  0.0348
 3467SOL    HW122037   0.759   0.897   0.068  0.2452 -2.1473  0.5394
 3467SOL    HW222038   0.897   0.950   0.056  3.4636 -1.8297  1.1509
 3468SOL     OW22039   1.762   4.451   8.546 -0.8948  0.5855 -0.4901
 3468SOL    HW122040   1.801   4.365   8.537 -2.3987 -0.1635  0.2075
 3468SOL    HW222041   1.759   4.474   8.453 -1.4996  2.7511  0.0494
 3469SOL     OW22042   0.193   4.612  16.590 -0.5842  0.8546 -0.1476
 3469SOL    HW122043   0.231   4.537  16.545 -0.6541  0.8050 -0.1237
 3469SOL    HW222044   0.118   4.632  16.533 -1.2658 -0.9270  0.1272
 3470SOL     OW22045   3.270   3.684   5.452 -0.3331  0.0700  0.4149
 3470SOL    HW122046   3.184   3.649   5.427 -0.4824  0.7207  0.0268
 3470SOL    HW222047   3.318   3.618   5.502  0.6907  0.3184 -0.2377
 3471SOL     OW22048   3.342   4.058  13.442  0.1881  0.5580  0.2921
 3471SOL    HW122049   3.282   4.043  13.370 -0.1308 -0.1596  0.7025
 3471SOL    HW222050   3.417   4.073  13.385 -0.3494 -1.0422 -0.8436
 3472SOL     OW22051   0.880   1.732   5.582 -0.3900 -0.1857 -0.6081
 3472SOL    HW122052   0.858   1.639   5.579  3.9518 -1.2724  0.0854
 3472SOL    HW222053   0.797   1.768   5.552 -1.3539 -1.6351  0.3409
 3473SOL     OW22054   2.814   4.158   2.186 -0.1317  0.3003  0.2604
 3473SOL    HW122055   2.906   4.155   2.210 -0.6389  2.7119  2.5631
 3473SOL    HW222056   2.801   4.252   2.171  2.6602  0.2760 -2.1280
 3474SOL     OW22057   0.464   4.323  10.774 -0.2435 -0.1881  0.7102
 3474SOL    HW122058   0.560   4.315  10.770 -0.1724  0.9912  0.1263
 3474SOL    HW222059   0.435   4.279  10.694 -1.2788 -1.4309  1.7720
 3475SOL     OW22060   1.567   0.971   5.826  0.1933 -0.3241  0.1597
 3475SOL    HW122061   1.491   0.982   5.882 -0.3295  0.3811 -0.6816
 3475SOL    HW222062   1.636   0.954   5.890 -0.7084  2.4741  1.9022
 3476SOL     OW22063   4.711   3.027   6.222 -0.4564  0.3671 -0.8010
 3476SOL    HW122064   4.643   3.008   6.287  0.9267 -1.7822  0.0362
 3476SOL    HW222065   0.009   3.106   6.259 -0.9685  0.0301  0.4600
 3477SOL     OW22066   2.000   0.510   5.470 -0.3043 -0.5140 -0.2560
 3477SOL    HW122067   1.928   0.474   5.418  0.5094 -1.1355 -0.9426
 3477SOL    HW222068   1.987   0.604   5.460 -1.1570 -0.3953  1.8349
 3478SOL     OW22069   4.310   2.874   8.171  0.6088  0.3711  0.3345
 3478SOL    HW122070   4.319   2.782   8.196 -0.1443 -0.0644 -1.0145
 3478SOL    HW222071   4.216   2.887   8.174  0.9514  2.7405  0.3772
 3479SOL     OW22072   2.027   4.312   6.069 -1.3065 -0.1037 -0.3242
 3479SOL    HW122073   2.086   4.366   6.015  0.1501 -0.8869  0.4703
 3479SOL    HW222074   2.019   4.355   6.154 -2.1360 -2.0759  0.5830
 3480SOL     OW22075   0.479   2.731   4.376 -0.0657 -0.1481  0.1796
 3480SOL    HW122076   0.459   2.641   4.398 -1.1965 -0.5018 -2.2531
 3480SOL    HW222077   0.549   2.718   4.311 -1.3779 -3.3038 -0.5762
 3481SOL     OW22078   3.251   1.255  10.647 -0.4646  0.0168  0.4726
 3481SOL    HW122079   3.163   1.292  10.646 -0.8726 -0.9620  0.5342
 3481SOL    HW222080   3.277   1.264  10.555  0.0291 -3.6216  0.2340
 3482SOL     OW22081   2.984   0.284   8.559 -0.7643  0.2392 -0.0745
 3482SOL    HW122082   3.069   0.243   8.544 -0.6106  0.5075  0.0590
 3482SOL    HW222083   3.000   0.356   8.620 -0.8184  1.1033 -1.0863
 3483SOL     OW22084   1.951   0.827   6.131 -0.2544 -0.1818 -0.6582
 3483SOL    HW122085   2.041   0.808   6.106 -0.6516 -1.9040 -0.7826
 3483SOL    HW222086   1.958   0.889   6.204 -2.6601  1.5944 -1.9236
 3484SOL     OW22087   1.985   4.248   5.757  0.1704 -0.1031  0.4545
 3484SOL    HW122088   2.041   4.315   5.796  1.4934 -0.4011 -0.9098
 3484SOL    HW222089   1.986   4.274   5.664 -1.6193  2.6735  1.1874
 3485SOL     OW22090   1.997   1.959   0.901  0.2728 -0.5122 -0.1863
 3485SOL    HW122091   1.980   1.998   0.815 -0.5594 -0.3819  0.0306
 3485SOL    HW222092   1.994   1.868   0.870  0.0789  0.4342 -2.9623
 3486SOL     OW22093   2.940   3.163   6.017 -0.4706  0.0915 -0.0103
 3486SOL    HW122094   3.025   3.121   6.007 -1.3494 -1.1811 -2.1558
 3486SOL    HW222095   2.916   3.159   6.109  0.1700  0.9454  0.1898
 3487SOL     OW22096   0.319   2.302   8.825  0.3507  0.5295  0.0291
 3487SOL    HW122097   0.232   2.264   8.840  1.0575 -0.8039  0.6551
 3487SOL    HW222098   0.335   2.280   8.733 -2.2045 -0.1772 -0.2441
 3488SOL     OW22099   1.220   3.411   4.474  0.0742  0.6781  0.8599
 3488SOL    HW122100   1.291   3.463   4.438 -0.9926  0.9337 -0.8857
 3488SOL    HW222101   1.149   3.434   4.413  0.8473 -0.0403 -0.3249
 3489SOL     OW22102   4.273   3.542  16.710  0.0341  0.5100 -0.3128
 3489SOL    HW122103   4.319   3.618  16.673 -0.9040  0.4679 -1.5582
 3489SOL    HW222104   4.205   3.532  16.643 -1.2621 -2.2412  1.4268
 3490SOL     OW22105   1.239   1.033   2.305  0.2747  0.4547 -0.1753
 3490SOL    HW122106   1.241   1.127   2.323 -0.6101  0.5836 -0.7416
 3490SOL    HW222107   1.190   1.005   2.382  0.9497  0.6969  0.3480
 3491SOL     OW22108   2.077   2.023   5.735 -0.2021  0.4894  0.4078
 3491SOL    HW122109   2.060   2.081   5.810 -0.3513  0.3938  0.4459
 3491SOL    HW222110   2.153   1.988   5.782 -0.1664  2.3198  1.7420
 3492SOL     OW22111   3.396   1.629   9.074 -0.1784 -0.7899 -0.6316
 3492SOL    HW122112   3.424   1.685   9.002 -0.6013 -0.0572 -0.2163
 3492SOL    HW222113   3.318   1.580   9.049 -0.5275 -0.5008 -0.1094
 3493SOL     OW22114   0.209   2.621   5.543 -0.1054  0.0415 -0.0880
 3493SOL    HW122115   0.219   2.644   5.451  1.9431 -0.0825  0.1006
 3493SOL    HW222116   0.121   2.656   5.561  0.3573  1.0756  0.1768
 3494SOL     OW22117   0.196   1.671  10.729  0.2022  0.4295  0.2399
 3494SOL    HW122118   0.271   1.706  10.679 -1.3517  0.5626 -1.9896
 3494SOL    HW222119   0.240   1.637  10.807  1.7082 -0.9436 -1.1926
 3495SOL     OW22120   0.393   4.281   7.097 -0.3015  0.0669  0.0160
 3495SOL    HW122121   0.452   4.209   7.123  1.0581  0.2252 -2.5625
 3495SOL    HW222122   0.419   4.302   7.007 -0.3677 -1.3120 -0.3334
 3496SOL     OW22123   1.147   1.324   5.922  0.4621 -0.1232  0.4446
 3496SOL    HW122124   1.199   1.333   6.001 -2.2944  0.1689  2.2507
 3496SOL    HW222125   1.119   1.232   5.925  2.4037 -0.6553  1.5822
 3497SOL     OW22126   3.706   4.165   9.454 -0.1982 -0.8396 -0.2654
 3497SOL    HW122127   3.746   4.201   9.375  0.2649 -0.0798  0.3038
 3497SOL    HW222128   3.645   4.102   9.415  0.5857 -2.7409  1.5541
 3498SOL     OW22129   2.483   2.755   4.859  0.0106 -0.3914  0.0274
 3498SOL    HW122130   2.389   2.757   4.843  0.1420  2.2301 -0.3525
 3498SOL    HW222131   2.505   2.848   4.863  0.5412 -0.4617 -1.0905
 3499SOL     OW22132   0.738   0.672   8.133  0.2156  0.2066 -0.0801
 3499SOL    HW122133   0.813   0.655   8.077  0.2005 -0.2255  0.0279
 3499SOL    HW222134   0.781   0.716   8.206 -0.2007 -0.2616  0.4534
 3500SOL     OW22135   0.775   4.043  17.161  0.2436 -0.5115  0.3780
 3500SOL    HW122136   0.823   4.118  17.196  1.4903 -1.0832 -0.0971
 3500SOL    HW222137   0.850   3.983  17.162  0.2457 -0.5306 -0.8635
 3501SOL     OW22138   3.993   3.027   2.902  0.0077 -0.1082  0.3596
 3501SOL    HW122139   4.043   3.019   2.983 -0.5795  0.2258  0.7591
 3501SOL    HW222140   3.899   3.020   2.921  0.3195  2.6661  2.8618
 3502SOL     OW22141   2.279   1.780   1.546  0.0567 -1.0557 -0.0197
 3502SOL    HW122142   2.208   1.741   1.496 -1.3849  1.7235 -0.1142
 3502SOL    HW222143   2.250   1.867   1.575  0.7964 -0.2457 -1.7117
 3503SOL     OW22144   1.294   2.867   8.972 -0.1061 -0.2445 -0.1384
 3503SOL    HW122145   1.338   2.950   8.991 -1.1385 -0.3503  2.8343
 3503SOL    HW222146   1.203   2.891   8.951  0.2872 -0.1483 -1.6673
 3504SOL     OW22147   1.954   2.809   0.511 -0.8580 -0.1805 -0.0132
 3504SOL    HW122148   1.864   2.839   0.496 -1.5366 -2.2747 -0.1157
 3504SOL    HW222149   1.947   2.762   0.595  0.0998 -0.6635 -0.2007
 3505SOL     OW22150   3.445   0.615   6.426  0.5659 -0.1675 -0.2744
 3505SOL    HW122151   3.534   0.600   6.392  0.0492 -1.7438 -0.9528
 3505SOL    HW222152   3.402   0.567   6.355 -0.8342  1.4733 -0.5086
 3506SOL     OW22153   3.365   0.490   1.689  0.5070 -0.2440  0.1884
 3506SOL    HW122154   3.453   0.459   1.710  1.0643  0.8227 -0.5400
 3506SOL    HW222155   3.326   0.417   1.642 -0.0174  0.0203  0.2155
 3507SOL     OW22156   2.696   0.011   4.337 -0.0669  0.0166 -0.2230
 3507SOL    HW122157   2.609   4.741   4.298 -0.7430  0.1334  1.2569
 3507SOL    HW222158   2.748   0.064   4.276  1.6397 -0.4446  0.8338
 3508SOL     OW22159   2.964   0.005   0.129  0.2705 -0.5418 -0.2502
 3508SOL    HW122160   3.014   4.664   0.135  0.0187 -0.5940  0.9675
 3508SOL    HW222161   3.031   0.071   0.111 -1.1612  1.3413  1.3661
 3509SOL     OW22162   4.066   4.071   3.867 -0.4111  0.1928 -0.3742
 3509SOL    HW122163   3.986   4.122   3.851 -1.1618  0.0945  3.1588
 3509SOL    HW222164   4.064   4.021   3.785 -0.7746 -1.2030  0.4898
 3510SOL     OW22165   2.942   2.036   3.539  0.0808 -0.2635 -0.1767
 3510SOL    HW122166   2.879   1.979   3.585 -1.6846  1.6761 -0.1781
 3510SOL    HW222167   3.022   1.983   3.541  0.1234 -0.2145 -0.6761
 3511SOL     OW22168   1.906   4.053   0.580  0.2218 -0.8836 -0.0544
 3511SOL    HW122169   1.939   4.060   0.669 -0.2820 -0.7099  0.1187
 3511SOL    HW222170   1.824   4.100   0.592  1.1576  0.5524  0.6130
 3512SOL     OW22171   2.219   0.284  14.919 -0.4159 -0.6854 -0.0337
 3512SOL    HW122172   2.267   0.366  14.907  0.3930 -1.3480 -1.3877
 3512SOL    HW222173   2.264   0.236  14.849  1.8222  0.4174  0.6571
 3513SOL     OW22174   2.523   2.330  12.748 -0.2354  0.3412  0.0357
 3513SOL    HW122175   2.551   2.241  12.768  3.0764  1.5305  0.7568
 3513SOL    HW222176   2.603   2.366  12.709  1.8049 -3.5374  0.6989
 3514SOL     OW22177   2.691   4.300   4.813  0.2546  0.5706  0.3065
 3514SOL    HW122178   2.633   4.374   4.796 -1.3561 -1.3956 -2.7394
 3514SOL    HW222179   2.746   4.310   4.736 -0.3670 -0.3848 -0.2714
 3515SOL     OW22180   3.958   0.075   4.561 -0.3987  0.1986  0.3633
 3515SOL    HW122181   3.975   4.721   4.563  2.5481  0.7353 -0.0572
 3515SOL    HW222182   3.863   0.075   4.576 -0.6659  0.8384 -1.3532
 3516SOL     OW22183   2.661   0.364   8.394 -0.1807 -0.3316  0.1830
 3516SOL    HW122184   2.719   0.288   8.400  1.4070  0.6487 -2.7576
 3516SOL    HW222185   2.704   0.433   8.442  0.7419 -0.9602  0.2543
 3517SOL     OW22186   3.520   3.418   4.416  0.0537  0.3410  0.3953
 3517SOL    HW122187   3.555   3.507   4.412 -0.2363  0.5528  2.6459
 3517SOL    HW222188   3.460   3.428   4.490  0.6044  0.1429  0.8737
 3518SOL     OW22189   3.611   2.041   4.848 -0.3453 -0.1187  0.4591
 3518SOL    HW122190   3.617   2.108   4.780 -1.2817 -2.0849 -1.5539
 3518SOL    HW222191   3.591   2.096   4.924  2.4186 -0.0822  1.1706
 3519SOL     OW22192   1.640   4.338   3.631  0.4154  0.0767 -0.1138
 3519SOL    HW122193   1.675   4.271   3.691  1.7022  1.0870  0.2589
 3519SOL    HW222194   1.697   4.414   3.639  1.0887 -0.4357 -0.0719
 3520SOL     OW22195   3.495   0.932   7.076 -0.1228  0.6390  0.0146
 3520SOL    HW122196   3.502   0.845   7.036  0.5435  0.4921  0.4494
 3520SOL    HW222197   3.555   0.981   7.019 -0.3306  2.7045  1.5989
 3521SOL     OW22198   3.831   4.421  11.423 -0.2249 -0.1851 -0.3237
 3521SOL    HW122199   3.759   4.367  11.390 -2.9323  3.6605 -0.7847
 3521SOL    HW222200   3.859   4.466  11.343  1.9433 -1.8483 -0.5169
 3522SOL     OW22201   2.158   2.742   7.886  0.2011 -0.0942  0.2406
 3522SOL    HW122202   2.173   2.797   7.963 -0.9665 -0.0081  0.4048
 3522SOL    HW222203   2.078   2.701   7.921 -1.5443  2.4159 -0.8385
 3523SOL     OW22204   0.167   3.818   6.742  0.2668 -0.4516 -0.1194
 3523SOL    HW122205   0.222   3.849   6.670 -0.5649  0.5065 -0.3371
 3523SOL    HW222206   0.090   3.873   6.728  2.2293  1.6611 -2.6174
 3524SOL     OW22207   4.027   2.050   0.851  0.1118  0.1752  0.1175
 3524SOL    HW122208   3.937   2.057   0.818 -0.0962  3.5842  1.4700
 3524SOL    HW222209   4.068   1.989   0.789 -0.1591 -0.2753  0.3739
 3525SOL     OW22210   0.434   1.430   2.113 -0.1607 -0.2934 -0.3673
 3525SOL    HW122211   0.425   1.353   2.056 -0.0847 -2.1059  2.0303
 3525SOL    HW222212   0.495   1.487   2.067  0.0274  1.1654  1.6612
 3526SOL     OW22213   4.327   3.159   3.625  0.2225  0.0283  0.1917
 3526SOL    HW122214   4.416   3.127   3.609 -0.5261 -2.6790  1.4368
 3526SOL    HW222215   4.301   3.107   3.701 -0.7385  0.5242  0.2062
 3527SOL     OW22216   0.088   3.732   8.732  0.0012  0.4015  0.0367
 3527SOL    HW122217   0.087   3.796   8.803 -2.4645 -1.7622  1.9416
 3527SOL    HW222218   0.024   3.670   8.766 -1.8447  1.0711 -2.2423
 3528SOL     OW22219   1.002   2.088   3.704  0.3986  0.2445  0.7663
 3528SOL    HW122220   1.091   2.089   3.739  1.1662 -0.3459 -1.2269
 3528SOL    HW222221   0.991   2.163   3.646 -0.4520  0.7748  1.5980
 3529SOL     OW22222   0.361   2.554  15.787  0.4194  0.1758 -0.0675
 3529SOL    HW122223   0.340   2.475  15.738 -0.9777 -0.4476  1.5603
 3529SOL    HW222224   0.315   2.534  15.868  0.6424  3.5641  0.9045
 3530SOL     OW22225   0.747   3.781   5.445 -0.2059 -0.0529 -0.8158
 3530SOL    HW122226   0.779   3.702   5.489  3.0457  1.2310 -0.8788
 3530SOL    HW222227   0.699   3.814   5.521  1.9507  0.4632  0.3420
 3531SOL     OW22228   0.078   0.182   4.147 -0.4194  0.0363  0.0830
 3531SOL    HW122229   4.732   0.143   4.152 -1.0577  1.3624 -0.8656
 3531SOL    HW222230   0.121   0.101   4.122 -0.4294 -0.1246  0.5726
 3532SOL     OW22231   1.495   0.330  16.043  0.3157 -0.1228  0.0213
 3532SOL    HW122232   1.445   0.393  16.095  0.0905  1.1094 -1.6907
 3532SOL    HW222233   1.533   0.267  16.104 -0.8221 -0.0876  0.7778
 3533SOL     OW22234   2.554   4.201   2.862  0.1076 -0.0293  0.2512
 3533SOL    HW122235   2.631   4.250   2.888 -0.0498 -0.1132  0.8670
 3533SOL    HW222236   2.487   4.225   2.926 -0.5249 -1.4852  0.1463
 3534SOL     OW22237   1.806   0.414   0.854  0.0573  0.1068 -0.0457
 3534SOL    HW122238   1.724   0.387   0.894 -0.0453  0.8403  0.2469
 3534SOL    HW222239   1.773   0.463   0.779  2.2906  0.3111 -0.8929
 3535SOL     OW22240   4.457   0.867   2.400 -0.2652  0.1732  0.4291
 3535SOL    HW122241   4.513   0.790   2.389  0.0879  0.0927  2.9063
 3535SOL    HW222242   4.443   0.885   2.306  0.5547  0.0616  0.2904
 3536SOL     OW22243   4.241   3.177  13.797  0.1018  0.0284 -0.0279
 3536SOL    HW122244   4.271   3.236  13.867 -0.3559  0.4727 -0.2086
 3536SOL    HW222245   4.311   3.112  13.785  0.7464  0.6777  0.1645
 3537SOL     OW22246   4.554   3.383   8.444  0.3306  0.1563  0.1722
 3537SOL    HW122247   4.623   3.329   8.404 -1.0094 -0.6637 -1.0424
 3537SOL    HW222248   4.625   3.442   8.470 -1.3841  2.6185 -0.6899
 3538SOL     OW22249   0.098   0.718   5.746 -0.2774  0.2094 -0.2694
 3538SOL    HW122250   0.095   0.674   5.831  2.1131  0.2402 -0.1781
 3538SOL    HW222251   0.185   0.692   5.715  0.0303  1.2080 -0.2477
 3539SOL     OW22252   1.386   0.392   6.687 -0.4263  0.3103 -0.6807
 3539SOL    HW122253   1.374   0.393   6.592 -0.0609 -1.1891 -0.7478
 3539SOL    HW222254   1.353   0.306   6.712  1.5520 -0.0660  0.6564
 3540SOL     OW22255   1.812   0.533  15.599 -0.2579 -0.4955  0.2285
 3540SOL    HW122256   1.727   0.557  15.636  0.0806  0.2386  0.5360
 3540SOL    HW222257   1.818   0.587  15.520  3.4554 -0.7422  0.3182
 3541SOL     OW22258   3.693   2.334   8.229 -0.5142  0.3791 -0.1899
 3541SOL    HW122259   3.603   2.362   8.214 -0.1162  0.8349 -1.7096
 3541SOL    HW222260   3.701   2.356   8.321 -0.9244  0.4005 -0.1607
 3542SOL     OW22261   3.456   3.485   5.588  0.2156  0.2562 -0.4505
 3542SOL    HW122262   3.476   3.407   5.640  1.4255  0.5799 -0.4184
 3542SOL    HW222263   3.542   3.527   5.578  1.1615 -1.1632  1.5437
 3543SOL     OW22264   1.882   0.950  15.766 -0.7861 -0.3684  0.2834
 3543SOL    HW122265   1.882   1.042  15.740 -1.1733 -1.1789 -2.6680
 3543SOL    HW222266   1.976   0.935  15.768 -0.9024 -1.2252 -0.6641
 3544SOL     OW22267   3.718   2.970   2.945 -0.5544  0.1906 -0.3709
 3544SOL    HW122268   3.629   3.004   2.942 -0.8671 -0.7903 -2.0609
 3544SOL    HW222269   3.714   2.908   2.873 -2.4964  0.1893 -0.2528
 3545SOL     OW22270   3.461   0.337   4.922  0.2741 -0.2134  0.2072
 3545SOL    HW122271   3.456   0.386   5.004  0.5196 -1.2331  0.8237
 3545SOL    HW222272   3.461   0.410   4.860  1.0998  1.9377  2.7410
 3546SOL     OW22273   1.701   3.665   1.376 -0.1411  0.0539 -0.4866
 3546SOL    HW122274   1.716   3.579   1.415  1.5435  0.5184 -0.1149
 3546SOL    HW222275   1.609   3.646   1.358  0.3827 -1.0645 -1.8834
 3547SOL     OW22276   0.063   2.057   3.884  0.6271  0.1497  0.2276
 3547SOL    HW122277   0.006   2.009   3.825 -2.2564  2.4159  1.1770
 3547SOL    HW222278   0.006   2.075   3.959 -0.7319 -0.1330 -0.7482
 3548SOL     OW22279   4.430   4.081   6.658 -0.4199 -0.2635 -0.0970
 3548SOL    HW122280   4.382   4.015   6.708 -0.8886  1.2594  1.4361
 3548SOL    HW222281   4.375   4.085   6.580 -0.3659  2.3460  0.0026
 3549SOL     OW22282   4.503   4.700   6.704 -0.7278 -0.5090  0.2527
 3549SOL    HW122283   4.415   4.705   6.741 -0.4098 -0.3968  1.0003
 3549SOL    HW222284   4.559   4.706   6.782  0.6856 -0.4112 -0.7550
 3550SOL     OW22285   3.318   4.149   6.961  0.1086  0.0663 -0.2523
 3550SOL    HW122286   3.326   4.209   7.035 -2.9959  0.0877  0.0930
 3550SOL    HW222287   3.242   4.185   6.916 -0.2541  2.7098  2.4391
 3551SOL     OW22288   1.857   3.798   4.495  0.0660 -0.0991 -0.1102
 3551SOL    HW122289   1.833   3.865   4.558  1.2721 -0.5334  0.8081
 3551SOL    HW222290   1.952   3.805   4.508  0.0664 -0.3471  0.0231
 3552SOL     OW22291   3.006   2.704   3.700  0.4784 -0.0975  0.0867
 3552SOL    HW122292   3.033   2.796   3.694  0.1855 -0.0534 -0.5655
 3552SOL    HW222293   3.070   2.667   3.639  2.1050  0.2442  1.5713
 3553SOL     OW22294   1.210   1.427   6.549  0.2846 -0.5943 -0.4155
 3553SOL    HW122295   1.164   1.406   6.468  0.2208 -2.6387  0.1565
 3553SOL    HW222296   1.145   1.456   6.613  2.1667 -1.0873  1.7465
 3554SOL     OW22297   3.378   0.719   4.247 -0.5283 -0.8659  0.4557
 3554SOL    HW122298   3.388   0.810   4.277  0.0798 -0.1145 -1.9876
 3554SOL    HW222299   3.465   0.687   4.269 -0.3639 -1.2550 -0.8062
 3555SOL     OW22300   1.891   3.308  12.420  0.0061 -0.0209 -0.2489
 3555SOL    HW122301   1.985   3.293  12.416 -0.1325 -0.8219 -0.3813
 3555SOL    HW222302   1.896   3.392  12.467 -0.6562  0.0305 -0.2642
 3556SOL     OW22303   3.728   4.006   8.047  0.6995 -0.7545  0.3136
 3556SOL    HW122304   3.806   4.057   8.068  0.0108 -0.1844  1.5165
 3556SOL    HW222305   3.733   3.950   8.125  2.4088 -1.2259 -0.1455
 3557SOL     OW22306   2.779   0.452   4.119  0.4145 -0.6522  0.5837
 3557SOL    HW122307   2.795   0.453   4.214  0.3318 -0.9386  0.6009
 3557SOL    HW222308   2.687   0.479   4.119  0.4921 -0.4070 -0.6817
 3558SOL     OW22309   0.373   1.944   0.155 -0.5794 -0.2990 -0.1310
 3558SOL    HW122310   0.408   1.855   0.163  0.8447  0.4089  1.5561
 3558SOL    HW222311   0.383   1.958   0.061 -1.4562  0.4483 -0.1128
 3559SOL     OW22312   1.591   1.118   4.915  0.4888  0.0234  0.1234
 3559SOL    HW122313   1.658   1.186   4.916  1.5109 -0.9922  1.3104
 3559SOL    HW222314   1.639   1.035   4.920 -2.5545 -1.9068 -2.3470
 3560SOL     OW22315   0.163   2.478  15.952 -0.3289 -0.5782  0.1360
 3560SOL    HW122316   0.100   2.543  15.984 -0.5489 -0.3647 -0.7338
 3560SOL    HW222317   0.183   2.434  16.035  5.0571 -0.1154 -0.9266
 3561SOL     OW22318   3.260   2.038   6.754  0.5219  0.0173  0.5023
 3561SOL    HW122319   3.239   1.986   6.831  1.3743  0.0794  0.7706
 3561SOL    HW222320   3.184   2.096   6.754  1.3474  1.1133 -1.1949
 3562SOL     OW22321   3.585   3.883   4.934 -0.5352  0.3211 -0.0684
 3562SOL    HW122322   3.557   3.972   4.916 -0.0516  0.5410  0.2674
 3562SOL    HW222323   3.523   3.828   4.886  1.8440 -1.0021 -1.6665
 3563SOL     OW22324   0.714   2.141  17.063  0.3924  0.1329 -0.0390
 3563SOL    HW122325   0.715   2.227  17.105 -1.0820  0.6187 -0.9913
 3563SOL    HW222326   0.621   2.120  17.056  0.5748 -0.2150 -1.3929
 3564SOL     OW22327   1.540   3.328  14.025 -0.5223 -0.2029  0.2594
 3564SOL    HW122328   1.498   3.258  14.076  1.9763 -1.1520  1.0328
 3564SOL    HW222329   1.508   3.401  14.078 -0.9139  0.3099 -0.6883
 3565SOL     OW22330   0.464   0.552   9.209  0.2423  0.2213  0.1453
 3565SOL    HW122331   0.453   0.459   9.229  1.6174 -0.0495 -0.3338
 3565SOL    HW222332   0.525   0.551   9.135 -0.2273  1.1300 -0.2564
 3566SOL     OW22333   3.760   0.301   2.366 -0.3566  0.9172  0.0174
 3566SOL    HW122334   3.730   0.361   2.298 -2.9282 -0.7149 -0.2935
 3566SOL    HW222335   3.726   0.216   2.339  0.6920  1.1801 -2.1315
 3567SOL     OW22336   0.795   4.003   7.263 -0.3610 -0.0973  0.1226
 3567SOL    HW122337   0.759   3.941   7.326 -2.2659  0.5084 -0.3641
 3567SOL    HW222338   0.865   3.955   7.218 -2.0826 -1.0712 -1.5215
 3568SOL     OW22339   2.330   0.535  14.845 -0.0184  0.0993  0.1978
 3568SOL    HW122340   2.383   0.510  14.770  0.4961  0.8640  0.3071
 3568SOL    HW222341   2.359   0.624  14.867 -0.5693  0.0938  0.9500
 3569SOL     OW22342   2.631   3.140   2.220  0.3763  0.5604 -0.1806
 3569SOL    HW122343   2.706   3.109   2.170  0.5068 -0.2744  0.5378
 3569SOL    HW222344   2.556   3.109   2.170 -1.5127  1.5004  2.0403
 3570SOL     OW22345   3.872   3.310   8.272  0.2200 -0.1068 -0.0978
 3570SOL    HW122346   3.779   3.328   8.259  0.3962  0.3018 -0.7850
 3570SOL    HW222347   3.856   3.217   8.293 -2.8493  0.4337 -0.0323
 3571SOL     OW22348   0.906   0.463   9.611 -0.2031 -0.2016 -0.0183
 3571SOL    HW122349   0.967   0.417   9.668  0.9081  0.3064 -0.7844
 3571SOL    HW222350   0.875   0.392   9.555 -0.3998 -0.4152  0.3719
 3572SOL     OW22351   4.109   1.569   2.190  0.0038 -0.2371 -0.2917
 3572SOL    HW122352   4.077   1.490   2.146 -1.0501  1.1684 -2.0287
 3572SOL    HW222353   4.115   1.630   2.116  0.2299 -1.7611 -1.5509
 3573SOL     OW22354   3.639   0.375  13.042 -0.3932  0.1741  0.0185
 3573SOL    HW122355   3.551   0.381  13.004 -0.9239  0.5191  1.2869
 3573SOL    HW222356   3.619   0.328  13.123 -0.5021 -0.0671 -0.1456
 3574SOL     OW22357   1.262   0.588   2.269  0.2230 -0.0463  0.2200
 3574SOL    HW122358   1.199   0.646   2.312 -0.0026 -0.2442  0.1571
 3574SOL    HW222359   1.211   0.553   2.196  2.3509  0.3448 -1.4539
 3575SOL     OW22360   2.821   1.336  12.753 -0.8938 -0.1285 -0.2938
 3575SOL    HW122361   2.902   1.353  12.800 -0.9227  0.7849 -0.5835
 3575SOL    HW222362   2.774   1.277  12.812  0.9823  1.0416  2.3245
 3576SOL     OW22363   3.413   1.229   5.209 -0.0702  0.6303 -0.2630
 3576SOL    HW122364   3.471   1.305   5.207  2.4305 -1.2639  0.3562
 3576SOL    HW222365   3.354   1.241   5.135  0.4091 -0.7810 -0.8693
 3577SOL     OW22366   1.481   4.424  10.072  0.1785  0.2223 -0.0939
 3577SOL    HW122367   1.388   4.422  10.051  0.0912  3.0236 -0.0117
 3577SOL    HW222368   1.498   4.338  10.109  0.7996  0.6663  0.6645
 3578SOL     OW22369   3.865   2.107  11.636 -0.6860 -0.3836  0.0749
 3578SOL    HW122370   3.794   2.045  11.654 -1.1651  0.0346 -0.3480
 3578SOL    HW222371   3.945   2.066  11.666  0.0449  0.3832 -0.7987
 3579SOL     OW22372   3.888   2.382   2.980 -0.4843  1.0473 -0.2212
 3579SOL    HW122373   3.894   2.324   3.056  2.8596 -0.0188 -1.3208
 3579SOL    HW222374   3.867   2.320   2.911 -2.6201 -1.9450  3.1002
 3580SOL     OW22375   0.857   0.469  10.261 -0.0944  0.5959 -0.4792
 3580SOL    HW122376   0.854   0.380  10.225 -0.5733  0.0213  0.9593
 3580SOL    HW222377   0.765   0.486  10.277 -0.2168  0.5227 -1.1158
 3581SOL     OW22378   3.420   4.115   9.215  0.2805  0.2413 -0.0689
 3581SOL    HW122379   3.486   4.053   9.245 -1.1461 -1.5114 -0.5398
 3581SOL    HW222380   3.470   4.192   9.191  0.5364  0.4787  1.2166
 3582SOL     OW22381   4.550   2.504  12.261 -0.1251  0.3792  0.1909
 3582SOL    HW122382   4.487   2.441  12.225 -0.1476  1.3890 -1.5354
 3582SOL    HW222383   4.599   2.444  12.317 -0.3382  0.6967  0.7177
 3583SOL     OW22384   0.964   2.950   1.549 -0.2792 -0.1006  0.2075
 3583SOL    HW122385   0.878   2.991   1.552 -1.4117 -2.3064 -1.2943
 3583SOL    HW222386   0.946   2.864   1.588  1.3617 -1.7406 -2.5926
 3584SOL     OW22387   0.872   1.476   8.508 -0.0963  0.4290 -0.1570
 3584SOL    HW122388   0.832   1.495   8.593 -0.3905  2.3370 -0.7374
 3584SOL    HW222389   0.868   1.561   8.464  1.4256  0.9376  0.6884
 3585SOL     OW22390   0.922   0.497   8.433 -0.0636  0.8063 -0.1902
 3585SOL    HW122391   0.919   0.430   8.502  1.6122 -0.3424 -1.2512
 3585SOL    HW222392   0.935   0.574   8.489  3.3245 -0.7902  1.1980
 3586SOL     OW22393   0.376   1.353   5.773  0.2290  0.2148  0.5440
 3586SOL    HW122394   0.399   1.444   5.791  0.1937  0.4783 -0.7127
 3586SOL    HW222395   0.439   1.328   5.704 -1.0130  0.2746 -0.6229
 3587SOL     OW22396   2.774   0.299  14.302 -0.3377  0.0716 -0.3181
 3587SOL    HW122397   2.757   0.386  14.339 -2.3783  1.1767 -3.8448
 3587SOL    HW222398   2.848   0.270  14.354  1.3604  2.0442 -1.6268
 3588SOL     OW22399   0.388   4.069   5.437  0.3224 -0.0150  0.1838
 3588SOL    HW122400   0.434   4.152   5.421  0.3151 -0.4153 -1.9750
 3588SOL    HW222401   0.327   4.087   5.508 -0.9678  0.6136 -1.0746
 3589SOL     OW22402   3.176   0.462   3.378 -0.5752 -0.3229  0.1297
 3589SOL    HW122403   3.172   0.548   3.336  2.7851  0.1092  0.6666
 3589SOL    HW222404   3.155   0.474   3.471  1.4899 -0.2676  0.5983
 3590SOL     OW22405   4.246   1.876   6.555 -0.3524 -0.1273 -0.7866
 3590SOL    HW122406   4.170   1.934   6.553  0.6400  1.1590 -1.2249
 3590SOL    HW222407   4.251   1.840   6.466 -2.6598 -1.2700 -0.4460
 3591SOL     OW22408   4.176   2.453   9.274 -0.7064  0.4946 -0.1359
 3591SOL    HW122409   4.192   2.375   9.220 -1.8097  0.9735 -1.1560
 3591SOL    HW222410   4.264   2.476   9.303 -0.1702  0.3993 -1.6703
 3592SOL     OW22411   1.081   1.808   6.173 -0.0255  0.2865 -0.5479
 3592SOL    HW122412   1.061   1.736   6.113  2.3205  0.0841 -1.0720
 3592SOL    HW222413   1.139   1.860   6.116  1.1760 -1.2081 -0.6828
 3593SOL     OW22414   3.154   3.214   2.627  0.0531  0.5439 -0.0460
 3593SOL    HW122415   3.136   3.121   2.613  1.1980  0.2965  0.1069
 3593SOL    HW222416   3.073   3.259   2.651 -1.4487 -1.8613 -0.6228
 3594SOL     OW22417   2.189   3.992  16.720 -0.0780 -0.0448  0.4059
 3594SOL    HW122418   2.266   3.935  16.712  0.9922  1.3423  0.8153
 3594SOL    HW222419   2.212   4.044  16.797  0.7652 -2.4872  1.8344
 3595SOL     OW22420   3.468   4.201   8.262 -0.0415  0.2466  0.3757
 3595SOL    HW122421   3.550   4.211   8.310  0.5843  0.3277 -0.7048
 3595SOL    HW222422   3.503   4.191   8.173 -0.7680 -0.7111  0.1941
 3596SOL     OW22423   3.603   1.517   3.655  0.0237  0.6283  0.1061
 3596SOL    HW122424   3.696   1.495   3.650  0.0709  0.6165  1.0484
 3596SOL    HW222425   3.560   1.439   3.620  2.2503  0.7328 -2.7899
 3597SOL     OW22426   0.976   0.411   7.261  0.3716 -0.0794 -1.0929
 3597SOL    HW122427   0.885   0.385   7.275  0.7957 -1.5632 -1.0900
 3597SOL    HW222428   1.007   0.325   7.289  2.3265  0.6636 -0.9951
 3598SOL     OW22429   4.454   0.818   0.957 -0.7310  0.3567 -0.3638
 3598SOL    HW122430   4.540   0.825   0.916 -0.8062 -0.2086 -0.6230
 3598SOL    HW222431   4.399   0.798   0.881 -0.0673  1.8328 -1.2322
 3599SOL     OW22432   4.651   2.280   4.786  0.4109 -0.4716 -0.4163
 3599SOL    HW122433   4.627   2.294   4.694  5.1715  0.2506 -1.5046
 3599SOL    HW222434   4.696   2.362   4.804 -2.4803  0.7907  1.0187
 3600SOL     OW22435   2.370   0.757   1.671 -0.2629 -0.1692  1.1072
 3600SOL    HW122436   2.409   0.721   1.591  0.6200  1.2958  0.8715
 3600SOL    HW222437   2.406   0.845   1.685 -1.8661  0.8291 -0.9678
 3601SOL     OW22438   0.756   0.048   6.248  0.2324  0.4479 -0.2553
 3601SOL    HW122439   0.700   0.122   6.226  2.2412  1.8339 -0.7254
 3601SOL    HW222440   0.796   0.083   6.327 -0.9931  2.8174 -0.6881
 3602SOL     OW22441   3.695   0.304   6.191  0.3780 -0.1871 -0.0535
 3602SOL    HW122442   3.642   0.305   6.271 -0.9364 -0.3368 -0.9243
 3602SOL    HW222443   3.643   0.241   6.140  1.6987 -0.5701 -0.9212
 3603SOL     OW22444   4.567   1.578  14.482  0.1905 -0.0689 -0.0226
 3603SOL    HW122445   4.491   1.552  14.534  0.5787  1.0215  1.0941
 3603SOL    HW222446   4.560   1.509  14.415 -2.5161  1.4098 -1.2370
 3604SOL     OW22447   0.296   1.734  12.332 -0.2996  0.4162 -0.2162
 3604SOL    HW122448   0.269   1.655  12.378 -0.6019  0.6383 -0.0097
 3604SOL    HW222449   0.315   1.794  12.404 -0.1147  2.1601 -1.7064
 3605SOL     OW22450   4.047   3.478  13.660 -0.1872 -0.2519  0.3595
 3605SOL    HW122451   4.027   3.431  13.741 -2.3465 -1.8479 -1.0847
 3605SOL    HW222452   4.019   3.568  13.672  0.2455  0.0883 -1.1038
 3606SOL     OW22453   3.150   2.291   3.590  0.3288 -0.0042 -0.3047
 3606SOL    HW122454   3.182   2.267   3.503 -2.0563 -4.0030 -0.0690
 3606SOL    HW222455   3.065   2.247   3.591  0.8851 -1.1566 -2.7648
 3607SOL     OW22456   1.615   0.132   8.520 -0.1165 -0.4593 -0.3969
 3607SOL    HW122457   1.704   0.100   8.532 -0.8993 -2.0191  1.2616
 3607SOL    HW222458   1.583   0.127   8.611  2.4754  1.3174  0.6056
 3608SOL     OW22459   4.577   1.079  12.784 -0.8834  0.6768  0.2597
 3608SOL    HW122460   4.628   1.013  12.736 -1.1749  0.3424  0.4173
 3608SOL    HW222461   4.509   1.030  12.830 -0.1343  0.9814  1.6746
 3609SOL     OW22462   0.894   0.036   7.819  0.4459 -0.8499  0.4416
 3609SOL    HW122463   0.972   0.086   7.796  0.3102 -0.8013  0.0991
 3609SOL    HW222464   0.857   0.069   7.902 -2.5360  1.7749 -1.9452
 3610SOL     OW22465   0.568   2.259   3.609  0.1747  0.0833 -0.4709
 3610SOL    HW122466   0.474   2.243   3.615  0.0323  1.0746  0.0134
 3610SOL    HW222467   0.601   2.227   3.693 -0.0914  4.6057  1.3440
 3611SOL     OW22468   1.520   3.211  10.173 -0.5348 -1.0692 -0.3070
 3611SOL    HW122469   1.517   3.306  10.161 -0.9961 -0.9145  0.9842
 3611SOL    HW222470   1.520   3.182  10.082  0.9246  0.0221 -0.6415
 3612SOL     OW22471   3.667   0.465   5.124  0.5792  0.7727 -0.2215
 3612SOL    HW122472   3.680   0.372   5.142 -1.1500  0.9808  2.0475
 3612SOL    HW222473   3.726   0.477   5.049 -0.5640 -0.5221 -1.3343
 3613SOL     OW22474   2.504   0.869   8.361  0.1495  0.2311 -0.1300
 3613SOL    HW122475   2.417   0.877   8.400 -0.2622 -2.1425 -0.5579
 3613SOL    HW222476   2.563   0.851   8.434 -1.1152 -0.5547  0.7126
 3614SOL     OW22477   3.624   3.422   8.473 -0.3183  0.4449 -0.3542
 3614SOL    HW122478   3.543   3.374   8.487 -0.1155 -0.3133 -1.7858
 3614SOL    HW222479   3.625   3.445   8.380  1.7719 -0.6528 -0.5879
 3615SOL     OW22480   2.562   0.109   1.934  0.1331 -0.0958 -0.1854
 3615SOL    HW122481   2.628   0.044   1.909  1.0710  0.9352 -0.4023
 3615SOL    HW222482   2.612   0.188   1.913  0.5577 -0.0605  0.9600
 3616SOL     OW22483   0.244   1.003   5.144 -0.6914 -0.7465 -0.1887
 3616SOL    HW122484   0.261   1.088   5.104  0.6081 -0.1837  1.5450
 3616SOL    HW222485   0.316   0.953   5.106  1.1826  0.9604  1.1177
 3617SOL     OW22486   0.466   3.478   3.713  0.4143  0.1207  0.2523
 3617SOL    HW122487   0.427   3.529   3.784  0.3925 -1.4667  1.3979
 3617SOL    HW222488   0.554   3.453   3.742  0.5909 -0.0893 -0.4631
 3618SOL     OW22489   1.819   2.031   5.620 -0.1641  0.4753  0.0619
 3618SOL    HW122490   1.849   2.077   5.541  1.3006 -0.4341  0.0903
 3618SOL    HW222491   1.901   1.998   5.655  0.6086  2.3676  0.0491
 3619SOL     OW22492   1.699   4.319   0.870  0.2663 -0.4782  0.2881
 3619SOL    HW122493   1.607   4.340   0.887  0.5512  0.5292  0.5823
 3619SOL    HW222494   1.717   4.390   0.809 -1.8083  0.7072  1.0371
 3620SOL     OW22495   4.660   0.073   7.766  0.2827 -0.7302 -0.2660
 3620SOL    HW122496   4.599   0.137   7.803 -0.5424  0.5865 -3.9021
 3620SOL    HW222497   4.593   0.012   7.737  0.1513 -2.0287  2.7493
 3621SOL     OW22498   2.180   3.293  12.143 -0.1460 -0.4646 -0.1012
 3621SOL    HW122499   2.180   3.270  12.236  0.8306 -3.2466 -0.7631
 3621SOL    HW222500   2.142   3.220  12.093  2.4432 -1.7673 -0.2004
 3622SOL     OW22501   4.638   0.209   1.760 -0.1550  0.3508  0.6129
 3622SOL    HW122502   4.588   0.168   1.832 -1.1690  0.4937 -0.0139
 3622SOL    HW222503   4.712   0.233   1.816  1.2831 -1.2787 -0.5939
 3623SOL     OW22504   1.575   3.368  16.140 -0.3948 -0.3514  0.6815
 3623SOL    HW122505   1.488   3.336  16.160 -0.5880 -0.6320 -0.6153
 3623SOL    HW222506   1.624   3.286  16.142  0.0559 -0.0564  1.9862
 3624SOL     OW22507   2.143   4.470   5.850 -0.0620  0.2498 -0.5367
 3624SOL    HW122508   2.175   4.555   5.821 -0.7725  1.4329  2.2116
 3624SOL    HW222509   2.220   4.414   5.840  0.4498  0.9682 -0.5539
 3625SOL     OW22510   0.207   0.139   5.404 -0.3446 -0.0363 -0.3709
 3625SOL    HW122511   0.191   0.196   5.329 -1.3078  1.2956  0.8583
 3625SOL    HW222512   0.120   0.138   5.443  0.0761  1.6553  0.6403
 3626SOL     OW22513   2.171   2.191   3.848  0.4192  0.0531 -0.2354
 3626SOL    HW122514   2.138   2.274   3.813 -0.0070 -0.0191 -0.0025
 3626SOL    HW222515   2.155   2.210   3.940 -2.4902  1.4172 -1.0178
 3627SOL     OW22516   2.634   0.983   1.643  0.0646 -0.2561  0.2618
 3627SOL    HW122517   2.609   0.946   1.727 -1.0493  0.0258  0.0567
 3627SOL    HW222518   2.714   0.930   1.642  1.3611  1.6894  1.3886
 3628SOL     OW22519   2.310   1.533  12.269 -0.2879 -0.2251  0.1164
 3628SOL    HW122520   2.284   1.613  12.314  1.4773  0.2110  0.3773
 3628SOL    HW222521   2.226   1.488  12.260 -0.8792  0.7434  0.8694
 3629SOL     OW22522   3.777   4.259  15.147 -0.0747  0.3097  0.2042
 3629SOL    HW122523   3.706   4.236  15.087 -0.5157  0.5577  0.6330
 3629SOL    HW222524   3.776   4.354  15.131 -1.5374 -0.2467 -2.9357
 3630SOL     OW22525   1.159   4.204  13.073 -0.0504  0.1614 -0.0753
 3630SOL    HW122526   1.154   4.163  13.159 -0.1665  0.1388 -0.0932
 3630SOL    HW222527   1.109   4.284  13.089 -0.1418 -0.0669  0.7640
 3631SOL     OW22528   2.854   2.020  12.957 -0.2074  0.2128 -0.2125
 3631SOL    HW122529   2.795   2.083  12.999 -1.4604 -0.7704 -0.5163
 3631SOL    HW222530   2.810   1.936  12.966 -1.6832  0.7845 -2.2236
 3632SOL     OW22531   4.544   3.203   2.289  0.0399 -0.1543  0.1769
 3632SOL    HW122532   4.637   3.195   2.311  0.2136  2.5142  0.3550
 3632SOL    HW222533   4.516   3.255   2.364 -0.0209 -0.6655  0.5142
 3633SOL     OW22534   2.449   2.638  12.522 -0.4654 -0.3499  0.5495
 3633SOL    HW122535   2.364   2.615  12.560 -1.0880 -0.6787 -1.0620
 3633SOL    HW222536   2.504   2.581  12.576  1.0842  0.5000 -0.1364
 3634SOL     OW22537   2.609   0.402   1.194  1.1107  0.6526  0.1416
 3634SOL    HW122538   2.600   0.428   1.103  1.9099  1.4643  0.2986
 3634SOL    HW222539   2.566   0.478   1.233  0.1348  0.4887 -0.6434
 3635SOL     OW22540   3.545   2.026   6.842 -1.0249  0.0076  0.3874
 3635SOL    HW122541   3.476   1.997   6.782 -0.5024  2.2807 -1.2874
 3635SOL    HW222542   3.591   2.094   6.793 -0.1164 -1.2602 -0.5144
 3636SOL     OW22543   3.738   0.686   4.032 -0.2987  0.2706 -0.5389
 3636SOL    HW122544   3.712   0.653   3.946  0.1324 -2.7753  0.4998
 3636SOL    HW222545   3.757   0.608   4.084 -0.2036 -0.9084 -2.3462
 3637SOL     OW22546   3.955   2.591   8.199  0.4668  0.9268  0.8505
 3637SOL    HW122547   3.956   2.569   8.292  0.7718  1.4292  0.9681
 3637SOL    HW222548   4.048   2.583   8.181  0.3105 -0.8446  0.8916
 3638SOL     OW22549   4.200   0.063   8.732 -0.0400  0.1433  0.5419
 3638SOL    HW122550   4.224   0.107   8.814 -1.0633  0.6971  0.5383
 3638SOL    HW222551   4.197   4.712   8.757  2.8412 -0.9298 -3.0507
 3639SOL     OW22552   2.456   0.980   7.196  0.1029 -0.1796 -0.1575
 3639SOL    HW122553   2.450   0.956   7.288  0.3017 -2.5762 -0.7640
 3639SOL    HW222554   2.494   1.066   7.209 -1.5504  0.3640  0.9981
 3640SOL     OW22555   4.264   2.889   2.954  0.4052 -0.1813 -0.6244
 3640SOL    HW122556   4.336   2.953   2.950 -0.2489  0.4996 -1.5816
 3640SOL    HW222557   4.216   2.923   2.878 -0.1054  2.1701  0.7474
 3641SOL     OW22558   0.686   2.862   6.790  0.8565 -0.2608  0.2638
 3641SOL    HW122559   0.760   2.850   6.731  0.4633 -0.1625 -0.2537
 3641SOL    HW222560   0.612   2.866   6.728  1.4295  4.0535 -0.1487
 3642SOL     OW22561   4.592   0.359  16.564 -0.0155  0.3576  0.4803
 3642SOL    HW122562   4.603   0.279  16.615  1.0333  0.4683  0.4157
 3642SOL    HW222563   4.522   0.404  16.612  0.7935  0.7972  1.2402
 3643SOL     OW22564   2.610   1.498  10.611  0.3186 -0.3378 -0.3388
 3643SOL    HW122565   2.682   1.469  10.668  2.9307 -0.8470 -3.8697
 3643SOL    HW222566   2.604   1.591  10.632 -0.9274 -0.2737 -0.9868
 3644SOL     OW22567   4.635   1.094   5.426  0.0042 -0.5330 -0.5810
 3644SOL    HW122568   4.630   1.174   5.374  1.3409 -1.1667 -1.7004
 3644SOL    HW222569   4.713   1.049   5.394  0.3365  0.3922 -1.0541
 3645SOL     OW22570   1.191   0.356   6.917 -0.5993 -0.1678  0.5177
 3645SOL    HW122571   1.227   0.267   6.910  2.4835  1.2434 -1.2059
 3645SOL    HW222572   1.239   0.398   6.846 -2.1399  1.4594  0.4582
 3646SOL     OW22573   3.923   2.931   4.203 -0.3955 -0.1555  0.0609
 3646SOL    HW122574   4.014   2.938   4.173  0.2118  1.1888  2.2473
 3646SOL    HW222575   3.924   2.846   4.246  0.3555  0.0055  0.3639
 3647SOL     OW22576   0.216   2.435   1.821 -0.3566  0.7181  0.1989
 3647SOL    HW122577   0.286   2.376   1.795  0.7716  2.6585 -1.1481
 3647SOL    HW222578   0.180   2.456   1.735 -2.6170  0.3481  1.0386
 3648SOL     OW22579   0.612   3.649  11.664 -0.0069  0.1800  0.2005
 3648SOL    HW122580   0.581   3.621  11.578  1.6953 -0.6347 -0.1413
 3648SOL    HW222581   0.707   3.655  11.651 -0.0807  0.1775 -0.3181
 3649SOL     OW22582   3.158   1.989   4.693  0.2726  0.1491 -0.4631
 3649SOL    HW122583   3.157   2.039   4.612 -0.4982 -0.0223 -0.5669
 3649SOL    HW222584   3.186   2.052   4.759 -0.8634  1.3713 -1.1396
 3650SOL     OW22585   3.435   2.021   6.236 -0.8801  0.0263  0.2184
 3650SOL    HW122586   3.403   1.970   6.311  2.4773 -1.6816  0.4873
 3650SOL    HW222587   3.528   2.034   6.255 -0.8066 -0.3035  0.0821
 3651SOL     OW22588   2.598   1.945  10.449  0.2217  0.3398 -0.2608
 3651SOL    HW122589   2.602   1.893  10.368  1.6616  0.4052 -0.2187
 3651SOL    HW222590   2.509   1.976  10.433  0.5755  1.1432 -0.6802
 3652SOL     OW22591   1.242   3.019  15.622 -0.3388  0.0626  0.6760
 3652SOL    HW122592   1.165   3.075  15.632 -0.7014 -0.5695  1.4043
 3652SOL    HW222593   1.251   3.010  15.527  0.0058  2.4415  0.4679
 3653SOL     OW22594   4.398   2.204   3.067  0.0610 -0.2297  0.4507
 3653SOL    HW122595   4.491   2.188   3.085  0.5709  0.0905 -1.9121
 3653SOL    HW222596   4.396   2.300   3.068 -2.4935 -0.2824  0.1760
 3654SOL     OW22597   2.024   4.005  10.922  0.8074 -0.2184  0.1996
 3654SOL    HW122598   2.111   3.965  10.931  0.9629  0.0677 -0.0270
 3654SOL    HW222599   2.030   4.032  10.831 -2.5345  0.2492  0.1367
 3655SOL     OW22600   1.367   0.089   2.797  0.2613  0.3178  0.0383
 3655SOL    HW122601   1.382   0.181   2.818 -0.7803  0.6891 -0.8813
 3655SOL    HW222602   1.455   0.052   2.808  0.0313 -0.0809  0.5158
 3656SOL     OW22603   1.102   0.386   3.488  0.3771  0.0413  0.0910
 3656SOL    HW122604   1.084   0.340   3.570  1.5831  0.2731  0.4826
 3656SOL    HW222605   1.016   0.387   3.447  0.6548  0.4390 -0.4791
 3657SOL     OW22606   4.114   3.988   2.024 -0.3138  0.2775 -0.2287
 3657SOL    HW122607   4.068   3.982   1.940 -0.6231 -1.0470  0.0370
 3657SOL    HW222608   4.200   4.017   1.994  0.4418  0.1952  1.8709
 3658SOL     OW22609   0.982   3.172   2.514  0.4481  0.3752  0.1173
 3658SOL    HW122610   0.950   3.133   2.433  0.9462 -0.2132  0.2107
 3658SOL    HW222611   1.076   3.171   2.497  0.1018 -0.1298 -1.7735
 3659SOL     OW22612   2.845   3.153   7.442  0.3832 -0.1964  0.1733
 3659SOL    HW122613   2.919   3.208   7.417 -0.1303  0.6398  0.4760
 3659SOL    HW222614   2.892   3.076   7.473 -0.1387 -0.6654 -0.1984
 3660SOL     OW22615   1.583   4.220  12.881 -0.1924  0.0184  0.0060
 3660SOL    HW122616   1.512   4.283  12.891 -0.1308 -0.2508  2.3330
 3660SOL    HW222617   1.547   4.165  12.812  2.2299 -1.0393 -0.4040
 3661SOL     OW22618   1.375   2.002   4.195  0.1206  0.4868  0.3355
 3661SOL    HW122619   1.449   2.062   4.198  1.9622 -1.6804 -1.8853
 3661SOL    HW222620   1.303   2.056   4.228  0.2465  0.4549  0.6580
 3662SOL     OW22621   3.770   0.092  13.066  0.0741  0.2248  0.2127
 3662SOL    HW122622   3.835   0.112  13.133 -0.7472  4.2751 -0.1908
 3662SOL    HW222623   3.819   0.019  13.027 -3.2497 -0.9720 -1.6921
 3663SOL     OW22624   0.314   4.182   8.022  0.2014 -0.0030 -0.4989
 3663SOL    HW122625   0.221   4.161   8.018 -0.2724  1.2578  4.7808
 3663SOL    HW222626   0.345   4.092   8.010 -1.5139 -0.7916  1.0022
 3664SOL     OW22627   3.410   3.166   1.141  0.3340  0.5646 -0.3482
 3664SOL    HW122628   3.444   3.091   1.190 -0.8086  2.0079  2.6981
 3664SOL    HW222629   3.432   3.139   1.052 -0.0861  1.3246 -0.6900
 3665SOL     OW22630   0.623   3.705   8.708 -0.0555 -0.2263  0.2728
 3665SOL    HW122631   0.535   3.743   8.712 -0.9492 -2.2056 -0.7091
 3665SOL    HW222632   0.598   3.613   8.704 -0.7341 -0.0818  1.1885
 3666SOL     OW22633   0.563   2.538   4.940  0.0879  0.0820 -0.1176
 3666SOL    HW122634   0.637   2.481   4.960 -0.4416 -1.0498 -1.3762
 3666SOL    HW222635   0.543   2.504   4.853  0.7970 -0.5959 -0.0184
 3667SOL     OW22636   3.079   4.350   1.319  0.2404 -0.2568 -0.0708
 3667SOL    HW122637   3.054   4.405   1.394 -1.8247 -0.7469 -0.3993
 3667SOL    HW222638   3.024   4.272   1.326  0.2622 -0.2214  0.5474
 3668SOL     OW22639   0.829   2.880   5.941  0.3717  0.1040 -0.6119
 3668SOL    HW122640   0.734   2.889   5.946  0.4303  1.0177 -1.0978
 3668SOL    HW222641   0.844   2.892   6.035  0.2496  0.0185 -0.5812
 3669SOL     OW22642   3.226   3.208  17.083 -0.5856 -0.4739 -0.3367
 3669SOL    HW122643   3.222   3.303  17.091 -0.8522 -0.5362  0.2447
 3669SOL    HW222644   3.137   3.200  17.118 -0.9770 -2.0326 -1.6716
 3670SOL     OW22645   0.874   1.075   0.334  0.2676 -0.2203 -0.0092
 3670SOL    HW122646   0.940   1.135   0.301 -0.2040  0.1545 -0.2820
 3670SOL    HW222647   0.867   0.999   0.276 -0.7811 -1.4364  1.7134
 3671SOL     OW22648   1.979   1.181   3.266  0.7003  0.3711 -0.0468
 3671SOL    HW122649   1.990   1.141   3.180 -1.1306  0.8988 -0.5248
 3671SOL    HW222650   1.946   1.113   3.324  1.0431 -0.1302 -0.4425
 3672SOL     OW22651   1.636   4.131   2.898 -0.3838  0.6684 -0.3023
 3672SOL    HW122652   1.584   4.212   2.905 -1.1708 -0.0100  1.6746
 3672SOL    HW222653   1.595   4.106   2.816 -0.2714  1.1299 -0.5008
 3673SOL     OW22654   3.052   2.537   8.273 -0.6476 -0.9079  0.4596
 3673SOL    HW122655   3.094   2.586   8.344  0.4312 -2.1069  0.6342
 3673SOL    HW222656   2.960   2.528   8.299 -1.4167  1.3846 -1.4606
 3674SOL     OW22657   2.475   2.941  12.947  0.0506 -0.4397  0.3218
 3674SOL    HW122658   2.467   2.984  12.862 -1.0952  0.2591  0.7886
 3674SOL    HW222659   2.529   3.007  12.990 -1.6032  0.8771  0.3576
 3675SOL     OW22660   3.132   1.419   2.813  0.1423  0.0837  0.4653
 3675SOL    HW122661   3.165   1.467   2.890  0.2524  1.8488 -0.6708
 3675SOL    HW222662   3.090   1.347   2.859 -1.3091  0.7414  0.1576
 3676SOL     OW22663   0.776   2.137  12.630  0.7945  0.0866 -0.2073
 3676SOL    HW122664   0.784   2.057  12.578 -0.7711 -0.5049  0.4490
 3676SOL    HW222665   0.774   2.089  12.712 -0.1184  1.2827  0.4754
 3677SOL     OW22666   2.767   2.569  16.661 -0.0605  0.3931  0.5191
 3677SOL    HW122667   2.845   2.515  16.653 -2.4954 -3.2084  1.3858
 3677SOL    HW222668   2.752   2.563  16.755 -0.7732 -0.0610  0.3786
 3678SOL     OW22669   1.698   3.810   6.169  0.3947  0.2518  0.2637
 3678SOL    HW122670   1.772   3.839   6.223  1.8205 -0.1130 -1.5124
 3678SOL    HW222671   1.634   3.881   6.169 -0.4748 -0.5292 -1.4653
 3679SOL     OW22672   4.451   3.443   5.285  0.0730  0.1828 -0.2529
 3679SOL    HW122673   4.477   3.351   5.280  1.4785  0.4068  2.7653
 3679SOL    HW222674   4.463   3.486   5.201  0.1092 -1.5395 -1.1195
 3680SOL     OW22675   1.896   1.623   2.002 -0.3379  0.5899  0.3560
 3680SOL    HW122676   1.929   1.664   2.082  0.0221  2.6864 -0.8622
 3680SOL    HW222677   1.959   1.651   1.936  1.2027  0.1986  1.6722
 3681SOL     OW22678   1.440   1.536   7.185 -0.4223  0.1587  0.4762
 3681SOL    HW122679   1.429   1.516   7.278  2.6893 -1.4541  0.4826
 3681SOL    HW222680   1.534   1.554   7.182 -0.1751 -0.6521  2.7952
 3682SOL     OW22681   3.918   0.302   8.905  0.5435 -0.0224 -0.0755
 3682SOL    HW122682   3.926   0.373   8.968 -0.7909 -0.7601  0.9194
 3682SOL    HW222683   3.975   0.336   8.836 -1.3902  0.9242 -1.2084
 3683SOL     OW22684   2.120   3.213  16.319 -0.0773 -0.2170 -0.0255
 3683SOL    HW122685   2.119   3.147  16.250 -0.4341  0.6413 -0.8386
 3683SOL    HW222686   2.165   3.287  16.278  2.1014 -1.8641 -0.5966
 3684SOL     OW22687   2.572   3.358   4.920  0.0501 -0.0137 -0.1818
 3684SOL    HW122688   2.660   3.383   4.948  0.2130  0.3831 -1.0765
 3684SOL    HW222689   2.573   3.272   4.963 -0.7311 -0.1286 -0.3935
 3685SOL     OW22690   0.315   1.594   2.524 -0.1237 -0.2664 -0.5171
 3685SOL    HW122691   0.384   1.610   2.460  0.3539  1.1374  0.3461
 3685SOL    HW222692   0.345   1.643   2.601 -3.4522  3.0758 -1.3268
 3686SOL     OW22693   3.127   2.914  15.843 -0.2645  0.1388 -0.4081
 3686SOL    HW122694   3.058   2.973  15.873 -0.0380 -1.3975  3.0410
 3686SOL    HW222695   3.197   2.979  15.828 -0.9219  0.7972 -0.6195
 3687SOL     OW22696   2.833   1.954   7.039  0.2172  0.2985 -0.5264
 3687SOL    HW122697   2.812   1.861   7.043  1.1750  0.0355 -1.4672
 3687SOL    HW222698   2.834   1.984   7.130  2.4836  0.0785 -0.4901
 3688SOL     OW22699   3.055   4.320   8.591  0.4227 -0.4359 -0.1941
 3688SOL    HW122700   3.120   4.299   8.524  0.4578  0.2920 -0.3843
 3688SOL    HW222701   2.982   4.302   8.532 -1.3695  0.2146  1.8292
 3689SOL     OW22702   1.818   0.194  13.201 -0.1270  0.3894  0.0666
 3689SOL    HW122703   1.900   0.242  13.190 -0.6505  1.1476 -0.5518
 3689SOL    HW222704   1.819   0.133  13.128  0.9796 -0.9470  1.2099
 3690SOL     OW22705   0.376   1.720   7.175 -0.3166  0.2207 -0.4874
 3690SOL    HW122706   0.348   1.786   7.111 -0.0497  0.8056 -0.0012
 3690SOL    HW222707   0.415   1.652   7.120  1.3047 -0.0179  0.9531
 3691SOL     OW22708   0.430   1.437   9.275 -0.4433  0.0863  0.7518
 3691SOL    HW122709   0.462   1.492   9.347  0.0010 -1.0545  1.4170
 3691SOL    HW222710   0.407   1.357   9.322 -0.3628  0.6513  1.7654
 3692SOL     OW22711   4.605   3.064   6.489 -0.5442  0.0669  0.3645
 3692SOL    HW122712   4.661   3.067   6.567  0.1980  1.1904 -0.2106
 3692SOL    HW222713   4.585   3.158   6.488  0.1154  0.1658 -2.2457
 3693SOL     OW22714   1.422   4.323  12.477  0.4520 -0.5432 -0.1269
 3693SOL    HW122715   1.413   4.229  12.492 -0.1468 -0.5852 -0.7198
 3693SOL    HW222716   1.516   4.329  12.494  0.1149 -0.0730  1.5493
 3694SOL     OW22717   3.454   4.344   3.384 -0.3365  0.1497 -0.0116
 3694SOL    HW122718   3.398   4.270   3.408  1.2989  0.2083  3.8960
 3694SOL    HW222719   3.448   4.327   3.290 -0.9739 -1.5185  0.3430
 3695SOL     OW22720   0.106   4.571  13.710 -0.0574  0.3961 -0.6255
 3695SOL    HW122721   0.012   4.580  13.694 -0.0562  1.3303 -0.1183
 3695SOL    HW222722   0.113   4.478  13.729 -1.7077  0.0735 -1.5470
 3696SOL     OW22723   2.701   0.657   2.765  0.4145 -0.1516  0.8321
 3696SOL    HW122724   2.711   0.728   2.829 -0.7432  0.4132  0.3875
 3696SOL    HW222725   2.609   0.635   2.775 -0.0260  1.4903  0.4257
 3697SOL     OW22726   2.609   2.371  10.844  0.0497  0.0866  0.2042
 3697SOL    HW122727   2.551   2.394  10.916 -0.7326 -0.0276 -0.3882
 3697SOL    HW222728   2.684   2.342  10.896  0.6029 -1.1579 -1.2931
 3698SOL     OW22729   2.290   0.029   6.606 -0.0354 -0.2949  0.2847
 3698SOL    HW122730   2.369   0.049   6.555 -0.5312 -0.8563 -0.6903
 3698SOL    HW222731   2.234   4.732   6.539  0.1062  0.6156 -0.3573
 3699SOL     OW22732   0.271   1.649   3.764 -0.0389 -0.2732  0.4901
 3699SOL    HW122733   0.202   1.692   3.814 -1.8401 -1.1389 -1.2281
 3699SOL    HW222734   0.352   1.677   3.806 -0.8772  0.2593  1.7156
 3700SOL     OW22735   1.146   2.614   6.926 -0.3650 -0.2856  0.1514
 3700SOL    HW122736   1.108   2.647   7.007  1.3559 -1.4673  1.4278
 3700SOL    HW222737   1.113   2.525   6.923 -0.3073 -0.3286  0.9279
 3701SOL     OW22738   0.719   2.959   2.382 -0.3083  0.5053  0.1221
 3701SOL    HW122739   0.809   2.968   2.351  0.0686  1.1463  1.4328
 3701SOL    HW222740   0.693   2.878   2.338  2.1421  0.3934 -1.0956
 3702SOL     OW22741   3.728   0.694  15.948  0.6740  0.4172 -0.4826
 3702SOL    HW122742   3.675   0.694  15.868  1.0633 -3.1127 -0.7510
 3702SOL    HW222743   3.760   0.780  15.973  0.6087  0.0776  0.7955
 3703SOL     OW22744   2.802   2.423   8.684  0.0369 -0.1706 -0.0970
 3703SOL    HW122745   2.724   2.467   8.651  1.5263  1.0807 -1.9556
 3703SOL    HW222746   2.818   2.361   8.613  1.8195 -0.6264  0.7083
 3704SOL     OW22747   4.437   1.012  15.673  0.4105  0.3239 -0.1231
 3704SOL    HW122748   4.450   0.919  15.695 -1.1225  0.4319  1.2859
 3704SOL    HW222749   4.462   1.008  15.581 -0.3539  0.5042 -0.3339
 3705SOL     OW22750   2.406   2.464   8.395 -0.6322  0.6759  0.0538
 3705SOL    HW122751   2.314   2.488   8.384 -1.1037 -1.0783  0.2131
 3705SOL    HW222752   2.437   2.510   8.317 -0.0251  0.4545  0.1713
 3706SOL     OW22753   0.177   1.508   2.001  0.2392 -0.5139 -0.0925
 3706SOL    HW122754   0.166   1.432   1.944  0.7779 -0.6719  0.0175
 3706SOL    HW222755   0.239   1.463   2.058 -0.1491 -0.2273  0.5616
 3707SOL     OW22756   3.172   2.482   5.513  0.1454  0.2321 -0.0041
 3707SOL    HW122757   3.101   2.529   5.555  0.4952  0.0727  0.7834
 3707SOL    HW222758   3.251   2.534   5.527 -1.1200  2.1706 -0.2073
 3708SOL     OW22759   1.469   3.394   8.612 -0.0848  0.0759  0.5545
 3708SOL    HW122760   1.518   3.313   8.626  0.2620  0.1995  0.0268
 3708SOL    HW222761   1.439   3.365   8.526  1.2584 -1.3304  0.5710
 3709SOL     OW22762   4.576   3.350   3.692 -0.5895  0.1213 -0.1509
 3709SOL    HW122763   4.635   3.418   3.724  1.7715 -1.7982 -0.4791
 3709SOL    HW222764   4.583   3.376   3.599  1.5616  0.8337  0.2126
 3710SOL     OW22765   4.074   0.728   5.408 -0.1132 -0.6729 -0.3158
 3710SOL    HW122766   4.096   0.777   5.487 -0.2125 -1.3284  0.1173
 3710SOL    HW222767   3.999   0.773   5.368 -0.1905  0.2261  0.8418
 3711SOL     OW22768   2.452   1.190   8.005 -0.0769  0.6354 -0.0293
 3711SOL    HW122769   2.498   1.273   7.989 -0.5061  0.9102  0.1577
 3711SOL    HW222770   2.497   1.139   7.938  1.8778  1.3307  0.7716
 3712SOL     OW22771   0.849   0.428   3.351  0.0987  0.3912 -0.0306
 3712SOL    HW122772   0.856   0.509   3.301  0.2239  0.4424  0.0698
 3712SOL    HW222773   0.810   0.462   3.431 -1.7282 -2.8510  0.4920
 3713SOL     OW22774   0.332   4.182   2.729 -0.0932  0.0858 -0.1280
 3713SOL    HW122775   0.291   4.253   2.679  1.1189  1.1825  0.4300
 3713SOL    HW222776   0.251   4.131   2.729 -1.1418  1.7274 -1.5675
 3714SOL     OW22777   2.922   1.680   4.032  0.1842  0.3243  0.0305
 3714SOL    HW122778   2.932   1.630   4.113  0.0795  1.5747  0.8190
 3714SOL    HW222779   2.957   1.617   3.970  2.8571  1.6310  0.2317
 3715SOL     OW22780   0.468   3.131   6.762 -0.2488 -0.3472  0.1340
 3715SOL    HW122781   0.390   3.155   6.812  2.0502  2.1552  2.5179
 3715SOL    HW222782   0.465   3.036   6.773  1.6161 -0.4030  0.1361
 3716SOL     OW22783   0.277   1.947   2.404  0.0703  0.3496 -0.1959
 3716SOL    HW122784   0.359   1.950   2.453 -0.4755 -0.2357  0.7636
 3716SOL    HW222785   0.214   1.982   2.467 -2.8110 -1.5503 -2.0551
 3717SOL     OW22786   3.947   2.239   6.004 -0.4253 -0.0318 -0.3918
 3717SOL    HW122787   4.021   2.222   5.946 -1.8593 -1.7203 -1.7228
 3717SOL    HW222788   3.979   2.219   6.092  0.7229  1.1896 -0.5255
 3718SOL     OW22789   2.016   4.500   2.136  0.4482 -0.0204  0.7509
 3718SOL    HW122790   2.063   4.583   2.148 -0.1451  0.5782 -0.9874
 3718SOL    HW222791   2.061   4.440   2.195 -0.4675 -0.5294  0.9431
 3719SOL     OW22792   3.367   2.236   6.087  0.4279 -0.2676  0.3763
 3719SOL    HW122793   3.385   2.170   6.154 -0.5721 -1.0473 -0.1185
 3719SOL    HW222794   3.290   2.277   6.127 -0.0793  0.5240 -1.4136
 3720SOL     OW22795   2.896   4.246  11.725 -0.1502 -0.4532 -0.1723
 3720SOL    HW122796   2.921   4.224  11.815 -1.9196  1.1310  0.7039
 3720SOL    HW222797   2.983   4.273  11.694 -1.0285  0.7473 -1.5481
 3721SOL     OW22798   1.327   1.266  17.292 -0.1852  0.3361  0.4997
 3721SOL    HW122799   1.328   1.338  17.355 -0.9967  0.0556  0.8354
 3721SOL    HW222800   1.234   1.245  17.298 -0.3780  0.3099 -2.6845
 3722SOL     OW22801   0.200   0.125   7.130  0.2690  0.3929  0.0123
 3722SOL    HW122802   0.219   0.080   7.212  0.1813 -0.6387 -0.5310
 3722SOL    HW222803   0.292   0.133   7.102  0.7662  0.0776  1.5516
 3723SOL     OW22804   2.238   4.251   3.554  0.1827  0.1880 -0.4565
 3723SOL    HW122805   2.193   4.172   3.583  1.6090  0.1756  1.7074
 3723SOL    HW222806   2.231   4.237   3.459  0.7166  1.8951 -0.7585
 3724SOL     OW22807   0.716   3.857   4.072 -0.4022  0.1389 -0.3358
 3724SOL    HW122808   0.631   3.829   4.036 -1.8115  0.6258  2.6447
 3724SOL    HW222809   0.766   3.849   3.991  1.0638  2.1919  0.3910
 3725SOL     OW22810   4.627   1.745   6.345 -0.4712  0.2401 -0.0184
 3725SOL    HW122811   4.554   1.803   6.366 -1.9428 -2.1884  1.5103
 3725SOL    HW222812   4.587   1.716   6.263  0.7370  0.9813 -0.8748
 3726SOL     OW22813   1.603   3.493   8.881  0.1281  0.0155 -0.3646
 3726SOL    HW122814   1.644   3.439   8.813 -2.3107 -0.7133 -1.2640
 3726SOL    HW222815   1.671   3.548   8.919 -0.7416  1.8415 -1.4401
 3727SOL     OW22816   1.573   4.438  17.592  0.0169  0.6829  0.7427
 3727SOL    HW122817   1.559   4.345  17.608 -0.8634  0.8301  0.8356
 3727SOL    HW222818   1.668   4.445  17.583  0.1447  0.2758  1.7201
 3728SOL     OW22819   3.341   0.041   6.673 -0.2619  0.1352 -0.0724
 3728SOL    HW122820   3.329   4.688   6.663 -0.9989  0.1119  0.9525
 3728SOL    HW222821   3.433   0.054   6.649  0.1335  1.2298  1.9575
 3729SOL     OW22822   2.025   2.029  10.678 -0.8397 -0.1789 -0.0477
 3729SOL    HW122823   2.112   2.051  10.711 -1.4621  0.8138  0.9248
 3729SOL    HW222824   2.002   2.004  10.767  2.3623  1.1419  1.1685
 3730SOL     OW22825   0.329   3.716  10.731  0.0645 -0.0755  0.5596
 3730SOL    HW122826   0.395   3.699  10.798  1.7247 -3.8418 -2.0546
 3730SOL    HW222827   0.382   3.715  10.652  0.2258  2.0300  0.6334
 3731SOL     OW22828   4.608   2.700   3.251 -0.0611 -0.6480  0.1651
 3731SOL    HW122829   4.523   2.709   3.207 -0.4890 -0.9859  0.9128
 3731SOL    HW222830   4.669   2.681   3.179 -1.6917 -0.7317 -1.2049
 3732SOL     OW22831   2.263   1.365   4.728  0.2995  0.4627 -0.4875
 3732SOL    HW122832   2.315   1.444   4.710  1.0961  0.1559  0.4672
 3732SOL    HW222833   2.197   1.392   4.792 -0.7531 -0.1083 -1.3326
 3733SOL     OW22834   1.158   3.387  16.020  0.1156  0.0998  0.4745
 3733SOL    HW122835   1.064   3.406  16.023 -0.2140 -1.4481 -0.3547
 3733SOL    HW222836   1.170   3.336  16.100  0.6288  0.6742  0.7689
 3734SOL     OW22837   1.590   0.434   2.139  0.4809 -0.1953 -0.3874
 3734SOL    HW122838   1.681   0.460   2.153  0.0333  0.7047  0.8181
 3734SOL    HW222839   1.565   0.495   2.208  2.0241  0.3505 -0.3092
 3735SOL     OW22840   4.316   4.350   5.473  0.5357 -0.5839  0.2869
 3735SOL    HW122841   4.366   4.431   5.468 -0.0044 -0.4035 -2.3902
 3735SOL    HW222842   4.370   4.294   5.529 -1.0415 -1.0300  1.3688
 3736SOL     OW22843   2.527   0.901   1.907 -0.4270 -0.0819  0.4038
 3736SOL    HW122844   2.440   0.873   1.933 -0.7175  2.2855  1.9917
 3736SOL    HW222845   2.579   0.830   1.946 -1.0820 -0.1302  1.1747
 3737SOL     OW22846   3.461   1.377   1.603 -0.1037 -0.2165  1.3323
 3737SOL    HW122847   3.482   1.429   1.681  0.4600 -0.1936  1.1662
 3737SOL    HW222848   3.392   1.317   1.632 -1.1940  1.3942  2.0948
 3738SOL     OW22849   1.079   4.018   3.723 -0.7182  0.2596  0.2012
 3738SOL    HW122850   0.994   4.052   3.750  0.4174  2.3118  1.1539
 3738SOL    HW222851   1.104   4.058   3.639 -0.5419  1.3378  0.7757
 3739SOL     OW22852   2.627   3.549   5.501 -0.7604 -0.0115 -0.5307
 3739SOL    HW122853   2.654   3.638   5.525  1.1353  0.1248 -3.0603
 3739SOL    HW222854   2.538   3.569   5.471 -1.5879 -0.8323  1.4165
 3740SOL     OW22855   4.150   2.459  14.704  0.0722 -0.0403  0.0762
 3740SOL    HW122856   4.149   2.466  14.800 -0.5288 -1.1906  0.1537
 3740SOL    HW222857   4.165   2.365  14.701  0.3030  0.0060 -0.2261
 3741SOL     OW22858   3.453   0.660   7.564 -0.0675 -0.2001  0.2777
 3741SOL    HW122859   3.547   0.675   7.556  0.2510 -3.4300 -2.5480
 3741SOL    HW222860   3.456   0.613   7.647  1.1279 -0.9374 -0.1753
 3742SOL     OW22861   3.662   2.123   2.277 -0.4114  0.3045  0.1965
 3742SOL    HW122862   3.614   2.060   2.223 -1.2080  1.1918 -0.1216
 3742SOL    HW222863   3.629   2.204   2.239  0.4082  1.5984  2.2346
 3743SOL     OW22864   0.701   4.546   4.478  0.1575  0.5548  0.1179
 3743SOL    HW122865   0.743   4.496   4.549 -2.2494  1.0350  1.8849
 3743SOL    HW222866   0.722   4.485   4.407  3.4408  1.9574 -0.1500
 3744SOL     OW22867   2.938   2.773   2.480  0.2084  0.2929 -0.2293
 3744SOL    HW122868   2.949   2.691   2.529  0.3331 -0.6240 -1.8030
 3744SOL    HW222869   2.862   2.746   2.429  0.3298 -1.0862  0.2898
 3745SOL     OW22870   0.461   2.304   2.399  0.2917  0.5227 -0.0272
 3745SOL    HW122871   0.471   2.216   2.364  1.7792  0.6872 -0.0270
 3745SOL    HW222872   0.475   2.363   2.325  1.3254 -1.5774 -1.5054
 3746SOL     OW22873   1.447   4.415   6.982 -0.1310 -0.4244  0.4699
 3746SOL    HW122874   1.381   4.388   7.045 -0.6843  1.0049  0.5070
 3746SOL    HW222875   1.497   4.334   6.982 -0.4501 -0.6189  0.3149
 3747SOL     OW22876   2.676   3.995   2.415  0.5359 -0.1965  0.2939
 3747SOL    HW122877   2.659   4.068   2.475  2.0642 -1.5219  2.3260
 3747SOL    HW222878   2.729   4.028   2.343  0.3222 -2.8347 -1.0719
 3748SOL     OW22879   1.203   2.945   3.125  0.2342  0.3687 -0.0924
 3748SOL    HW122880   1.209   2.850   3.118 -3.7481  0.3079 -2.5903
 3748SOL    HW222881   1.126   2.960   3.069  0.5011 -0.3411 -0.6450
 3749SOL     OW22882   2.134   2.601   9.398  0.3001 -0.4297  0.0421
 3749SOL    HW122883   2.158   2.651   9.476 -1.0625  2.0201 -1.1160
 3749SOL    HW222884   2.189   2.523   9.408 -2.0584 -2.2589 -1.0388
 3750SOL     OW22885   2.152   2.085  17.699  0.0190 -0.5665  0.1286
 3750SOL    HW122886   2.081   2.025  17.676  0.3180 -0.6663 -0.5433
 3750SOL    HW222887   2.218   2.054  17.637  1.5372 -0.4104  1.6710
 3751SOL     OW22888   3.934   4.547   2.197  0.7089 -0.2551  0.5049
 3751SOL    HW122889   3.978   4.594   2.268  1.7352  1.9368 -1.5845
 3751SOL    HW222890   3.999   4.558   2.128 -0.0431  0.4452 -0.0895
 3752SOL     OW22891   0.369   2.943   0.712 -0.0526  0.2968  0.1230
 3752SOL    HW122892   0.430   2.912   0.645 -0.3476 -1.6993  0.7697
 3752SOL    HW222893   0.319   3.001   0.656 -0.7647  1.8456  2.3522
 3753SOL     OW22894   0.271   0.490   2.081  0.0942 -0.4257  0.2696
 3753SOL    HW122895   0.245   0.404   2.114 -0.0624 -0.7472 -0.6840
 3753SOL    HW222896   0.307   0.528   2.161 -1.8838 -0.9934  1.4163
 3754SOL     OW22897   4.512   4.725  15.216  0.4585  0.1557  0.5421
 3754SOL    HW122898   4.514   0.004  15.310  1.4285 -0.6470  0.6947
 3754SOL    HW222899   4.606   4.713  15.203  0.4120  0.2155  0.1511
 3755SOL     OW22900   4.579   3.521  15.652 -0.4118 -0.1380 -0.6976
 3755SOL    HW122901   4.531   3.538  15.733 -2.2365  1.8841 -2.2307
 3755SOL    HW222902   4.655   3.571  15.683 -0.0696 -1.0498 -0.0428
 3756SOL     OW22903   4.300   3.678  12.355  0.4864 -0.0206 -0.5657
 3756SOL    HW122904   4.205   3.668  12.351  0.5295 -1.3458  1.6093
 3756SOL    HW222905   4.309   3.758  12.303  3.3583  0.5838  0.8218
 3757SOL     OW22906   2.402   1.675   2.935 -0.1232 -0.0637  0.7969
 3757SOL    HW122907   2.405   1.743   3.002 -0.5058  1.4532 -0.7129
 3757SOL    HW222908   2.410   1.599   2.992  2.1835 -1.3049 -1.2052
 3758SOL     OW22909   0.437   0.561   6.328 -0.5345  0.3217 -0.2662
 3758SOL    HW122910   0.360   0.593   6.281 -0.3171 -0.7376 -1.3341
 3758SOL    HW222911   0.400   0.547   6.415 -0.0619  1.4885  0.1196
 3759SOL     OW22912   0.406   1.323   3.103  0.1714 -0.6409  0.6450
 3759SOL    HW122913   0.350   1.246   3.102  0.0424 -0.5566  1.2206
 3759SOL    HW222914   0.348   1.388   3.064  0.3531 -0.4650  0.6675
 3760SOL     OW22915   1.124   1.564   3.140 -0.0307 -0.9016  0.5245
 3760SOL    HW122916   1.195   1.545   3.201 -0.6407  0.4970  1.6755
 3760SOL    HW222917   1.074   1.483   3.123 -0.0309 -0.1517 -3.0328
 3761SOL     OW22918   3.311   1.368   3.823  0.4741 -0.5392 -0.3315
 3761SOL    HW122919   3.356   1.330   3.749  2.4220 -1.0360  1.1086
 3761SOL    HW222920   3.379   1.434   3.840  1.4526 -1.1175 -2.0821
 3762SOL     OW22921   0.666   1.620   7.222 -0.1412 -0.0882  0.2115
 3762SOL    HW122922   0.686   1.574   7.304 -1.8036 -0.5473  0.3472
 3762SOL    HW222923   0.585   1.573   7.207  1.3073 -2.8380  1.0659
 3763SOL     OW22924   1.832   0.415   5.285  0.6615 -0.0225  0.5054
 3763SOL    HW122925   1.763   0.382   5.228 -0.2667 -0.0339  1.6420
 3763SOL    HW222926   1.889   0.339   5.289 -1.1783 -1.3976  0.2979
 3764SOL     OW22927   0.863   4.443   6.827 -0.1316  0.5007 -0.2958
 3764SOL    HW122928   0.845   4.359   6.868  0.6755  1.3322  1.7493
 3764SOL    HW222929   0.829   4.429   6.738 -1.4493  2.0564 -0.0339
 3765SOL     OW22930   0.831   1.254   6.689  0.4082 -0.5759 -0.5634
 3765SOL    HW122931   0.747   1.265   6.644 -0.2686 -0.1759  0.7861
 3765SOL    HW222932   0.816   1.191   6.759 -0.2878  0.2970  0.0777
 3766SOL     OW22933   1.347   1.003  10.478  0.8347 -0.2667  0.0337
 3766SOL    HW122934   1.442   1.001  10.485  1.0149  0.3273 -2.1202
 3766SOL    HW222935   1.325   0.967  10.564  3.1515 -1.1287  0.2589
 3767SOL     OW22936   1.342   3.988   6.463  0.2314  0.0948  0.4991
 3767SOL    HW122937   1.363   3.913   6.407 -0.0736  0.1852  0.2616
 3767SOL    HW222938   1.382   4.069   6.430 -2.6901  1.2462 -0.2325
 3768SOL     OW22939   0.230   2.623   9.111  0.3338  0.4156 -0.3692
 3768SOL    HW122940   0.197   2.679   9.181 -0.8157  0.0849 -0.6327
 3768SOL    HW222941   0.258   2.545   9.157 -2.4376 -1.7936 -2.4183
 3769SOL     OW22942   0.738   0.913  10.229  0.4452 -0.1794  0.0950
 3769SOL    HW122943   0.810   0.853  10.213 -0.8124 -2.1426  1.7319
 3769SOL    HW222944   0.770   0.980  10.290  0.2609  1.5023 -1.6528
 3770SOL     OW22945   3.732   2.264   8.497 -0.0354  0.9999  0.0768
 3770SOL    HW122946   3.640   2.243   8.485  0.6730 -0.0459 -3.6761
 3770SOL    HW222947   3.771   2.185   8.460 -2.2468 -0.9476  1.9311
 3771SOL     OW22948   3.456   1.979   2.542 -0.6765  0.3720  0.3060
 3771SOL    HW122949   3.435   2.014   2.455  2.8311  0.3021 -0.5646
 3771SOL    HW222950   3.373   1.986   2.589 -0.7369  1.4348  0.0516
 3772SOL     OW22951   4.479   0.619  13.495  0.7053  0.7307 -0.0433
 3772SOL    HW122952   4.431   0.672  13.559  0.4847  1.0598 -0.4791
 3772SOL    HW222953   4.407   0.602  13.435 -0.2780  1.5099  0.9190
 3773SOL     OW22954   2.398   3.826   2.763 -0.1131  0.1626  0.3870
 3773SOL    HW122955   2.340   3.901   2.778 -0.4600  0.5945 -2.9923
 3773SOL    HW222956   2.371   3.772   2.837  0.9317  0.4997  1.0105
 3774SOL     OW22957   3.131   2.333   3.116  0.6983 -0.4866  0.3925
 3774SOL    HW122958   3.051   2.370   3.153  0.4754  0.5260 -1.0635
 3774SOL    HW222959   3.088   2.265   3.064 -1.7427  1.9951 -0.8831
 3775SOL     OW22960   1.575   4.422  15.350  0.4442  0.0997 -0.2853
 3775SOL    HW122961   1.518   4.415  15.426  0.5882 -1.7900 -0.3509
 3775SOL    HW222962   1.585   4.331  15.324  0.8046 -0.0107  0.2521
 3776SOL     OW22963   0.293   2.294   4.019  0.0651 -0.3898  0.3012
 3776SOL    HW122964   0.316   2.232   4.089  1.1843 -0.3558 -0.0409
 3776SOL    HW222965   0.352   2.270   3.948  0.7796 -0.6714  0.9866
 3777SOL     OW22966   3.036   3.303   1.422  0.0405  0.2338  0.2361
 3777SOL    HW122967   3.036   3.327   1.329 -0.2654 -1.0426 -0.0928
 3777SOL    HW222968   2.960   3.245   1.419  1.3993 -1.4787 -0.6600
 3778SOL     OW22969   0.881   1.685   3.204  0.3651  0.4364 -0.3414
 3778SOL    HW122970   0.845   1.704   3.117  0.3785  0.1612 -0.4075
 3778SOL    HW222971   0.970   1.665   3.176  0.7451  0.5975  0.7372
 3779SOL     OW22972   3.514   3.824   6.271 -0.3306 -0.3230 -0.4914
 3779SOL    HW122973   3.511   3.776   6.188 -0.9982  0.9529 -1.2237
 3779SOL    HW222974   3.601   3.864   6.271 -0.5678  0.1990 -1.4541
 3780SOL     OW22975   3.542   0.154   5.654 -0.0356  0.1219  0.1519
 3780SOL    HW122976   3.599   0.084   5.684  1.2283  1.1770  0.2265
 3780SOL    HW222977   3.458   0.111   5.669  0.1867  0.6235  2.7571
 3781SOL     OW22978   0.474   0.503   5.371  0.1646 -0.3113 -0.2096
 3781SOL    HW122979   0.562   0.535   5.391  0.5414 -1.2881 -0.2785
 3781SOL    HW222980   0.481   0.436   5.303 -0.5459  0.3666 -0.9475
 3782SOL     OW22981   2.677   2.564   2.093 -0.0635 -0.7609  0.0495
 3782SOL    HW122982   2.627   2.532   2.018 -0.7880  0.2705  0.0913
 3782SOL    HW222983   2.769   2.549   2.070  0.1835 -0.3113  0.7494
 3783SOL     OW22984   0.804   0.751  17.368  0.2449 -0.7866  0.5349
 3783SOL    HW122985   0.749   0.809  17.422 -0.6880  1.2099 -2.5670
 3783SOL    HW222986   0.809   0.800  17.286  1.2442 -0.9838  0.4803
 3784SOL     OW22987   0.261   2.112   7.093  0.1926  0.3211  0.1377
 3784SOL    HW122988   0.203   2.127   7.167  1.5806 -1.4050  1.5861
 3784SOL    HW222989   0.307   2.195   7.083 -0.8027  0.8448  0.0032
 3785SOL     OW22990   2.067   3.720   7.561 -0.1299 -0.6030 -0.3504
 3785SOL    HW122991   2.104   3.781   7.625 -1.2199 -1.1963  0.8389
 3785SOL    HW222992   2.138   3.730   7.497 -1.4264  2.5656 -1.2793
 3786SOL     OW22993   4.559   4.582   0.843  0.3054 -0.8431  0.3498
 3786SOL    HW122994   4.594   4.647   0.904 -1.5783  2.1425 -1.7869
 3786SOL    HW222995   4.640   4.531   0.834  1.3781  1.0244 -0.5681
 3787SOL     OW22996   2.802   1.344   0.356 -0.2529 -0.1383 -0.1593
 3787SOL    HW122997   2.782   1.413   0.420  1.2199 -0.2510  0.4010
 3787SOL    HW222998   2.766   1.266   0.398  1.0271  0.8903  2.8968
 3788SOL     OW22999   0.533   4.421  12.416 -0.5471 -0.2901  0.1908
 3788SOL    HW123000   0.477   4.348  12.388  0.2454 -0.1512 -1.7593
 3788SOL    HW223001   0.516   4.457  12.503  1.9859 -0.0345  0.5676
 3789SOL     OW23002   0.260   1.047  14.570 -0.3071 -0.7200  0.7392
 3789SOL    HW123003   0.255   0.975  14.507 -0.4633 -0.7276  0.7602
 3789SOL    HW223004   0.202   1.117  14.537  0.8938  1.1614  2.6103
 3790SOL     OW23005   4.617   1.978  10.392  0.0665 -0.9177 -0.1088
 3790SOL    HW123006   4.558   2.037  10.345 -0.7113 -2.7212 -1.4170
 3790SOL    HW223007   4.552   1.945  10.454  0.9662  0.3018  1.4913
 3791SOL     OW23008   1.354   1.923   3.913 -0.6294  0.3459 -0.2729
 3791SOL    HW123009   1.376   1.952   4.001 -1.4586  0.8573 -0.2372
 3791SOL    HW223010   1.332   1.830   3.922 -0.2716  0.2479 -0.3818
 3792SOL     OW23011   3.032   2.445   4.154 -0.0549 -0.1483  0.2857
 3792SOL    HW123012   3.043   2.350   4.160  1.6128  0.0163 -0.3523
 3792SOL    HW223013   3.111   2.469   4.106 -0.5758  0.3381 -0.3235
 3793SOL     OW23014   0.054   4.698  15.232 -0.2222 -0.0957  0.2180
 3793SOL    HW123015   0.115   4.629  15.205  1.2352  0.9012  1.0010
 3793SOL    HW223016   0.097   0.042  15.219  1.3964 -0.7544  1.3053
 3794SOL     OW23017   2.787   3.643   6.572  0.4320  0.1637  0.4947
 3794SOL    HW123018   2.844   3.567   6.575  1.5560  1.0178  1.0195
 3794SOL    HW223019   2.761   3.647   6.480 -2.0420 -1.2651  1.1138
 3795SOL     OW23020   2.354   2.823   5.255 -0.8094  0.0450  0.2896
 3795SOL    HW123021   2.313   2.796   5.173  2.4803 -2.0191 -0.6536
 3795SOL    HW223022   2.422   2.758   5.271 -2.1726 -0.9406  2.0183
 3796SOL     OW23023   4.138   1.420  13.469  0.1969 -0.2515 -0.1275
 3796SOL    HW123024   4.228   1.451  13.474  0.3102 -0.7694  0.9783
 3796SOL    HW223025   4.124   1.384  13.381 -0.5058 -2.2736  0.8208
 3797SOL     OW23026   4.471   1.999   4.600 -0.1977  0.1578  0.0258
 3797SOL    HW123027   4.403   2.064   4.620  0.6895  0.9095  0.6398
 3797SOL    HW223028   4.524   2.048   4.537  1.2015 -1.2978  0.0924
 3798SOL     OW23029   2.976   4.451  17.288  0.3241 -0.0450  0.1550
 3798SOL    HW123030   2.951   4.496  17.207  0.6562 -1.2840 -0.6473
 3798SOL    HW223031   3.009   4.523  17.342  0.3049 -0.2227  0.4053
 3799SOL     OW23032   4.501   3.942  11.835 -0.3966  0.5655 -1.0833
 3799SOL    HW123033   4.579   3.997  11.844  1.4109 -2.1918 -0.0780
 3799SOL    HW223034   4.523   3.869  11.892 -2.4425  0.9471  0.1725
 3800SOL     OW23035   1.365   3.107   4.856  0.1970  0.0384 -0.0893
 3800SOL    HW123036   1.318   3.183   4.820  1.3752  0.6263 -0.3949
 3800SOL    HW223037   1.441   3.157   4.886  0.3514 -0.8475  0.9813
 3801SOL     OW23038   3.519   4.175  10.036  0.3143 -0.0898 -0.0638
 3801SOL    HW123039   3.452   4.108  10.049 -1.7366  1.7083 -1.4527
 3801SOL    HW223040   3.505   4.214  10.122 -1.9058  0.2127 -0.5684
 3802SOL     OW23041   2.898   0.062   5.055 -0.7661 -0.3774  0.0203
 3802SOL    HW123042   2.982   0.041   5.096 -1.8698 -2.1195  1.3974
 3802SOL    HW223043   2.870   0.144   5.094  2.5819 -0.0952  1.8262
 3803SOL     OW23044   2.066   2.036  17.216 -0.0828  0.3362 -0.2898
 3803SOL    HW123045   2.114   1.974  17.270  2.1337  1.2917 -1.1263
 3803SOL    HW223046   2.105   2.111  17.262  0.9479 -0.1502 -0.3705
 3804SOL     OW23047   3.640   2.363   4.429  0.1498  0.8045  0.1943
 3804SOL    HW123048   3.696   2.374   4.352 -0.1414  0.4544 -0.0670
 3804SOL    HW223049   3.603   2.275   4.430  3.1295 -0.4620 -0.4885
 3805SOL     OW23050   4.184   2.757   3.505  0.1415 -0.2748  0.5416
 3805SOL    HW123051   4.274   2.784   3.487 -0.5791  1.5828 -0.2790
 3805SOL    HW223052   4.203   2.663   3.499  0.5322 -0.0440 -1.9183
 3806SOL     OW23053   2.700   4.586   0.088 -0.1490 -0.3569  0.1254
 3806SOL    HW123054   2.649   4.602   0.008 -0.1558  0.0368  0.2052
 3806SOL    HW223055   2.760   4.661   0.089 -0.8803  0.2476 -1.0516
 3807SOL     OW23056   0.971   1.914   4.024  0.1172  0.0188  0.1659
 3807SOL    HW123057   1.039   1.889   3.961 -0.8603 -2.6597  0.1464
 3807SOL    HW223058   1.019   1.891   4.104 -1.2421  0.4028  1.1000
 3808SOL     OW23059   1.609   2.467   2.526  0.2206 -0.3214  0.3009
 3808SOL    HW123060   1.529   2.505   2.563  0.9238  0.3349  1.1442
 3808SOL    HW223061   1.655   2.551   2.526 -1.4073  0.5540  1.7775
 3809SOL     OW23062   1.061   3.169   5.007  0.0466 -0.4596 -0.1693
 3809SOL    HW123063   0.988   3.109   4.988  1.2841 -1.7478 -0.8696
 3809SOL    HW223064   1.103   3.187   4.923  0.3622  2.1113  0.5627
 3810SOL     OW23065   2.795   2.768   7.362 -0.2014 -0.1906  0.0768
 3810SOL    HW123066   2.790   2.745   7.455 -0.1008 -2.3072 -0.4209
 3810SOL    HW223067   2.768   2.679   7.338  0.3480 -0.4804  0.5600
 3811SOL     OW23068   2.799   4.065   3.129  0.4396  0.2201  0.3500
 3811SOL    HW123069   2.711   4.031   3.144  0.8351 -0.4931  1.0299
 3811SOL    HW223070   2.783   4.147   3.082  1.4519  0.0804 -0.2187
 3812SOL     OW23071   1.800   4.627   1.898  0.1161 -0.0173  0.5578
 3812SOL    HW123072   1.804   4.535   1.924 -2.2522 -0.6089 -1.0880
 3812SOL    HW223073   1.711   4.632   1.861  0.7639 -0.3735 -1.0151
 3813SOL     OW23074   1.878   3.208   2.763  0.4595 -0.4533 -0.0402
 3813SOL    HW123075   1.935   3.161   2.823 -1.9829  1.1299  3.5254
 3813SOL    HW223076   1.932   3.280   2.731 -0.6342  0.5565  0.3542
 3814SOL     OW23077   3.386   2.113   0.637 -0.0112 -0.2573 -0.0833
 3814SOL    HW123078   3.297   2.086   0.613  0.1157 -1.6170  0.9803
 3814SOL    HW223079   3.383   2.088   0.730  1.5167  0.9485  0.2813
 3815SOL     OW23080   3.122   4.488   3.262  0.3028 -0.2103  0.2644
 3815SOL    HW123081   3.153   4.464   3.175  2.0843 -0.3049  0.9410
 3815SOL    HW223082   3.201   4.466   3.311  0.4153 -1.0769 -0.3081
 3816SOL     OW23083   3.709   1.565   9.361  0.6047 -0.6415 -0.2331
 3816SOL    HW123084   3.708   1.642   9.304  0.6171 -0.3155  0.2067
 3816SOL    HW223085   3.652   1.511   9.306 -0.0742  0.5029 -0.6471
 3817SOL     OW23086   2.288   4.074   5.972  0.7025 -0.3509 -0.3270
 3817SOL    HW123087   2.313   3.999   6.026  0.0534 -0.6851 -0.4873
 3817SOL    HW223088   2.193   4.061   5.977  0.8731 -0.6093  2.3382
 3818SOL     OW23089   2.473   0.665   1.154  0.0859 -0.3646  0.2649
 3818SOL    HW123090   2.534   0.724   1.109 -0.7656  2.7672  3.1995
 3818SOL    HW223091   2.428   0.643   1.073  1.9993  0.3792 -0.9912
 3819SOL     OW23092   3.821   3.027   8.299  0.2810  0.4257  0.2597
 3819SOL    HW123093   3.847   2.950   8.350 -1.2845 -0.1226  0.2462
 3819SOL    HW223094   3.727   3.011   8.284  0.3613  1.2721 -1.1484
 3820SOL     OW23095   2.773   0.153   9.188 -0.3550 -0.1985 -0.0345
 3820SOL    HW123096   2.819   0.227   9.147 -0.8612 -0.7971 -1.6678
 3820SOL    HW223097   2.695   0.199   9.220  0.5285 -0.5411  2.6460
 3821SOL     OW23098   4.698   0.681   2.009 -0.1476 -0.2900 -0.5265
 3821SOL    HW123099   4.683   0.769   1.975 -1.4098  0.0607  0.8921
 3821SOL    HW223100   0.003   0.711   2.088 -1.1276 -1.1962  0.3927
 3822SOL     OW23101   0.687   0.211   3.000  0.2238 -0.4327  0.2168
 3822SOL    HW123102   0.766   0.174   3.038  1.0145 -0.6048 -1.6068
 3822SOL    HW223103   0.650   0.249   3.080 -0.6347 -0.0964 -0.3332
 3823SOL     OW23104   3.364   4.396  11.435  0.9196  0.0574 -0.5036
 3823SOL    HW123105   3.309   4.448  11.378  0.4141  0.7255  0.5925
 3823SOL    HW223106   3.368   4.450  11.514 -0.2568 -0.6003  0.0114
 3824SOL     OW23107   3.716   4.114  15.438  0.4621 -0.2780 -0.2870
 3824SOL    HW123108   3.754   4.148  15.357  2.7651 -1.4825  0.3058
 3824SOL    HW223109   3.788   4.145  15.493  0.3622  1.2018 -0.9946
 3825SOL     OW23110   2.114   0.004   8.032 -0.5474  0.2762  0.1318
 3825SOL    HW123111   2.074   0.086   8.005  0.3992  1.2111  1.5863
 3825SOL    HW223112   2.206   0.025   8.015 -0.4005 -1.6506 -1.5255
 3826SOL     OW23113   2.131   2.930   3.573  0.4958 -0.5022 -0.3609
 3826SOL    HW123114   2.195   2.865   3.602 -0.2954 -1.1284 -0.0331
 3826SOL    HW223115   2.149   2.923   3.480 -1.2277 -0.4005 -0.7053
 3827SOL     OW23116   3.282   1.355  12.933  0.2275 -0.6622  0.1609
 3827SOL    HW123117   3.299   1.387  13.022 -1.9784 -0.3559  0.4683
 3827SOL    HW223118   3.337   1.419  12.887 -0.9726  0.4104  0.2144
 3828SOL     OW23119   4.057   0.069  12.027  0.0619  0.7733  0.3815
 3828SOL    HW123120   4.112   0.043  11.953 -0.8738 -1.1243  0.3638
 3828SOL    HW223121   3.984   0.108  11.978  0.2428 -1.7518 -1.8812
 3829SOL     OW23122   3.842   1.392  12.800  0.1552  0.5112  0.0962
 3829SOL    HW123123   3.861   1.486  12.808 -0.4232  0.6166  0.2615
 3829SOL    HW223124   3.766   1.390  12.859 -0.9199 -2.4896 -1.4305
 3830SOL     OW23125   2.070   1.536   6.288  0.0304 -0.1623 -0.2383
 3830SOL    HW123126   2.066   1.575   6.375 -0.1938 -0.0376 -0.3033
 3830SOL    HW223127   1.987   1.566   6.252 -0.0576 -0.2606 -0.1142
 3831SOL     OW23128   2.248   0.507   3.363  0.1485 -0.0209 -1.2356
 3831SOL    HW123129   2.324   0.475   3.413 -0.0266  2.4490  0.6331
 3831SOL    HW223130   2.184   0.441   3.386 -0.9427  2.3769  2.6557
 3832SOL     OW23131   2.212   3.203  10.547  0.3329 -0.3401  0.0568
 3832SOL    HW123132   2.170   3.200  10.633 -0.0102 -1.3408 -0.1410
 3832SOL    HW223133   2.300   3.173  10.570  0.4802 -0.2318 -0.3742
 3833SOL     OW23134   4.682   0.537  15.304  0.4771 -0.4343  0.2912
 3833SOL    HW123135   4.703   0.522  15.212 -2.2725 -0.7908 -0.2564
 3833SOL    HW223136   4.587   0.546  15.305  0.6678  1.5156  2.2000
 3834SOL     OW23137   3.630   3.424   8.215 -0.2166  0.3562  0.0289
 3834SOL    HW123138   3.662   3.499   8.163  2.6589 -0.2240  0.9894
 3834SOL    HW223139   3.538   3.435   8.190  0.0213  1.8740 -0.2122
 3835SOL     OW23140   1.160   3.770   3.501  0.4466 -0.5415 -0.6334
 3835SOL    HW123141   1.141   3.697   3.441 -1.7351  0.0364 -0.6404
 3835SOL    HW223142   1.075   3.770   3.545  0.6469  2.6035 -0.3026
 3836SOL     OW23143   3.531   1.017  10.641  0.3556  0.5174 -0.8247
 3836SOL    HW123144   3.562   1.058  10.722  0.4296  0.0246 -0.6064
 3836SOL    HW223145   3.442   0.992  10.665  0.4217 -0.0483 -1.1739
 3837SOL     OW23146   2.436   1.166   4.213  0.0491  0.8383  0.9745
 3837SOL    HW123147   2.405   1.086   4.256 -0.5667  0.6497  0.1786
 3837SOL    HW223148   2.517   1.130   4.176 -2.2481  0.1521 -3.4012
 3838SOL     OW23149   0.872   4.064   8.421 -0.1803  0.0316 -0.0955
 3838SOL    HW123150   0.843   4.091   8.508  1.6631 -1.5437  0.9957
 3838SOL    HW223151   0.967   4.064   8.433 -0.2888 -0.7237  0.7368
 3839SOL     OW23152   1.521   3.614  15.442 -0.4545 -0.1900  0.3589
 3839SOL    HW123153   1.467   3.560  15.499 -1.6498  0.0598 -0.5274
 3839SOL    HW223154   1.456   3.617  15.371  0.8095 -1.4868 -0.8606
 3840SOL     OW23155   3.070   1.335  11.122  0.5848  0.4534  0.0035
 3840SOL    HW123156   2.982   1.368  11.141 -0.2557 -0.8342 -1.6832
 3840SOL    HW223157   3.057   1.250  11.165 -1.6172  0.3358 -0.8771
 3841SOL     OW23158   1.427   4.640   2.385 -0.2920  0.1666 -0.2918
 3841SOL    HW123159   1.486   4.662   2.313  0.0612  0.0890 -0.0207
 3841SOL    HW223160   1.459   4.682   2.464 -1.8029 -0.9995  0.9411
 3842SOL     OW23161   3.323   1.888   4.402 -0.5764 -0.0937  0.0780
 3842SOL    HW123162   3.326   1.939   4.321  1.5581 -0.0386  0.1898
 3842SOL    HW223163   3.228   1.878   4.408 -0.5526 -0.5617 -0.2752
 3843SOL     OW23164   0.980   0.936  17.442  0.1629  0.0710 -0.0654
 3843SOL    HW123165   1.022   0.969  17.362 -1.4010  2.1296 -0.0528
 3843SOL    HW223166   0.934   0.857  17.413 -0.0604  0.7604 -1.6059
 3844SOL     OW23167   3.361   4.472   5.695 -0.4023 -0.3112 -0.1569
 3844SOL    HW123168   3.296   4.487   5.763 -2.1102 -1.2394 -1.5825
 3844SOL    HW223169   3.429   4.537   5.714 -0.9280 -0.5414  2.5022
 3845SOL     OW23170   2.143   3.176   3.327 -0.3581  0.1406 -0.0301
 3845SOL    HW123171   2.048   3.164   3.340 -0.9397  1.4244 -3.3121
 3845SOL    HW223172   2.179   3.087   3.334 -2.5123 -0.8032 -1.0520
 3846SOL     OW23173   1.820   2.161   2.801  0.6725 -0.2256  0.1801
 3846SOL    HW123174   1.820   2.076   2.757  2.2934  0.4683 -1.1367
 3846SOL    HW223175   1.862   2.132   2.882  0.1352 -0.2382  0.4519
 3847SOL     OW23176   4.472   1.920  10.960  0.3190 -0.1203  0.2617
 3847SOL    HW123177   4.549   1.893  10.908 -1.0439 -0.7967 -1.4194
 3847SOL    HW223178   4.427   1.979  10.900  0.6642  0.0069  0.1249
 3848SOL     OW23179   2.013   1.501  13.244 -0.1457  0.5136  0.0937
 3848SOL    HW123180   2.069   1.579  13.245  0.0038  0.4559 -3.5832
 3848SOL    HW223181   2.051   1.445  13.311  0.9911  0.3612 -0.6877
 3849SOL     OW23182   4.044   1.264   6.863  0.3280  0.1525  0.2506
 3849SOL    HW123183   3.965   1.223   6.896  1.0848 -0.7676  0.9184
 3849SOL    HW223184   4.094   1.190   6.829 -1.2476 -1.9994  2.6699
 3850SOL     OW23185   1.887   1.722  10.659  0.1718  0.4468 -0.2471
 3850SOL    HW123186   1.814   1.670  10.624 -0.5230  0.3785  1.3041
 3850SOL    HW223187   1.846   1.741  10.744 -0.7613  0.7920 -0.7744
 3851SOL     OW23188   2.478   3.641  16.603  0.6853  0.3146 -0.1861
 3851SOL    HW123189   2.527   3.610  16.527 -1.1836 -1.0778 -0.8284
 3851SOL    HW223190   2.406   3.695  16.570  1.5574  0.6298 -1.5437
 3852SOL     OW23191   0.241   3.704   5.171 -0.1075  0.0797  0.0966
 3852SOL    HW123192   0.233   3.614   5.202  0.4839 -0.5037 -1.4288
 3852SOL    HW223193   0.281   3.743   5.249  1.0132  0.6244 -0.7618
 3853SOL     OW23194   4.546   1.729   5.311  0.6307  0.2560 -0.0100
 3853SOL    HW123195   4.539   1.811   5.262  3.3848 -0.6898 -2.0397
 3853SOL    HW223196   4.597   1.759   5.386  0.0041  0.2639  0.4114
 3854SOL     OW23197   1.456   3.963   3.824 -0.1121  0.3418  0.7572
 3854SOL    HW123198   1.497   3.885   3.862 -1.8643 -0.8987  0.1108
 3854SOL    HW223199   1.367   3.934   3.805 -0.8786  1.3904  2.7321
 3855SOL     OW23200   4.445   1.443   4.170  0.5867 -0.5262 -0.1498
 3855SOL    HW123201   4.388   1.402   4.236  0.9920 -1.8239 -0.5898
 3855SOL    HW223202   4.468   1.368   4.115  2.6263  0.0381 -0.0544
 3856SOL     OW23203   1.840   0.624   5.969  0.0089 -0.4508  0.6032
 3856SOL    HW123204   1.754   0.661   5.991  1.2849  2.4154  0.6901
 3856SOL    HW223205   1.901   0.689   6.003  0.1149 -0.4751  0.4588
 3857SOL     OW23206   2.520   3.013   4.880 -0.8987  0.0441 -0.5530
 3857SOL    HW123207   2.603   3.033   4.923 -0.4544  2.8182 -2.7420
 3857SOL    HW223208   2.457   3.041   4.946 -2.3635 -3.4221 -0.4975
 3858SOL     OW23209   2.813   4.032   0.138 -0.4558 -0.3674  0.1886
 3858SOL    HW123210   2.804   4.124   0.115 -1.7299 -0.8246 -1.2177
 3858SOL    HW223211   2.746   4.011   0.203  1.0740  0.4997  2.0108
 3859SOL     OW23212   4.664   3.506   8.740 -0.1764 -0.4514  0.3901
 3859SOL    HW123213   4.586   3.559   8.729  0.9755  1.1413 -0.1361
 3859SOL    HW223214   4.622   3.424   8.763 -0.3127 -0.2400  0.8970
 3860SOL     OW23215   0.623   2.764   7.746  0.1643 -0.0597  0.2417
 3860SOL    HW123216   0.536   2.725   7.739  0.2166 -0.7976  3.7006
 3860SOL    HW223217   0.671   2.696   7.699  0.7062 -0.1215  0.8924
 3861SOL     OW23218   0.639   2.304   8.449  0.1914 -0.8462 -0.1385
 3861SOL    HW123219   0.684   2.383   8.480 -0.1258 -1.0504  0.8640
 3861SOL    HW223220   0.630   2.337   8.360 -1.1646 -0.0155  0.3106
 3862SOL     OW23221   1.454   3.022   9.317 -0.6553 -0.5881  0.4669
 3862SOL    HW123222   1.493   3.022   9.230 -1.4481  1.8701  0.1176
 3862SOL    HW223223   1.386   2.955   9.306 -0.2694 -0.9846  0.5072
 3863SOL     OW23224   3.601   3.390  12.728  0.5566 -1.0446 -0.1714
 3863SOL    HW123225   3.587   3.383  12.634  0.1850 -1.8189 -0.0637
 3863SOL    HW223226   3.605   3.298  12.756 -0.4188 -1.3734 -1.1099
 3864SOL     OW23227   3.606   2.766   5.378 -0.2952 -0.1071  0.1369
 3864SOL    HW123228   3.562   2.764   5.463  0.7275  0.1427  0.6702
 3864SOL    HW223229   3.694   2.779   5.414 -0.5473  0.4820  0.5464
 3865SOL     OW23230   2.044   0.663   1.496  0.0983  0.1594  0.0535
 3865SOL    HW123231   2.098   0.584   1.494  1.3761  0.9914  1.4835
 3865SOL    HW223232   2.095   0.721   1.439 -2.5119  0.4425 -1.9814
 3866SOL     OW23233   4.372   3.055  16.028 -0.0147  0.1545 -0.1381
 3866SOL    HW123234   4.317   3.052  16.107 -0.0928 -1.3963 -0.2449
 3866SOL    HW223235   4.325   3.005  15.961 -0.7248  2.3937 -1.2975
 3867SOL     OW23236   4.208   1.062   6.800  0.2367  0.0246 -0.3284
 3867SOL    HW123237   4.170   1.001   6.737 -1.5931  0.6556  0.1496
 3867SOL    HW223238   4.228   1.013   6.880  0.0135 -0.1482 -0.3786
 3868SOL     OW23239   0.957   3.839   2.360  0.4833 -0.4241 -0.3907
 3868SOL    HW123240   0.864   3.815   2.358 -0.2460  2.5248 -1.1571
 3868SOL    HW223241   0.989   3.852   2.271 -0.1844 -2.7495 -0.9781
 3869SOL     OW23242   0.311   3.786   5.449  0.7221 -0.0306  0.5059
 3869SOL    HW123243   0.346   3.875   5.446  1.0400 -0.1971 -0.7111
 3869SOL    HW223244   0.352   3.751   5.528 -0.6035 -1.4063  0.5798
 3870SOL     OW23245   4.417   2.480   4.828 -0.2519 -0.0881 -0.2852
 3870SOL    HW123246   4.386   2.551   4.883  0.0447  0.0630 -0.3110
 3870SOL    HW223247   4.420   2.414   4.898  2.4701  2.0043  1.5580
 3871SOL     OW23248   0.780   0.402   4.259  0.0450 -0.2946 -0.1629
 3871SOL    HW123249   0.868   0.417   4.223 -0.5465 -0.1482 -1.5277
 3871SOL    HW223250   0.783   0.307   4.256  0.0537 -0.2411 -2.1442
 3872SOL     OW23251   1.489   0.691  17.008 -0.0583  0.5036  0.1634
 3872SOL    HW123252   1.527   0.648  16.932  2.0745 -1.0770  2.1002
 3872SOL    HW223253   1.417   0.738  16.967  1.7835  1.8197 -1.5194
 3873SOL     OW23254   4.519   2.481  11.203  0.6851 -0.3689 -0.1199
 3873SOL    HW123255   4.561   2.557  11.162 -2.1258 -0.2192 -2.6402
 3873SOL    HW223256   4.505   2.513  11.292  1.3557 -1.5145  0.4041
 3874SOL     OW23257   2.428   0.653   5.948 -0.4286  0.0232 -0.4296
 3874SOL    HW123258   2.411   0.599   5.870  0.7859  1.7913 -1.9338
 3874SOL    HW223259   2.522   0.647   5.965  0.0108 -1.0304 -3.1857
 3875SOL     OW23260   0.442   1.155   9.845  0.5045 -0.0653 -0.3692
 3875SOL    HW123261   0.375   1.087   9.853  2.2127 -1.5459  1.6913
 3875SOL    HW223262   0.492   1.129   9.923  2.0869 -1.6988 -1.9073
 3876SOL     OW23263   2.004   3.545   8.851  0.1485  0.1620 -0.4039
 3876SOL    HW123264   2.000   3.520   8.943 -4.7696 -1.1186 -0.9896
 3876SOL    HW223265   1.939   3.483   8.818 -0.2626  1.6437 -2.4014
 3877SOL     OW23266   1.874   3.283  16.671 -0.4384 -0.1400 -0.8111
 3877SOL    HW123267   1.879   3.324  16.757 -1.1009 -0.3553 -0.6706
 3877SOL    HW223268   1.948   3.327  16.628 -1.4721  2.3280 -0.0483
 3878SOL     OW23269   0.107   3.964   2.743  0.0521 -0.1513 -0.5454
 3878SOL    HW123270   0.072   3.946   2.830 -0.7233 -1.5602 -1.1544
 3878SOL    HW223271   0.024   3.984   2.699  0.4422 -0.1403 -1.2823
 3879SOL     OW23272   2.651   1.941  13.277  0.0387  0.1787  0.6198
 3879SOL    HW123273   2.656   2.017  13.336 -0.8227 -1.5740  2.9230
 3879SOL    HW223274   2.648   1.997  13.199 -1.0286  0.3262  0.7714
 3880SOL     OW23275   3.441   0.977  15.429  0.1278 -0.3293  0.1751
 3880SOL    HW123276   3.365   0.922  15.409  0.3664 -0.3738 -0.6247
 3880SOL    HW223277   3.400   1.053  15.471 -0.2942  0.8790 -2.3984
 3881SOL     OW23278   0.924   0.194   4.081 -0.0332  0.2618 -0.8819
 3881SOL    HW123279   0.871   0.138   4.025 -0.1520 -0.0521 -0.4513
 3881SOL    HW223280   0.950   0.133   4.150  1.8371 -0.5505 -2.3023
 3882SOL     OW23281   2.995   2.518   6.881 -0.2962 -0.3485  1.0297
 3882SOL    HW123282   2.929   2.587   6.874 -2.4887 -2.7061 -1.9108
 3882SOL    HW223283   3.012   2.516   6.975  2.3668 -0.0317  0.5460
 3883SOL     OW23284   3.935   0.584   1.584  0.1716  0.0792 -0.0081
 3883SOL    HW123285   3.932   0.631   1.500  0.5089  1.4307  0.7464
 3883SOL    HW223286   3.978   0.507   1.546  1.5070  1.6134 -1.6095
 3884SOL     OW23287   2.545   1.347   1.844  0.7789  0.4755  0.4097
 3884SOL    HW123288   2.453   1.341   1.867  0.6265 -1.2673 -0.6701
 3884SOL    HW223289   2.599   1.389   1.912  1.4243  4.1884 -2.4578
 3885SOL     OW23290   2.165   3.672   3.156 -0.5935  0.6125  0.2209
 3885SOL    HW123291   2.254   3.690   3.186 -0.1493 -2.0108  0.4475
 3885SOL    HW223292   2.182   3.672   3.062  0.0963 -2.8917  0.3460
 3886SOL     OW23293   2.849   2.078   9.360 -0.2134 -0.0281 -0.4283
 3886SOL    HW123294   2.838   2.167   9.393  3.2870  0.6363 -1.0849
 3886SOL    HW223295   2.914   2.088   9.290 -0.5366  0.4824 -0.6604
 3887SOL     OW23296   1.409   2.489  12.710 -0.9840  0.2784 -0.7325
 3887SOL    HW123297   1.450   2.507  12.795 -0.8973  0.8862 -0.9037
 3887SOL    HW223298   1.332   2.545  12.714 -0.6944  0.6825 -0.8186
 3888SOL     OW23299   2.344   1.235  14.929  0.3377  0.1276 -0.1095
 3888SOL    HW123300   2.266   1.191  14.896 -0.4223  1.2416  0.2505
 3888SOL    HW223301   2.318   1.319  14.894 -1.7301 -0.7341 -0.6025
 3889SOL     OW23302   2.059   1.301   2.299  0.1248 -0.0409 -0.0263
 3889SOL    HW123303   2.039   1.342   2.383  0.7929 -1.9835  1.0877
 3889SOL    HW223304   2.097   1.217   2.324  1.0746  0.8254  1.4193
 3890SOL     OW23305   1.837   1.590  11.143 -0.0555 -0.1164  0.5205
 3890SOL    HW123306   1.888   1.532  11.200 -1.0543 -3.3793 -1.8514
 3890SOL    HW223307   1.747   1.563  11.163  0.0820 -0.2855  0.9141
 3891SOL     OW23308   1.634   2.854   9.436  0.8254  0.0464  0.1420
 3891SOL    HW123309   1.615   2.816   9.350 -0.4978  0.3620  0.2994
 3891SOL    HW223310   1.581   2.934   9.434  0.4537 -0.1967  0.2709
 3892SOL     OW23311   2.321   2.159   1.919  0.2353  0.5299  0.2794
 3892SOL    HW123312   2.402   2.208   1.903  0.1173  0.7538  0.3702
 3892SOL    HW223313   2.277   2.225   1.973 -0.4419  0.6592 -0.4360
 3893SOL     OW23314   3.952   3.932   0.390 -0.2328 -0.3238  0.0564
 3893SOL    HW123315   3.954   3.966   0.479  2.1116 -0.9705  0.2361
 3893SOL    HW223316   3.986   4.008   0.343 -3.1316 -0.0934 -1.7222
 3894SOL     OW23317   4.456   3.328   7.688 -0.0806 -0.2114 -0.3761
 3894SOL    HW123318   4.402   3.400   7.718 -0.5771 -0.2914 -1.0712
 3894SOL    HW223319   4.412   3.254   7.730 -0.8541 -1.2855 -3.0843
 3895SOL     OW23320   1.438   0.339   2.801 -0.2179  0.4110 -0.4956
 3895SOL    HW123321   1.380   0.413   2.780 -0.0025  0.0714 -2.3243
 3895SOL    HW223322   1.502   0.390   2.851 -1.3907  0.2907  1.1075
 3896SOL     OW23323   1.191   3.871   6.785  0.1236  0.5584 -0.3550
 3896SOL    HW123324   1.260   3.809   6.762  0.2810  0.2391  0.9476
 3896SOL    HW223325   1.161   3.897   6.698  0.0480 -0.1443 -0.5388
 3897SOL     OW23326   1.599   3.233   8.204  0.1551 -0.0381 -0.2677
 3897SOL    HW123327   1.646   3.234   8.120  1.0119  1.0574  0.2098
 3897SOL    HW223328   1.592   3.138   8.213 -3.8812  0.3881  0.7417
 3898SOL     OW23329   3.480   3.530   7.201 -0.1802  0.2008  0.0893
 3898SOL    HW123330   3.567   3.559   7.227  0.3124 -1.1302 -0.0419
 3898SOL    HW223331   3.499   3.463   7.135 -0.6969 -0.9916  1.1531
 3899SOL     OW23332   0.280   0.466   5.963 -0.2595 -0.6999 -0.3088
 3899SOL    HW123333   0.262   0.522   6.038  0.4530 -0.9106  0.0180
 3899SOL    HW223334   0.369   0.489   5.937  0.4417 -0.1942  2.4970
 3900SOL     OW23335   2.912   3.306   3.708  0.2618 -0.8570 -0.4143
 3900SOL    HW123336   2.826   3.322   3.667 -0.0860 -0.7715  0.3460
 3900SOL    HW223337   2.946   3.393   3.726  1.4756 -1.2642 -0.7760
 3901SOL     OW23338   2.557   3.007  16.808  0.2746 -0.2912 -0.5962
 3901SOL    HW123339   2.482   3.066  16.818  2.2591  1.8607  1.5258
 3901SOL    HW223340   2.534   2.963  16.726 -1.8339 -1.4412  0.6217
 3902SOL     OW23341   0.534   4.619   1.897  0.5998  0.6905  0.1405
 3902SOL    HW123342   0.540   4.644   1.989  0.8656  0.6904  0.1217
 3902SOL    HW223343   0.507   4.528   1.888  1.0563  0.3826  1.9223
 3903SOL     OW23344   0.886   3.498   5.947 -0.0835 -0.0311 -0.0803
 3903SOL    HW123345   0.843   3.418   5.917  2.7271 -1.2050 -0.9339
 3903SOL    HW223346   0.921   3.529   5.864 -0.3322  1.1313  0.2531
 3904SOL     OW23347   2.494   1.939   3.891  0.1138 -0.2714  0.3733
 3904SOL    HW123348   2.552   1.882   3.841 -1.5549 -2.0575  0.4864
 3904SOL    HW223349   2.416   1.935   3.835 -0.0163  2.4064  0.3747
 3905SOL     OW23350   0.596   1.728  12.366  0.1783 -0.0033  0.1351
 3905SOL    HW123351   0.539   1.730  12.289 -0.3852 -0.3912  0.5442
 3905SOL    HW223352   0.550   1.662  12.417  0.2420 -0.1254  0.0345
 3906SOL     OW23353   2.340   2.866  17.336  0.5075  0.5365  0.2925
 3906SOL    HW123354   2.292   2.794  17.295  0.7432  0.2515  0.5168
 3906SOL    HW223355   2.430   2.840  17.321  0.7813  0.7348  1.5442
 3907SOL     OW23356   1.703   3.051   1.738  0.0899 -0.5776 -0.2895
 3907SOL    HW123357   1.739   2.968   1.771 -0.5131 -0.8704 -0.3573
 3907SOL    HW223358   1.628   3.007   1.698 -0.0695 -0.2811 -0.3172
 3908SOL     OW23359   3.850   1.026   2.880 -0.2799  0.2363 -0.4766
 3908SOL    HW123360   3.907   0.953   2.855 -1.3446 -1.1048  0.9746
 3908SOL    HW223361   3.766   0.983   2.896  0.2928 -1.0071 -0.8418
 3909SOL     OW23362   4.538   3.412  10.824  0.1092 -0.1430 -0.0308
 3909SOL    HW123363   4.475   3.480  10.847 -0.2747  0.4655 -2.8326
 3909SOL    HW223364   4.527   3.414  10.728  2.1779 -1.0223 -0.2991
 3910SOL     OW23365   3.553   3.255   9.032 -0.2925  0.0916  0.0603
 3910SOL    HW123366   3.620   3.223   8.973 -1.1417  0.7867 -1.2888
 3910SOL    HW223367   3.544   3.187   9.098  0.2654  0.9263  0.9867
 3911SOL     OW23368   2.330   2.301   5.252  0.4156  0.1314  0.5059
 3911SOL    HW123369   2.394   2.267   5.189  0.1992  1.5468 -0.4739
 3911SOL    HW223370   2.371   2.278   5.336  1.4955 -0.5132 -0.1965
 3912SOL     OW23371   4.434   2.687   8.351 -0.8209 -0.3545  0.1743
 3912SOL    HW123372   4.452   2.759   8.412  2.7837 -0.6558 -0.5533
 3912SOL    HW223373   4.496   2.629   8.394 -1.0163 -0.7578 -0.0897
 3913SOL     OW23374   4.316   3.102   9.495 -0.3051 -0.4616  0.6118
 3913SOL    HW123375   4.387   3.144   9.448  1.6700 -2.0699  2.1325
 3913SOL    HW223376   4.349   3.097   9.584  0.8265 -1.5763  0.1262
 3914SOL     OW23377   3.883   2.374  11.002 -0.1060 -0.0423 -0.6381
 3914SOL    HW123378   3.940   2.424  10.943  0.4131 -0.3264 -0.3748
 3914SOL    HW223379   3.886   2.420  11.085  1.9201  0.8689 -1.2069
 3915SOL     OW23380   3.702   2.160  16.850  0.0545  0.1784 -0.2384
 3915SOL    HW123381   3.655   2.183  16.931 -0.9612  0.0680 -0.7900
 3915SOL    HW223382   3.639   2.187  16.783 -2.1940 -0.7338  1.5013
 3916SOL     OW23383   3.710   1.917   5.584  0.7294 -1.0377  0.0284
 3916SOL    HW123384   3.708   1.980   5.656  2.3213 -1.5478  0.5406
 3916SOL    HW223385   3.665   1.961   5.512  0.5538 -0.9668  0.1826
 3917SOL     OW23386   0.376   2.354   7.085 -0.1660  0.3204  0.0512
 3917SOL    HW123387   0.444   2.420   7.092  0.7097 -0.5546 -0.2433
 3917SOL    HW223388   0.298   2.405   7.064 -1.1989 -1.5844 -0.8182
 3918SOL     OW23389   0.984   3.072   1.801 -0.3472  0.4063 -0.1295
 3918SOL    HW123390   0.952   3.160   1.781 -0.6998  0.0239 -1.2502
 3918SOL    HW223391   1.066   3.104   1.840 -0.8434  1.7186 -0.1593
 3919SOL     OW23392   0.263   0.501   5.104 -0.4401  0.7353 -0.0265
 3919SOL    HW123393   0.213   0.422   5.124  0.0885  0.5089  0.4078
 3919SOL    HW223394   0.190   0.557   5.077 -0.8623  0.2243  0.0565
 3920SOL     OW23395   1.590   2.967   8.289  0.4622  0.0178  0.5249
 3920SOL    HW123396   1.677   2.928   8.296  0.5590  0.3288  0.9972
 3920SOL    HW223397   1.554   2.949   8.376 -0.0107  0.5388  0.4367
 3921SOL     OW23398   1.409   4.559  14.519  0.2100  0.1024  0.0033
 3921SOL    HW123399   1.482   4.593  14.570  2.9755 -1.6345 -2.8296
 3921SOL    HW223400   1.355   4.639  14.523 -0.6385 -0.5348  1.1888
 3922SOL     OW23401   3.040   0.797   3.051 -0.0383  0.1303  0.3207
 3922SOL    HW123402   3.110   0.750   3.006 -0.5519  1.1726 -1.5585
 3922SOL    HW223403   3.048   0.885   3.015 -0.7029 -0.0849 -0.3604
 3923SOL     OW23404   2.783   1.645   5.104  0.1736  0.3770  0.1846
 3923SOL    HW123405   2.722   1.625   5.033 -0.4199 -1.8325  1.3256
 3923SOL    HW223406   2.781   1.740   5.097 -1.0984  0.3206 -0.2804
 3924SOL     OW23407   0.303   0.532   7.232  0.0072  0.3965 -0.5380
 3924SOL    HW123408   0.266   0.500   7.149  0.5479 -0.3794 -0.4758
 3924SOL    HW223409   0.340   0.451   7.267  0.5618  1.2098  0.7225
 3925SOL     OW23410   2.878   0.898   6.215 -0.3381 -0.0649 -0.2567
 3925SOL    HW123411   2.847   0.818   6.258 -0.9008 -0.2845 -1.0525
 3925SOL    HW223412   2.888   0.959   6.288 -0.1929  0.1453 -0.4509
 3926SOL     OW23413   3.717   2.687  14.419  0.0524  0.1050 -0.0862
 3926SOL    HW123414   3.795   2.641  14.451 -0.2241  1.2068  2.1888
 3926SOL    HW223415   3.738   2.773  14.456  0.6164  0.1387 -0.4954
 3927SOL     OW23416   0.338   2.146   0.834  0.0069  0.1828 -0.2743
 3927SOL    HW123417   0.412   2.086   0.846  0.6798  0.9365 -0.6844
 3927SOL    HW223418   0.383   2.229   0.854  0.6839 -0.9944  3.1635
 3928SOL     OW23419   3.116   2.239  16.434 -0.0206  0.0119  0.0449
 3928SOL    HW123420   3.089   2.160  16.387  1.7120 -0.5787  0.0213
 3928SOL    HW223421   3.212   2.232  16.438  0.0788 -0.6993 -3.1453
 3929SOL     OW23422   2.600   1.281   0.666  0.2882  0.4936 -0.0188
 3929SOL    HW123423   2.621   1.358   0.613 -1.8548  0.3983 -1.0037
 3929SOL    HW223424   2.625   1.217   0.599 -0.9399 -1.8396  1.7555
 3930SOL     OW23425   1.772   2.651   8.605 -0.3784  0.6509 -0.2306
 3930SOL    HW123426   1.793   2.729   8.553  2.5861 -0.9838 -1.5182
 3930SOL    HW223427   1.829   2.662   8.681 -0.6531  1.2671 -0.1165
 3931SOL     OW23428   3.975   0.188   5.901  0.3804 -0.1590  0.8145
 3931SOL    HW123429   3.959   0.238   5.981  0.4651 -1.5669  1.7209
 3931SOL    HW223430   3.915   0.230   5.840  2.1145  1.9425  0.5727
 3932SOL     OW23431   3.848   2.038   9.053  0.3522 -0.3645  0.0338
 3932SOL    HW123432   3.828   2.025   8.960  0.0363 -0.5499  0.1251
 3932SOL    HW223433   3.890   1.953   9.067  2.8246  1.1003  1.4697
 3933SOL     OW23434   3.690   0.224   4.776 -0.0857 -0.8954 -0.4643
 3933SOL    HW123435   3.712   0.151   4.835 -1.0651  0.3398  1.4329
 3933SOL    HW223436   3.604   0.241   4.813  0.2112  1.3037 -0.7985
 3934SOL     OW23437   1.651   0.005   2.543  0.0306 -0.4191 -0.3916
 3934SOL    HW123438   1.716   0.010   2.473 -1.5637  1.6226 -1.7105
 3934SOL    HW223439   1.670   4.655   2.568 -1.2768 -0.1972  1.4197
 3935SOL     OW23440   4.305   2.289   5.001  0.2626 -0.1027  0.6832
 3935SOL    HW123441   4.232   2.325   4.950  0.0450 -1.1918  0.2357
 3935SOL    HW223442   4.266   2.213   5.044  2.1973 -2.7855 -2.3067
 3936SOL     OW23443   2.518   0.074   6.410 -0.0885 -0.7060  0.6865
 3936SOL    HW123444   2.576   0.142   6.443 -1.0381 -0.1307  1.1756
 3936SOL    HW223445   2.489   0.101   6.322  0.9217  2.5176  1.3367
 3937SOL     OW23446   4.318   4.423  15.651 -0.0453  0.0858  0.0487
 3937SOL    HW123447   4.389   4.414  15.587 -0.7096 -0.6440 -0.5869
 3937SOL    HW223448   4.258   4.469  15.592 -1.3034 -0.3811  0.9600
 3938SOL     OW23449   1.800   3.427  15.669 -0.0597 -0.1353 -0.0959
 3938SOL    HW123450   1.805   3.397  15.760  2.1069  0.5928  0.0083
 3938SOL    HW223451   1.733   3.495  15.673 -1.3488 -1.2595 -2.3763
 3939SOL     OW23452   0.799   2.475   4.453  0.2234  0.0083 -0.0328
 3939SOL    HW123453   0.752   2.494   4.535  0.4540 -1.0225  0.3354
 3939SOL    HW223454   0.790   2.380   4.455 -1.3194  0.1207 -1.1154
 3940SOL     OW23455   1.786   3.684   2.299  0.5981  0.1614 -0.1007
 3940SOL    HW123456   1.735   3.747   2.247  0.5680  1.9441  2.1027
 3940SOL    HW223457   1.767   3.725   2.383 -1.5066  0.8031 -0.8818
 3941SOL     OW23458   2.139   0.842   7.705 -0.0564  0.2438 -0.0703
 3941SOL    HW123459   2.106   0.878   7.624 -3.1420 -0.2181  0.9965
 3941SOL    HW223460   2.221   0.892   7.715 -1.2734  2.3473 -0.7336
 3942SOL     OW23461   4.457   4.545   2.419 -0.3394 -0.3580  0.6258
 3942SOL    HW123462   4.415   4.575   2.338  1.5084  0.7393  0.0866
 3942SOL    HW223463   4.488   4.624   2.463  0.5106  0.8051 -2.0487
 3943SOL     OW23464   3.654   2.125   7.517 -0.2638  0.0413  0.0098
 3943SOL    HW123465   3.722   2.068   7.554 -0.9127  0.5721  2.0140
 3943SOL    HW223466   3.596   2.055   7.486 -2.3344  2.8497 -2.4011
 3944SOL     OW23467   2.880   0.475   6.117 -0.1676  0.3902 -0.1482
 3944SOL    HW123468   2.916   0.424   6.044 -1.3756 -1.1389  0.3203
 3944SOL    HW223469   2.849   0.408   6.178 -0.3500  0.1053 -0.5486
 3945SOL     OW23470   2.122   2.709   6.009 -0.2026  0.2402 -0.4912
 3945SOL    HW123471   2.094   2.670   6.092  1.6546 -0.4492 -0.2029
 3945SOL    HW223472   2.161   2.629   5.973 -3.2755 -0.4940 -2.1687
 3946SOL     OW23473   2.117   0.684   1.851 -0.3344  0.1810 -0.3991
 3946SOL    HW123474   2.172   0.690   1.773  1.5185  1.3476  1.0018
 3946SOL    HW223475   2.176   0.722   1.915 -0.6247  1.9211 -1.1644
 3947SOL     OW23476   0.159   4.490   7.105 -0.1943  0.3607  0.3325
 3947SOL    HW123477   0.154   4.560   7.039  1.4268  0.6439  0.5111
 3947SOL    HW223478   0.220   4.429   7.064 -0.6322  0.2186 -0.1099
 3948SOL     OW23479   0.116   0.193   1.963  0.0013 -0.5658 -0.1126
 3948SOL    HW123480   0.162   0.164   2.042 -0.1845 -0.4345  0.0420
 3948SOL    HW223481   0.174   0.265   1.935  1.3619 -0.9808  1.6199
 3949SOL     OW23482   4.443   0.592   2.995 -0.2374 -0.3150 -0.3129
 3949SOL    HW123483   4.454   0.669   3.050  0.7041  0.3987 -1.5169
 3949SOL    HW223484   4.442   0.637   2.911 -0.4238  1.6297  0.7406
 3950SOL     OW23485   3.388   1.505  12.713 -0.0162 -0.0359  0.1780
 3950SOL    HW123486   3.354   1.468  12.631 -0.6535 -1.6041  1.1591
 3950SOL    HW223487   3.394   1.598  12.689 -2.0230  0.7333  2.7036
 3951SOL     OW23488   1.272   0.155   7.381 -0.2014  0.7077  0.1256
 3951SOL    HW123489   1.260   0.190   7.293 -0.9488 -0.3822 -0.1990
 3951SOL    HW223490   1.338   0.216   7.414  0.0350  1.0949 -1.0578
 3952SOL     OW23491   3.546   3.893  16.413 -0.4527  0.0576 -0.1198
 3952SOL    HW123492   3.640   3.888  16.396 -0.4201  0.7020 -0.1262
 3952SOL    HW223493   3.512   3.859  16.331 -2.4000  0.5357  0.4933
 3953SOL     OW23494   0.917   4.517  10.062 -0.1784 -0.2091 -0.1578
 3953SOL    HW123495   0.943   4.548  10.149 -0.4739 -0.2582 -0.0507
 3953SOL    HW223496   0.838   4.470  10.091 -0.3394 -0.1210 -0.4606
 3954SOL     OW23497   0.367   1.639   8.457 -0.2349 -0.4243 -0.2863
 3954SOL    HW123498   0.440   1.701   8.443 -0.5558 -0.1742 -0.8300
 3954SOL    HW223499   0.418   1.560   8.474  2.2063  1.2618  0.4365
 3955SOL     OW23500   1.922   1.490   5.318 -0.6065 -0.6199  0.0795
 3955SOL    HW123501   1.905   1.573   5.272 -0.7019 -1.3957 -1.2905
 3955SOL    HW223502   1.865   1.430   5.269 -0.9273  1.8607 -2.6195
 3956SOL     OW23503   2.834   1.786   3.007  0.5852 -0.3288  0.3041
 3956SOL    HW123504   2.799   1.701   2.982  2.9896 -1.5047  0.9352
 3956SOL    HW223505   2.925   1.774   2.980  0.4267  1.3762 -0.9641
 3957SOL     OW23506   0.171   0.410  10.085  0.3083  1.0091  0.0575
 3957SOL    HW123507   0.150   0.418  10.178  1.4922  2.5030  0.2121
 3957SOL    HW223508   0.245   0.349  10.095 -0.2424  0.3856  0.2853
 3958SOL     OW23509   0.869   2.579  14.804  0.0193  0.0347 -0.3292
 3958SOL    HW123510   0.964   2.591  14.798  0.4303 -1.9356  2.1459
 3958SOL    HW223511   0.870   2.487  14.831 -1.0921  0.3974  1.0019
 3959SOL     OW23512   3.950   0.552   7.005  0.1507 -0.2905 -0.1204
 3959SOL    HW123513   3.899   0.526   6.928  0.2432  0.3735 -0.4011
 3959SOL    HW223514   4.014   0.482   7.019 -0.2671 -1.0088 -1.8501
 3960SOL     OW23515   4.008   2.735   7.268 -0.4231  0.6266  0.1321
 3960SOL    HW123516   3.928   2.788   7.266 -0.6049  0.3661  0.8161
 3960SOL    HW223517   4.071   2.807   7.258  2.2926 -1.6665  0.6597
 3961SOL     OW23518   0.394   2.452   2.985  0.2657  0.5680 -0.4629
 3961SOL    HW123519   0.487   2.471   2.990  0.3076 -0.0289  0.8658
 3961SOL    HW223520   0.366   2.530   2.937 -3.8448 -1.8665 -2.1307
 3962SOL     OW23521   1.527   4.572   4.974  0.7177  0.0142  0.0475
 3962SOL    HW123522   1.590   4.566   4.903  0.9904 -1.0892  0.3897
 3962SOL    HW223523   1.581   4.552   5.050 -0.2906  1.9172  1.2748
 3963SOL     OW23524   4.148   4.042   5.174 -0.6493 -0.2598 -0.6740
 3963SOL    HW123525   4.163   4.113   5.237 -0.3636  0.5302 -1.6276
 3963SOL    HW223526   4.104   4.094   5.107 -2.2761 -0.2328  0.4378
 3964SOL     OW23527   2.144   0.041   5.250  0.0559  0.0540 -1.1338
 3964SOL    HW123528   2.193   0.082   5.178  1.6748 -0.0021 -0.0542
 3964SOL    HW223529   2.195   4.701   5.251 -2.0684 -1.2601  0.0340
 3965SOL     OW23530   3.205   3.196   6.656  0.5933 -0.1907  0.1189
 3965SOL    HW123531   3.192   3.206   6.750  2.2041 -1.7685  0.5085
 3965SOL    HW223532   3.279   3.254   6.638  1.2653 -0.6741  1.2926
 3966SOL     OW23533   3.449   1.281   1.232  0.0360 -0.4078 -0.4914
 3966SOL    HW123534   3.371   1.227   1.237 -1.5698  1.8622 -1.2346
 3966SOL    HW223535   3.426   1.347   1.167  0.1874 -0.0028 -0.1388
 3967SOL     OW23536   3.894   4.552   4.647 -0.7253  0.6682 -0.1289
 3967SOL    HW123537   3.859   4.524   4.562 -1.5494 -0.2224  0.5021
 3967SOL    HW223538   3.902   4.474   4.703 -0.3078  0.8496  0.0631
 3968SOL     OW23539   2.199   2.840   5.467 -0.3412 -0.1172  0.2906
 3968SOL    HW123540   2.155   2.925   5.455  0.3574  0.0006 -1.5319
 3968SOL    HW223541   2.264   2.834   5.396 -0.1459  0.9567  0.3666
 3969SOL     OW23542   3.560   2.871   2.406 -0.2397  0.2467 -0.0376
 3969SOL    HW123543   3.649   2.888   2.438 -0.7342 -0.4555  1.6946
 3969SOL    HW223544   3.519   2.839   2.486 -0.7337  1.9540  0.4032
 3970SOL     OW23545   0.928   3.327  11.072 -0.4206  0.6834  0.1409
 3970SOL    HW123546   0.909   3.365  11.158  0.4266  0.8439  0.2587
 3970SOL    HW223547   0.967   3.242  11.093  2.4067  1.6844 -1.2060
 3971SOL     OW23548   2.421   2.856   6.984 -0.1187 -0.2326  0.4987
 3971SOL    HW123549   2.468   2.772   6.983 -1.1689 -0.8093 -0.3050
 3971SOL    HW223550   2.329   2.830   6.989 -0.1294 -0.1504  0.7543
 3972SOL     OW23551   3.978   2.561  15.892  0.0007 -0.2360  0.3003
 3972SOL    HW123552   3.965   2.490  15.830  1.9685 -0.5491  0.2405
 3972SOL    HW223553   3.959   2.636  15.836  0.1898  0.4830  1.1975
 3973SOL     OW23554   3.363   3.516   0.467  0.2170 -0.0723 -0.5265
 3973SOL    HW123555   3.390   3.431   0.434 -0.3981  0.4513 -2.3925
 3973SOL    HW223556   3.290   3.495   0.526  1.3787  1.2703  1.4105
 3974SOL     OW23557   2.873   2.025   7.286  0.0995 -0.1777 -0.1719
 3974SOL    HW123558   2.960   2.037   7.248  0.6969  0.7677  1.4831
 3974SOL    HW223559   2.903   1.974   7.361  2.3381  1.9813  0.4048
 3975SOL     OW23560   1.318   2.637   8.838  0.0308  0.4711  0.2873
 3975SOL    HW123561   1.329   2.710   8.898 -2.0910  1.2496 -0.2907
 3975SOL    HW223562   1.394   2.645   8.779  0.4761 -0.3636  0.7493
 3976SOL     OW23563   0.806   3.145   6.186 -0.3188 -0.0620  0.0557
 3976SOL    HW123564   0.816   3.051   6.202 -1.7636 -0.0216  1.1794
 3976SOL    HW223565   0.894   3.159   6.152  0.5260 -2.4826  1.2508
 3977SOL     OW23566   2.354   2.050  10.370 -0.3362  0.1756 -0.4311
 3977SOL    HW123567   2.278   2.000  10.342 -1.1836  0.3180  1.6083
 3977SOL    HW223568   2.312   2.130  10.400  0.8306  0.2015  1.1658
 3978SOL     OW23569   0.031   1.527   8.375  0.6113  0.4473  0.3917
 3978SOL    HW123570   0.004   1.552   8.464 -0.3248  4.1097 -0.9191
 3978SOL    HW223571   4.738   1.598   8.320 -0.6351 -1.1812 -0.9432
 3979SOL     OW23572   3.187   2.375   9.370  0.1966  0.1823 -0.0870
 3979SOL    HW123573   3.217   2.338   9.453 -0.0403 -0.6179 -0.3630
 3979SOL    HW223574   3.093   2.360   9.377  0.3665 -0.8392 -0.0729
 3980SOL     OW23575   3.206   4.587  15.913  0.4481  0.0261  0.5962
 3980SOL    HW123576   3.283   4.564  15.862 -1.0578 -2.7045 -0.4505
 3980SOL    HW223577   3.198   4.514  15.975 -1.0774 -0.7283 -0.4736
 3981SOL     OW23578   0.403   3.382  16.813  0.2995  0.2245 -0.4384
 3981SOL    HW123579   0.492   3.381  16.848  0.8518 -0.1281 -1.8618
 3981SOL    HW223580   0.351   3.371  16.892 -1.4420  1.5059 -1.3979
 3982SOL     OW23581   4.664   4.084   3.285 -0.4461  0.7486 -0.0839
 3982SOL    HW123582   4.702   4.163   3.248  1.5231 -0.9388 -1.6300
 3982SOL    HW223583   4.592   4.074   3.223 -0.7216 -1.2436  0.5628
 3983SOL     OW23584   4.552   1.382   5.990  0.2975  0.0760  0.0278
 3983SOL    HW123585   4.543   1.313   6.055  0.2886  0.4911  0.4693
 3983SOL    HW223586   4.625   1.349   5.938 -0.2293 -0.3944 -0.4098
 3984SOL     OW23587   0.783   1.265   5.490 -0.1875  0.2209  0.1135
 3984SOL    HW123588   0.772   1.341   5.547 -1.2825  0.2148 -0.0997
 3984SOL    HW223589   0.877   1.254   5.503 -0.4396 -1.4581  0.6434
 3985SOL     OW23590   4.123   3.755   8.813  0.1928  0.8850  0.5103
 3985SOL    HW123591   4.050   3.697   8.836  0.2154  2.3009  4.2123
 3985SOL    HW223592   4.162   3.715   8.736  2.2339  1.0935  1.4197
 3986SOL     OW23593   1.232   4.165   4.557  0.6526  0.2157 -0.0764
 3986SOL    HW123594   1.313   4.206   4.525 -1.3413  2.9424 -1.6501
 3986SOL    HW223595   1.181   4.149   4.478 -0.5514  3.6620  0.0086
 3987SOL     OW23596   3.376   3.429   3.663  0.2596  0.5992 -0.0563
 3987SOL    HW123597   3.383   3.396   3.753  2.8351  2.2093  0.3342
 3987SOL    HW223598   3.429   3.360   3.623 -0.3006  0.4616 -0.5567
 3988SOL     OW23599   1.594   2.271  15.259 -0.3357 -0.2905 -0.2568
 3988SOL    HW123600   1.664   2.277  15.194  1.4920  1.1354  1.8408
 3988SOL    HW223601   1.523   2.233  15.208 -2.4702  0.1350  2.3736
 3989SOL     OW23602   4.352   3.940   4.429 -0.4525 -0.3878  0.2667
 3989SOL    HW123603   4.360   3.846   4.444  0.6424 -0.2150  0.6949
 3989SOL    HW223604   4.302   3.941   4.347 -0.5307  1.0378  0.3179
 3990SOL     OW23605   2.263   1.292   5.727 -0.6837 -0.1240 -0.8035
 3990SOL    HW123606   2.243   1.381   5.695 -0.3352  0.2070 -0.0889
 3990SOL    HW223607   2.298   1.242   5.653  2.0536 -0.0355  0.4556
 3991SOL     OW23608   3.120   1.819   6.581  0.0888  0.4296  0.1347
 3991SOL    HW123609   3.056   1.753   6.555  0.6411 -0.8211  1.9597
 3991SOL    HW223610   3.088   1.863   6.659  0.3565  0.9828 -0.0685
 3992SOL     OW23611   0.827   4.175   7.825 -0.1510  0.3020  0.2349
 3992SOL    HW123612   0.893   4.108   7.840 -1.4664 -1.1937 -0.6884
 3992SOL    HW223613   0.785   4.168   7.911 -0.6336 -0.7753 -0.0884
 3993SOL     OW23614   3.605   1.431   9.915 -0.5084 -0.4021 -0.6707
 3993SOL    HW123615   3.599   1.379   9.996  0.7536  0.8471  0.2293
 3993SOL    HW223616   3.677   1.396   9.863 -1.5066 -1.1947 -1.5197
 3994SOL     OW23617   2.968   0.437   1.960 -0.4867  0.9129 -0.2460
 3994SOL    HW123618   2.918   0.403   2.034  0.9501 -0.3720  0.1379
 3994SOL    HW223619   3.057   0.408   1.984 -1.1441  0.4082  1.5895
 3995SOL     OW23620   0.325   4.148  11.510  0.7522 -0.0698  0.1796
 3995SOL    HW123621   0.233   4.157  11.535  0.7503 -0.3903  0.2867
 3995SOL    HW223622   0.346   4.089  11.582  1.0467  0.1119  0.2451
 3996SOL     OW23623   2.820   1.637  13.203 -0.0551 -0.3359 -0.0014
 3996SOL    HW123624   2.821   1.699  13.129 -1.2886 -0.4219 -0.0857
 3996SOL    HW223625   2.834   1.550  13.165 -0.9111  0.3514 -1.8985
 3997SOL     OW23626   3.791   3.757   8.757  0.0859 -0.0135  0.9498
 3997SOL    HW123627   3.706   3.714   8.751  0.2614 -0.4057  1.2414
 3997SOL    HW223628   3.808   3.775   8.849  1.2247  0.4261  0.6586
 3998SOL     OW23629   0.557   3.927  12.925  0.2818  0.1968  0.0732
 3998SOL    HW123630   0.650   3.940  12.908  0.3102  1.4118  1.1610
 3998SOL    HW223631   0.521   3.970  12.847  0.1360  1.8198  1.0279
 3999SOL     OW23632   0.867   0.292   8.025  0.1058 -0.6561  0.2491
 3999SOL    HW123633   0.914   0.211   8.043 -2.4155 -2.2415 -0.1926
 3999SOL    HW223634   0.921   0.346   8.082  2.6819 -1.5477 -1.3332
 4000SOL     OW23635   2.442   4.236   3.114 -0.0402  0.2834 -0.2656
 4000SOL    HW123636   2.454   4.166   3.178 -0.2354 -1.1912 -1.8282
 4000SOL    HW223637   2.513   4.295   3.140 -3.0379  2.4943  2.7829
 4001SOL     OW23638   2.663   0.241   0.233  0.4927 -0.8436 -0.2430
 4001SOL    HW123639   2.603   0.315   0.242  1.0432 -0.5412  1.0608
 4001SOL    HW223640   2.731   0.265   0.296  0.8435 -1.9714 -0.1985
 4002SOL     OW23641   4.604   3.695   7.486 -0.0234  0.5155  0.0692
 4002SOL    HW123642   4.591   3.645   7.566 -0.4557 -0.5650 -0.6811
 4002SOL    HW223643   4.688   3.734   7.511  1.7859 -1.6445 -2.5530
 4003SOL     OW23644   3.704   4.034   9.025 -0.7588 -0.4728 -0.3806
 4003SOL    HW123645   3.657   3.967   8.975  0.4816 -1.1491 -0.6503
 4003SOL    HW223646   3.645   4.108   9.010  1.6115  1.6289  0.7925
 4004SOL     OW23647   2.967   1.345   8.429 -0.3016 -0.1970 -0.4020
 4004SOL    HW123648   2.972   1.377   8.520  1.7804 -0.3886 -0.4609
 4004SOL    HW223649   2.993   1.423   8.380 -1.1700 -0.6502 -1.5684
 4005SOL     OW23650   3.048   3.240   5.406  0.3129  0.0759 -0.0950
 4005SOL    HW123651   3.015   3.150   5.405  2.4656 -0.7039 -0.3107
 4005SOL    HW223652   2.971   3.290   5.431  1.2160  0.0156  2.7390
 4006SOL     OW23653   1.266   3.123   9.086 -0.4342  0.1045  0.3017
 4006SOL    HW123654   1.215   3.202   9.071 -1.7441 -1.0561 -1.2891
 4006SOL    HW223655   1.198   3.058   9.102  0.6109 -0.4208  2.6250
 4007SOL     OW23656   0.992   1.662  16.551  0.1421  0.0691 -0.0231
 4007SOL    HW123657   0.980   1.701  16.638  1.5324 -0.0525  0.2287
 4007SOL    HW223658   1.001   1.570  16.578  1.1304  0.1938  0.0669
 4008SOL     OW23659   0.320   2.167   9.443 -0.3949 -0.1508  0.3473
 4008SOL    HW123660   0.273   2.239   9.485  0.3682  2.1469 -2.7444
 4008SOL    HW223661   0.406   2.166   9.484 -0.0357  0.7129 -0.3971
 4009SOL     OW23662   3.203   1.213   8.695 -0.5133 -0.7549  0.1890
 4009SOL    HW123663   3.113   1.239   8.716 -0.5660  0.8023 -1.9257
 4009SOL    HW223664   3.246   1.207   8.780  2.3915  0.9436 -1.1651
 4010SOL     OW23665   3.858   0.634   7.245 -0.7927  0.2627 -0.1486
 4010SOL    HW123666   3.900   0.612   7.162 -2.0441 -1.1628 -0.4035
 4010SOL    HW223667   3.770   0.632   7.208 -0.7154  0.8399 -0.3525
 4011SOL     OW23668   1.310   3.617  16.051 -0.7533  0.1029 -0.2846
 4011SOL    HW123669   1.274   3.679  15.989 -0.9045 -0.2916 -0.5921
 4011SOL    HW223670   1.248   3.545  16.044  0.0671 -0.6084 -0.3279
 4012SOL     OW23671   1.564   0.763   9.376  0.1988  0.1171  0.1215
 4012SOL    HW123672   1.506   0.699   9.334 -1.1263  0.8572  0.8321
 4012SOL    HW223673   1.572   0.721   9.462  0.5448 -0.7458 -0.3383
 4013SOL     OW23674   3.353   1.216   6.137  0.3893 -0.2395 -0.7290
 4013SOL    HW123675   3.432   1.165   6.155  2.1357  1.1938 -4.2153
 4013SOL    HW223676   3.354   1.223   6.042 -1.0636 -0.0689 -0.7318
 4014SOL     OW23677   0.955   1.500   5.834  0.1389  0.9680 -0.7627
 4014SOL    HW123678   0.870   1.459   5.818  0.4400 -0.2989  0.8763
 4014SOL    HW223679   1.018   1.429   5.841  0.3316  1.4819  2.7477
 4015SOL     OW23680   4.592   2.740   6.789 -0.0063  0.7278 -0.0611
 4015SOL    HW123681   4.515   2.701   6.831  1.6907 -0.8085  1.6099
 4015SOL    HW223682   4.614   2.807   6.854  0.6105  0.1220  0.3505
 4016SOL     OW23683   3.780   4.129   5.333 -0.0500 -0.3252  0.5034
 4016SOL    HW123684   3.696   4.085   5.342  0.3668 -1.4695 -1.1417
 4016SOL    HW223685   3.773   4.129   5.237  2.3844  0.7305  0.3220
 4017SOL     OW23686   1.386   0.822  17.248 -0.0258 -0.6036 -0.2170
 4017SOL    HW123687   1.419   0.771  17.174 -3.3850 -0.5739 -1.7378
 4017SOL    HW223688   1.406   0.762  17.319  0.9985 -0.5707 -0.4884
 4018SOL     OW23689   2.120   3.838   3.794  0.5880 -0.0667 -0.7044
 4018SOL    HW123690   2.034   3.849   3.834  0.9582 -1.9385  0.6137
 4018SOL    HW223691   2.185   3.845   3.863 -0.1985 -0.0463  0.0403
 4019SOL     OW23692   4.238   4.690   6.380 -0.6253 -0.3097 -0.5929
 4019SOL    HW123693   4.332   4.698   6.360 -0.7661  0.1803 -1.0463
 4019SOL    HW223694   4.211   0.037   6.356 -1.1140 -0.0857  0.7784
 4020SOL     OW23695   4.683   2.037  15.270 -0.2103 -0.3439  0.3904
 4020SOL    HW123696   0.017   1.997  15.227  0.6982  1.3525  0.4023
 4020SOL    HW223697   4.728   2.110  15.314  0.9851 -1.5856  1.2347
 4021SOL     OW23698   0.573   1.412   2.673 -0.0522 -0.0226  0.0670
 4021SOL    HW123699   0.558   1.348   2.604  0.9555  1.0758 -1.1632
 4021SOL    HW223700   0.552   1.495   2.629 -1.2271  0.5324  1.6623
 4022SOL     OW23701   3.804   2.891   2.537 -0.3001 -0.0152  0.0333
 4022SOL    HW123702   3.845   2.817   2.491 -2.9196 -1.6727  0.3141
 4022SOL    HW223703   3.843   2.887   2.624  1.5009  1.3907 -0.7122
 4023SOL     OW23704   1.313   0.723   9.071  0.9422 -0.5443  0.1466
 4023SOL    HW123705   1.286   0.740   9.162  1.8588 -2.7223  0.8234
 4023SOL    HW223706   1.311   0.811   9.034  2.0559 -0.5755  0.0231
 4024SOL     OW23707   1.403   1.469   7.498  0.3066 -0.0117 -0.0193
 4024SOL    HW123708   1.350   1.526   7.554 -0.9826 -0.8298 -0.3964
 4024SOL    HW223709   1.384   1.385   7.540 -2.3127  0.8235  0.4846
 4025SOL     OW23710   3.030   4.449  10.852  0.0624 -0.4695  0.7070
 4025SOL    HW123711   3.004   4.536  10.822  0.9023 -0.9913 -1.4889
 4025SOL    HW223712   3.122   4.458  10.878 -0.0260  0.2617  0.7728
 4026SOL     OW23713   2.117   4.070   0.856  0.6331 -0.2819  0.0515
 4026SOL    HW123714   2.040   4.015   0.870  0.8353 -0.1032  1.8418
 4026SOL    HW223715   2.163   4.059   0.939 -0.5497 -1.6139  0.5336
 4027SOL     OW23716   3.212   2.997   2.064  0.0405 -0.1743  0.7134
 4027SOL    HW123717   3.196   3.084   2.029  1.0246 -1.6690 -3.4718
 4027SOL    HW223718   3.271   3.017   2.136  1.8973  0.7697 -1.0660
 4028SOL     OW23719   3.726   1.385   8.083 -0.0474  0.0548 -0.1385
 4028SOL    HW123720   3.816   1.390   8.113  0.0279  0.9805 -0.5059
 4028SOL    HW223721   3.718   1.290   8.083  1.1317 -0.0453  0.3047
 4029SOL     OW23722   2.408   2.422  14.446  0.6566 -0.0643  0.1396
 4029SOL    HW123723   2.358   2.501  14.423  1.5293  0.5789  0.4318
 4029SOL    HW223724   2.376   2.356  14.385 -0.9292  1.5846 -0.8212
 4030SOL     OW23725   3.400   2.664   6.790  0.1654  0.1726  0.5001
 4030SOL    HW123726   3.358   2.656   6.705  1.9355  1.3397 -0.4871
 4030SOL    HW223727   3.492   2.658   6.764  0.1128  0.0625  0.3381
 4031SOL     OW23728   1.106   3.156   6.146  1.4329  0.4742 -0.0799
 4031SOL    HW123729   1.093   3.223   6.079  0.1798  0.9905  0.6869
 4031SOL    HW223730   1.190   3.182   6.183  1.0138  0.3907  0.9115
 4032SOL     OW23731   4.551   1.050   3.456 -0.2478  0.4609  0.2945
 4032SOL    HW123732   4.645   1.035   3.467 -0.8040 -2.7258  0.7038
 4032SOL    HW223733   4.552   1.037   3.361 -3.3263 -1.8582  0.5903
 4033SOL     OW23734   0.256   1.469   8.275  0.6116 -0.1381  0.7416
 4033SOL    HW123735   0.291   1.541   8.327  3.3607 -1.3111  0.5338
 4033SOL    HW223736   0.164   1.487   8.294  1.0511  2.7973 -0.0502
 4034SOL     OW23737   4.190   0.220   2.853  0.5739  0.2609 -0.1865
 4034SOL    HW123738   4.283   0.204   2.842  0.8794  0.5583  1.9766
 4034SOL    HW223739   4.174   0.194   2.762  2.6927 -0.6113 -0.3112
 4035SOL     OW23740   1.019   2.430   5.941  0.7007 -0.6161 -0.1882
 4035SOL    HW123741   1.058   2.434   6.028 -1.2585  0.3157  0.6445
 4035SOL    HW223742   1.043   2.517   5.910 -1.2681  0.2235  0.6221
 4036SOL     OW23743   0.604   3.368   9.549 -0.2433  0.3692 -0.2423
 4036SOL    HW123744   0.635   3.458   9.562  1.8263 -0.1546 -1.5738
 4036SOL    HW223745   0.682   3.314   9.562 -0.1162  0.0565 -2.3347
 4037SOL     OW23746   4.223   2.503   1.713  0.0250  0.0556 -0.1552
 4037SOL    HW123747   4.153   2.465   1.765  0.1947 -0.8916 -0.6314
 4037SOL    HW223748   4.181   2.589   1.708  0.8616  0.5526  1.2927
 4038SOL     OW23749   2.846   2.155   5.012 -0.1224  0.2043 -0.5811
 4038SOL    HW123750   2.901   2.157   5.091 -1.5908 -0.8325  0.4471
 4038SOL    HW223751   2.857   2.249   4.995  1.7034 -0.2534 -1.9840
 4039SOL     OW23752   3.960   3.013  14.317  0.1935  0.1042  0.2718
 4039SOL    HW123753   4.028   2.947  14.303 -1.0630 -1.5932  2.1670
 4039SOL    HW223754   3.943   3.000  14.410 -1.4828 -1.4375 -0.2465
 4040SOL     OW23755   1.533   0.445   4.138 -0.1521 -0.4128  0.5174
 4040SOL    HW123756   1.521   0.527   4.186 -0.8542 -1.2617  1.7971
 4040SOL    HW223757   1.540   0.380   4.208 -0.9788  0.9074  1.8103
 4041SOL     OW23758   0.997   3.153   8.580  0.2822 -0.2740  0.1045
 4041SOL    HW123759   0.933   3.207   8.534  0.9997  0.3614 -0.1482
 4041SOL    HW223760   1.052   3.222   8.616 -1.8908  2.3091 -1.5398
 4042SOL     OW23761   0.942   1.710   6.500  0.0114  0.2770  0.2743
 4042SOL    HW123762   1.037   1.723   6.498  0.0239  0.3984  1.6752
 4042SOL    HW223763   0.944   1.664   6.583  1.9686 -1.5228 -0.7617
 4043SOL     OW23764   4.290   2.756  11.374  0.3296 -0.0381  0.1270
 4043SOL    HW123765   4.366   2.731  11.428  0.8849  0.0253 -0.6363
 4043SOL    HW223766   4.319   2.721  11.290  0.3936 -2.5989  1.2154
 4044SOL     OW23767   3.450   1.331  14.999 -0.7128 -0.5417 -0.0361
 4044SOL    HW123768   3.440   1.283  15.081 -0.1607  1.4071  1.1707
 4044SOL    HW223769   3.431   1.262  14.936  0.6592 -1.0919  0.1534
 4045SOL     OW23770   0.084   4.264   1.037  0.0687  0.3736  0.2021
 4045SOL    HW123771   0.161   4.211   1.013 -0.4592 -1.2566  2.1341
 4045SOL    HW223772   0.055   4.294   0.950 -0.0859  1.5236  0.6510
 4046SOL     OW23773   0.879   2.801   2.943  0.5030  0.0759 -0.3941
 4046SOL    HW123774   0.914   2.882   2.907  0.6031  0.1756 -0.0721
 4046SOL    HW223775   0.946   2.752   2.993  0.6010  0.4327 -0.1781
 4047SOL     OW23776   2.144   3.343   8.675 -0.0452 -0.5359  0.1319
 4047SOL    HW123777   2.136   3.415   8.738 -0.0194 -0.9943  0.6653
 4047SOL    HW223778   2.124   3.395   8.597  1.1357  1.0720  0.8919
 4048SOL     OW23779   4.400   3.322   8.075  0.5245 -0.4886 -0.6508
 4048SOL    HW123780   4.418   3.234   8.043 -3.0825 -1.1203 -0.9900
 4048SOL    HW223781   4.480   3.363   8.043  1.0115 -0.1672  0.9553
 4049SOL     OW23782   1.930   1.558   3.992  0.0424  0.3973  0.9827
 4049SOL    HW123783   2.010   1.604   3.966  1.4491 -0.5066  3.6842
 4049SOL    HW223784   1.958   1.528   4.079  3.6701 -0.7753 -0.5960
 4050SOL     OW23785   4.195   3.450  14.551 -0.3596 -0.3194  0.0301
 4050SOL    HW123786   4.202   3.356  14.571 -0.6130  0.4453  3.7076
 4050SOL    HW223787   4.116   3.472  14.601  0.2644  0.0089  0.8753
 4051SOL     OW23788   4.549   1.942   9.874 -0.4484  0.5835 -0.5396
 4051SOL    HW123789   4.631   1.924   9.921 -0.6404 -1.2148 -0.9143
 4051SOL    HW223790   4.489   1.896   9.933 -1.7783 -0.0641 -2.4039
 4052SOL     OW23791   3.972   1.595   7.107 -0.5712  0.6040  0.0023
 4052SOL    HW123792   3.951   1.689   7.102  1.1662  1.0222  0.6140
 4052SOL    HW223793   3.892   1.558   7.146  0.4360 -0.6059  0.8905
 4053SOL     OW23794   0.085   1.133   7.089 -0.6165 -0.4047  0.0837
 4053SOL    HW123795   0.109   1.087   7.169  2.1891 -0.8419 -1.0005
 4053SOL    HW223796   0.113   1.223   7.105  1.8233 -1.2191  0.4102
 4054SOL     OW23797   4.153   4.652   4.279  0.1353 -0.2235  0.2923
 4054SOL    HW123798   4.238   4.609   4.278  0.6311  0.7483  0.7686
 4054SOL    HW223799   4.158   4.710   4.355  0.0449 -0.3458  0.3912
 4055SOL     OW23800   0.187   1.241   2.824  0.5803  0.5940  0.2458
 4055SOL    HW123801   0.160   1.304   2.891  2.5432  3.0280 -1.2638
 4055SOL    HW223802   0.202   1.285   2.741 -2.1551 -0.3906 -0.7820
 4056SOL     OW23803   1.777   0.005   3.342 -0.4395 -0.0548  0.5211
 4056SOL    HW123804   1.739   0.052   3.416  0.4429 -0.4915  1.2583
 4056SOL    HW223805   1.725   4.667   3.354 -0.7800 -0.0102 -0.6683
 4057SOL     OW23806   3.016   4.312   1.690  0.3794  0.1205 -0.0876
 4057SOL    HW123807   3.027   4.279   1.780 -0.3350 -1.9520 -0.7744
 4057SOL    HW223808   3.041   4.228   1.653 -0.4461  0.3224 -1.0704
 4058SOL     OW23809   4.488   2.483  16.735  0.0195 -0.5105  0.0805
 4058SOL    HW123810   4.441   2.465  16.817  1.1591  1.6573  1.1963
 4058SOL    HW223811   4.436   2.434  16.671 -2.9082  1.5289  0.9142
 4059SOL     OW23812   3.656   0.476   1.703 -0.1540 -0.2450  0.4353
 4059SOL    HW123813   3.656   0.381   1.691  1.3238 -0.5980  3.3946
 4059SOL    HW223814   3.736   0.507   1.660 -2.2278  2.2043 -1.6915
 4060SOL     OW23815   2.200   4.275  16.658 -0.2034 -0.4101  0.3060
 4060SOL    HW123816   2.128   4.253  16.599 -0.3246  0.6771  0.0465
 4060SOL    HW223817   2.269   4.224  16.615  0.8951  1.5625 -0.2802
 4061SOL     OW23818   2.514   1.614   5.497  0.5051  0.1120 -0.7031
 4061SOL    HW123819   2.471   1.696   5.520 -2.0113 -0.9138 -1.7228
 4061SOL    HW223820   2.502   1.573   5.582  0.8107 -1.3021 -1.3453
 4062SOL     OW23821   2.247   1.425   7.101 -0.0580 -0.2145 -0.0200
 4062SOL    HW123822   2.311   1.475   7.151 -0.2612 -1.0336  1.0498
 4062SOL    HW223823   2.165   1.437   7.149  0.7143  2.0712  0.7063
 4063SOL     OW23824   3.063   4.009  15.888  0.2156  0.0763  0.4156
 4063SOL    HW123825   3.119   3.937  15.859  1.4830  1.4472 -0.5513
 4063SOL    HW223826   2.975   3.973  15.881  0.4835 -0.0153 -2.4390
 4064SOL     OW23827   4.484   1.854   0.659  0.5065  0.3831  0.2340
 4064SOL    HW123828   4.462   1.947   0.649 -0.8746  0.1851  1.4734
 4064SOL    HW223829   4.430   1.811   0.593 -3.0544  3.5432  1.0896
 4065SOL     OW23830   2.580   3.240   4.073  0.3438 -0.2199  0.3374
 4065SOL    HW123831   2.557   3.222   4.164 -2.6624 -2.2978 -0.8216
 4065SOL    HW223832   2.500   3.225   4.022  0.3792  1.1132 -0.0810
 4066SOL     OW23833   0.174   4.031   3.014 -0.5451  1.1985 -0.2632
 4066SOL    HW123834   0.079   4.024   3.006 -0.8255  1.7942  2.3709
 4066SOL    HW223835   0.173   4.089   3.090 -1.2441 -0.8582  1.2822
 4067SOL     OW23836   3.727   1.881   0.486  0.4847 -0.0838  0.0109
 4067SOL    HW123837   3.774   1.889   0.403 -1.0872  0.7370 -0.7985
 4067SOL    HW223838   3.691   1.968   0.500  0.7309 -0.1340  0.9050
 4068SOL     OW23839   1.910   4.190   1.085 -0.3094  0.2271  0.4169
 4068SOL    HW123840   1.914   4.277   1.046 -0.3732 -0.2785 -0.7212
 4068SOL    HW223841   1.881   4.130   1.016 -1.8984 -0.9222  2.1011
 4069SOL     OW23842   2.783   2.252  14.546  0.1430  0.0452  0.3579
 4069SOL    HW123843   2.867   2.291  14.522 -0.4155  0.3249 -1.1653
 4069SOL    HW223844   2.726   2.323  14.576  0.7578  0.9394 -0.6191
 4070SOL     OW23845   3.710   1.352  11.001  0.4920 -0.0853  0.2146
 4070SOL    HW123846   3.663   1.433  11.023  0.3455 -0.3647  0.9225
 4070SOL    HW223847   3.749   1.343  11.088 -0.5944  0.2402  0.7314
 4071SOL     OW23848   3.271   0.602  13.303 -0.0551 -0.3537  0.4322
 4071SOL    HW123849   3.181   0.595  13.333 -0.9656 -1.2679 -2.5406
 4071SOL    HW223850   3.252   0.643  13.219 -2.5243 -1.5265  0.4376
 4072SOL     OW23851   2.206   3.077  14.884 -0.5734  0.1908 -0.0876
 4072SOL    HW123852   2.119   3.045  14.908 -1.2001  2.1399  0.2056
 4072SOL    HW223853   2.254   2.994  14.881 -1.0026 -0.0270 -0.8766
 4073SOL     OW23854   4.059   1.974   8.674 -0.2095 -0.0141 -0.2410
 4073SOL    HW123855   4.073   2.059   8.714  1.0502 -0.4587  0.2644
 4073SOL    HW223856   4.086   1.922   8.750 -0.6695 -0.5271 -0.4267
 4074SOL     OW23857   1.778   2.236   7.885 -0.5343  0.0247  0.3409
 4074SOL    HW123858   1.866   2.264   7.862 -0.5846 -2.4108 -2.8590
 4074SOL    HW223859   1.721   2.289   7.828 -1.4876  0.9765  2.1854
 4075SOL     OW23860   0.761   0.041   2.158 -0.5143  0.6187  0.0865
 4075SOL    HW123861   0.676   4.739   2.150  0.8296 -1.7997 -1.1064
 4075SOL    HW223862   0.808   4.718   2.212 -2.8365 -1.4027 -0.3325
 4076SOL     OW23863   1.472   3.211   4.345  0.6426  0.4519  0.6917
 4076SOL    HW123864   1.427   3.225   4.262  0.3113  0.6579  0.9059
 4076SOL    HW223865   1.394   3.195   4.398 -0.7876  0.0770 -1.4957
 4077SOL     OW23866   0.824   2.128   6.226  0.0824  0.0884  0.4923
 4077SOL    HW123867   0.889   2.073   6.269 -0.6864 -3.1589 -2.4899
 4077SOL    HW223868   0.855   2.214   6.255  0.3420  0.2069 -0.1490
 4078SOL     OW23869   2.437   4.704   5.077 -0.4078  0.2314  0.1168
 4078SOL    HW123870   2.417   0.049   5.115 -1.7419 -0.4853  1.0078
 4078SOL    HW223871   2.513   4.732   5.025  0.3846  0.1229  1.2189
 4079SOL     OW23872   0.882   0.862  12.569  0.1072  0.0183  0.1069
 4079SOL    HW123873   0.867   0.913  12.648 -0.0007 -0.6470  0.5110
 4079SOL    HW223874   0.922   0.929  12.513 -0.4088  0.1909 -0.0500
 4080SOL     OW23875   4.733   1.039  14.097 -0.1970 -0.6906  0.8695
 4080SOL    HW123876   4.694   0.983  14.164  0.1462 -0.7770  0.9984
 4080SOL    HW223877   4.652   1.071  14.058 -0.4572 -2.1742  0.1868
 4081SOL     OW23878   2.161   4.266  14.935 -0.4463  0.8202 -0.0516
 4081SOL    HW123879   2.118   4.300  15.014  0.2339  1.2924  0.1114
 4081SOL    HW223880   2.255   4.279  14.948 -0.3374 -0.2511  0.2638
 4082SOL     OW23881   1.329   3.506  15.644 -0.2321  0.1467 -0.2056
 4082SOL    HW123882   1.342   3.550  15.728  0.1997  1.0406 -0.7476
 4082SOL    HW223883   1.298   3.421  15.675 -0.4269  0.8592  1.5248
 4083SOL     OW23884   2.360   0.273   0.901 -0.0683 -0.3114 -0.0676
 4083SOL    HW123885   2.315   0.244   0.821  2.7730  0.8674 -2.0933
 4083SOL    HW223886   2.451   0.260   0.874  1.0450  2.7187  2.2601
 4084SOL     OW23887   0.781   0.928   7.184 -0.0945  0.1579  0.4063
 4084SOL    HW123888   0.686   0.939   7.185  0.0524  1.4532 -0.0521
 4084SOL    HW223889   0.803   0.835   7.189  0.8425  0.2812 -1.5207
 4085SOL     OW23890   3.806   0.696   3.207 -0.2616 -0.0285 -0.5377
 4085SOL    HW123891   3.898   0.670   3.204 -0.3741 -0.4357 -0.4133
 4085SOL    HW223892   3.767   0.613   3.232 -0.4635  0.3598  0.4641
 4086SOL     OW23893   4.229   4.443  16.032  0.0695  0.1489  0.0561
 4086SOL    HW123894   4.234   4.539  16.029 -0.2119  0.1520 -0.3217
 4086SOL    HW223895   4.141   4.441  15.994  1.4016 -0.7458 -3.0290
 4087SOL     OW23896   3.009   3.303   1.967  0.2940 -0.0573  0.0470
 4087SOL    HW123897   2.997   3.295   1.873  1.2471  1.3077 -0.1828
 4087SOL    HW223898   2.980   3.217   1.998  2.3619 -1.2261 -1.2167
 4088SOL     OW23899   1.328   4.394   7.245 -0.3943  0.5928  0.2344
 4088SOL    HW123900   1.372   4.477   7.266  0.0415  0.5149 -0.3604
 4088SOL    HW223901   1.240   4.424   7.224 -0.2477  0.0158 -1.2027
 4089SOL     OW23902   1.549   4.051   4.151 -0.7629  0.4887  0.3701
 4089SOL    HW123903   1.618   4.118   4.153  0.4077 -0.6923  0.0269
 4089SOL    HW223904   1.600   3.990   4.098  0.5075  1.8350  0.0285
 4090SOL     OW23905   4.429   4.124   0.880 -0.0573  0.0162  0.1061
 4090SOL    HW123906   4.348   4.155   0.839 -1.2025 -0.2353  2.1293
 4090SOL    HW223907   4.404   4.040   0.919 -0.2722  0.1345  0.2231
 4091SOL     OW23908   3.765   1.302   4.021  0.1600  0.6008  0.2667
 4091SOL    HW123909   3.727   1.255   3.948  0.8572  1.6194 -0.7464
 4091SOL    HW223910   3.858   1.285   4.010 -0.2095 -1.0047 -0.4450
 4092SOL     OW23911   4.020   3.822   8.216  0.0186 -0.2020 -0.5826
 4092SOL    HW123912   4.112   3.847   8.219  0.0577 -0.3533 -0.5276
 4092SOL    HW223913   4.033   3.735   8.253  0.8342 -0.7401 -2.1255
 4093SOL     OW23914   3.082   1.392   7.700 -0.0755 -0.2655 -0.6423
 4093SOL    HW123915   2.996   1.357   7.676  1.6704 -4.1395 -1.2350
 4093SOL    HW223916   3.064   1.418   7.790  3.7987  1.6209 -0.4237
 4094SOL     OW23917   4.378   4.232   8.534  0.6310 -0.3106 -0.0192
 4094SOL    HW123918   4.442   4.165   8.556  2.7088  1.8804  0.5904
 4094SOL    HW223919   4.360   4.265   8.623 -0.1308  0.3608 -0.4166
 4095SOL     OW23920   1.788   4.449  16.563 -0.2960  0.3226 -0.1864
 4095SOL    HW123921   1.752   4.504  16.493 -1.7979  0.3708  0.6256
 4095SOL    HW223922   1.713   4.401  16.599  1.5601 -2.4640 -0.0838
 4096SOL     OW23923   4.412   2.757  13.330 -0.0853 -0.0037 -0.1077
 4096SOL    HW123924   4.355   2.687  13.301 -1.2618 -0.0311  2.2716
 4096SOL    HW223925   4.422   2.802  13.246  1.6393 -0.9601 -0.4171
 4097SOL     OW23926   4.678   2.802   3.995  0.2139  0.4513  0.3883
 4097SOL    HW123927   4.669   2.717   3.951  1.7370 -0.2156  1.3289
 4097SOL    HW223928   4.730   2.852   3.932  0.8452 -0.7958 -0.0968
 4098SOL     OW23929   2.860   1.202   7.635 -0.1851  0.2047  0.5482
 4098SOL    HW123930   2.880   1.162   7.720  3.8676 -1.5457 -1.1852
 4098SOL    HW223931   2.891   1.130   7.579  2.2288  0.4515  1.5702
 4099SOL     OW23932   2.377   0.457   8.616 -0.0356  0.2344 -0.1284
 4099SOL    HW123933   2.315   0.458   8.689  1.3997  0.3755  1.0951
 4099SOL    HW223934   2.431   0.529   8.649 -2.8603  1.6502  1.4576
 4100SOL     OW23935   1.023   4.662   6.116  0.1181 -0.0147 -0.2779
 4100SOL    HW123936   1.099   4.720   6.122 -0.7807  1.0648  0.8746
 4100SOL    HW223937   0.955   4.721   6.149  0.9615 -1.5090  4.0588
 4101SOL     OW23938   2.513   4.335   4.559  0.0978  0.3339 -0.0774
 4101SOL    HW123939   2.574   4.315   4.489 -0.6099  2.3617 -1.2503
 4101SOL    HW223940   2.543   4.419   4.593 -0.2606  0.7244 -0.7344
 4102SOL     OW23941   2.849   0.392   3.177 -0.8210 -0.4176  0.3382
 4102SOL    HW123942   2.893   0.435   3.103 -1.8184  1.4751  0.8391
 4102SOL    HW223943   2.833   0.303   3.146 -0.1233 -0.5851  0.4739
 4103SOL     OW23944   3.182   0.312   1.506  0.4830 -0.6790  0.1811
 4103SOL    HW123945   3.155   0.354   1.424 -0.5978 -0.8281  0.4670
 4103SOL    HW223946   3.128   0.355   1.572 -0.8384 -0.4632 -1.0534
 4104SOL     OW23947   1.510   3.163   1.935  0.2446  0.3916 -0.2643
 4104SOL    HW123948   1.574   3.157   2.006 -0.9884 -1.6099  0.6589
 4104SOL    HW223949   1.560   3.125   1.863 -0.8250 -0.3460 -0.6264
 4105SOL     OW23950   2.100   4.481   7.542  0.0723 -0.2275  0.0794
 4105SOL    HW123951   2.103   4.385   7.534  0.4162 -0.1478 -0.7419
 4105SOL    HW223952   2.195   4.495   7.544  0.5005 -3.3933  3.4342
 4106SOL     OW23953   1.627   1.290  16.765 -0.0323 -0.0872 -0.6492
 4106SOL    HW123954   1.650   1.358  16.702 -0.6295  0.6760 -0.0392
 4106SOL    HW223955   1.686   1.292  16.840 -0.3431  0.5484 -0.4261
 4107SOL     OW23956   3.909   1.905   5.247 -0.3875  0.1907  0.4803
 4107SOL    HW123957   3.948   1.858   5.321 -1.1533  0.8367  1.2899
 4107SOL    HW223958   3.881   1.833   5.191  1.6918 -0.5618  0.4006
 4108SOL     OW23959   2.983   3.111   1.751 -0.3216 -0.1015 -0.3078
 4108SOL    HW123960   3.008   3.019   1.742 -0.0581 -0.0643  0.0043
 4108SOL    HW223961   2.893   3.105   1.721 -0.7948  1.5547  0.7399
 4109SOL     OW23962   2.605   4.600  16.886  0.0831 -0.9039  0.3203
 4109SOL    HW123963   2.564   4.608  16.800  1.8662  2.1570 -0.2487
 4109SOL    HW223964   2.602   4.505  16.896 -0.6111 -0.6357  2.5987
 4110SOL     OW23965   4.077   2.102   2.587 -0.1135  0.1723 -0.2172
 4110SOL    HW123966   4.137   2.174   2.611  1.0961 -0.6574 -0.7478
 4110SOL    HW223967   4.058   2.133   2.499  0.0328 -1.1341 -0.6997
 4111SOL     OW23968   1.570   2.767   9.960  0.1113  0.8302  0.2035
 4111SOL    HW123969   1.475   2.766   9.960  0.1119 -0.3850 -0.3499
 4111SOL    HW223970   1.585   2.741   9.868  2.8131  0.7628  0.6449
 4112SOL     OW23971   4.134   0.929   7.083 -0.0583  0.3088 -0.6318
 4112SOL    HW123972   4.193   0.870   7.131 -0.3380  1.4940  1.1750
 4112SOL    HW223973   4.064   0.866   7.065 -0.2016  0.3543 -0.2291
 4113SOL     OW23974   1.737   3.006  11.716 -0.1749  0.1302 -0.1537
 4113SOL    HW123975   1.654   3.031  11.675  0.0116  0.1325 -0.5370
 4113SOL    HW223976   1.789   3.086  11.707 -0.0897  0.3553  2.4663
 4114SOL     OW23977   3.934   1.774  15.851  0.9177 -0.1273  0.2957
 4114SOL    HW123978   4.002   1.737  15.794  1.1535 -2.8466  2.3568
 4114SOL    HW223979   3.872   1.701  15.855  0.0278  0.4952 -1.8710
 4115SOL     OW23980   0.706   1.515   5.126  0.1742 -0.2892 -0.3508
 4115SOL    HW123981   0.706   1.439   5.068  1.0885  0.7536 -1.7086
 4115SOL    HW223982   0.654   1.476   5.196  0.0989  0.8263  0.2167
 4116SOL     OW23983   3.892   0.566   1.957 -0.0373 -0.0313  0.0993
 4116SOL    HW123984   3.909   0.475   1.933 -0.3134 -0.1283  0.2650
 4116SOL    HW223985   3.871   0.605   1.872 -0.4756 -1.3507 -0.4047
 4117SOL     OW23986   0.292   1.603  12.629 -0.0903  0.1885  0.0757
 4117SOL    HW123987   0.346   1.558  12.565 -2.0031 -1.3727 -0.4437
 4117SOL    HW223988   0.340   1.684  12.647  0.7400 -0.5823  1.3113
 4118SOL     OW23989   1.741   2.423   4.961  0.1217  0.6068 -0.2985
 4118SOL    HW123990   1.681   2.496   4.947  1.6099  1.6247 -1.2480
 4118SOL    HW223991   1.808   2.439   4.895 -0.0369 -0.9823 -0.8653
 4119SOL     OW23992   0.622   1.187  12.576  0.5361 -0.3944  0.5811
 4119SOL    HW123993   0.678   1.132  12.630 -0.4737 -1.8654  0.1209
 4119SOL    HW223994   0.689   1.220  12.516 -1.0379  1.5427 -0.1125
 4120SOL     OW23995   4.045   1.471  17.126 -0.0841  0.1139  0.3502
 4120SOL    HW123996   3.973   1.504  17.073  1.5140  2.0740 -0.6085
 4120SOL    HW223997   4.025   1.384  17.092 -2.1146  0.4297  0.7498
 4121SOL     OW23998   0.712   3.714  10.978 -0.5267  0.9535 -0.0555
 4121SOL    HW123999   0.723   3.715  10.883  0.4197 -1.5483  0.0283
 4121SOL    HW224000   0.807   3.699  10.988 -0.6718  0.6169  0.8649
 4122SOL     OW24001   0.066   0.729   2.950  0.9381 -0.6241  0.3773
 4122SOL    HW124002   0.073   0.720   2.855  2.8247 -0.4354  0.4964
 4122SOL    HW224003   0.068   0.825   2.956 -1.6489 -0.6163  1.2473
 4123SOL     OW24004   1.143   1.665   8.634  0.6384  0.2460 -0.0183
 4123SOL    HW124005   1.190   1.632   8.557 -0.0798 -1.0396  0.1103
 4123SOL    HW224006   1.068   1.711   8.596 -0.7555 -0.2750  2.1133
 4124SOL     OW24007   1.051   1.083   8.804 -0.2253 -0.4073 -0.1975
 4124SOL    HW124008   0.960   1.069   8.829 -0.0286 -0.5950  0.4323
 4124SOL    HW224009   1.046   1.143   8.730  0.9419 -1.7340 -1.3553
 4125SOL     OW24010   2.082   3.282  15.216 -0.7306 -0.9311 -0.0657
 4125SOL    HW124011   2.069   3.308  15.124  0.5411  0.7645  0.2318
 4125SOL    HW224012   2.012   3.329  15.262  1.8705  1.5121  1.4133
 4126SOL     OW24013   1.540   1.980  13.325  0.1872 -0.0848 -0.2554
 4126SOL    HW124014   1.629   2.009  13.304  0.4756 -0.6201  0.2189
 4126SOL    HW224015   1.498   2.065  13.328 -2.1376 -1.2637  0.3227
 4127SOL     OW24016   4.347   0.742   5.765 -0.6433  0.0978  0.1978
 4127SOL    HW124017   4.401   0.819   5.780  0.8506 -0.9063  0.0150
 4127SOL    HW224018   4.268   0.789   5.740 -1.3137 -1.8187 -1.2763
 4128SOL     OW24019   2.723   4.396  14.356  0.3643 -0.6515 -0.3743
 4128SOL    HW124020   2.701   4.354  14.273  0.2652 -1.9016  0.2878
 4128SOL    HW224021   2.765   4.475  14.321  0.5300 -0.5870 -0.0236
 4129SOL     OW24022   1.096   2.931   4.054 -0.0399 -0.1969 -0.2350
 4129SOL    HW124023   1.008   2.958   4.029 -0.9699 -1.3670  1.7579
 4129SOL    HW224024   1.095   2.941   4.150  0.1414 -0.2766 -0.2250
 4130SOL     OW24025   4.030   4.681   1.475 -0.1050  0.5190  0.6765
 4130SOL    HW124026   4.007   4.655   1.564  0.3726 -0.4687  0.5097
 4130SOL    HW224027   4.121   4.653   1.476  0.2573  1.6745  0.2367
 4131SOL     OW24028   3.459   3.183  16.932 -0.1979  0.1518  0.3612
 4131SOL    HW124029   3.419   3.252  16.880  0.4338  0.6056  0.4703
 4131SOL    HW224030   3.377   3.162  16.976 -2.1327  1.2628 -2.6771
 4132SOL     OW24031   1.988   3.277   4.729 -0.6252 -0.1176 -0.2234
 4132SOL    HW124032   1.994   3.373   4.736  2.1287 -0.3944  1.1851
 4132SOL    HW224033   2.023   3.263   4.641  1.4773  2.6327  0.1686
 4133SOL     OW24034   3.461   2.427   1.893 -0.0808  0.1001 -0.5112
 4133SOL    HW124035   3.484   2.394   1.806 -0.4035 -1.5599  0.0383
 4133SOL    HW224036   3.527   2.495   1.904  2.8978 -2.5412 -2.1122
 4134SOL     OW24037   1.116   0.716   3.911 -0.3163 -0.2518 -0.0023
 4134SOL    HW124038   1.153   0.802   3.895 -2.5891  0.9477  1.0832
 4134SOL    HW224039   1.186   0.674   3.961 -0.3311 -2.7400 -2.0529
 4135SOL     OW24040   0.231   1.343   2.544  0.3558  0.2413 -0.1757
 4135SOL    HW124041   0.312   1.293   2.535  0.1518 -0.1785  0.3653
 4135SOL    HW224042   0.261   1.432   2.561  3.6119 -0.9137  0.1380
 4136SOL     OW24043   4.300   4.250  16.547  0.3183 -0.0626 -0.1885
 4136SOL    HW124044   4.237   4.258  16.476 -0.8536 -0.3582  0.8118
 4136SOL    HW224045   4.300   4.334  16.594 -1.8081  0.4381 -1.0971
 4137SOL     OW24046   3.357   2.470  11.346 -0.1756  0.0219  0.1549
 4137SOL    HW124047   3.352   2.523  11.266 -0.2660 -0.7657 -0.3554
 4137SOL    HW224048   3.372   2.543  11.406 -0.5432 -0.1130  0.4068
 4138SOL     OW24049   1.439   0.945   7.275 -0.0818 -0.3563 -0.6481
 4138SOL    HW124050   1.487   0.864   7.290  0.9707  0.0820 -1.6343
 4138SOL    HW224051   1.502   1.016   7.288 -1.4499  0.4843  1.4795
 4139SOL     OW24052   1.776   2.077   4.379 -0.2895  0.7193  0.0592
 4139SOL    HW124053   1.717   2.126   4.321  1.4762 -0.0733 -2.4062
 4139SOL    HW224054   1.741   2.085   4.467  1.0000  1.3935  0.5119
 4140SOL     OW24055   3.092   1.366   3.505  0.4265  0.4314 -0.2079
 4140SOL    HW124056   3.178   1.334   3.530  1.2362  1.3853 -1.7478
 4140SOL    HW224057   3.043   1.285   3.492  1.7691 -0.6114  1.2745
 4141SOL     OW24058   1.490   1.025   3.942  0.0846 -0.2233  0.5124
 4141SOL    HW124059   1.502   1.058   3.853  1.3464 -2.0435  0.0184
 4141SOL    HW224060   1.553   1.087   3.978  0.6821 -1.6934  2.0009
 4142SOL     OW24061   4.013   2.769   6.537  0.0963 -0.3430  0.4228
 4142SOL    HW124062   3.941   2.766   6.474 -0.7885 -0.6202  1.4470
 4142SOL    HW224063   4.087   2.803   6.487  0.3368  0.4614  1.3174
 4143SOL     OW24064   0.709   1.300   8.392  0.3601 -0.2018  0.5791
 4143SOL    HW124065   0.776   1.361   8.423  1.7476 -2.7761  2.6729
 4143SOL    HW224066   0.633   1.331   8.442  0.2941 -0.8117  0.8574
 4144SOL     OW24067   0.287   3.575   6.628  0.1948 -0.7159  0.2425
 4144SOL    HW124068   0.249   3.648   6.579  0.9289  0.8184  1.9471
 4144SOL    HW224069   0.278   3.601   6.720  1.0768 -0.8811  0.3725
 4145SOL     OW24070   2.269   2.411   5.544  0.3131 -0.1826 -0.3926
 4145SOL    HW124071   2.205   2.481   5.548  0.3261 -0.1191 -1.2255
 4145SOL    HW224072   2.219   2.330   5.549  0.6534 -0.5479 -2.7999
 4146SOL     OW24073   0.275   0.237   6.123 -0.4160 -0.2078 -0.0058
 4146SOL    HW124074   0.359   0.202   6.092 -0.7803  0.3719 -1.6253
 4146SOL    HW224075   0.277   0.310   6.062 -0.0620 -2.0543 -2.1942
 4147SOL     OW24076   0.734   0.016   9.400  0.4135  0.2178 -0.9011
 4147SOL    HW124077   0.639   0.007   9.405  0.4288 -0.8027 -2.8760
 4147SOL    HW224078   0.760   4.697   9.331 -0.3782 -1.3569  0.1634
 4148SOL     OW24079   1.707   1.190   4.563  0.5470 -0.2428 -0.2023
 4148SOL    HW124080   1.616   1.214   4.579 -0.1861 -2.2692 -1.2868
 4148SOL    HW224081   1.711   1.148   4.477 -0.4142 -0.8333  0.0411
 4149SOL     OW24082   1.020   3.154  15.719 -0.1700  0.2546  0.3669
 4149SOL    HW124083   0.959   3.158  15.793  0.1360 -0.5995  0.6635
 4149SOL    HW224084   1.006   3.248  15.703 -1.0819  0.2219  0.9650
 4150SOL     OW24085   3.567   1.105   8.776  0.6385 -0.5591 -0.2032
 4150SOL    HW124086   3.507   1.147   8.837  1.6958 -0.1048  0.5304
 4150SOL    HW224087   3.545   1.155   8.698  0.8087  0.5219  0.4443
 4151SOL     OW24088   1.852   4.257   0.297  0.1357 -0.0494 -0.0060
 4151SOL    HW124089   1.887   4.293   0.379 -1.4724  0.3251  0.5114
 4151SOL    HW224090   1.842   4.336   0.244 -0.4333  0.7595  1.3122
 4152SOL     OW24091   0.688   2.441   1.555 -0.0550 -0.2863 -0.2437
 4152SOL    HW124092   0.699   2.358   1.601  1.1983 -0.4342 -0.8106
 4152SOL    HW224093   0.709   2.422   1.464  0.8509 -0.0980 -0.0744
 4153SOL     OW24094   1.980   1.163  16.596  0.5068  0.2541  0.2207
 4153SOL    HW124095   1.958   1.178  16.688 -0.4217  3.8137 -0.5718
 4153SOL    HW224096   1.901   1.201  16.557 -1.1810 -1.8692  1.5712
 4154SOL     OW24097   1.949   0.662   6.840  0.1909  0.4626  0.2888
 4154SOL    HW124098   1.909   0.605   6.775 -1.6476  0.3945  1.4940
 4154SOL    HW224099   1.879   0.663   6.905 -0.2945 -1.9058 -0.1964
 4155SOL     OW24100   2.605   1.404   7.123  0.3406  0.1305 -0.2439
 4155SOL    HW124101   2.625   1.494   7.096 -0.9528  0.2521 -0.8151
 4155SOL    HW224102   2.598   1.357   7.040 -0.6529  1.0500 -0.6898
 4156SOL     OW24103   4.395   3.693   7.331 -0.6952  0.0279  0.9758
 4156SOL    HW124104   4.432   3.718   7.246 -0.6464  2.1265  1.6117
 4156SOL    HW224105   4.476   3.693   7.382 -0.4390  0.5683  0.5755
 4157SOL     OW24106   4.509   2.809   6.424  0.3848 -0.1955 -0.2506
 4157SOL    HW124107   4.417   2.798   6.401  0.5511  1.0845 -1.4988
 4157SOL    HW224108   4.510   2.898   6.460 -1.1697 -1.0440  1.8856
 4158SOL     OW24109   4.283   1.556  10.414  0.0299 -0.6146 -1.0213
 4158SOL    HW124110   4.193   1.591  10.410 -0.8502 -2.5694  1.7689
 4158SOL    HW224111   4.326   1.642  10.418 -0.9193 -0.1293 -1.1400
 4159SOL     OW24112   4.249   2.853   9.846  0.5451 -0.6491 -0.2530
 4159SOL    HW124113   4.182   2.856   9.914  1.2954 -0.7136  0.4920
 4159SOL    HW224114   4.217   2.794   9.778  0.6779 -1.4911  0.4210
 4160SOL     OW24115   4.086   4.702   3.509 -0.1492 -0.4733  0.2137
 4160SOL    HW124116   4.054   4.680   3.597  0.1372 -1.0855  0.1664
 4160SOL    HW224117   4.086   0.055   3.528  2.1611 -0.8047  1.8608
 4161SOL     OW24118   0.119   1.623   2.786  0.3775 -0.5126  0.1492
 4161SOL    HW124119   0.128   1.582   2.699 -0.6547  1.4572 -0.8774
 4161SOL    HW224120   0.206   1.610   2.822 -1.4539  0.2194  4.7892
 4162SOL     OW24121   2.591   3.498  17.056  1.0355  0.0628  0.5493
 4162SOL    HW124122   2.654   3.522  16.989  1.6073 -1.4075  0.5607
 4162SOL    HW224123   2.614   3.405  17.064 -0.2814 -0.1286  2.3797
 4163SOL     OW24124   4.134   3.010   9.317  0.0470 -0.3172 -0.4082
 4163SOL    HW124125   4.065   3.074   9.335 -1.1317 -1.8779  0.5823
 4163SOL    HW224126   4.203   3.034   9.378 -2.2539  0.1131  1.9968
 4164SOL     OW24127   4.471   0.802   6.805 -0.5384 -0.1720  0.2544
 4164SOL    HW124128   4.526   0.793   6.882 -0.8261 -0.7383  0.3952
 4164SOL    HW224129   4.507   0.878   6.759 -0.9867 -1.2006 -1.8129
 4165SOL     OW24130   4.368   3.939   8.618  0.4025  0.0592 -0.4937
 4165SOL    HW124131   4.452   3.977   8.643  0.9294 -0.6369 -1.2194
 4165SOL    HW224132   4.308   4.005   8.653  0.6920 -0.3098  0.7061
 4166SOL     OW24133   2.528   0.245   8.689  0.4445 -0.3512  0.4155
 4166SOL    HW124134   2.463   0.310   8.664  1.2296  0.9863  1.8623
 4166SOL    HW224135   2.503   0.233   8.781  0.3977 -0.1502  0.4289
 4167SOL     OW24136   3.382   2.567  11.088 -0.1765  0.4010  0.4888
 4167SOL    HW124137   3.444   2.636  11.112  0.0001 -0.2082  1.7722
 4167SOL    HW224138   3.427   2.525  11.014  0.7032 -0.2216  1.3747
 4168SOL     OW24139   2.651   1.278   4.711  0.2273  0.0627 -0.0623
 4168SOL    HW124140   2.636   1.370   4.691 -0.8086 -0.0160  0.3547
 4168SOL    HW224141   2.665   1.276   4.806 -1.9093 -1.3914  0.2211
 4169SOL     OW24142   3.977   1.692   3.184 -0.7513 -0.3466 -0.0697
 4169SOL    HW124143   4.070   1.705   3.162 -0.7322 -0.2374  0.0720
 4169SOL    HW224144   3.934   1.776   3.168  0.2795  0.3672  0.8454
 4170SOL     OW24145   2.614   2.476   7.548 -0.4316  0.4857 -0.3586
 4170SOL    HW124146   2.632   2.456   7.456  2.1963  0.9954  0.0548
 4170SOL    HW224147   2.546   2.542   7.534 -0.3399  0.9253  1.2796
 4171SOL     OW24148   0.510   1.436   0.703  0.0003  0.0555 -0.1152
 4171SOL    HW124149   0.497   1.492   0.627 -0.1044 -0.8945 -0.7913
 4171SOL    HW224150   0.441   1.370   0.696  2.0898 -2.1882  0.2170
 4172SOL     OW24151   0.336   0.807   7.168 -0.0289  0.1199  0.9849
 4172SOL    HW124152   0.330   0.733   7.228  1.1433 -0.3561  0.5248
 4172SOL    HW224153   0.272   0.771   7.107 -1.0001 -0.9345  2.6358
 4173SOL     OW24154   4.608   2.178   1.229  0.1715 -0.1111  0.1038
 4173SOL    HW124155   4.553   2.115   1.275  0.3166  0.0718  0.5260
 4173SOL    HW224156   4.620   2.138   1.143  2.1927  0.1335  0.2746
 4174SOL     OW24157   1.363   2.235  14.820 -0.0104  0.3368 -0.0893
 4174SOL    HW124158   1.363   2.260  14.728 -1.0895  0.2350 -0.1211
 4174SOL    HW224159   1.275   2.263  14.846  1.4568  3.5858  1.3149
 4175SOL     OW24160   0.797   4.067   3.696  0.5907 -0.0518 -0.0751
 4175SOL    HW124161   0.811   4.159   3.720 -0.2744  0.2489 -0.7005
 4175SOL    HW224162   0.737   4.086   3.624 -1.5814 -1.3084  1.3758
 4176SOL     OW24163   0.383   3.453   0.462 -0.6108  0.2619  0.2503
 4176SOL    HW124164   0.308   3.413   0.505 -0.0603  1.3803  2.2511
 4176SOL    HW224165   0.396   3.391   0.390 -0.6365  1.9074 -1.1674
 4177SOL     OW24166   2.257   4.420   8.736 -0.0799 -0.4026 -0.1671
 4177SOL    HW124167   2.278   4.472   8.659 -2.3088  0.0632 -0.4575
 4177SOL    HW224168   2.196   4.478   8.783  2.6392  1.5250  0.9652
 4178SOL     OW24169   4.592   2.023   4.874 -0.2216 -0.3846  0.3444
 4178SOL    HW124170   4.558   2.014   4.785  0.6472 -1.5381  0.1305
 4178SOL    HW224171   4.629   2.109   4.854 -0.1994 -0.6463 -0.7684
 4179SOL     OW24172   3.575   2.068   9.505  0.5699 -0.2279 -0.7731
 4179SOL    HW124173   3.568   2.158   9.538 -0.1476  0.1217 -1.8910
 4179SOL    HW224174   3.606   2.073   9.415  0.8604  1.0591 -0.5982
 4180SOL     OW24175   2.570   1.467   7.990 -0.1960 -0.5905 -0.1903
 4180SOL    HW124176   2.645   1.439   8.043  0.3709 -1.2193 -1.3034
 4180SOL    HW224177   2.511   1.520   8.043 -0.9804 -0.8914 -0.7698
 4181SOL     OW24178   2.363   0.845   6.992 -0.2543 -0.2524  0.1554
 4181SOL    HW124179   2.427   0.893   7.044 -1.3707  0.8720  0.4888
 4181SOL    HW224180   2.289   0.895   7.026  0.8097  0.0324  2.0465
 4182SOL     OW24181   3.627   0.077   6.573 -0.0215 -0.6685  0.0058
 4182SOL    HW124182   3.607   0.043   6.661 -0.2970  1.8260  0.9079
 4182SOL    HW224183   3.713   0.036   6.563 -0.5603 -2.0693  0.9561
 4183SOL     OW24184   0.782   1.423   2.238 -0.1586 -0.1649 -0.1592
 4183SOL    HW124185   0.770   1.391   2.149 -3.2717 -0.2062  0.2766
 4183SOL    HW224186   0.804   1.515   2.224  0.1624 -0.1151  0.6602
 4184SOL     OW24187   1.665   1.356   5.165 -0.7338  0.0850 -0.3151
 4184SOL    HW124188   1.644   1.307   5.244  2.7057 -0.7610  0.0651
 4184SOL    HW224189   1.611   1.435   5.176  0.3369  0.6397  0.9502
 4185SOL     OW24190   0.170   4.690   4.462 -0.4601 -0.8663  0.4914
 4185SOL    HW124191   0.155   4.681   4.368  0.7478  1.8060  0.0450
 4185SOL    HW224192   0.255   4.647   4.470  0.6570  1.1056 -0.6311
 4186SOL     OW24193   2.846   0.496  14.627 -0.1732  0.3531 -0.2965
 4186SOL    HW124194   2.895   0.425  14.586 -0.2496 -0.3219  0.7879
 4186SOL    HW224195   2.831   0.551  14.550  0.0517 -0.2791 -0.7906
 4187SOL     OW24196   4.722   1.740   8.191 -0.0176  0.1062 -0.0360
 4187SOL    HW124197   0.049   1.724   8.126 -0.0253 -1.3702  0.3241
 4187SOL    HW224198   4.713   1.835   8.186  0.9392  0.1852 -0.2712
 4188SOL     OW24199   4.383   1.122   7.169  0.1984 -0.0905 -0.0326
 4188SOL    HW124200   4.403   1.102   7.261  1.4575 -2.3442 -0.7982
 4188SOL    HW224201   4.413   1.046   7.119 -1.4340  0.0750 -1.2362
 4189SOL     OW24202   4.445   3.070   6.085  1.0102  0.3715  0.6715
 4189SOL    HW124203   4.388   2.994   6.077 -0.3541  1.5835 -1.1505
 4189SOL    HW224204   4.525   3.028   6.118  1.9219  1.4413 -0.1587
 4190SOL     OW24205   4.660   1.518   5.124 -0.4369 -0.1610  0.6633
 4190SOL    HW124206   4.568   1.510   5.099  0.1232 -0.4341 -1.3212
 4190SOL    HW224207   4.657   1.606   5.161  0.3822 -0.6489  1.8924
 4191SOL     OW24208   2.726   2.517   6.722  0.4849  0.3049  0.0193
 4191SOL    HW124209   2.655   2.539   6.661  0.3115 -0.5455 -0.0751
 4191SOL    HW224210   2.794   2.559   6.669 -0.8849  2.2407 -0.2419
 4192SOL     OW24211   1.406   0.096  12.600 -0.1982  0.2865  0.3682
 4192SOL    HW124212   1.314   0.096  12.627  0.3384  0.3914  2.2340
 4192SOL    HW224213   1.393   0.061  12.512 -1.3832  2.7512 -0.4285
 4193SOL     OW24214   3.142   2.741   4.289  0.1573  0.1941  0.2244
 4193SOL    HW124215   3.059   2.758   4.333 -0.4347 -0.5400 -0.6148
 4193SOL    HW224216   3.128   2.797   4.213 -2.3277  0.7647  1.0945
 4194SOL     OW24217   1.562   1.655   5.106  0.0480  0.1170  0.6935
 4194SOL    HW124218   1.488   1.642   5.046  0.2390 -3.3262  1.1848
 4194SOL    HW224219   1.584   1.747   5.099 -2.0573  0.6388  0.7934
 4195SOL     OW24220   0.643   4.645   6.876 -0.3236  0.6737  0.6076
 4195SOL    HW124221   0.725   4.636   6.925 -1.5647 -0.5495  2.4634
 4195SOL    HW224222   0.670   4.668   6.787 -1.1313 -2.1928 -0.3817
 4196SOL     OW24223   3.204   0.748   5.256  0.3270 -0.1275 -0.0025
 4196SOL    HW124224   3.161   0.735   5.341 -0.6826 -0.1448 -0.5296
 4196SOL    HW224225   3.286   0.792   5.281 -0.2180  0.5050  0.7034
 4197SOL     OW24226   0.433   0.421   8.136 -0.4624 -0.0007 -0.2843
 4197SOL    HW124227   0.509   0.382   8.178 -1.3233 -1.5823 -0.1827
 4197SOL    HW224228   0.459   0.405   8.045 -0.5809 -0.8272 -0.1682
 4198SOL     OW24229   0.171   3.903  12.758 -0.5205  0.2992 -0.2344
 4198SOL    HW124230   0.076   3.914  12.745 -0.5118  2.1954  1.2840
 4198SOL    HW224231   0.186   3.925  12.850  1.6950 -0.6946 -0.3837
 4199SOL     OW24232   3.750   1.266  12.544 -0.1328  0.0582  0.6029
 4199SOL    HW124233   3.667   1.254  12.590 -0.0550 -2.9548 -0.0745
 4199SOL    HW224234   3.806   1.304  12.613  0.7861  0.0186 -0.1305
 4200SOL     OW24235   0.184   1.208   5.385 -0.2413  0.1004  0.3251
 4200SOL    HW124236   0.170   1.257   5.466  0.0435 -0.7591  0.8940
 4200SOL    HW224237   0.109   1.244   5.338 -0.5367 -1.1007 -0.1342
 4201SOL     OW24238   1.016   2.531  17.198 -0.1731 -0.4859 -0.0977
 4201SOL    HW124239   0.971   2.614  17.181 -1.1710 -1.1624 -0.7898
 4201SOL    HW224240   0.951   2.461  17.192  0.5129 -1.0921 -0.5088
 4202SOL     OW24241   3.421   3.563   5.122  0.0942  0.6267 -0.0410
 4202SOL    HW124242   3.357   3.492   5.119  0.8501 -0.0365 -0.4378
 4202SOL    HW224243   3.478   3.543   5.047 -0.0289 -2.8103  0.7684
 4203SOL     OW24244   2.868   1.125  13.261  0.0739  0.1962 -0.0584
 4203SOL    HW124245   2.876   1.041  13.216 -1.0052 -0.9331  1.8739
 4203SOL    HW224246   2.886   1.107  13.353  1.3304  1.0103 -0.1418
 4204SOL     OW24247   0.941   0.059  11.840 -0.7003 -0.0590 -0.1728
 4204SOL    HW124248   0.902   0.144  11.820  0.5911  0.2397 -1.3919
 4204SOL    HW224249   0.873   0.023  11.897 -1.4910  0.2643 -0.9230
 4205SOL     OW24250   1.513   4.157   0.413 -0.2143 -0.6030 -0.3467
 4205SOL    HW124251   1.475   4.095   0.352 -1.2189 -2.0661  1.7556
 4205SOL    HW224252   1.463   4.138   0.493  2.3631  0.2967  1.4952
 4206SOL     OW24253   3.023   2.858   7.207  0.1017  0.4666  0.1462
 4206SOL    HW124254   2.953   2.831   7.268  1.3426 -1.5435  0.7080
 4206SOL    HW224255   3.046   2.765   7.198 -1.3763  0.1406 -0.2677
 4207SOL     OW24256   0.434   0.452  12.168  0.2393 -0.3302  0.1889
 4207SOL    HW124257   0.356   0.506  12.152  0.0217 -0.5588  0.4715
 4207SOL    HW224258   0.453   0.460  12.261 -1.1733 -2.1694  0.6501
 4208SOL     OW24259   1.901   1.848   3.767 -0.8470 -0.3530  0.1783
 4208SOL    HW124260   1.849   1.770   3.748 -2.4534  0.5931  0.6518
 4208SOL    HW224261   1.990   1.822   3.745 -0.9406 -1.1498  0.7346
 4209SOL     OW24262   3.516   1.805  15.270 -0.5758 -0.2438 -0.3013
 4209SOL    HW124263   3.589   1.854  15.233  0.3220  0.2325  2.1273
 4209SOL    HW224264   3.508   1.735  15.205  0.8690 -2.2027  1.6208
 4210SOL     OW24265   2.190   1.689   3.291  0.3692  0.0316  0.0748
 4210SOL    HW124266   2.190   1.623   3.221 -1.1013  1.4853 -1.2735
 4210SOL    HW224267   2.125   1.652   3.350  0.2677  0.3298  0.1455
 4211SOL     OW24268   3.798   3.850  15.505  0.2417  0.4316 -0.5965
 4211SOL    HW124269   3.779   3.943  15.512 -0.2744  0.5605 -3.8704
 4211SOL    HW224270   3.778   3.850  15.412 -0.5034 -1.9914 -0.4274
 4212SOL     OW24271   0.532   4.205  13.095 -0.5055 -0.0092 -0.7983
 4212SOL    HW124272   0.620   4.199  13.058 -0.6818 -2.7040 -0.7870
 4212SOL    HW224273   0.535   4.128  13.152 -1.2142  0.5863  0.0434
 4213SOL     OW24274   3.666   2.897   7.706 -0.0016 -0.0103  0.3287
 4213SOL    HW124275   3.574   2.881   7.727  0.0477 -1.6110 -0.6718
 4213SOL    HW224276   3.713   2.916   7.787  0.4063  2.9583 -0.5789
 4214SOL     OW24277   2.212   3.700   4.791 -0.2762  0.3197 -0.1399
 4214SOL    HW124278   2.250   3.708   4.704  0.7279 -1.5682  0.1112
 4214SOL    HW224279   2.247   3.782   4.825  0.7434 -0.2609  0.2193
 4215SOL     OW24280   3.645   0.924  14.708 -0.2506 -0.3163 -0.1734
 4215SOL    HW124281   3.670   0.896  14.620  0.7995  1.4500 -0.4274
 4215SOL    HW224282   3.732   0.935  14.745 -0.1286  1.5677 -1.0423
 4216SOL     OW24283   2.099   4.147   2.007  0.1776 -0.1541  0.4095
 4216SOL    HW124284   2.037   4.100   2.061  1.0817  0.7006  2.1939
 4216SOL    HW224285   2.175   4.123   2.061  0.4636 -1.4674 -0.5783
 4217SOL     OW24286   3.464   2.077   0.898  0.2707 -0.1322 -0.4058
 4217SOL    HW124287   3.453   2.010   0.966  1.7625  0.3055  0.2713
 4217SOL    HW224288   3.469   2.158   0.948  2.9822 -0.3208 -0.3936
 4218SOL     OW24289   1.510   1.797   6.207 -0.9008  0.1351 -0.1069
 4218SOL    HW124290   1.483   1.751   6.286  1.2506  0.5453  0.8743
 4218SOL    HW224291   1.558   1.866   6.251 -0.6270 -0.0771 -0.0731
 4219SOL     OW24292   1.021   0.461   8.184  0.3427  0.4296 -0.4209
 4219SOL    HW124293   1.083   0.534   8.179 -0.3093  1.0880  1.1832
 4219SOL    HW224294   0.983   0.472   8.271  0.5447  0.2243 -0.3061
 4220SOL     OW24295   0.523   2.538  10.431 -0.3638 -0.8180  0.1779
 4220SOL    HW124296   0.448   2.595  10.445 -0.5835 -0.9986 -0.2894
 4220SOL    HW224297   0.566   2.531  10.517  2.0422 -0.1381 -0.9714
 4221SOL     OW24298   2.284   0.155   8.356  0.1468  0.3831  0.6234
 4221SOL    HW124299   2.307   0.243   8.328  3.0571 -0.4297  0.4394
 4221SOL    HW224300   2.339   0.096   8.305  0.6707  0.4064  1.1663
 4222SOL     OW24301   0.602   0.500  10.365  0.1102 -1.2193 -0.4018
 4222SOL    HW124302   0.510   0.524  10.354  0.3679 -0.5716 -1.1690
 4222SOL    HW224303   0.602   0.436  10.436 -0.1828 -3.6342 -2.5813
 4223SOL     OW24304   0.031   2.832   4.650 -0.0782 -0.2051 -0.2064
 4223SOL    HW124305   4.696   2.878   4.614 -0.7810 -0.9633  0.3161
 4223SOL    HW224306   0.049   2.767   4.583 -2.5386 -0.4434 -0.6111
 4224SOL     OW24307   1.082   1.096   7.830  0.5858 -0.3914 -0.3051
 4224SOL    HW124308   1.113   1.149   7.757  0.3492 -0.6253 -0.5742
 4224SOL    HW224309   0.987   1.105   7.827  0.2337 -3.8931 -0.1773
 4225SOL     OW24310   1.434   1.550  10.609  0.5444  0.0946 -0.4431
 4225SOL    HW124311   1.464   1.630  10.566  1.2175  0.8403  1.4210
 4225SOL    HW224312   1.433   1.492  10.533 -2.1946  1.7092 -1.6526
 4226SOL     OW24313   1.417   1.177   3.444  0.3990 -0.2956 -0.0092
 4226SOL    HW124314   1.511   1.195   3.443  0.7976 -2.3012  1.4986
 4226SOL    HW224315   1.414   1.082   3.441 -1.8375 -0.2939  1.9799
 4227SOL     OW24316   2.071   0.980   4.736  0.0243 -0.5627 -0.3843
 4227SOL    HW124317   2.068   1.070   4.703  0.8094  0.0522  1.2385
 4227SOL    HW224318   2.092   0.996   4.828 -3.4390 -0.1670  0.3530
 4228SOL     OW24319   2.349   1.637   4.693  0.7259 -0.2028 -0.4245
 4228SOL    HW124320   2.368   1.657   4.601  0.1025 -0.9560 -0.7152
 4228SOL    HW224321   2.432   1.666   4.730 -0.2808  0.6021  1.1840
 4229SOL     OW24322   4.031   3.872   3.662  0.2630 -0.2568  0.6515
 4229SOL    HW124323   4.088   3.822   3.603 -0.4105  0.0515 -0.2555
 4229SOL    HW224324   3.949   3.862   3.614 -0.3417 -0.1957  1.6722
 4230SOL     OW24325   0.433   3.945  10.098 -0.3082  0.3208  0.2579
 4230SOL    HW124326   0.442   3.868  10.154 -0.5399  2.5510  3.3762
 4230SOL    HW224327   0.396   4.009  10.160 -1.2820  0.4840 -0.4851
 4231SOL     OW24328   2.213   3.763  13.580  0.8199  0.0780  0.0586
 4231SOL    HW124329   2.292   3.817  13.578 -0.7711  2.4369 -0.1121
 4231SOL    HW224330   2.148   3.823  13.617  0.3942 -0.9234  0.9307
 4232SOL     OW24331   0.136   1.186   6.779  0.6500 -0.2574  0.1121
 4232SOL    HW124332   0.112   1.134   6.857 -0.4919  0.4133  0.2036
 4232SOL    HW224333   0.222   1.221   6.803  0.1427  1.0589 -0.0071
 4233SOL     OW24334   1.779   2.435  12.049 -0.0429 -0.0004 -0.3287
 4233SOL    HW124335   1.766   2.511  12.106 -1.6223 -1.2453  0.9496
 4233SOL    HW224336   1.744   2.478  11.972 -1.6407 -0.1502  0.3244
 4234SOL     OW24337   0.365   0.340   8.806  0.1821  0.3782  0.1237
 4234SOL    HW124338   0.316   0.416   8.836  1.3782  0.9864  0.5702
 4234SOL    HW224339   0.441   0.339   8.865  1.2606  0.4902 -1.2559
 4235SOL     OW24340   1.723   4.074   5.547 -0.2474  0.5518 -0.3475
 4235SOL    HW124341   1.712   4.162   5.511 -0.0932  2.1219  3.4715
 4235SOL    HW224342   1.796   4.092   5.606 -0.3581  1.2839 -0.4377
 4236SOL     OW24343   2.229   3.139   5.813  0.0746  0.2883  0.2691
 4236SOL    HW124344   2.303   3.121   5.755 -0.0482  2.9001 -0.7063
 4236SOL    HW224345   2.222   3.235   5.815 -1.0154  0.2382 -0.8370
 4237SOL     OW24346   3.380   3.205  11.376 -0.0187 -0.6519  0.0074
 4237SOL    HW124347   3.389   3.210  11.471  3.2566 -0.4694 -0.3161
 4237SOL    HW224348   3.414   3.118  11.356  1.2406 -0.4943  1.4560
 4238SOL     OW24349   4.018   3.590  12.371  0.2046  0.1650  0.4513
 4238SOL    HW124350   3.968   3.638  12.305 -1.1219 -0.8077  0.7400
 4238SOL    HW224351   3.949   3.564  12.433 -1.1351  2.2608 -0.1429
 4239SOL     OW24352   3.636   3.725   6.493  0.4296  0.2501  0.2223
 4239SOL    HW124353   3.719   3.763   6.462  0.0575  0.9413  0.0739
 4239SOL    HW224354   3.596   3.704   6.409 -1.0823  0.1773  0.9653
 4240SOL     OW24355   3.923   2.708   4.811  0.7001  0.1740  0.9244
 4240SOL    HW124356   3.855   2.739   4.751  0.4482 -0.4300  0.8944
 4240SOL    HW224357   3.943   2.622   4.773 -0.1601  0.7364 -0.8123
 4241SOL     OW24358   3.723   2.664  12.801 -0.0679  0.0336  0.2411
 4241SOL    HW124359   3.793   2.603  12.779  0.4108  0.3697  0.8583
 4241SOL    HW224360   3.669   2.656  12.722  2.0361 -1.1418 -1.0713
 4242SOL     OW24361   0.096   0.544   6.653 -0.1084 -0.0824 -0.0019
 4242SOL    HW124362   0.107   0.618   6.593  2.9697 -1.0596 -0.6119
 4242SOL    HW224363   0.184   0.507   6.650 -0.0994  0.0400 -1.3024
 4243SOL     OW24364   1.638   2.535  11.844 -0.2214 -0.4244 -0.6738
 4243SOL    HW124365   1.609   2.615  11.887  2.1789 -0.0022  0.1723
 4243SOL    HW224366   1.625   2.560  11.752  0.7824 -0.0119 -0.7049
 4244SOL     OW24367   3.253   3.268   5.614  0.1920 -0.0088 -0.1069
 4244SOL    HW124368   3.197   3.281   5.538 -1.6480  0.7002  1.3614
 4244SOL    HW224369   3.303   3.193   5.581 -1.5896 -1.4083  0.3910
 4245SOL     OW24370   3.704   1.525   4.968 -0.0743 -0.1547 -0.2732
 4245SOL    HW124371   3.681   1.604   4.919 -0.4031 -1.2211 -1.8643
 4245SOL    HW224372   3.644   1.530   5.043 -0.5412 -1.4469 -0.5575
 4246SOL     OW24373   4.273   1.300  10.496  0.0297 -0.2133  0.4234
 4246SOL    HW124374   4.279   1.387  10.456  0.4772 -0.3240  0.2456
 4246SOL    HW224375   4.260   1.243  10.421  1.0857  2.1318 -1.5266
 4247SOL     OW24376   3.314   4.487   6.650  0.4472  0.7741 -0.1041
 4247SOL    HW124377   3.368   4.461   6.576 -0.5900 -0.4003 -0.4552
 4247SOL    HW224378   3.373   4.462   6.721 -0.2022 -0.6644 -0.0479
 4248SOL     OW24379   4.005   1.568   0.244 -0.1478  0.3915 -0.5163
 4248SOL    HW124380   3.991   1.615   0.162  0.5016 -0.9469 -1.3982
 4248SOL    HW224381   4.085   1.534   0.203  0.3688  0.5248  0.3812
 4249SOL     OW24382   2.913   0.380   5.564  0.6390  0.0698 -0.5783
 4249SOL    HW124383   2.829   0.350   5.600 -0.0362  2.3772 -0.2466
 4249SOL    HW224384   2.892   0.465   5.526 -0.2844 -0.5917 -1.5436
 4250SOL     OW24385   1.668   1.199   4.043 -0.0929 -0.7186  0.3778
 4250SOL    HW124386   1.715   1.246   4.113 -4.0712  2.4870  0.9191
 4250SOL    HW224387   1.718   1.233   3.969 -0.3906 -2.5005 -0.6346
 4251SOL     OW24388   4.044   2.140   6.245  0.4516  0.0998  0.0387
 4251SOL    HW124389   4.139   2.142   6.230  0.3006 -1.0354 -1.0339
 4251SOL    HW224390   4.027   2.055   6.203  2.4119 -0.0721 -0.4356
 4252SOL     OW24391   3.286   1.241   2.602 -0.4408  0.5145 -0.7536
 4252SOL    HW124392   3.263   1.310   2.664  2.2580  0.0974  0.7276
 4252SOL    HW224393   3.380   1.239   2.620 -1.1282 -3.3711  2.1575
 4253SOL     OW24394   3.888   3.707   6.285 -0.1080  0.0208 -0.4112
 4253SOL    HW124395   3.906   3.613   6.279 -0.1390  0.0262 -0.5842
 4253SOL    HW224396   3.909   3.739   6.198 -1.0330 -0.1114 -0.6829
 4254SOL     OW24397   1.161   1.351   4.049  0.1861 -0.3886 -0.7188
 4254SOL    HW124398   1.239   1.326   4.098 -0.7843  1.6616  1.8807
 4254SOL    HW224399   1.183   1.347   3.956  1.5008 -0.1713 -0.4135
 4255SOL     OW24400   2.968   3.051  17.646  0.5910  0.1972 -0.2297
 4255SOL    HW124401   3.024   3.092  17.580 -0.6839 -0.8098 -1.9402
 4255SOL    HW224402   3.013   3.080  17.725  0.5164  0.2892 -0.2211
 4256SOL     OW24403   3.455   4.708   5.215 -0.1132 -0.3963 -0.3085
 4256SOL    HW124404   3.532   4.740   5.262  0.3805  0.2314 -1.5577
 4256SOL    HW224405   3.437   4.638   5.279  2.1922 -0.9979 -0.3310
 4257SOL     OW24406   1.373   3.901  11.803  0.0562  0.3731 -0.5159
 4257SOL    HW124407   1.454   3.952  11.805 -0.7024  1.5579  0.1836
 4257SOL    HW224408   1.346   3.898  11.711 -1.7247  1.0189 -0.0186
 4258SOL     OW24409   4.223   1.514   7.421  0.3041 -0.0487 -0.3654
 4258SOL    HW124410   4.144   1.461   7.425  0.2841 -0.2095 -3.5684
 4258SOL    HW224411   4.289   1.458   7.461  1.2719  0.7453 -0.8444
 4259SOL     OW24412   0.657   2.086   7.187  0.1990 -0.7067 -0.4103
 4259SOL    HW124413   0.643   2.173   7.224  0.1246 -0.2852 -1.4157
 4259SOL    HW224414   0.646   2.100   7.093  0.5441 -0.4092 -0.4053
 4260SOL     OW24415   4.466   0.724   9.238 -0.1035  0.0674 -0.0066
 4260SOL    HW124416   4.489   0.754   9.150  1.4616 -2.6577 -0.5141
 4260SOL    HW224417   4.548   0.712   9.285 -0.7874 -1.0566  0.8744
 4261SOL     OW24418   2.906   4.559   5.388 -0.2071 -0.3010 -0.3595
 4261SOL    HW124419   2.837   4.613   5.350 -0.9019 -2.0480 -1.5850
 4261SOL    HW224420   2.865   4.474   5.370  2.0884 -1.5727  0.3919
 4262SOL     OW24421   1.076   3.800  16.869  0.1619 -0.3952  0.2951
 4262SOL    HW124422   1.006   3.751  16.825  0.0264  0.8900 -0.9101
 4262SOL    HW224423   1.129   3.812  16.790 -0.1287  1.2891  0.3545
 4263SOL     OW24424   2.132   0.548   7.974  0.1736 -0.4513 -0.6406
 4263SOL    HW124425   2.158   0.612   7.908  3.0728 -1.5843 -0.5744
 4263SOL    HW224426   2.130   0.600   8.054 -3.1189  0.8862 -1.5970
 4264SOL     OW24427   0.261   0.035   3.313 -0.0502 -0.9370  0.0332
 4264SOL    HW124428   0.288   0.126   3.322  1.7410 -1.5094  0.4606
 4264SOL    HW224429   0.252   0.034   3.217  1.8821  2.9811 -0.1558
 4265SOL     OW24430   1.712   0.698  13.891  0.4540  0.3062  0.1709
 4265SOL    HW124431   1.768   0.637  13.843  0.5149  1.5671 -1.3594
 4265SOL    HW224432   1.626   0.662  13.867 -0.2265  0.9537  1.6263
 4266SOL     OW24433   1.893   3.977  12.704  0.4617 -0.0642  0.5533
 4266SOL    HW124434   1.825   3.965  12.638  0.5744  2.7922 -0.0680
 4266SOL    HW224435   1.960   4.005  12.642  0.6370 -1.0540  0.3057
 4267SOL     OW24436   0.050   2.656  11.319 -0.0569 -0.1050 -0.5096
 4267SOL    HW124437   0.121   2.664  11.255  1.9702  1.2157  1.8733
 4267SOL    HW224438   0.062   2.742  11.361 -0.3349  0.0757 -0.8002
 4268SOL     OW24439   4.678   4.678   2.799 -0.4575 -0.2832  0.4165
 4268SOL    HW124440   4.655   4.713   2.885 -2.5234 -0.7073  0.0451
 4268SOL    HW224441   0.025   4.715   2.796 -1.4153  1.7866 -1.4504
 4269SOL     OW24442   4.236   2.786   7.704 -0.3945 -0.3406  0.4001
 4269SOL    HW124443   4.191   2.738   7.634  0.2604  1.3144 -1.1472
 4269SOL    HW224444   4.158   2.817   7.749 -0.9042  2.0217 -2.1128
 4270SOL     OW24445   4.378   1.687  15.718 -0.0424 -0.0262  0.3401
 4270SOL    HW124446   4.403   1.742  15.792  1.0489 -1.3806  0.9865
 4270SOL    HW224447   4.430   1.607  15.717  1.1407  0.7613 -1.1693
 4271SOL     OW24448   2.811   3.281  11.631 -0.2111 -0.2091 -0.0548
 4271SOL    HW124449   2.817   3.374  11.609 -0.1371 -0.3663 -0.6871
 4271SOL    HW224450   2.904   3.263  11.615  0.0909  0.5914  0.7838
 4272SOL     OW24451   0.066   3.954   4.480 -0.4370  0.1611 -0.2637
 4272SOL    HW124452   0.051   3.883   4.543 -0.4940  0.4690  0.0691
 4272SOL    HW224453   0.154   3.980   4.508 -0.2582  0.9042 -1.5101
 4273SOL     OW24454   1.793   1.524  13.089 -0.1167  0.0033  0.3727
 4273SOL    HW124455   1.829   1.570  13.014 -1.9167  1.2812  0.2875
 4273SOL    HW224456   1.867   1.508  13.148  0.0853 -1.2141 -0.2180
 4274SOL     OW24457   3.020   0.278   5.940  0.1971  0.0978 -0.2264
 4274SOL    HW124458   3.052   0.262   6.028 -2.4588 -0.8236  0.5615
 4274SOL    HW224459   2.953   0.211   5.925 -0.7645  1.4878 -2.2779
 4275SOL     OW24460   1.853   1.205  15.641  0.4168  0.1554 -0.0267
 4275SOL    HW124461   1.812   1.284  15.676 -0.0303  0.6238 -1.5829
 4275SOL    HW224462   1.925   1.248  15.594  1.4247 -1.3981  0.1146
 4276SOL     OW24463   3.822   1.636  12.980 -0.2182 -0.3089  0.7939
 4276SOL    HW124464   3.845   1.728  12.991  0.7462 -0.6313  1.4307
 4276SOL    HW224465   3.735   1.647  12.943 -0.0373 -0.4855  0.3132
 4277SOL     OW24466   4.635   3.411   2.608 -0.3183  0.3537  0.7911
 4277SOL    HW124467   4.708   3.371   2.656  1.2389  1.4699 -0.6573
 4277SOL    HW224468   4.673   3.416   2.521  1.0740  0.2060  1.3821
 4278SOL     OW24469   3.197   3.170   3.403 -0.2103 -0.2663  0.3779
 4278SOL    HW124470   3.221   3.090   3.450 -0.2372 -0.7919 -0.5032
 4278SOL    HW224471   3.104   3.179   3.426 -0.3086 -1.0187  0.3063
 4279SOL     OW24472   1.932   3.202   6.910  0.2323  0.4354  0.6663
 4279SOL    HW124473   1.948   3.282   6.961 -0.1252  0.8628  0.1038
 4279SOL    HW224474   1.956   3.225   6.821 -3.3420 -0.8273 -0.5881
 4280SOL     OW24475   3.685   1.840   2.114 -0.3478 -0.2973 -0.5762
 4280SOL    HW124476   3.682   1.750   2.148  0.8345 -0.3625 -0.6648
 4280SOL    HW224477   3.592   1.845   2.092 -0.8951  0.9546  1.9437
 4281SOL     OW24478   0.057   1.569  12.109 -0.3657  0.0734  0.4965
 4281SOL    HW124479   4.730   1.615  12.058  0.8023  2.9063  1.4779
 4281SOL    HW224480   0.039   1.599  12.198 -0.0834  2.3234 -0.1795
 4282SOL     OW24481   4.310   0.329   2.421 -0.7526 -0.2118 -0.0469
 4282SOL    HW124482   4.232   0.342   2.475 -0.0958  0.3169  0.7729
 4282SOL    HW224483   4.279   0.381   2.347  0.2667  1.3864  0.6443
 4283SOL     OW24484   2.654   2.092   2.080 -0.2567 -0.0154 -0.0701
 4283SOL    HW124485   2.621   2.010   2.044 -1.8783  0.1209  1.1105
 4283SOL    HW224486   2.654   2.074   2.174 -1.8194 -0.7804 -0.2117
 4284SOL     OW24487   3.988   1.811   4.339 -0.4243  0.4574 -0.2626
 4284SOL    HW124488   3.990   1.716   4.326  1.8460 -0.0480  3.6480
 4284SOL    HW224489   3.919   1.835   4.278 -0.5504 -1.9510 -1.0772
 4285SOL     OW24490   1.377   2.767   6.210  0.2909 -0.0837  0.5916
 4285SOL    HW124491   1.429   2.819   6.271  0.9617 -1.2016  0.9794
 4285SOL    HW224492   1.296   2.749   6.257  1.6137 -0.1513  2.8454
 4286SOL     OW24493   2.452   0.233   5.457  0.1758 -0.2804 -0.1689
 4286SOL    HW124494   2.502   0.311   5.482  0.3876 -0.0952 -1.1495
 4286SOL    HW224495   2.366   0.268   5.481  0.7884 -0.2983  2.0402
 4287SOL     OW24496   1.824   3.939  11.345 -0.4373 -0.1953  0.5906
 4287SOL    HW124497   1.830   4.033  11.359  2.8861 -0.2094 -0.7798
 4287SOL    HW224498   1.907   3.906  11.379 -0.6912 -1.1474  0.2955
 4288SOL     OW24499   1.168   1.558   4.524 -0.1161  0.5124  0.3873
 4288SOL    HW124500   1.157   1.653   4.521 -1.5519  0.3775  1.6241
 4288SOL    HW224501   1.262   1.554   4.542  0.2325  1.1510 -1.2653
 4289SOL     OW24502   2.659   1.545   8.984 -0.3286 -0.3793  0.0466
 4289SOL    HW124503   2.674   1.546   9.078  2.4762 -3.3944 -0.3573
 4289SOL    HW224504   2.606   1.623   8.973 -2.7071 -2.3331 -2.4832
 4290SOL     OW24505   0.951   1.029  17.115 -0.0094  0.5283  0.3132
 4290SOL    HW124506   0.885   0.966  17.085  0.3896  0.4023 -0.3135
 4290SOL    HW224507   1.016   0.970  17.153  1.6839  0.7130 -2.3157
 4291SOL     OW24508   1.292   2.910   5.173  0.0853 -0.3141  0.0648
 4291SOL    HW124509   1.290   2.928   5.079 -2.1725 -1.1051 -0.0438
 4291SOL    HW224510   1.364   2.965   5.205 -1.4451  1.0999  1.0626
 4292SOL     OW24511   3.300   4.486  10.916  0.0291 -0.1956 -0.3726
 4292SOL    HW124512   3.355   4.413  10.946  2.1957  2.1361  1.3155
 4292SOL    HW224513   3.356   4.562  10.904 -0.9627  0.4757 -0.7481
 4293SOL     OW24514   2.951   1.181  11.436  0.3532 -0.0898  0.4151
 4293SOL    HW124515   2.962   1.276  11.444  0.5824 -0.0586 -0.3551
 4293SOL    HW224516   2.869   1.171  11.486  0.6223  0.6208  1.0012
 4294SOL     OW24517   2.934   0.788  17.093  0.1031 -0.3447  0.4216
 4294SOL    HW124518   2.958   0.876  17.064 -4.3544  0.5519 -0.6030
 4294SOL    HW224519   2.922   0.741  17.010  0.7292  1.1056 -0.4864
 4295SOL     OW24520   0.304   2.133  15.923  0.0202 -0.3558 -0.0702
 4295SOL    HW124521   0.315   2.122  16.018  2.7686 -1.6015 -0.5341
 4295SOL    HW224522   0.212   2.159  15.920 -0.1859 -1.1486 -0.6229
 4296SOL     OW24523   2.341   2.746   8.783  0.0502  0.0390  0.7702
 4296SOL    HW124524   2.382   2.693   8.715  1.6384 -0.8103  2.4281
 4296SOL    HW224525   2.250   2.756   8.755  0.2635 -0.6743 -0.1602
 4297SOL     OW24526   0.998   4.485  10.863 -0.1566  0.2712  0.1110
 4297SOL    HW124527   0.949   4.552  10.911 -0.0886  0.5372 -0.1898
 4297SOL    HW224528   0.944   4.478  10.785 -0.6349 -0.3347  0.4907
 4298SOL     OW24529   1.375   0.741   5.037  0.4248  0.1838 -0.1051
 4298SOL    HW124530   1.409   0.654   5.058  0.0196  0.2747  0.9151
 4298SOL    HW224531   1.383   0.732   4.942 -1.2451  0.6129 -0.2861
 4299SOL     OW24532   2.194   0.927   5.404  0.0284 -0.0445  0.8196
 4299SOL    HW124533   2.288   0.940   5.414  0.4218 -1.5551 -1.0854
 4299SOL    HW224534   2.193   0.866   5.331 -1.5253  0.3519  0.5106
 4300SOL     OW24535   3.659   4.429   7.823  0.0323 -0.0996  0.1479
 4300SOL    HW124536   3.642   4.493   7.892 -1.0103 -0.4533  0.2330
 4300SOL    HW224537   3.754   4.434   7.816  0.1206 -1.0966  0.6294
 4301SOL     OW24538   2.961   4.657   9.157  0.8339  0.3366 -0.0433
 4301SOL    HW124539   2.958   4.652   9.061 -0.1354  1.6047 -0.0805
 4301SOL    HW224540   2.886   4.717   9.163  1.1471  0.6159  1.0202
 4302SOL     OW24541   3.596   4.172   8.734 -0.3543  0.2824  0.1110
 4302SOL    HW124542   3.529   4.208   8.791 -0.5953  0.9465 -0.5958
 4302SOL    HW224543   3.539   4.111   8.687 -1.0866 -0.0866  1.4624
 4303SOL     OW24544   2.812   3.407   6.008  0.1263 -0.0490 -0.2205
 4303SOL    HW124545   2.788   3.315   5.994  0.4613 -0.4075  1.6629
 4303SOL    HW224546   2.861   3.399   6.089 -0.7032  1.8356  0.4516
 4304SOL     OW24547   2.929   3.554   7.765  0.2806 -0.2786  0.4827
 4304SOL    HW124548   2.875   3.480   7.736  0.8284 -0.0791 -1.0458
 4304SOL    HW224549   2.988   3.513   7.828  1.0161  1.1969  0.7624
 4305SOL     OW24550   3.330   1.763   3.178  0.1675 -0.2397  0.0755
 4305SOL    HW124551   3.394   1.692   3.181 -0.9285 -1.3342 -2.1784
 4305SOL    HW224552   3.335   1.784   3.085 -2.5703  0.0557 -0.0069
 4306SOL     OW24553   0.029   1.899   3.066 -0.1737 -0.1090 -0.2474
 4306SOL    HW124554   0.004   1.807   3.073 -0.4032 -0.1419 -1.6049
 4306SOL    HW224555   0.123   1.892   3.050  0.2922  1.3892  1.8092
 4307SOL     OW24556   0.685   2.749   3.878 -0.2568  0.5675  0.2266
 4307SOL    HW124557   0.622   2.756   3.806 -0.5413  1.5639  0.5726
 4307SOL    HW224558   0.678   2.655   3.894  0.4160  0.2382 -1.3561
 4308SOL     OW24559   0.373   0.506   8.548  0.2951 -0.1714  0.0488
 4308SOL    HW124560   0.363   0.575   8.482 -0.1428 -1.9906 -1.7606
 4308SOL    HW224561   0.322   0.541   8.622  0.7668 -0.7527  0.6464
 4309SOL     OW24562   1.238   4.491  15.790  0.3904 -0.1976  0.1224
 4309SOL    HW124563   1.327   4.511  15.760 -0.1345 -0.6763 -1.7443
 4309SOL    HW224564   1.226   4.404  15.753  0.0120  0.2810 -0.8917
 4310SOL     OW24565   1.750   4.669  16.401  0.5355 -0.3375 -0.0010
 4310SOL    HW124566   1.743   4.624  16.316 -2.0227 -1.0760  0.5862
 4310SOL    HW224567   1.832   4.714  16.384 -0.5046  0.5097 -2.7716
 4311SOL     OW24568   0.576   2.936   6.055  0.0003  0.2627 -0.0502
 4311SOL    HW124569   0.550   2.872   6.121  0.0550 -0.7409 -0.9880
 4311SOL    HW224570   0.529   3.011   6.091 -0.8848 -0.8886  1.1977
 4312SOL     OW24571   3.789   0.469   3.544  0.0137 -0.7163 -0.1199
 4312SOL    HW124572   3.882   0.491   3.539 -0.0461 -0.5073 -0.3247
 4312SOL    HW224573   3.770   0.451   3.452  1.1343 -0.9415 -0.3079
 4313SOL     OW24574   4.413   2.122  10.173 -0.2710 -0.0553  0.2057
 4313SOL    HW124575   4.339   2.163  10.129 -2.1876 -2.0508  1.5746
 4313SOL    HW224576   4.423   2.182  10.248 -0.3255 -0.0600  0.2165
 4314SOL     OW24577   0.983   1.121   4.109  0.0604  0.3535  0.1181
 4314SOL    HW124578   1.007   1.213   4.110  1.1619  0.0565  1.8453
 4314SOL    HW224579   1.073   1.086   4.109 -0.4238 -0.8765 -0.6184
 4315SOL     OW24580   3.672   2.256   8.911 -0.2357 -0.2880  0.1523
 4315SOL    HW124581   3.702   2.339   8.874 -3.3081  0.9715  0.5104
 4315SOL    HW224582   3.705   2.187   8.853 -0.6524 -0.1525 -0.2467
 4316SOL     OW24583   2.156   0.064   8.561 -0.3068 -0.3296 -0.3468
 4316SOL    HW124584   2.182   4.722   8.521  1.9715  0.7556 -1.1117
 4316SOL    HW224585   2.197   0.115   8.491 -2.1093 -0.7428 -1.7062
 4317SOL     OW24586   2.018   2.435   4.383  0.3306  0.5022  0.2071
 4317SOL    HW124587   2.075   2.511   4.392  0.7851  0.0852  0.8321
 4317SOL    HW224588   1.951   2.475   4.328  0.7791  1.0485  0.0543
 4318SOL     OW24589   2.003   1.493   1.626  0.0742  0.5517 -0.1913
 4318SOL    HW124590   1.999   1.418   1.686 -2.0849  0.8375  0.0257
 4318SOL    HW224591   2.021   1.565   1.687 -0.4747  0.6156 -0.1025
 4319SOL     OW24592   1.660   3.199   8.540 -0.0089 -0.0450  0.9110
 4319SOL    HW124593   1.654   3.207   8.444 -2.6704 -1.4827  0.9472
 4319SOL    HW224594   1.755   3.195   8.539  0.0552  1.9951 -0.5870
 4320SOL     OW24595   3.769   0.507   8.019 -0.0759  0.2268  0.0848
 4320SOL    HW124596   3.747   0.423   8.058 -0.2884 -0.6630 -1.9599
 4320SOL    HW224597   3.856   0.483   7.987  0.9211  0.5759  2.5991
 4321SOL     OW24598   4.145   4.651  15.694  0.0565 -0.2489 -0.0361
 4321SOL    HW124599   4.066   4.599  15.701 -0.3147 -0.0251 -2.6021
 4321SOL    HW224600   4.171   4.666  15.785  3.6010  1.4861 -1.3046
 4322SOL     OW24601   4.653   0.583   9.795  0.0834 -0.2996 -0.8964
 4322SOL    HW124602   4.657   0.487   9.790  0.4431 -0.4308  1.8940
 4322SOL    HW224603   4.587   0.589   9.725 -1.6434  1.6080  0.9090
 4323SOL     OW24604   4.410   3.687   2.210 -0.4415 -0.1675  0.0067
 4323SOL    HW124605   4.472   3.698   2.138 -1.7023  0.0106 -1.0611
 4323SOL    HW224606   4.467   3.689   2.287 -2.7717  1.8123  1.6596
 4324SOL     OW24607   4.464   1.377   2.855 -0.1757 -0.3336 -0.1869
 4324SOL    HW124608   4.458   1.438   2.929 -1.9584 -0.8244  0.0536
 4324SOL    HW224609   4.489   1.432   2.780 -1.7571  1.2481  0.4468
 4325SOL     OW24610   2.561   0.455   9.493  0.0470  0.3520  0.0078
 4325SOL    HW124611   2.586   0.430   9.582 -0.6751 -0.7327 -0.0983
 4325SOL    HW224612   2.590   0.546   9.502  0.1522  0.4303 -1.1155
 4326SOL     OW24613   4.732   3.832   2.971  0.1374 -0.1173 -0.1701
 4326SOL    HW124614   4.669   3.817   3.042  0.2121 -0.6220 -0.2076
 4326SOL    HW224615   4.723   3.754   2.916 -0.5817 -0.3102  0.2277
 4327SOL     OW24616   3.024   3.822   6.270 -0.3785 -0.4459  0.1671
 4327SOL    HW124617   3.114   3.856   6.272 -0.5497 -0.0685  1.5998
 4327SOL    HW224618   3.035   3.735   6.307  0.0005  0.2028  1.5795
 4328SOL     OW24619   2.303   0.003   7.539  0.0380 -0.1097 -0.3826
 4328SOL    HW124620   2.322   4.717   7.449  2.1326  1.0708 -0.2849
 4328SOL    HW224621   2.261   0.088   7.534  0.6519  0.0828 -2.0882
 4329SOL     OW24622   1.201   0.451  15.409 -0.1391  0.1223 -0.1070
 4329SOL    HW124623   1.112   0.486  15.404  0.5951  1.5644 -3.6060
 4329SOL    HW224624   1.228   0.468  15.318  0.8459 -1.2599 -0.0675
 4330SOL     OW24625   3.955   4.533  15.918 -0.2302 -0.3829  0.1102
 4330SOL    HW124626   3.896   4.582  15.974  0.5864  0.8202 -0.0852
 4330SOL    HW224627   3.904   4.452  15.922 -2.2810  0.9678  0.9599
 4331SOL     OW24628   0.784   1.940   1.547 -0.0154 -0.0163  0.2160
 4331SOL    HW124629   0.704   1.903   1.584 -0.5965  2.5592  1.5628
 4331SOL    HW224630   0.753   1.958   1.458 -0.0966 -1.8703 -0.1203
 4332SOL     OW24631   4.081   0.313   3.846 -0.1628  0.0493 -0.0050
 4332SOL    HW124632   4.171   0.341   3.859 -0.6769  1.4940  0.3737
 4332SOL    HW224633   4.033   0.372   3.903 -1.5641  1.0817 -2.2473
 4333SOL     OW24634   3.003   4.224   8.909 -0.0505  0.3368  0.9278
 4333SOL    HW124635   3.059   4.158   8.869 -0.1375 -0.2096  1.6942
 4333SOL    HW224636   3.019   4.213   9.003 -0.6734 -0.0397  0.9875
 4334SOL     OW24637   1.759   3.625   5.233 -0.3974 -0.2384  0.0580
 4334SOL    HW124638   1.783   3.533   5.242 -1.0217 -0.4846 -0.8439
 4334SOL    HW224639   1.846   3.656   5.207 -0.1064 -1.0234  0.1002
 4335SOL     OW24640   1.296   1.929   1.605  0.0290 -0.3092  0.6214
 4335SOL    HW124641   1.213   1.951   1.562  0.1078  2.1227  1.7135
 4335SOL    HW224642   1.329   1.852   1.558  1.3995  0.5692  0.1543
 4336SOL     OW24643   2.282   2.873   1.370 -0.3754 -0.2388  0.2068
 4336SOL    HW124644   2.291   2.924   1.290 -1.2749  1.1919  1.0253
 4336SOL    HW224645   2.260   2.942   1.432 -1.5725  0.8437 -1.4005
 4337SOL     OW24646   4.053   3.371  16.431 -0.0054  0.0836 -0.0375
 4337SOL    HW124647   4.138   3.399  16.398 -0.4978  0.5705 -0.9100
 4337SOL    HW224648   4.025   3.450  16.476  2.5952  0.8570  0.2078
 4338SOL     OW24649   3.239   1.737   7.351 -0.2546 -0.2721  0.0803
 4338SOL    HW124650   3.239   1.677   7.276  0.2703 -1.0829  0.7315
 4338SOL    HW224651   3.264   1.673   7.417 -0.2718 -0.7958 -0.4213
 4339SOL     OW24652   2.992   0.871   9.215 -0.2777  0.4039  0.1907
 4339SOL    HW124653   2.976   0.811   9.142  2.3379 -1.5020  1.1741
 4339SOL    HW224654   2.917   0.931   9.222 -0.5594 -0.0757  1.3265
 4340SOL     OW24655   2.887   3.616   7.358 -0.5418  0.1467 -0.5524
 4340SOL    HW124656   2.811   3.618   7.416 -0.8282  1.3651 -0.9596
 4340SOL    HW224657   2.845   3.578   7.280  0.0742  0.6040 -1.1006
 4341SOL     OW24658   3.704   4.147  10.313 -0.1821 -0.2056  0.4569
 4341SOL    HW124659   3.680   4.066  10.358 -0.8121 -0.2756  0.0076
 4341SOL    HW224660   3.749   4.121  10.233  0.7867  1.6990  0.3736
 4342SOL     OW24661   1.598   2.977  16.070  0.7824 -0.0885  0.1653
 4342SOL    HW124662   1.623   2.961  16.161  0.4687 -1.0943  0.0770
 4342SOL    HW224663   1.673   3.009  16.021  1.4398 -2.1043 -0.1531
 4343SOL     OW24664   0.408   1.204   4.576 -0.4271  0.0936 -0.3847
 4343SOL    HW124665   0.438   1.137   4.515  3.8786  1.4330  0.2769
 4343SOL    HW224666   0.493   1.229   4.612 -0.8092 -1.6418  1.7563
 4344SOL     OW24667   0.568   0.327   3.227 -0.4618  0.0065  0.1352
 4344SOL    HW124668   0.490   0.349   3.278 -0.5906 -0.8249  0.2907
 4344SOL    HW224669   0.603   0.416   3.218 -0.4137  0.0360  0.5988
 4345SOL     OW24670   3.166   4.401   2.920 -0.8327  0.7752  0.8224
 4345SOL    HW124671   3.262   4.399   2.920 -0.8908 -1.6306 -0.3318
 4345SOL    HW224672   3.160   4.493   2.895  1.2668  0.4969 -0.6492
 4346SOL     OW24673   2.279   0.847  14.979 -0.8360 -0.2555 -0.6085
 4346SOL    HW124674   2.299   0.841  15.073 -0.8133  2.2065 -0.4526
 4346SOL    HW224675   2.344   0.916  14.965 -1.9365  0.6586 -1.2215
 4347SOL     OW24676   0.975   3.036   2.287 -0.2137  0.6081 -0.0460
 4347SOL    HW124677   1.046   3.085   2.244  0.5874 -1.5069 -1.1739
 4347SOL    HW224678   1.024   2.957   2.309  0.6980  1.1041 -0.2849
 4348SOL     OW24679   2.092   3.511   1.042 -0.2129 -0.3010 -0.7263
 4348SOL    HW124680   2.173   3.549   1.078 -1.6742  1.7246  0.4151
 4348SOL    HW224681   2.059   3.585   0.992  1.7388  1.2207  0.2233
 4349SOL     OW24682   1.340   3.290  15.840 -0.1864  0.1219  0.3980
 4349SOL    HW124683   1.282   3.336  15.901  1.1384  1.3775  0.7146
 4349SOL    HW224684   1.342   3.205  15.884  0.4790 -0.5890 -1.0271
 4350SOL     OW24685   2.992   1.316   3.083 -0.6077 -0.4630  0.3620
 4350SOL    HW124686   2.919   1.378   3.084 -0.7097 -0.5412 -1.8091
 4350SOL    HW224687   2.954   1.233   3.112 -0.8795 -0.1270  0.9720
 4351SOL     OW24688   1.167   4.300   6.970  0.3682  0.1427 -0.2206
 4351SOL    HW124689   1.157   4.392   6.944  1.3300  0.5105  0.7083
 4351SOL    HW224690   1.110   4.308   7.046  1.7067  2.2903  0.5654
 4352SOL     OW24691   1.365   3.245   2.301 -0.6978 -0.2609  0.3812
 4352SOL    HW124692   1.391   3.337   2.308  0.8549 -0.8820  2.8370
 4352SOL    HW224693   1.447   3.200   2.319 -0.8511 -0.4064  0.7167
 4353SOL     OW24694   2.735   0.535  16.532 -0.2993  0.3820 -0.4208
 4353SOL    HW124695   2.653   0.545  16.484 -0.8380 -0.8341  0.2257
 4353SOL    HW224696   2.740   0.445  16.566  1.3433  0.2173 -1.0836
 4354SOL     OW24697   1.594   4.081   7.636  0.4362  0.3820 -0.4353
 4354SOL    HW124698   1.561   4.146   7.698 -1.3100 -1.9198  1.0122
 4354SOL    HW224699   1.531   4.072   7.565 -0.9303  2.7713  0.4711
 4355SOL     OW24700   4.359   0.472   3.305 -0.0833 -0.0918  0.3701
 4355SOL    HW124701   4.363   0.451   3.212 -0.8723 -0.3383  0.3913
 4355SOL    HW224702   4.409   0.405   3.351  1.8742  0.5822 -0.7834
 4356SOL     OW24703   1.516   0.978   8.078  0.3866 -0.2877 -0.4265
 4356SOL    HW124704   1.516   0.991   8.173  2.9601 -2.1566 -0.1686
 4356SOL    HW224705   1.502   1.070   8.059 -2.5221 -0.4087  1.1360
 4357SOL     OW24706   3.371   0.595  12.705 -0.4110  0.0164  0.1466
 4357SOL    HW124707   3.429   0.565  12.635  3.8263  0.5578  3.3973
 4357SOL    HW224708   3.285   0.562  12.678 -1.4910 -0.2546  3.8969
 4358SOL     OW24709   0.988   3.504  16.636  0.2307 -0.1883  0.4874
 4358SOL    HW124710   1.002   3.477  16.545  5.3290 -0.6390  1.4203
 4358SOL    HW224711   1.072   3.479  16.674  1.0579  0.5409 -0.8632
 4359SOL     OW24712   3.158   0.726   6.810  0.0650  0.6409 -0.1450
 4359SOL    HW124713   3.210   0.768   6.742  2.7621 -0.0150  1.5089
 4359SOL    HW224714   3.127   0.649   6.763  2.8234  0.1861 -1.1871
 4360SOL     OW24715   1.983   1.089   7.534  0.0443 -0.2779  0.4905
 4360SOL    HW124716   2.016   1.120   7.450 -1.7760 -0.2835 -0.2329
 4360SOL    HW224717   1.973   0.995   7.521 -2.1627  0.1446 -0.9710
 4361SOL     OW24718   2.900   0.056   2.883 -0.2376  0.0548 -0.1780
 4361SOL    HW124719   2.951   0.136   2.868  1.3713 -0.4320  2.7058
 4361SOL    HW224720   2.833   0.089   2.943 -0.8059  1.6432 -1.7043
 4362SOL     OW24721   0.643   0.453  15.278 -0.0061 -0.7480  0.3624
 4362SOL    HW124722   0.731   0.451  15.241  0.7236  1.9456  1.8958
 4362SOL    HW224723   0.642   0.532  15.333  0.1764 -1.8376  1.9312
 4363SOL     OW24724   1.737   2.435  16.669 -0.1481 -0.1465  0.0022
 4363SOL    HW124725   1.726   2.513  16.724 -1.0248 -0.4405  0.2520
 4363SOL    HW224726   1.742   2.475  16.583  0.9951  0.2302  0.2410
 4364SOL     OW24727   2.306   2.586   8.135  0.2969 -0.7431  0.1323
 4364SOL    HW124728   2.259   2.517   8.087 -0.5486 -0.1932  0.1856
 4364SOL    HW224729   2.379   2.593   8.073 -0.4787  1.3035 -0.5456
 4365SOL     OW24730   0.039   3.403  17.185 -0.2291 -0.5355 -0.4456
 4365SOL    HW124731   0.057   3.494  17.161  2.1808 -0.1442  2.8333
 4365SOL    HW224732   0.001   3.413  17.272  0.9422 -1.7965  0.2042
 4366SOL     OW24733   1.135   4.461   5.763 -0.3111  0.1834  0.4129
 4366SOL    HW124734   1.046   4.484   5.789 -0.6357 -1.2656  0.5512
 4366SOL    HW224735   1.125   4.368   5.782  0.3444 -0.1071 -0.6497
 4367SOL     OW24736   0.082   1.087   0.209  0.1530 -0.0661 -0.0332
 4367SOL    HW124737   4.731   1.091   0.183  0.5683 -0.0825 -1.4851
 4367SOL    HW224738   0.126   1.122   0.132 -1.3117  0.7954 -0.4642
 4368SOL     OW24739   0.530   0.218   1.925 -0.0863 -0.6570 -0.4055
 4368SOL    HW124740   0.479   0.145   1.890  1.7091 -1.5642 -1.1635
 4368SOL    HW224741   0.539   0.267   1.843 -0.0001  0.1483  0.0878
 4369SOL     OW24742   1.497   2.623  15.327 -0.0133 -0.3085 -0.3426
 4369SOL    HW124743   1.516   2.580  15.244 -0.1287 -0.9175 -0.0597
 4369SOL    HW224744   1.565   2.573  15.371  0.5366  0.0290 -0.8171
 4370SOL     OW24745   2.845   3.984   4.737  0.6137  0.1224 -0.1875
 4370SOL    HW124746   2.904   3.948   4.670 -1.6335  1.2188 -2.7385
 4370SOL    HW224747   2.759   3.962   4.700 -0.2716 -0.9188  2.5190
 4371SOL     OW24748   4.327   0.735   3.367 -0.9304 -0.3786 -0.1176
 4371SOL    HW124749   4.336   0.640   3.362  1.6785 -0.1206 -0.2824
 4371SOL    HW224750   4.378   0.759   3.289 -0.2490  1.1718  0.8083
 4372SOL     OW24751   2.959   3.922   8.448  0.3319 -0.3214  0.3113
 4372SOL    HW124752   2.956   3.897   8.355  0.1371 -0.0603  0.2478
 4372SOL    HW224753   2.868   3.911   8.478 -0.4511 -1.7379 -2.4859
 4373SOL     OW24754   2.435   0.235   2.996 -0.4818 -0.1566  0.0367
 4373SOL    HW124755   2.473   0.308   3.045 -1.4024 -2.1047  3.6830
 4373SOL    HW224756   2.356   0.214   3.047 -1.4237 -1.0987 -1.8196
 4374SOL     OW24757   1.430   0.677  13.722  0.7545  0.1768  0.3217
 4374SOL    HW124758   1.481   0.737  13.667  1.3184 -1.1860 -0.6290
 4374SOL    HW224759   1.417   0.598  13.670 -1.1493 -0.5826  1.9443
 4375SOL     OW24760   1.279   0.539  16.789 -0.1376 -0.7400  0.2741
 4375SOL    HW124761   1.316   0.604  16.729  1.6904 -0.3859  1.8068
 4375SOL    HW224762   1.236   0.604  16.844  0.7463  0.0083  0.0863
 4376SOL     OW24763   4.258   2.450   4.412 -0.5584 -0.1151  1.1521
 4376SOL    HW124764   4.215   2.513   4.470  1.3380  0.0672  2.3613
 4376SOL    HW224765   4.200   2.374   4.409 -0.8379  0.1273  0.5146
 4377SOL     OW24766   2.057   4.665  11.580  0.5106  0.3127  0.1455
 4377SOL    HW124767   2.106   4.732  11.627 -1.7433  0.2129  2.6553
 4377SOL    HW224768   1.966   4.694  11.571 -0.0044 -0.2178  3.5310
 4378SOL     OW24769   3.062   4.507   6.748 -0.0850 -0.0640 -0.3601
 4378SOL    HW124770   3.148   4.491   6.709 -0.1556  1.5507 -1.1665
 4378SOL    HW224771   3.003   4.496   6.673  0.3760  0.8908 -0.8520
 4379SOL     OW24772   0.868   0.487   7.819  1.0574 -0.5300  0.1625
 4379SOL    HW124773   0.907   0.557   7.871  0.1854 -0.2102  0.3813
 4379SOL    HW224774   0.798   0.450   7.872  1.8054 -1.5613  0.4214
 4380SOL     OW24775   2.770   2.460   5.401 -0.1472 -0.1434 -0.0290
 4380SOL    HW124776   2.689   2.493   5.363  0.3817 -1.0241 -1.9202
 4380SOL    HW224777   2.742   2.383   5.451  3.2271 -1.9653 -0.9347
 4381SOL     OW24778   1.389   4.498   5.286 -0.1679 -0.3908 -0.1818
 4381SOL    HW124779   1.311   4.546   5.258 -0.9944 -0.7100  1.6018
 4381SOL    HW224780   1.384   4.418   5.234 -0.5739 -0.6296  0.2324
 4382SOL     OW24781   2.438   3.323  13.438 -0.3475  0.5241 -0.3505
 4382SOL    HW124782   2.490   3.337  13.359 -1.6064  0.2548 -1.2297
 4382SOL    HW224783   2.354   3.360  13.410 -0.5842 -0.2724 -0.6755
 4383SOL     OW24784   4.226   0.269   8.577 -0.5369  0.1854 -0.2309
 4383SOL    HW124785   4.154   0.328   8.599 -0.5054  0.3363 -0.5289
 4383SOL    HW224786   4.208   0.192   8.630  0.4746 -0.6939 -1.1770
 4384SOL     OW24787   0.888   0.432   8.774  0.1502 -0.1023 -0.0275
 4384SOL    HW124788   0.928   0.347   8.794  1.4089  1.2563  3.1601
 4384SOL    HW224789   0.817   0.407   8.715  2.6616  0.3443 -3.2362
 4385SOL     OW24790   3.680   0.185   8.959 -0.7233  0.3426 -0.6507
 4385SOL    HW124791   3.616   0.235   8.909 -1.1396  1.0613  0.5752
 4385SOL    HW224792   3.763   0.231   8.945  0.4482 -0.9370  2.0703
 4386SOL     OW24793   3.587   4.320   9.161 -0.3000 -0.4526  0.1656
 4386SOL    HW124794   3.667   4.271   9.143 -0.1299 -0.0561 -0.1623
 4386SOL    HW224795   3.628   4.391   9.211  1.9948 -1.8689  0.2682
 4387SOL     OW24796   3.839   0.114   8.725 -0.1002 -0.4178 -0.1328
 4387SOL    HW124797   3.879   0.126   8.811 -1.5550  0.0042  0.4864
 4387SOL    HW224798   3.821   0.204   8.697 -0.0315  0.2484  1.9357
 4388SOL     OW24799   0.584   4.356   4.020 -0.3336 -0.8194 -0.5797
 4388SOL    HW124800   0.591   4.343   3.925 -2.0538 -0.5453 -0.7385
 4388SOL    HW224801   0.590   4.267   4.055 -0.0246  0.0973  1.7122
 4389SOL     OW24802   2.413   3.456  16.821  0.0459  0.2926 -0.3548
 4389SOL    HW124803   2.486   3.488  16.874 -0.1257  1.5768 -0.9240
 4389SOL    HW224804   2.425   3.492  16.734  0.4409  2.6257  0.6621
 4390SOL     OW24805   4.555   0.264   7.438 -0.1280  0.3762 -0.3012
 4390SOL    HW124806   4.576   0.172   7.426  3.7826  1.4277 -1.4206
 4390SOL    HW224807   4.620   0.306   7.382  0.1864 -0.5703 -0.6352
 4391SOL     OW24808   1.202   0.346  15.793  0.1856  0.1828 -0.6672
 4391SOL    HW124809   1.247   0.423  15.761  0.9341 -0.3829 -0.9613
 4391SOL    HW224810   1.163   0.381  15.874  0.7022  0.7085 -0.6489
 4392SOL     OW24811   1.015   1.999  14.733 -0.1162 -0.2412  0.4604
 4392SOL    HW124812   0.953   1.971  14.801  0.5964 -1.0567  0.7755
 4392SOL    HW224813   1.075   1.925  14.740 -1.4527 -1.5000 -1.5265
 4393SOL     OW24814   4.382   3.701   2.741 -0.0547 -0.3023 -0.2610
 4393SOL    HW124815   4.356   3.787   2.710  0.1424  0.0445  0.5370
 4393SOL    HW224816   4.341   3.696   2.827  2.3201 -0.5666  0.8789
 4394SOL     OW24817   2.926   1.995   3.168  0.3886  0.3000  0.0331
 4394SOL    HW124818   2.921   1.977   3.262 -0.9369  1.3218  0.1614
 4394SOL    HW224819   2.887   1.922   3.122  1.9427  0.1456 -1.0180
 4395SOL     OW24820   3.450   2.723   4.682  0.3066 -0.1936 -0.4520
 4395SOL    HW124821   3.478   2.814   4.674 -2.3795  0.5419 -1.6261
 4395SOL    HW224822   3.436   2.693   4.592 -1.5278 -2.4178  0.5524
 4396SOL     OW24823   2.539   4.047   4.069 -0.7298  0.0180  0.2541
 4396SOL    HW124824   2.618   4.092   4.100 -1.1839  1.5815 -0.8259
 4396SOL    HW224825   2.507   4.115   4.010  3.2048 -0.9772 -3.0011
 4397SOL     OW24826   2.823   2.351   2.870  0.0192  0.4823 -0.0389
 4397SOL    HW124827   2.870   2.430   2.843  1.2368 -0.2403 -0.0591
 4397SOL    HW224828   2.891   2.286   2.890  0.7809  0.9879 -0.9525
 4398SOL     OW24829   4.578   2.832  16.766  0.2264 -0.2766 -0.2357
 4398SOL    HW124830   4.544   2.792  16.845 -1.5268  1.5653 -0.0622
 4398SOL    HW224831   4.492   2.862  16.737 -0.0657 -2.2131 -1.3949
 4399SOL     OW24832   2.117   1.578   7.460 -0.1306  0.1272 -0.5244
 4399SOL    HW124833   2.207   1.559   7.487 -1.2025 -0.0988  2.8344
 4399SOL    HW224834   2.089   1.657   7.506 -0.2866  0.2250 -0.7890
 4400SOL     OW24835   2.715   3.467   3.970 -0.2349  0.8038 -0.2263
 4400SOL    HW124836   2.676   3.383   3.994  1.1730  1.0773  2.9621
 4400SOL    HW224837   2.641   3.521   3.998  0.0093  1.3448 -0.6069
 4401SOL     OW24838   4.728   4.582   4.647  0.1852 -0.3939 -0.2004
 4401SOL    HW124839   4.679   4.522   4.591  1.8090  0.4784 -2.5794
 4401SOL    HW224840   0.048   4.612   4.579  1.2416  0.3060  1.0668
 4402SOL     OW24841   2.003   1.173   3.905 -0.2651  0.3857  0.2399
 4402SOL    HW124842   2.048   1.248   3.945  0.9129  0.4842 -1.2386
 4402SOL    HW224843   1.920   1.206   3.870 -0.8747 -3.1127 -1.5751
 4403SOL     OW24844   1.098   2.122  12.256 -0.3764 -0.0541  0.5398
 4403SOL    HW124845   1.152   2.050  12.223  0.4787  0.8581 -0.0275
 4403SOL    HW224846   1.022   2.075  12.291 -1.2613  0.8405 -0.1722
 4404SOL     OW24847   4.107   3.380   6.027 -0.0834  0.0783 -0.0528
 4404SOL    HW124848   4.095   3.475   6.018 -3.6225 -0.4199 -0.5215
 4404SOL    HW224849   4.043   3.342   5.967 -0.2284  1.7692 -0.9778
 4405SOL     OW24850   0.445   1.206   1.966  0.0562 -0.5038 -0.3254
 4405SOL    HW124851   0.406   1.160   1.892  0.0474  0.8754 -1.1884
 4405SOL    HW224852   0.533   1.196   1.931  1.1242 -1.7755  2.7664
 4406SOL     OW24853   3.490   3.100   3.760 -0.0148  0.0984 -0.3725
 4406SOL    HW124854   3.503   3.149   3.679  0.2724  0.3364 -0.1830
 4406SOL    HW224855   3.581   3.087   3.786 -0.2254  0.1741  0.4157
 4407SOL     OW24856   1.089   0.592   5.084  0.1186 -0.3037  0.5626
 4407SOL    HW124857   1.143   0.514   5.091  1.0315  0.1096 -1.7873
 4407SOL    HW224858   1.160   0.656   5.074  0.6913 -1.0859 -0.3115
 4408SOL     OW24859   1.507   0.944   8.663  0.0999 -0.2412 -0.0596
 4408SOL    HW124860   1.468   0.857   8.666  0.6931 -0.5465 -1.2250
 4408SOL    HW224861   1.598   0.928   8.640  0.3027  0.1545  0.4840
 4409SOL     OW24862   1.569   2.664   4.924  0.1074  0.2205 -0.6249
 4409SOL    HW124863   1.602   2.691   4.839  0.6527  0.0856 -0.4529
 4409SOL    HW224864   1.484   2.709   4.918 -1.5500 -2.9752 -1.2574
 4410SOL     OW24865   4.424   1.745  12.266  0.3989  0.5736  0.2182
 4410SOL    HW124866   4.374   1.800  12.205  0.0695  0.6018  0.5173
 4410SOL    HW224867   4.510   1.746  12.224  0.3276  0.6847  0.0725
 4411SOL     OW24868   4.195   4.555   0.599  0.2423  0.2839  0.5384
 4411SOL    HW124869   4.258   4.498   0.643 -2.4678 -1.1983  2.4292
 4411SOL    HW224870   4.250   4.600   0.535 -2.2518  0.6868 -1.3130
 4412SOL     OW24871   2.344   4.543   6.182 -0.4914  0.0345 -0.6728
 4412SOL    HW124872   2.364   4.453   6.157  1.2296 -0.2584  1.7957
 4412SOL    HW224873   2.376   4.586   6.102  0.5966  0.6260  0.0800
 4413SOL     OW24874   0.773   1.825   8.986  0.4170 -0.3830 -0.4727
 4413SOL    HW124875   0.706   1.816   8.918 -1.0342 -0.6289  0.9854
 4413SOL    HW224876   0.801   1.733   8.991  1.8974  0.1102  0.5036
 4414SOL     OW24877   0.055   2.823   8.991  0.2733  0.0122  0.0413
 4414SOL    HW124878   4.726   2.883   9.018  2.4659  2.4402  0.3738
 4414SOL    HW224879   0.052   2.748   9.050  2.5653 -1.0432 -1.1937
 4415SOL     OW24880   2.458   0.991   5.369 -0.1864  0.0536 -0.1255
 4415SOL    HW124881   2.524   1.034   5.315 -0.4754  0.9080  0.2052
 4415SOL    HW224882   2.435   1.064   5.426  2.1825  1.7116 -1.3414
 4416SOL     OW24883   1.344   0.691   6.478 -0.3112  0.9574 -0.3521
 4416SOL    HW124884   1.353   0.596   6.486 -0.8606  0.8592 -0.9509
 4416SOL    HW224885   1.253   0.697   6.452 -0.6904 -1.9191  0.2903
 4417SOL     OW24886   4.518   4.337   3.099  0.0543  0.0677 -0.3871
 4417SOL    HW124887   4.537   4.349   3.193  1.8421  0.8942 -0.8378
 4417SOL    HW224888   4.543   4.250   3.069  1.1417  0.2532 -0.0312
 4418SOL     OW24889   4.006   2.199   9.713  0.4304  0.0478  0.1598
 4418SOL    HW124890   3.940   2.205   9.783 -1.1902  2.6282 -1.5704
 4418SOL    HW224891   4.002   2.282   9.666 -2.1302  0.6019  1.3468
 4419SOL     OW24892   2.920   0.118   1.737 -0.2458  0.2055  0.1301
 4419SOL    HW124893   2.889   0.045   1.791  0.1435 -0.4689 -0.5593
 4419SOL    HW224894   2.981   0.077   1.675  0.8547 -0.6295  1.7831
 4420SOL     OW24895   1.219   0.857  12.695  0.4330 -0.4270  0.1770
 4420SOL    HW124896   1.230   0.925  12.629  1.7762 -1.4146 -0.6026
 4420SOL    HW224897   1.220   0.780  12.639 -0.0860 -1.1282  1.1260
 4421SOL     OW24898   1.725   1.632   6.875  0.0020 -0.4236 -0.1059
 4421SOL    HW124899   1.714   1.640   6.970 -0.4809  0.7090 -0.2477
 4421SOL    HW224900   1.778   1.553   6.870 -1.7543 -1.5617 -0.4291
 4422SOL     OW24901   3.226   0.219   7.159  0.3742  0.1054  0.0535
 4422SOL    HW124902   3.259   0.292   7.211  0.5721  0.5096 -0.6439
 4422SOL    HW224903   3.299   0.224   7.098  2.9224 -0.1384  3.1218
 4423SOL     OW24904   2.768   2.817   4.124  0.6184  0.2173 -0.0508
 4423SOL    HW124905   2.824   2.819   4.202 -0.0089  1.1816  0.3766
 4423SOL    HW224906   2.785   2.724   4.109 -0.3388  0.4298 -2.3770
 4424SOL     OW24907   1.448   4.402   3.924  0.1822 -0.2403 -0.5193
 4424SOL    HW124908   1.359   4.434   3.942 -0.1401 -0.4009 -1.8542
 4424SOL    HW224909   1.478   4.388   4.014 -0.6383  1.1297 -0.0250
 4425SOL     OW24910   3.095   3.220   4.314 -0.2389 -0.1220 -0.0356
 4425SOL    HW124911   3.082   3.314   4.323 -3.1326 -0.5422  0.0814
 4425SOL    HW224912   3.010   3.180   4.296 -0.5341  1.2428 -1.5858
 4426SOL     OW24913   1.701   2.493   5.733  0.7623 -0.1831  0.0301
 4426SOL    HW124914   1.695   2.481   5.638  2.0326 -0.6206  0.0049
 4426SOL    HW224915   1.751   2.574   5.745 -0.2642  0.2744  1.2183
 4427SOL     OW24916   0.187   1.761   8.021  0.8589 -0.3789 -0.0822
 4427SOL    HW124917   0.216   1.711   7.945  0.9579 -0.4193 -0.0176
 4427SOL    HW224918   0.194   1.854   7.998  1.1640 -0.1419  0.9830
 4428SOL     OW24919   0.075   0.792   4.756  0.2964  0.3085 -0.6184
 4428SOL    HW124920   0.099   0.744   4.835  0.3276  1.7016  0.2069
 4428SOL    HW224921   0.145   0.858   4.753 -1.0086  1.8363  2.9198
 4429SOL     OW24922   0.627   4.129   3.489 -0.0224 -0.0944  0.4539
 4429SOL    HW124923   0.538   4.099   3.466 -0.1704 -0.7279  1.8437
 4429SOL    HW224924   0.668   4.128   3.403  1.0379  0.5897  0.9541
 4430SOL     OW24925   3.906   3.833   8.524  0.0633 -0.0826  0.0267
 4430SOL    HW124926   3.976   3.770   8.541 -1.5668 -1.7942  0.4870
 4430SOL    HW224927   3.861   3.828   8.609 -0.3390 -2.8593 -0.3468
 4431SOL     OW24928   2.558   0.791   4.404  0.0480  0.8373  0.4632
 4431SOL    HW124929   2.565   0.877   4.447  0.6970  0.0740  1.9142
 4431SOL    HW224930   2.649   0.770   4.383 -0.6268 -1.3590 -0.2462
 4432SOL     OW24931   4.624   4.560   7.147  0.1453 -0.5139  0.2572
 4432SOL    HW124932   4.578   4.476   7.152 -1.3630  0.3218  0.2978
 4432SOL    HW224933   4.704   4.522   7.110 -0.0638 -0.9730  0.2843
 4433SOL     OW24934   0.425   1.128   4.879 -0.3996 -0.1436  0.0091
 4433SOL    HW124935   0.517   1.147   4.898 -0.1569 -1.6711  0.4258
 4433SOL    HW224936   0.381   1.205   4.913  3.4281  1.8928  0.4023
 4434SOL     OW24937   0.191   0.951   2.802 -0.2364 -0.2977 -0.2542
 4434SOL    HW124938   0.149   0.932   2.718  0.8778 -2.6389 -0.2959
 4434SOL    HW224939   0.176   1.045   2.804  0.5831 -0.1894  1.2739
 4435SOL     OW24940   2.596   1.420   3.547  0.4855 -0.0313  0.2657
 4435SOL    HW124941   2.686   1.422   3.579  0.8760  1.9721 -1.0029
 4435SOL    HW224942   2.541   1.404   3.624 -0.1586  0.5612 -0.0802
 4436SOL     OW24943   2.524   4.724   6.998  0.2420 -0.5500 -0.7767
 4436SOL    HW124944   2.514   4.631   7.017 -1.5716  0.2943  2.2951
 4436SOL    HW224945   2.435   0.012   6.980 -0.0101 -0.5572  0.5186
 4437SOL     OW24946   2.577   1.940  15.598  1.0742 -0.6302  0.0424
 4437SOL    HW124947   2.655   1.996  15.588  1.2623 -0.8754  0.1235
 4437SOL    HW224948   2.529   1.985  15.528  0.6583 -0.8102  0.2134
 4438SOL     OW24949   2.440   2.885   5.759  0.4816  0.1285  0.5673
 4438SOL    HW124950   2.409   2.962   5.710 -0.2728 -0.8128 -0.4251
 4438SOL    HW224951   2.388   2.885   5.840 -0.7490  1.7675 -0.2127
 4439SOL     OW24952   3.066   0.130   6.960 -0.6256  0.0987  0.3061
 4439SOL    HW124953   3.142   0.108   6.905 -2.1416  3.3352 -3.1232
 4439SOL    HW224954   3.114   0.184   7.022  1.5658 -2.4207  0.8311
 4440SOL     OW24955   0.333   1.327   4.278  0.3248  0.1250 -0.3013
 4440SOL    HW124956   0.304   1.293   4.194 -1.6207  1.0024  0.0001
 4440SOL    HW224957   0.293   1.268   4.342  1.8050  0.2641  0.7685
 4441SOL     OW24958   0.652   1.863   6.937 -0.3255 -0.0982  0.0974
 4441SOL    HW124959   0.557   1.875   6.942 -0.1728  1.7022 -1.1098
 4441SOL    HW224960   0.680   1.952   6.916  1.8334 -0.3653  1.8576
 4442SOL     OW24961   1.639   1.599   6.531  0.4061 -0.0072  0.1835
 4442SOL    HW124962   1.688   1.518   6.547 -0.6448 -0.9625 -1.3630
 4442SOL    HW224963   1.707   1.665   6.547  0.6160 -0.0045 -0.6733
 4443SOL     OW24964   1.511   1.898   5.524 -0.0149 -0.0215  0.5512
 4443SOL    HW124965   1.553   1.944   5.452 -1.0440 -1.1303 -0.7582
 4443SOL    HW224966   1.491   1.969   5.584 -0.7824  0.4592 -0.2897
 4444SOL     OW24967   0.779   1.930   9.676 -0.4433 -0.0319 -0.7833
 4444SOL    HW124968   0.814   2.017   9.696 -0.4128  0.5042 -3.1366
 4444SOL    HW224969   0.841   1.902   9.609 -1.7316 -5.7115  0.3413
 4445SOL     OW24970   4.327   2.136   1.946  0.4681 -0.4198  0.2990
 4445SOL    HW124971   4.327   2.146   1.851 -0.1329 -0.3599  0.3070
 4445SOL    HW224972   4.257   2.195   1.972  1.3193  1.2966 -1.3507
 4446SOL     OW24973   2.694   4.707   9.644  0.7969 -0.0730  0.0037
 4446SOL    HW124974   2.651   0.020   9.578 -2.5728 -2.2374  0.4226
 4446SOL    HW224975   2.671   0.012   9.725 -0.5000  1.0204 -0.9962
 4447SOL     OW24976   3.872   2.272   3.230  0.0827 -0.7589  0.4191
 4447SOL    HW124977   3.878   2.184   3.268 -0.5216 -0.1195  1.9837
 4447SOL    HW224978   3.824   2.321   3.297 -0.9983 -1.3925  0.1083
 4448SOL     OW24979   1.363   2.649   2.306  0.0912  0.0850 -0.0574
 4448SOL    HW124980   1.335   2.574   2.254  2.1781 -0.9583  0.3021
 4448SOL    HW224981   1.372   2.604   2.390 -0.7907  0.4429  0.2265
 4449SOL     OW24982   2.936   0.661  12.834  0.3393  0.2174  0.7544
 4449SOL    HW124983   2.869   0.646  12.900  0.4504 -2.1896  0.3078
 4449SOL    HW224984   2.879   0.705  12.771 -0.1071 -0.8684  0.3989
 4450SOL     OW24985   0.795   1.759   1.851 -0.5324 -0.0413  0.5575
 4450SOL    HW124986   0.861   1.820   1.817 -0.4313 -1.1775 -1.3268
 4450SOL    HW224987   0.839   1.682   1.815  1.9723  2.0273 -0.8492
 4451SOL     OW24988   4.115   3.596   4.088 -0.0519 -0.3895 -0.0077
 4451SOL    HW124989   4.058   3.563   4.018  0.5261  0.8673 -1.0829
 4451SOL    HW224990   4.201   3.566   4.058 -0.3268 -1.1388 -0.0334
 4452SOL     OW24991   4.216   0.769  11.452  0.3077  0.1636 -0.0538
 4452SOL    HW124992   4.233   0.760  11.546 -1.9779 -1.2526  0.2292
 4452SOL    HW224993   4.302   0.756  11.412  0.3922  1.2970 -0.2386
 4453SOL     OW24994   1.409   0.236   2.039  0.0907  0.2388 -0.5992
 4453SOL    HW124995   1.324   0.246   2.082  1.1279  0.8862  1.2883
 4453SOL    HW224996   1.456   0.316   2.062  1.9903 -1.2279  0.6829
 4454SOL     OW24997   2.629   0.747   0.134  0.1591 -0.0401  0.2401
 4454SOL    HW124998   2.694   0.704   0.079  0.6061  0.0719  0.6892
 4454SOL    HW224999   2.550   0.710   0.093  1.0453 -0.2300 -1.2952
 4455SOL     OW25000   0.825   0.980   5.833  0.2980  0.4010 -0.2993
 4455SOL    HW125001   0.823   0.930   5.751  0.3898  2.8050 -1.7999
 4455SOL    HW225002   0.918   0.993   5.851 -0.1058 -0.6745  2.4951
 4456SOL     OW25003   3.474   0.560   7.823 -0.4536 -0.6570  0.6176
 4456SOL    HW125004   3.436   0.599   7.902 -1.4659  1.1690 -0.7410
 4456SOL    HW225005   3.541   0.505   7.863 -1.1714 -2.5288 -0.7523
 4457SOL     OW25006   3.351   1.899   6.457 -0.5195 -0.1588 -0.5909
 4457SOL    HW125007   3.265   1.878   6.494  0.8852 -0.1699  2.7452
 4457SOL    HW225008   3.392   1.814   6.472  1.4211  0.6966 -1.0663
 4458SOL     OW25009   0.977   4.520   2.631 -0.3888  0.4792  0.1466
 4458SOL    HW125010   0.911   4.452   2.644 -0.3591  0.3410 -0.4275
 4458SOL    HW225011   1.054   4.468   2.652 -0.7729  0.9592  2.7870
 4459SOL     OW25012   0.900   2.968   7.249 -0.0717 -0.3123 -0.6231
 4459SOL    HW125013   0.857   3.032   7.192 -0.8829 -0.0739  0.2310
 4459SOL    HW225014   0.822   2.948   7.302 -0.5003 -1.7657 -1.8076
 4460SOL     OW25015   1.565   0.060   2.198  0.0093 -0.3142  0.3279
 4460SOL    HW125016   1.510   0.097   2.128  0.6088 -0.2988 -0.1345
 4460SOL    HW225017   1.656   0.079   2.175 -0.3137 -0.0215 -0.7024
 4461SOL     OW25018   3.848   0.085  17.426 -0.0471 -0.1158  0.2525
 4461SOL    HW125019   3.866   0.066  17.519  0.4256 -3.1960 -0.4575
 4461SOL    HW225020   3.753   0.075  17.418  0.1934 -1.4909 -0.9442
 4462SOL     OW25021   4.345   1.551  14.623  0.2472 -0.2553 -0.5097
 4462SOL    HW125022   4.307   1.624  14.674 -0.7834 -1.5088  0.5223
 4462SOL    HW225023   4.324   1.477  14.681  0.3850 -0.2386 -0.4392
 4463SOL     OW25024   3.729   2.571   0.236 -0.5090  0.2152 -0.0004
 4463SOL    HW125025   3.794   2.573   0.166 -0.9792  2.2695 -0.3811
 4463SOL    HW225026   3.776   2.621   0.303  0.8875 -0.5779 -0.3886
 4464SOL     OW25027   4.074   2.794   9.013  0.7828  0.5669 -0.4041
 4464SOL    HW125028   4.028   2.863   8.965 -0.7834 -1.0522 -1.2638
 4464SOL    HW225029   4.006   2.767   9.074  0.2513  0.3336 -1.1059
 4465SOL     OW25030   3.035   0.906   2.297 -0.5207 -0.2132 -0.2237
 4465SOL    HW125031   2.965   0.959   2.260  1.1346  0.3237 -2.6376
 4465SOL    HW225032   2.998   0.818   2.288 -0.3112 -0.2165 -1.0317
 4466SOL     OW25033   2.719   3.276   6.628 -0.0218 -0.0216 -0.1405
 4466SOL    HW125034   2.688   3.194   6.590 -1.1478 -0.1813  1.1505
 4466SOL    HW225035   2.807   3.276   6.589 -1.1308  0.2473 -2.6155
 4467SOL     OW25036   1.100   3.298   3.898  0.2488 -0.0796 -0.1323
 4467SOL    HW125037   1.018   3.300   3.948 -0.4591  3.3286 -1.4748
 4467SOL    HW225038   1.121   3.391   3.894  0.2054 -0.0602  0.0557
 4468SOL     OW25039   4.239   2.238   9.118 -0.1445  0.4914  0.5631
 4468SOL    HW125040   4.227   2.179   9.043  0.2486  1.0852  0.0360
 4468SOL    HW225041   4.303   2.296   9.077  0.2936 -0.9180 -0.7520
 4469SOL     OW25042   4.322   4.636   2.190 -0.0620  0.1491  0.0223
 4469SOL    HW125043   4.232   4.634   2.159  0.0400  0.6758 -0.3157
 4469SOL    HW225044   4.355   4.724   2.171 -0.8791 -0.0226 -2.1726
 4470SOL     OW25045   2.668   1.503   0.534 -0.3205 -0.0233  0.4597
 4470SOL    HW125046   2.717   1.574   0.576  1.0138 -0.3036 -0.6139
 4470SOL    HW225047   2.584   1.535   0.503 -0.1582  0.7282  0.7973
 4471SOL     OW25048   1.129   0.294   2.997 -0.3854  0.0031 -0.1595
 4471SOL    HW125049   1.074   0.269   2.923 -0.9851 -1.0339  0.6323
 4471SOL    HW225050   1.195   0.226   2.980  0.7942  0.7085  1.5644
 4472SOL     OW25051   2.717   1.787   9.688 -0.0613  0.0851 -0.3408
 4472SOL    HW125052   2.714   1.767   9.782  1.9857 -0.4626 -0.3981
 4472SOL    HW225053   2.661   1.722   9.644 -1.0000 -0.8833  2.2774
 4473SOL     OW25054   4.333   0.497  17.029  0.0272  0.0920  0.6176
 4473SOL    HW125055   4.392   0.566  17.001  1.2662  0.2662  3.6539
 4473SOL    HW225056   4.250   0.542  17.017  0.5675  1.0781  0.6491
 4474SOL     OW25057   1.185   3.234   6.816 -0.5745 -0.1112 -0.2153
 4474SOL    HW125058   1.231   3.275   6.744 -1.2147 -0.6686 -0.9402
 4474SOL    HW225059   1.102   3.196   6.784 -1.1588  2.6267 -1.9091
 4475SOL     OW25060   3.876   3.910  10.851 -0.2574  0.1619  0.0702
 4475SOL    HW125061   3.956   3.944  10.810 -0.1842  2.4459  2.0526
 4475SOL    HW225062   3.916   3.826  10.871 -1.9641 -0.4647  0.8188
 4476SOL     OW25063   4.183   3.493  15.615 -0.0411 -0.2277  0.3084
 4476SOL    HW125064   4.170   3.554  15.687  0.5930  0.1618  0.1001
 4476SOL    HW225065   4.187   3.408  15.659 -1.1819 -1.4255 -1.9030
 4477SOL     OW25066   0.675   0.629  14.477  0.2742  0.7591 -0.2350
 4477SOL    HW125067   0.610   0.606  14.544 -0.5861  1.8266 -0.7058
 4477SOL    HW225068   0.753   0.627  14.533  0.5027  0.4782 -0.5588
 4478SOL     OW25069   2.160   4.335   4.385  0.1735 -0.0394 -0.0436
 4478SOL    HW125070   2.164   4.239   4.380  1.0192  0.0253 -0.5541
 4478SOL    HW225071   2.215   4.351   4.462  0.2306 -0.2730 -0.0335
 4479SOL     OW25072   0.240   1.466   9.096 -0.2700  0.1582  0.4512
 4479SOL    HW125073   0.160   1.473   9.148 -0.2978  2.3218  0.1338
 4479SOL    HW225074   0.306   1.453   9.164  1.5793 -1.5348 -1.6207
 4480SOL     OW25075   4.713   2.935   9.829 -0.3254  0.2308  0.8026
 4480SOL    HW125076   0.033   2.998   9.792 -2.1943  1.3318 -0.3759
 4480SOL    HW225077   4.633   2.988   9.833 -0.6732  0.0401 -3.3442
 4481SOL     OW25078   1.027   0.211   2.759 -0.3234 -0.4298 -0.0696
 4481SOL    HW125079   1.034   0.266   2.680  2.0002 -0.1837  0.2921
 4481SOL    HW225080   1.042   0.126   2.718  0.8378 -0.4743  0.4541
 4482SOL     OW25081   1.852   0.424   3.369 -0.3967  0.2392  0.1431
 4482SOL    HW125082   1.848   0.483   3.443  2.5703 -1.1928  1.4398
 4482SOL    HW225083   1.935   0.380   3.390 -0.6911 -0.5816 -0.3953
 4483SOL     OW25084   3.449   2.799   8.782 -0.3688  0.0991  0.2257
 4483SOL    HW125085   3.433   2.755   8.866  0.1423  1.1153  0.8500
 4483SOL    HW225086   3.386   2.870   8.793  0.8082  0.9186  1.7753
 4484SOL     OW25087   0.495   2.970   4.515  0.3415  0.2706 -0.1864
 4484SOL    HW125088   0.586   2.974   4.487  0.2412  2.1338 -0.2321
 4484SOL    HW225089   0.481   2.879   4.486 -2.0703  0.9759 -1.2515
 4485SOL     OW25090   3.058   0.452   1.286 -0.7320 -0.1640 -0.2889
 4485SOL    HW125091   3.133   0.469   1.230 -0.2540  2.4077  1.1074
 4485SOL    HW225092   3.010   0.397   1.225 -0.7097  0.3188 -0.7387
 4486SOL     OW25093   0.128   0.955   7.288 -0.4216  0.2156 -0.1092
 4486SOL    HW125094   0.194   0.897   7.251 -1.6529  0.6133 -2.9303
 4486SOL    HW225095   0.060   0.889   7.300  2.3339 -2.3969  1.1776
 4487SOL     OW25096   3.055   4.284   4.001 -0.4650  0.4166 -0.4590
 4487SOL    HW125097   3.040   4.341   4.077 -0.7851 -0.9046  0.4794
 4487SOL    HW225098   3.024   4.199   4.033  0.0019 -0.1753 -1.5732
 4488SOL     OW25099   2.276   4.026   2.152  0.1023 -0.3695  0.0054
 4488SOL    HW125100   2.252   4.008   2.243 -1.8356 -0.9654 -0.6226
 4488SOL    HW225101   2.331   3.947   2.151 -0.9763 -1.1085 -2.2737
 4489SOL     OW25102   4.208   3.207   5.229  0.1986 -0.2525 -0.3971
 4489SOL    HW125103   4.301   3.201   5.248  0.1631 -0.2836 -0.2373
 4489SOL    HW225104   4.193   3.112   5.230  1.0142 -0.3831 -1.3793
 4490SOL     OW25105   1.744   3.902   4.836  0.5817  0.3451  0.0394
 4490SOL    HW125106   1.688   3.865   4.905  0.6470  0.5401  0.1952
 4490SOL    HW225107   1.829   3.865   4.860  1.2355  0.7214 -1.7097
 4491SOL     OW25108   2.142   3.513  16.757  0.2149 -0.3638  0.3261
 4491SOL    HW125109   2.085   3.489  16.829  1.5594 -0.1171  1.4753
 4491SOL    HW225110   2.230   3.482  16.780  0.9131 -1.5477 -3.7689
 4492SOL     OW25111   3.561   0.105   3.644 -0.6084  0.0221  0.1337
 4492SOL    HW125112   3.507   0.124   3.567 -2.0262 -1.1262  0.8597
 4492SOL    HW225113   3.485   0.090   3.701 -1.1896  1.9927 -0.1079
 4493SOL     OW25114   2.440   3.121   1.690 -0.5865 -0.1369  0.0147
 4493SOL    HW125115   2.386   3.164   1.756 -1.4721 -0.4620 -0.4993
 4493SOL    HW225116   2.367   3.091   1.636  0.9124  1.9914 -3.1492
 4494SOL     OW25117   0.716   2.031  13.613  0.2823  0.1098 -0.3463
 4494SOL    HW125118   0.758   1.952  13.577 -1.3525 -0.2060 -1.5716
 4494SOL    HW225119   0.680   2.000  13.696  3.1333  0.9629  1.2131
 4495SOL     OW25120   1.126   2.671  14.709 -0.0696  0.6206 -0.4503
 4495SOL    HW125121   1.132   2.652  14.616 -0.6378  0.3947 -0.4427
 4495SOL    HW225122   1.182   2.746  14.726 -0.1866  0.7599 -0.6771
 4496SOL     OW25123   0.842   4.042   1.970 -0.0382  0.7737 -0.1280
 4496SOL    HW125124   0.842   3.974   1.902 -1.3654 -0.0697  0.7176
 4496SOL    HW225125   0.751   4.037   1.997 -0.4020  1.1697 -1.2962
 4497SOL     OW25126   2.036   1.010   6.338 -0.9950  0.1017  0.0204
 4497SOL    HW125127   1.993   0.981   6.419  3.0143 -1.4618  1.5774
 4497SOL    HW225128   2.125   1.004   6.371 -0.9343  1.2564  0.0422
 4498SOL     OW25129   0.369   2.196   7.520 -0.2316  0.1309 -0.2605
 4498SOL    HW125130   0.384   2.119   7.464  0.9670  0.7329 -0.7689
 4498SOL    HW225131   0.421   2.257   7.468  1.0379  0.2712  1.1919
 4499SOL     OW25132   0.593   0.820  17.717 -0.5306  0.1347  0.3676
 4499SOL    HW125133   0.525   0.880  17.748 -1.8192 -1.0046 -0.2590
 4499SOL    HW225134   0.605   0.848  17.626 -0.4175  1.1496  0.6991
 4500SOL     OW25135   2.027   2.508   6.646 -0.4518 -0.6497 -0.3471
 4500SOL    HW125136   2.092   2.484   6.580  1.4648  1.2751  0.8397
 4500SOL    HW225137   1.949   2.458   6.619 -1.7917  0.7800  0.9016
 4501SOL     OW25138   1.212   3.764   4.532  0.3911  0.4529 -0.0846
 4501SOL    HW125139   1.188   3.786   4.442  1.7262 -2.5854 -1.1935
 4501SOL    HW225140   1.297   3.722   4.525  0.2068 -0.0100  0.4142
 4502SOL     OW25141   3.633   2.926   4.928  0.5197 -0.0565 -0.5302
 4502SOL    HW125142   3.655   2.978   4.850 -0.1980  0.2237 -0.5408
 4502SOL    HW225143   3.717   2.930   4.975 -0.1692  0.7783  0.6200
 4503SOL     OW25144   0.486   0.868   4.690 -0.8549  0.0593 -0.2212
 4503SOL    HW125145   0.392   0.884   4.695 -0.7258  0.9332 -0.5576
 4503SOL    HW225146   0.529   0.939   4.739 -1.0588  1.1709 -1.6482
 4504SOL     OW25147   3.943   1.961   2.186  0.6544  0.1645  0.3297
 4504SOL    HW125148   4.006   1.963   2.115  0.1848  0.6015 -0.0748
 4504SOL    HW225149   3.878   1.893   2.169  0.1569  0.2269  1.9775
 4505SOL     OW25150   1.495   2.414   0.200  0.2315  0.3903 -0.4224
 4505SOL    HW125151   1.562   2.410   0.268 -0.7981  1.2490  0.6414
 4505SOL    HW225152   1.501   2.328   0.158 -0.3676  0.6062 -0.9423
 4506SOL     OW25153   2.905   4.359  14.919  0.4607  0.1349 -0.1293
 4506SOL    HW125154   2.901   4.441  14.870  0.1029  0.1412 -0.0889
 4506SOL    HW225155   2.835   4.309  14.878  1.5061 -2.8565  1.7569
 4507SOL     OW25156   4.087   0.764   6.433  0.2420 -0.1547  0.1128
 4507SOL    HW125157   4.160   0.720   6.476  0.4098  1.3600  1.3781
 4507SOL    HW225158   4.100   0.733   6.343 -2.2215 -0.2715 -0.2074
 4508SOL     OW25159   0.867   0.506   2.316 -0.0254  0.4275 -0.2408
 4508SOL    HW125160   0.846   0.576   2.255 -0.1262  1.9862  1.6018
 4508SOL    HW225161   0.835   0.434   2.261  2.7564 -0.6157 -0.4934
 4509SOL     OW25162   2.052   2.240   2.049  0.0448 -0.2023  0.0457
 4509SOL    HW125163   2.006   2.228   1.966  1.4229 -0.6733 -0.6442
 4509SOL    HW225164   1.984   2.287   2.097 -0.9015 -1.5833  0.0369
 4510SOL     OW25165   3.863   3.483  12.562  0.2225  0.0063 -0.0639
 4510SOL    HW125166   3.874   3.534  12.643 -0.0471 -1.4130  0.8644
 4510SOL    HW225167   3.794   3.421  12.584  0.1497  0.6924  1.6792
 4511SOL     OW25168   3.470   4.375   6.450 -0.0977 -0.6711  0.5519
 4511SOL    HW125169   3.464   4.280   6.442 -0.3165 -0.5833 -0.3046
 4511SOL    HW225170   3.398   4.408   6.397  0.2314 -1.4346 -0.3809
 4512SOL     OW25171   3.733   0.981   7.350  0.5335  0.2424 -0.4727
 4512SOL    HW125172   3.770   0.993   7.263  0.2145 -1.3939 -0.8335
 4512SOL    HW225173   3.803   0.942   7.403  0.8767 -1.5235 -2.2121
 4513SOL     OW25174   0.200   3.349  10.917  0.3239  0.2151 -0.0606
 4513SOL    HW125175   0.180   3.432  10.874 -0.6646  0.2976  0.5716
 4513SOL    HW225176   0.254   3.311  10.848  0.8230  5.1883 -2.4456
 4514SOL     OW25177   0.137   2.228   2.402  0.2342 -0.6574 -0.0576
 4514SOL    HW125178   0.203   2.247   2.334 -0.0627  1.9311  0.3969
 4514SOL    HW225179   0.080   2.170   2.351  0.9513 -0.6948 -0.8198
 4515SOL     OW25180   3.380   2.883  15.174 -0.0586 -0.0144  0.4702
 4515SOL    HW125181   3.384   2.791  15.201  0.8062 -0.0876  0.0837
 4515SOL    HW225182   3.288   2.887  15.148 -0.0311 -0.6145  0.2737
 4516SOL     OW25183   3.480   0.324  14.691 -0.4063  0.8998 -0.1969
 4516SOL    HW125184   3.538   0.252  14.667  0.6556  2.1550 -1.3768
 4516SOL    HW225185   3.421   0.288  14.758  0.5884  0.7721  0.6091
 4517SOL     OW25186   3.776   4.091  16.768 -0.4625  0.1816 -0.4197
 4517SOL    HW125187   3.767   4.103  16.862 -0.5025 -1.3047 -0.2397
 4517SOL    HW225188   3.685   4.096  16.738 -0.1430 -0.1846 -1.4687
 4518SOL     OW25189   2.976   1.886   7.482 -0.0668  0.3873 -0.2216
 4518SOL    HW125190   2.917   1.912   7.553  1.0458  3.1150 -0.3243
 4518SOL    HW225191   3.039   1.851   7.545 -1.0617  0.8971  1.0750
 4519SOL     OW25192   4.523   0.155  13.951  0.8390 -0.2093 -0.1329
 4519SOL    HW125193   4.597   0.150  14.011  0.6567 -1.8028 -0.0402
 4519SOL    HW225194   4.570   0.200  13.881  0.6776 -0.5755 -0.4738
 4520SOL     OW25195   3.680   0.620   6.683  0.0840 -0.7517 -0.0833
 4520SOL    HW125196   3.775   0.622   6.694 -0.0748 -1.4274  1.4606
 4520SOL    HW225197   3.675   0.664   6.598  0.5217  0.4731  0.5227
 4521SOL     OW25198   2.726   0.469   8.637 -0.4987 -0.0851  0.4734
 4521SOL    HW125199   2.680   0.385   8.634 -1.2249  0.3061  0.6391
 4521SOL    HW225200   2.667   0.532   8.680 -0.8517  0.1540 -0.3706
 4522SOL     OW25201   1.940   0.524   4.364 -0.2458  0.4331 -0.1262
 4522SOL    HW125202   1.935   0.429   4.360  0.6923  0.3196  1.3736
 4522SOL    HW225203   1.888   0.547   4.287 -0.8225 -0.5655 -0.0414
 4523SOL     OW25204   0.881   4.184   2.491 -0.3081  0.0858 -0.3179
 4523SOL    HW125205   0.827   4.128   2.436  1.5214 -0.6215 -1.3818
 4523SOL    HW225206   0.970   4.180   2.456 -0.2209  1.7276 -0.2784
 4524SOL     OW25207   0.677   4.002   5.150 -0.3184 -0.3875  0.3414
 4524SOL    HW125208   0.684   3.910   5.176  1.2723 -0.4923 -0.4194
 4524SOL    HW225209   0.669   4.051   5.231 -0.2782  2.0975 -1.1367
 4525SOL     OW25210   4.607   2.101  13.726  1.1249 -0.1830 -0.1337
 4525SOL    HW125211   4.555   2.181  13.735  0.3700 -0.3831 -2.6234
 4525SOL    HW225212   4.560   2.069  13.649 -1.1910  0.1104  1.1716
 4526SOL     OW25213   1.331   4.350  15.492  0.3840 -0.8885  0.1667
 4526SOL    HW125214   1.282   4.284  15.541 -0.8710  0.3352  0.5688
 4526SOL    HW225215   1.342   4.298  15.412 -0.0552 -0.1249 -0.3875
 4527SOL     OW25216   2.459   0.431   3.529  0.0451  0.1491 -0.3733
 4527SOL    HW125217   2.457   0.407   3.622  0.6149  1.0510 -0.1268
 4527SOL    HW225218   2.510   0.356   3.498 -0.7505 -0.9469  0.9963
 4528SOL     OW25219   3.911   4.372   7.511 -0.1901 -0.0207  0.5540
 4528SOL    HW125220   3.946   4.425   7.439 -0.3322  0.5258  0.8925
 4528SOL    HW225221   3.891   4.446   7.568  0.6023  0.5612  0.0603
 4529SOL     OW25222   0.247   1.242  11.464 -0.2021 -0.4470  0.6702
 4529SOL    HW125223   0.306   1.182  11.418  0.3356  1.3140 -0.9455
 4529SOL    HW225224   0.177   1.256  11.400  0.8592 -0.9887 -0.6176
 4530SOL     OW25225   2.769   1.356  10.996 -0.6415 -0.0607 -0.0413
 4530SOL    HW125226   2.764   1.272  11.041  0.8200  0.1453  0.5089
 4530SOL    HW225227   2.791   1.419  11.065 -1.0337  0.1965 -0.1540
 4531SOL     OW25228   0.246   1.239   7.854 -0.2059  0.3401  0.7803
 4531SOL    HW125229   0.151   1.247   7.846 -0.6555 -1.5242  4.4054
 4531SOL    HW225230   0.267   1.215   7.764 -0.2873  1.6233  0.4081
 4532SOL     OW25231   1.578   0.785  11.306 -0.0823 -0.2440 -0.8066
 4532SOL    HW125232   1.523   0.851  11.263 -1.2668  0.5317  1.8599
 4532SOL    HW225233   1.660   0.833  11.320  0.0058 -0.6039 -0.1075
 4533SOL     OW25234   0.282   4.002   5.867  0.4276  0.3057  0.3666
 4533SOL    HW125235   0.218   4.031   5.932  0.0333 -2.1893  1.1038
 4533SOL    HW225236   0.326   3.931   5.915 -1.3820 -0.9642  0.1442
 4534SOL     OW25237   0.644   1.157   9.668  0.5965 -0.6621 -0.0066
 4534SOL    HW125238   0.655   1.062   9.666  1.2861 -0.5959  0.6390
 4534SOL    HW225239   0.591   1.171   9.746  0.5760  0.1315 -0.1678
 4535SOL     OW25240   2.370   2.552   6.471 -0.2734  0.5565 -0.2298
 4535SOL    HW125241   2.439   2.509   6.523 -3.2909 -1.1219  2.3915
 4535SOL    HW225242   2.418   2.561   6.389  1.6003 -0.8854  0.7101
 4536SOL     OW25243   3.364   3.070  11.702  0.3576 -0.0959  0.3268
 4536SOL    HW125244   3.437   3.076  11.640 -0.5450 -0.6227 -0.7863
 4536SOL    HW225245   3.390   2.991  11.749  0.5611 -1.0045 -1.3171
 4537SOL     OW25246   2.819   0.448   4.403  0.5559 -0.2829 -0.4180
 4537SOL    HW125247   2.881   0.438   4.476  1.0644  2.7229 -0.4400
 4537SOL    HW225248   2.737   0.412   4.436 -0.7085  1.4972 -1.6217
 4538SOL     OW25249   0.028   4.575   5.927  0.1489 -0.5112  0.6851
 4538SOL    HW125250   4.737   4.504   5.983  1.4012 -1.6871 -0.0939
 4538SOL    HW225251   0.080   4.621   5.994  1.0941  0.4504 -0.7223
 4539SOL     OW25252   4.257   1.514   3.354  0.2434 -0.0761  0.0419
 4539SOL    HW125253   4.197   1.478   3.289 -0.6160  1.6519 -0.1360
 4539SOL    HW225254   4.338   1.494   3.308  1.2098  1.2772  1.1464
 4540SOL     OW25255   3.287   0.934  15.069 -0.0021  1.0001  0.0824
 4540SOL    HW125256   3.365   0.935  15.013 -0.9294 -2.1945 -1.2576
 4540SOL    HW225257   3.295   1.022  15.106  0.1629  0.4955  1.2278
 4541SOL     OW25258   1.460   3.627   4.538 -0.2818 -0.1701  0.1815
 4541SOL    HW125259   1.488   3.612   4.448 -0.0049 -0.2985  0.2921
 4541SOL    HW225260   1.528   3.579   4.585  2.5565  2.1842 -1.5213
 4542SOL     OW25261   4.717   2.779   1.050 -0.1024 -0.4201  0.2454
 4542SOL    HW125262   4.627   2.791   1.081 -0.1912  0.2444 -0.2691
 4542SOL    HW225263   4.719   2.684   1.041 -2.8708 -0.4365 -0.0339
 4543SOL     OW25264   4.633   0.411   0.937  0.0612 -0.5773  0.1455
 4543SOL    HW125265   4.708   0.435   0.882  0.2332 -1.0236  0.1798
 4543SOL    HW225266   4.556   0.450   0.897 -0.1199 -0.1778  0.8807
 4544SOL     OW25267   3.725   0.372  12.748  0.0391 -0.7306 -0.4503
 4544SOL    HW125268   3.758   0.438  12.809 -1.1317  0.9020 -1.6172
 4544SOL    HW225269   3.700   0.298  12.804 -2.3309  0.6058  0.2561
 4545SOL     OW25270   2.764   2.910   3.879  0.1698  0.1659  0.2028
 4545SOL    HW125271   2.750   2.875   3.967  0.2194 -2.0626 -0.6913
 4545SOL    HW225272   2.860   2.903   3.879  0.0374 -1.5377 -2.8503
 4546SOL     OW25273   3.413   3.234   7.410  0.3194 -0.4174 -0.8683
 4546SOL    HW125274   3.429   3.166   7.345 -1.7617 -0.8404 -0.9344
 4546SOL    HW225275   3.482   3.211   7.472  1.2079  1.3206 -1.2185
 4547SOL     OW25276   2.358   3.968   9.562 -0.1062 -0.1927  0.1224
 4547SOL    HW125277   2.444   3.980   9.520  0.1731 -3.2320 -0.1602
 4547SOL    HW225278   2.364   3.980   9.656  1.6181  1.0196 -0.1328
 4548SOL     OW25279   0.993   3.424   4.290  0.3526 -0.1431  0.3446
 4548SOL    HW125280   0.950   3.509   4.298 -0.6993 -0.7334  1.0853
 4548SOL    HW225281   0.976   3.387   4.203  0.7746  1.2197 -0.3061
 4549SOL     OW25282   1.543   4.010  11.412  0.1749 -0.3259 -0.3975
 4549SOL    HW125283   1.515   4.066  11.485  0.1909 -0.0586 -0.5977
 4549SOL    HW225284   1.634   3.998  11.438  0.1862 -0.0335 -0.3002
 4550SOL     OW25285   0.033   3.011   1.239 -0.3117 -0.1675 -0.3129
 4550SOL    HW125286   0.000   2.934   1.192 -0.7436 -0.5153  0.5413
 4550SOL    HW225287   4.714   3.008   1.314  0.1603  0.2093  0.0788
 4551SOL     OW25288   1.889   1.985  14.251  0.5036  0.3682 -0.6264
 4551SOL    HW125289   1.947   1.965  14.325  0.5602  2.6997 -0.0116
 4551SOL    HW225290   1.830   1.911  14.247 -0.8323  1.3949  0.0526
 4552SOL     OW25291   3.166   1.776   7.658 -0.6087 -0.1545  0.4291
 4552SOL    HW125292   3.188   1.775   7.751 -2.0740 -1.6395  0.7743
 4552SOL    HW225293   3.186   1.689   7.624  0.8684 -0.7454  2.7889
 4553SOL     OW25294   2.864   1.861  17.121 -0.1102  0.0664  0.1381
 4553SOL    HW125295   2.865   1.819  17.207  1.0677  0.7394  0.4682
 4553SOL    HW225296   2.925   1.805  17.074 -1.2520  0.0413 -1.2868
 4554SOL     OW25297   2.218   1.611   6.856  0.3179  0.8959  0.5016
 4554SOL    HW125298   2.217   1.562   6.938  2.6768 -1.5061 -0.9004
 4554SOL    HW225299   2.301   1.585   6.815 -0.7392 -1.5708 -0.0665
 4555SOL     OW25300   0.202   3.498   3.254 -0.1172 -0.1602 -0.3144
 4555SOL    HW125301   0.191   3.522   3.162 -0.1486  0.4723 -0.1447
 4555SOL    HW225302   0.125   3.532   3.300 -0.3218 -0.4349 -0.4567
 4556SOL     OW25303   0.197   0.301   6.380 -0.1719  0.4637 -0.1649
 4556SOL    HW125304   0.105   0.282   6.396 -0.7622  2.3574 -1.3012
 4556SOL    HW225305   0.202   0.300   6.285 -0.1945  1.2829 -0.1797
 4557SOL     OW25306   3.783   0.106   9.709 -0.3076 -0.1488  0.4251
 4557SOL    HW125307   3.746   0.170   9.647  1.7238  1.5511  0.9682
 4557SOL    HW225308   3.713   0.105   9.774 -1.4754 -0.1028 -0.8211
 4558SOL     OW25309   1.425   1.642   4.746 -0.7026 -0.4908 -0.2960
 4558SOL    HW125310   1.453   1.728   4.776  2.0917 -1.0517 -1.2548
 4558SOL    HW225311   1.339   1.631   4.787  0.4587 -0.5179  2.1757
 4559SOL     OW25312   4.388   4.378   0.726 -0.3924  1.1543 -0.0714
 4559SOL    HW125313   4.381   4.324   0.805 -1.9048  1.7477  0.2100
 4559SOL    HW225314   4.417   4.459   0.768 -0.0972  0.3835  1.2171
 4560SOL     OW25315   2.928   3.208  12.567  0.6672  0.0896 -0.4592
 4560SOL    HW125316   2.894   3.169  12.486 -0.0112  0.9585 -0.5903
 4560SOL    HW225317   3.003   3.259  12.536  2.0772 -1.2026  0.7949
 4561SOL     OW25318   0.840   2.965   4.843  0.1797 -0.0512 -0.6766
 4561SOL    HW125319   0.767   2.915   4.806  0.4533 -0.3183 -0.8478
 4561SOL    HW225320   0.837   2.937   4.935  0.6929  2.3436  0.0861
 4562SOL     OW25321   2.927   4.019   6.946  0.3734 -0.0142  0.0516
 4562SOL    HW125322   2.971   4.102   6.932  0.3545 -0.1539 -0.8665
 4562SOL    HW225323   2.946   3.965   6.869  0.3578 -0.6680  0.5028
 4563SOL     OW25324   0.921   2.726   7.982 -0.4119  0.3194  0.1235
 4563SOL    HW125325   0.915   2.795   8.048  0.0173 -0.6779  1.2197
 4563SOL    HW225326   0.951   2.653   8.036 -1.0569  0.0795  0.1545
 4564SOL     OW25327   2.563   1.913   7.017 -0.5971  0.2485  0.2907
 4564SOL    HW125328   2.576   1.863   7.098  1.8544 -0.0679 -0.2853
 4564SOL    HW225329   2.657   1.927   7.002  0.3368 -3.1858  2.6373
 4565SOL     OW25330   2.148   2.220   4.184 -0.2613  0.1232  0.3616
 4565SOL    HW125331   2.224   2.165   4.205  0.2752  0.1439 -1.5223
 4565SOL    HW225332   2.081   2.152   4.195  1.5868 -1.4051  2.1922
 4566SOL     OW25333   2.475   3.932   7.571  0.1493  0.1763 -0.0791
 4566SOL    HW125334   2.447   4.020   7.599 -0.6910  0.4970 -1.9118
 4566SOL    HW225335   2.498   3.879   7.647 -0.7188  0.9509  0.7331
 4567SOL     OW25336   0.642   4.668  10.816  0.5733  0.1464  0.2498
 4567SOL    HW125337   0.648   0.008  10.868  2.2929  0.0058  0.2918
 4567SOL    HW225338   0.563   4.683  10.764  1.3099  0.8228 -0.6731
 4568SOL     OW25339   3.564   1.166   8.272  0.6819 -0.8402 -0.2288
 4568SOL    HW125340   3.552   1.198   8.183 -1.1448 -1.8658 -0.3726
 4568SOL    HW225341   3.471   1.147   8.289  1.0446 -0.4860  2.2464
 4569SOL     OW25342   0.593   0.805  16.823  0.4403  0.7178 -0.0575
 4569SOL    HW125343   0.538   0.880  16.803 -1.2305 -1.0399 -2.0168
 4569SOL    HW225344   0.620   0.772  16.737  1.3071  0.2570  0.3879
 4570SOL     OW25345   0.641   3.424   8.096  0.0245 -0.0067  0.1890
 4570SOL    HW125346   0.735   3.430   8.076 -0.3007  0.1448 -1.3384
 4570SOL    HW225347   0.637   3.356   8.163 -0.6236 -0.7640 -0.6027
 4571SOL     OW25348   0.615   0.131   5.760  0.0711 -0.2818 -0.4499
 4571SOL    HW125349   0.551   0.155   5.692  0.2620 -1.0343 -0.8929
 4571SOL    HW225350   0.654   0.055   5.717 -1.7272 -1.1726 -0.4932
 4572SOL     OW25351   4.099   2.634   7.505  0.3682  0.3089 -0.3898
 4572SOL    HW125352   4.057   2.678   7.432 -1.3893  0.9115  1.0157
 4572SOL    HW225353   4.132   2.553   7.465 -1.9551 -0.8816  0.1268
 4573SOL     OW25354   2.804   4.317   2.921 -0.0745  0.0666  0.4793
 4573SOL    HW125355   2.864   4.250   2.889  1.4861  1.0274  1.4003
 4573SOL    HW225356   2.832   4.389   2.865 -0.4946  0.2551  0.5125
 4574SOL     OW25357   4.475   2.424  17.397 -0.4229 -0.2708 -0.4718
 4574SOL    HW125358   4.443   2.335  17.379 -2.0902 -0.2486  2.4347
 4574SOL    HW225359   4.460   2.436  17.491 -2.1521 -0.8546 -0.6722
 4575SOL     OW25360   4.614   3.270   1.220 -0.5866 -0.0815 -0.7909
 4575SOL    HW125361   4.583   3.180   1.234 -0.3164  0.1295  1.2107
 4575SOL    HW225362   4.691   3.272   1.276 -0.8629 -0.7663 -0.3760
 4576SOL     OW25363   0.492   4.500   2.676 -0.5569  0.1321 -0.0985
 4576SOL    HW125364   0.542   4.429   2.637 -2.8697 -1.2248 -0.5749
 4576SOL    HW225365   0.469   4.455   2.758  0.1380  1.5937  0.9157
 4577SOL     OW25366   0.248   3.071   8.382 -0.3251 -0.3160 -0.3752
 4577SOL    HW125367   0.288   3.020   8.311  1.9172  1.6731 -0.5371
 4577SOL    HW225368   0.183   3.019   8.429  1.2479 -2.3127 -0.4218
 4578SOL     OW25369   3.521   3.106   7.161  0.0878  0.1641 -0.0543
 4578SOL    HW125370   3.441   3.053   7.156  0.9021 -1.1259  1.0705
 4578SOL    HW225371   3.592   3.047   7.184  0.2880  0.3405 -0.2124
 4579SOL     OW25372   1.198   2.600   9.703 -0.4190 -0.4069  0.1819
 4579SOL    HW125373   1.144   2.521   9.697 -0.3541 -0.4725  0.4508
 4579SOL    HW225374   1.254   2.592   9.625  0.6255 -1.3654  1.0117
 4580SOL     OW25375   1.066   3.091  11.157  0.0215  0.1525 -0.0838
 4580SOL    HW125376   1.087   3.083  11.250 -1.9742 -1.4016  0.2164
 4580SOL    HW225377   1.136   3.038  11.118 -1.4468 -0.9959 -1.1486
 4581SOL     OW25378   3.936   0.573   4.400 -0.3099  0.1932 -0.4282
 4581SOL    HW125379   3.875   0.525   4.344  0.3237 -0.3241 -0.6746
 4581SOL    HW225380   3.963   0.502   4.458  0.6598  0.9550  0.0466
 4582SOL     OW25381   1.758   3.480  15.200  0.1728  0.0918  0.2519
 4582SOL    HW125382   1.749   3.536  15.123  1.7159 -0.2711 -0.1914
 4582SOL    HW225383   1.667   3.455  15.217  0.2248 -0.2801 -0.0145
 4583SOL     OW25384   0.545   0.709  11.486 -0.5595  0.5910 -0.1106
 4583SOL    HW125385   0.478   0.755  11.536 -0.7586  2.0265 -1.7032
 4583SOL    HW225386   0.619   0.756  11.524  1.1228 -1.8852 -0.3331
 4584SOL     OW25387   1.393   4.400   8.093 -0.2794  0.7963 -0.3659
 4584SOL    HW125388   1.398   4.348   8.173 -1.3676  1.3097  0.0425
 4584SOL    HW225389   1.359   4.487   8.113  0.8239  0.8985  0.9944
 4585SOL     OW25390   2.037   2.926  13.459 -0.2754  0.5199  0.0036
 4585SOL    HW125391   1.993   2.946  13.376 -1.5454  1.4509  0.8982
 4585SOL    HW225392   1.976   2.971  13.518  1.0934  2.8215 -0.3597
 4586SOL     OW25393   0.161   0.126   7.655 -0.1750  0.0989  0.2277
 4586SOL    HW125394   0.215   0.094   7.727  0.3560 -0.1355 -0.2849
 4586SOL    HW225395   0.069   0.125   7.683 -0.4747  2.4029 -0.6333
 4587SOL     OW25396   3.825   4.623  16.735 -0.1947  0.1768  0.2181
 4587SOL    HW125397   3.750   4.677  16.761 -1.2155 -0.4884 -1.2978
 4587SOL    HW225398   3.876   4.629  16.816 -1.4427  0.3053  1.0073
 4588SOL     OW25399   2.668   4.459   2.437 -0.4543 -0.0567  0.6169
 4588SOL    HW125400   2.611   4.395   2.395 -0.5617  0.5478 -0.1697
 4588SOL    HW225401   2.625   4.537   2.400 -0.1135 -1.0098 -1.8129
 4589SOL     OW25402   1.538   2.919  10.210  0.3622 -0.0562 -0.3209
 4589SOL    HW125403   1.564   2.888  10.123  3.8925 -1.1747  1.1221
 4589SOL    HW225404   1.540   3.013  10.197  0.5988 -0.2805 -1.9831
 4590SOL     OW25405   4.097   2.846   3.273  0.2399 -0.6226  0.0346
 4590SOL    HW125406   4.101   2.836   3.368  0.4770 -0.3494  0.0514
 4590SOL    HW225407   4.037   2.779   3.239  0.0797 -1.3094  1.6832
 4591SOL     OW25408   3.473   2.525   5.414 -0.3341 -0.1638 -0.7095
 4591SOL    HW125409   3.505   2.490   5.497  0.8903  0.4879 -0.9105
 4591SOL    HW225410   3.535   2.592   5.384  0.5045 -0.0763  1.2233
 4592SOL     OW25411   0.512   0.213  17.227 -0.4166  0.1091  0.0518
 4592SOL    HW125412   0.560   0.187  17.306  3.0902  2.4933 -1.2672
 4592SOL    HW225413   0.551   0.300  17.214  2.3721 -1.0365  0.7377
 4593SOL     OW25414   0.572   3.312   1.493 -0.0378 -0.6499 -0.0020
 4593SOL    HW125415   0.626   3.311   1.413  1.1868  0.4667  0.8034
 4593SOL    HW225416   0.504   3.270   1.440  0.7219  1.1630 -2.4285
 4594SOL     OW25417   0.616   3.807  14.980  0.3455  0.1025  0.0439
 4594SOL    HW125418   0.555   3.858  14.926  2.0390 -1.0641 -2.9973
 4594SOL    HW225419   0.564   3.727  14.990  0.1847  0.0935 -0.8053
 4595SOL     OW25420   4.228   0.129   3.317  0.8316  0.0747  0.5435
 4595SOL    HW125421   4.179   0.104   3.395  1.8552 -0.9835  0.8493
 4595SOL    HW225422   4.300   0.069   3.332 -0.5752 -1.9715 -0.7953
 4596SOL     OW25423   4.688   2.676   8.777  0.1860 -0.3268 -0.1377
 4596SOL    HW125424   4.734   2.745   8.824  0.8155 -1.0021  0.2386
 4596SOL    HW225425   4.718   2.596   8.821  1.5907 -1.1711 -2.6379
 4597SOL     OW25426   2.359   3.326   2.478  0.1943  0.0242  0.1311
 4597SOL    HW125427   2.318   3.361   2.398  1.8047 -2.0907 -1.6133
 4597SOL    HW225428   2.300   3.252   2.495  0.5956 -0.2787  0.1881
 4598SOL     OW25429   3.945   2.663   0.362 -0.2497 -0.4944 -0.0323
 4598SOL    HW125430   3.967   2.670   0.455 -0.0235  1.6417 -0.2365
 4598SOL    HW225431   3.937   2.756   0.340  2.6641  0.4664  2.8801
 4599SOL     OW25432   0.368   0.989   6.338 -0.0658 -0.0801  0.3235
 4599SOL    HW125433   0.406   1.070   6.304  1.9457 -1.2043 -0.0974
 4599SOL    HW225434   0.360   0.941   6.255  0.0527 -0.0577  0.2995
 4600SOL     OW25435   0.544   1.428   8.576 -0.3790  0.0869  0.1221
 4600SOL    HW125436   0.463   1.394   8.615 -0.1062 -1.6405 -0.8351
 4600SOL    HW225437   0.599   1.471   8.641  0.1657  0.2719 -0.4623
 4601SOL     OW25438   0.825   1.149   4.346 -0.5054  0.1175  0.1405
 4601SOL    HW125439   0.747   1.190   4.310  0.2914  3.7922  2.5632
 4601SOL    HW225440   0.894   1.161   4.281  0.1452  0.2526  0.8629
 4602SOL     OW25441   3.507   4.059   5.318  0.1330 -0.4436 -0.2489
 4602SOL    HW125442   3.445   4.113   5.268 -0.1610 -3.1259 -2.8206
 4602SOL    HW225443   3.468   3.977   5.288 -0.3195 -0.3070 -0.0359
 4603SOL     OW25444   3.142   3.207   6.932 -0.3316  0.5720 -0.7883
 4603SOL    HW125445   3.117   3.265   7.004  0.8912 -0.4897  0.4843
 4603SOL    HW225446   3.075   3.139   6.935  2.0310 -1.6956  0.7751
 4604SOL     OW25447   0.708   2.226  12.308 -0.1373  0.0422 -0.4987
 4604SOL    HW125448   0.742   2.154  12.362  0.3496 -0.4781 -1.5041
 4604SOL    HW225449   0.635   2.182  12.264 -0.3453 -1.6705  1.5268
 4605SOL     OW25450   4.337   0.643   6.030  0.3667  0.0453  0.7023
 4605SOL    HW125451   4.340   0.547   6.038  0.1733 -0.3531 -3.7623
 4605SOL    HW225452   4.336   0.651   5.934 -0.0202  2.5872  0.9348
 4606SOL     OW25453   1.336   1.467  17.470 -0.2662  0.4074  0.3170
 4606SOL    HW125454   1.287   1.515  17.537 -1.7669 -1.9306  0.8899
 4606SOL    HW225455   1.403   1.526  17.437  0.4897 -0.9723 -0.6226
 4607SOL     OW25456   0.384   2.055   5.147  0.1672 -0.0029 -0.6264
 4607SOL    HW125457   0.452   2.117   5.120  0.1742  0.3813  0.2726
 4607SOL    HW225458   0.384   2.079   5.240 -1.3586  0.4601 -0.7515
 4608SOL     OW25459   0.013   4.269   5.752 -0.3902 -0.3203 -0.1992
 4608SOL    HW125460   0.032   4.362   5.739 -3.7010  0.2947 -0.6889
 4608SOL    HW225461   0.011   4.252   5.847 -2.5728  0.5021 -0.0887
 4609SOL     OW25462   3.851   1.269   2.266 -0.0786 -0.6350  0.5862
 4609SOL    HW125463   3.928   1.248   2.319  1.6778  1.0612 -1.2662
 4609SOL    HW225464   3.854   1.204   2.196  3.9041  0.4768 -0.2909
 4610SOL     OW25465   0.125   0.395   7.594 -0.3218  0.1670 -0.4584
 4610SOL    HW125466   0.137   0.303   7.616 -2.0314  0.0826  0.1391
 4610SOL    HW225467   0.192   0.410   7.527 -0.5795 -0.8867 -0.9487
 4611SOL     OW25468   0.249   2.905   1.436  0.4179 -0.1769  1.0174
 4611SOL    HW125469   0.205   2.911   1.521 -2.7397 -0.1241 -0.6444
 4611SOL    HW225470   0.185   2.948   1.379  2.1476  1.5001  0.3217
 4612SOL     OW25471   1.390   3.605   4.158 -0.3705  0.1277  0.0532
 4612SOL    HW125472   1.334   3.676   4.190 -2.1267 -1.0840 -0.2752
 4612SOL    HW225473   1.447   3.578   4.229  0.5397  0.2814 -0.6213
 4613SOL     OW25474   3.688   0.465   3.252  0.1295 -0.2668  0.1686
 4613SOL    HW125475   3.604   0.428   3.279 -0.0186  0.1394  0.2618
 4613SOL    HW225476   3.719   0.401   3.188 -0.4695 -1.7411  1.3376
 4614SOL     OW25477   1.442   3.205   7.902 -0.2628  0.3287  0.4347
 4614SOL    HW125478   1.514   3.152   7.868  1.9317  2.2325  2.2120
 4614SOL    HW225479   1.376   3.136   7.912 -0.6432  0.9833  2.3439
 4615SOL     OW25480   1.573   3.484   6.004  0.1354  0.1054  0.1932
 4615SOL    HW125481   1.539   3.530   5.927  1.3184  3.1139  1.4484
 4615SOL    HW225482   1.512   3.517   6.069 -1.5179  0.0523 -1.3200
 4616SOL     OW25483   1.923   1.157   8.355  0.6598 -0.0297  0.1910
 4616SOL    HW125484   1.873   1.080   8.329 -0.8575 -0.2853  3.7712
 4616SOL    HW225485   1.912   1.217   8.282  0.3877 -0.5167 -0.1658
 4617SOL     OW25486   2.625   1.048   7.834 -0.4596  0.9010  0.2273
 4617SOL    HW125487   2.673   0.969   7.858 -1.2355  0.3370 -0.0651
 4617SOL    HW225488   2.700   1.100   7.804 -0.1095  0.0251 -0.3951
 4618SOL     OW25489   3.660   0.046  14.293 -0.1226 -0.0397 -0.2328
 4618SOL    HW125490   3.701   4.716  14.243  0.7198  0.2734  0.0122
 4618SOL    HW225491   3.672   0.123  14.237 -1.0481  0.6109  0.4675
 4619SOL     OW25492   3.495   2.371   2.173  0.0350 -0.2488  0.2251
 4619SOL    HW125493   3.446   2.389   2.093  1.4723 -0.5893 -0.7347
 4619SOL    HW225494   3.575   2.415   2.143 -0.6701 -0.4548 -1.9965
 4620SOL     OW25495   0.666   2.481  13.122 -0.6203 -0.1843  0.6701
 4620SOL    HW125496   0.753   2.509  13.149 -0.8247  1.3523 -0.2619
 4620SOL    HW225497   0.633   2.433  13.198 -1.1787 -0.5006  0.2288
 4621SOL     OW25498   2.671   0.487   4.682  0.5216 -0.0235 -0.3485
 4621SOL    HW125499   2.748   0.431   4.671 -0.1889 -1.0805  0.0835
 4621SOL    HW225500   2.707   0.542   4.753  2.1235 -1.2419 -0.2170
 4622SOL     OW25501   4.609   0.444   7.644  0.1143  0.0765 -0.2128
 4622SOL    HW125502   4.703   0.427   7.646  0.4545  1.8585 -0.5813
 4622SOL    HW225503   4.606   0.386   7.568 -0.7740 -0.3180  0.1316
 4623SOL     OW25504   3.265   3.978  13.674 -0.0704  0.2143  0.3373
 4623SOL    HW125505   3.289   3.998  13.584 -1.4590 -3.2471 -0.7745
 4623SOL    HW225506   3.291   4.060  13.718 -1.0294  0.8115 -0.2172
 4624SOL     OW25507   3.689   0.246   4.040 -0.3352 -0.3747 -0.7069
 4624SOL    HW125508   3.716   0.251   3.948 -0.3900  0.2905 -0.6874
 4624SOL    HW225509   3.605   0.292   4.031 -0.3607 -0.2163  0.4205
 4625SOL     OW25510   3.036   1.490   1.838  0.3222 -0.2111  0.5630
 4625SOL    HW125511   3.066   1.516   1.752  0.0868 -1.0160  0.2339
 4625SOL    HW225512   3.049   1.395   1.838 -1.2023 -0.4023 -0.8241
 4626SOL     OW25513   2.239   4.721   3.674 -0.0528  0.1839  0.0644
 4626SOL    HW125514   2.169   0.042   3.697 -0.1786  0.3962 -0.8997
 4626SOL    HW225515   2.211   4.696   3.587 -1.5441  1.9513  0.0477
 4627SOL     OW25516   0.632   3.188   8.606 -0.5335 -0.2270 -0.6415
 4627SOL    HW125517   0.578   3.263   8.580  0.9094  1.0694  0.0628
 4627SOL    HW225518   0.677   3.213   8.687  1.9390 -2.0415 -1.4733
 4628SOL     OW25519   4.367   0.567  11.924 -0.7378 -0.5274 -0.1246
 4628SOL    HW125520   4.398   0.606  12.005  0.9454 -2.0265 -0.0481
 4628SOL    HW225521   4.335   0.481  11.953 -0.1911 -0.9181 -0.6939
 4629SOL     OW25522   0.584   3.216   3.842 -0.1051 -0.4305  0.5946
 4629SOL    HW125523   0.633   3.293   3.869  0.3805 -1.0435  1.4244
 4629SOL    HW225524   0.598   3.214   3.747 -1.8461 -0.8762  0.3413
 4630SOL     OW25525   0.979   0.699   7.964  0.2364 -0.3746  0.2286
 4630SOL    HW125526   0.929   0.761   7.911  0.8293  1.2293  1.5174
 4630SOL    HW225527   1.049   0.758   7.993  0.4789  0.0507 -1.2629
 4631SOL     OW25528   2.302   0.684   9.455 -0.5228  0.4572  0.5466
 4631SOL    HW125529   2.206   0.677   9.456 -0.4909  0.2009  1.3612
 4631SOL    HW225530   2.308   0.659   9.547  3.0220 -1.3443 -0.1847
 4632SOL     OW25531   1.352   0.452  13.550  0.5985  0.0701  0.2138
 4632SOL    HW125532   1.264   0.433  13.518  0.8059  1.1885 -1.0413
 4632SOL    HW225533   1.394   0.366  13.541  1.0701  0.1764  1.3006
 4633SOL     OW25534   1.508   4.054   2.027 -0.6222  0.0104  0.5067
 4633SOL    HW125535   1.453   4.132   2.019 -0.0554  0.4358  0.7652
 4633SOL    HW225536   1.442   3.985   2.013 -0.0612 -0.7112  1.4664
 4634SOL     OW25537   2.336   3.306   7.067  0.2497  0.0202 -0.1789
 4634SOL    HW125538   2.409   3.330   7.009  1.2305  0.4305  1.2443
 4634SOL    HW225539   2.358   3.213   7.054 -2.2654 -0.5074 -0.5953
 4635SOL     OW25540   1.030   3.557   6.873  0.0165 -0.0296 -0.9256
 4635SOL    HW125541   0.959   3.619   6.886 -0.7682 -1.2525  0.5490
 4635SOL    HW225542   1.027   3.513   6.957 -1.4873  0.6641 -0.6097
 4636SOL     OW25543   0.814   2.539   8.816 -0.5103 -0.8104 -0.5580
 4636SOL    HW125544   0.871   2.473   8.775  0.2882 -0.4038 -0.0923
 4636SOL    HW225545   0.876   2.612   8.813 -0.7773 -0.5404  0.5512
 4637SOL     OW25546   4.404   2.387   7.582 -0.1565 -0.4760  0.2193
 4637SOL    HW125547   4.351   2.343   7.515 -2.4484  1.5860  0.6681
 4637SOL    HW225548   4.412   2.307   7.634  2.1131 -0.5501 -0.2396
 4638SOL     OW25549   0.524   3.859   1.686  0.4233 -0.2878  0.3072
 4638SOL    HW125550   0.612   3.898   1.682  1.6081 -2.7648  1.6720
 4638SOL    HW225551   0.547   3.768   1.669 -0.2614 -0.1682 -1.2094
 4639SOL     OW25552   2.927   3.990  11.559 -0.0981  0.0107 -0.8000
 4639SOL    HW125553   2.961   4.065  11.607  1.1234 -0.4541 -0.9384
 4639SOL    HW225554   2.932   3.927  11.631  1.3568  1.3693  0.2716
 4640SOL     OW25555   2.793   3.146   1.385 -0.0192 -0.2540  0.4246
 4640SOL    HW125556   2.762   3.095   1.460  0.2751  0.3292  0.9469
 4640SOL    HW225557   2.736   3.223   1.393  0.8136  0.2102  1.8855
 4641SOL     OW25558   1.575   1.386   3.610  0.0778  0.3929  0.0933
 4641SOL    HW125559   1.637   1.412   3.543  1.1769  0.7644  1.2537
 4641SOL    HW225560   1.497   1.440   3.595  1.2893  1.5265 -2.0329
 4642SOL     OW25561   3.966   1.148  14.051 -0.5304 -0.4832  0.2233
 4642SOL    HW125562   4.043   1.191  14.012  0.6528 -4.0018 -1.2858
 4642SOL    HW225563   4.012   1.115  14.128 -1.8134 -2.4253  0.1460
 4643SOL     OW25564   1.811   2.487  10.691 -0.1590  0.1837  0.8774
 4643SOL    HW125565   1.777   2.534  10.614  1.1406  0.2820  0.3613
 4643SOL    HW225566   1.888   2.543  10.691 -0.1552  0.2044 -4.2654
 4644SOL     OW25567   1.256   0.563  17.724 -0.5892  0.3947  0.0319
 4644SOL    HW125568   1.176   0.522  17.692 -0.6396  2.2842 -2.3012
 4644SOL    HW225569   1.308   0.558  17.644  0.3597 -0.2234  0.6877
 4645SOL     OW25570   0.119   3.230   4.408  0.2976  1.3004 -0.5232
 4645SOL    HW125571   0.204   3.211   4.368  0.9467  0.8174  1.0577
 4645SOL    HW225572   0.060   3.190   4.344 -2.8672  1.6075  2.2050
 4646SOL     OW25573   2.279   2.562   2.904 -0.0485  0.0987 -0.8967
 4646SOL    HW125574   2.282   2.635   2.841  1.6400  2.7246  2.2431
 4646SOL    HW225575   2.356   2.580   2.958 -0.6951 -1.0027  0.3516
 4647SOL     OW25576   2.107   1.179   7.311  0.1420 -0.9902 -0.0090
 4647SOL    HW125577   2.089   1.261   7.265  1.4427 -1.4850 -1.4102
 4647SOL    HW225578   2.186   1.206   7.358  0.7670 -1.4034 -0.8159
 4648SOL     OW25579   1.336   4.519   4.793  0.5362 -0.5157 -0.4672
 4648SOL    HW125580   1.405   4.545   4.854  1.4817 -0.2230 -1.6524
 4648SOL    HW225581   1.321   4.431   4.826  1.2025 -0.2169  0.6641
 4649SOL     OW25582   4.292   2.981   2.109  0.2228  0.0055 -0.7165
 4649SOL    HW125583   4.256   3.062   2.145  0.4664 -0.5799  0.8817
 4649SOL    HW225584   4.386   2.980   2.128 -0.3941  0.7041  2.4731
 4650SOL     OW25585   2.341   3.619   5.391 -0.1532 -0.2349  0.2111
 4650SOL    HW125586   2.298   3.670   5.460  0.6670  1.6718 -0.6979
 4650SOL    HW225587   2.358   3.692   5.332  1.4752  0.1356  1.1522
 4651SOL     OW25588   1.849   0.590  16.168 -0.3096 -0.0398 -0.3898
 4651SOL    HW125589   1.767   0.630  16.197 -1.3482 -2.8503  0.5176
 4651SOL    HW225590   1.844   0.588  16.073  1.1830  1.1857 -0.4891
 4652SOL     OW25591   2.891   4.606  13.757 -0.0873 -0.4514 -0.2450
 4652SOL    HW125592   2.873   4.626  13.666 -1.0744  2.6929  0.6479
 4652SOL    HW225593   2.987   4.613  13.762 -0.0079 -0.5316 -1.7948
 4653SOL     OW25594   1.624   0.433   0.157 -0.0063 -0.6122 -0.0797
 4653SOL    HW125595   1.570   0.379   0.100 -0.0802  0.3800 -0.9585
 4653SOL    HW225596   1.586   0.520   0.142  0.7763 -0.5057 -1.4018
 4654SOL     OW25597   3.558   2.362   1.382  0.1608  0.8818  0.2765
 4654SOL    HW125598   3.495   2.303   1.424 -1.0894  0.4369 -2.2457
 4654SOL    HW225599   3.551   2.434   1.445  3.5805  2.2023 -0.8625
 4655SOL     OW25600   1.821   4.661   2.346 -0.3102  0.2573  0.2308
 4655SOL    HW125601   1.761   4.610   2.292 -2.7205  2.7630  0.5133
 4655SOL    HW225602   1.868   4.704   2.274 -0.7716  0.4771  0.0597
 4656SOL     OW25603   4.720   4.146   4.288 -0.2887 -0.2958 -0.1100
 4656SOL    HW125604   0.066   4.166   4.252  0.3985 -0.6713  1.3733
 4656SOL    HW225605   0.003   4.076   4.349 -1.8001 -0.4223  0.3302
 4657SOL     OW25606   1.430   0.914  15.054 -0.7992  0.2235 -0.3181
 4657SOL    HW125607   1.509   0.861  15.053  0.7126  2.4603  0.5085
 4657SOL    HW225608   1.469   0.998  15.079 -0.9020 -0.2516  1.3733
 4658SOL     OW25609   0.951   2.303   6.790 -0.0662  0.2679 -0.4972
 4658SOL    HW125610   0.893   2.379   6.792 -2.4077 -1.4755 -2.0692
 4658SOL    HW225611   1.033   2.333   6.750  1.5498 -0.4954  2.2519
 4659SOL     OW25612   2.638   0.051   5.531  0.3884 -0.5474 -0.8864
 4659SOL    HW125613   2.564   0.112   5.532  1.3265  0.5803  0.0216
 4659SOL    HW225614   2.637   0.005   5.447 -0.4322  0.0467 -1.2028
 4660SOL     OW25615   3.306   0.844  14.638 -0.7760  0.0802 -0.1016
 4660SOL    HW125616   3.375   0.868  14.576  0.8284  0.5414  1.8673
 4660SOL    HW225617   3.282   0.928  14.679 -1.1657 -0.7816  1.4158
 4661SOL     OW25618   4.442   1.450   5.746  0.3181 -0.2793  0.0048
 4661SOL    HW125619   4.467   1.421   5.834 -0.1738  1.3507  0.6748
 4661SOL    HW225620   4.375   1.386   5.723 -0.0556 -0.3213  1.2174
 4662SOL     OW25621   4.402   2.290   5.235  0.6946 -0.1990 -0.5983
 4662SOL    HW125622   4.355   2.290   5.152  0.2072  2.3323 -0.3164
 4662SOL    HW225623   4.483   2.246   5.209  0.9952  2.5356 -4.2024
 4663SOL     OW25624   0.283   4.376  14.287 -0.1713 -0.8541 -0.3506
 4663SOL    HW125625   0.213   4.440  14.273 -1.7055 -2.6822 -1.0230
 4663SOL    HW225626   0.270   4.361  14.381  0.9201 -0.2165 -0.0958
 4664SOL     OW25627   2.276   2.749   2.707  0.1612 -0.0836  0.0451
 4664SOL    HW125628   2.313   2.721   2.623  0.5186  0.0358  0.1624
 4664SOL    HW225629   2.207   2.812   2.688  0.8887  0.5751 -0.4169
 4665SOL     OW25630   3.952   4.135   8.113  0.1184 -0.4793 -0.3058
 4665SOL    HW125631   3.995   4.169   8.191 -0.3082  0.7663 -0.6099
 4665SOL    HW225632   3.952   4.212   8.055  2.5315 -0.3663 -0.1465
 4666SOL     OW25633   1.677   0.291   4.632  0.2426  0.1707  0.1796
 4666SOL    HW125634   1.753   0.321   4.681 -0.3348  0.4916  0.8883
 4666SOL    HW225635   1.657   0.375   4.592  2.1855  0.8975  0.7489
 4667SOL     OW25636   4.461   1.755   4.282  0.2117 -0.6511  0.0727
 4667SOL    HW125637   4.450   1.686   4.347  0.0931 -0.8024 -0.1106
 4667SOL    HW225638   4.393   1.734   4.218  2.8883 -2.4036 -2.1800
 4668SOL     OW25639   0.380   2.796  11.383  0.3811  0.2040 -0.2286
 4668SOL    HW125640   0.451   2.858  11.364  1.2192 -0.3305  1.2203
 4668SOL    HW225641   0.428   2.730  11.433 -0.1346 -0.3303 -0.4466
 4669SOL     OW25642   3.486   3.740  12.928  0.7041 -0.0961 -0.0660
 4669SOL    HW125643   3.415   3.691  12.971  0.1914  0.9008  0.2301
 4669SOL    HW225644   3.558   3.688  12.964 -0.5744 -0.6951  1.6815
 4670SOL     OW25645   1.142   0.933   2.039 -0.1017 -0.0336  0.0318
 4670SOL    HW125646   1.116   0.981   2.117  2.4686 -2.3298  2.3189
 4670SOL    HW225647   1.226   0.976   2.024 -0.4828  0.0535 -1.8300
 4671SOL     OW25648   4.029   4.659  16.181 -0.0356 -0.1229 -0.5440
 4671SOL    HW125649   3.961   4.591  16.172 -0.2619 -0.0366  0.5150
 4671SOL    HW225650   4.025   4.659  16.276  1.3219 -0.2589 -0.4918
 4672SOL     OW25651   1.219   2.935   1.661 -0.1334 -0.0578  0.3185
 4672SOL    HW125652   1.224   2.954   1.754  0.2710  1.9935 -0.1149
 4672SOL    HW225653   1.132   2.967   1.640  0.1094  0.5755  0.2721
 4673SOL     OW25654   2.683   4.280   9.473  0.3641  0.8863  0.0054
 4673SOL    HW125655   2.640   4.366   9.465 -3.1049 -0.9748 -1.5865
 4673SOL    HW225656   2.740   4.275   9.396  0.6067  2.5391  0.0808
 4674SOL     OW25657   2.647   2.216   2.695 -0.2007 -0.1149  0.4353
 4674SOL    HW125658   2.730   2.245   2.731 -1.1158  0.9403  1.7037
 4674SOL    HW225659   2.606   2.297   2.665  1.3254  0.5968  0.3051
 4675SOL     OW25660   1.833   3.935   3.804 -0.1791 -0.3135  0.1693
 4675SOL    HW125661   1.778   3.907   3.877 -1.9607 -2.3413 -1.9490
 4675SOL    HW225662   1.802   4.025   3.795 -1.3017 -0.8446 -1.3263
 4676SOL     OW25663   4.566   0.871   4.882  0.5381 -0.3018  0.4606
 4676SOL    HW125664   4.642   0.838   4.833  2.5305  0.6402  2.9389
 4676SOL    HW225665   4.511   0.794   4.894 -1.4505  0.7013 -2.2751
 4677SOL     OW25666   4.040   2.036   3.632  0.2641 -0.1362 -0.3152
 4677SOL    HW125667   4.020   2.104   3.696  2.2158  0.9298 -0.8469
 4677SOL    HW225668   4.134   2.051   3.637  0.0858  0.9771 -0.3427
 4678SOL     OW25669   3.331   4.529   3.657  0.0745 -0.0790  0.3193
 4678SOL    HW125670   3.255   4.569   3.615  0.0158 -2.2701 -1.6592
 4678SOL    HW225671   3.363   4.595   3.719  0.8614  0.4583 -0.6464
 4679SOL     OW25672   3.884   3.292   2.978 -0.6406 -0.3154  0.1555
 4679SOL    HW125673   3.954   3.233   2.951 -1.1901 -1.1779  0.6054
 4679SOL    HW225674   3.883   3.276   3.072 -1.5189  1.0214  0.3616
 4680SOL     OW25675   2.465   0.467  14.565  0.0754 -0.3668  0.1835
 4680SOL    HW125676   2.391   0.414  14.594 -1.0353  1.5697  0.8698
 4680SOL    HW225677   2.426   0.547  14.530 -1.0067 -1.3171 -0.7736
 4681SOL     OW25678   0.585   3.605   1.606  0.2772  0.0234  0.8366
 4681SOL    HW125679   0.671   3.564   1.618 -0.6448 -1.8435  0.9995
 4681SOL    HW225680   0.555   3.527   1.559  0.0141  1.3018 -1.1431
 4682SOL     OW25681   1.510   1.673   7.936 -0.6417  0.7704  0.4361
 4682SOL    HW125682   1.496   1.766   7.952  0.6206  0.5504  2.7694
 4682SOL    HW225683   1.528   1.638   8.023  0.2755 -1.1910 -0.5280
 4683SOL     OW25684   3.870   1.928  17.031 -0.4975  0.5475  0.0452
 4683SOL    HW125685   3.858   1.833  17.023  0.0542  0.6510 -1.9284
 4683SOL    HW225686   3.905   1.935  17.120 -0.7100  0.0430  0.1693
 4684SOL     OW25687   0.733   1.915   4.165  0.3943 -0.7473 -0.0117
 4684SOL    HW125688   0.807   1.928   4.106 -0.1573  0.7522 -0.3697
 4684SOL    HW225689   0.696   1.838   4.120 -0.9554  0.6242 -1.2578
 4685SOL     OW25690   4.149   3.860   4.226 -0.3111  0.1873 -0.3895
 4685SOL    HW125691   4.161   3.928   4.160 -0.2710  1.7044  1.1943
 4685SOL    HW225692   4.142   3.788   4.163  0.0971 -0.5415  0.3973
 4686SOL     OW25693   3.757   1.315   7.023 -0.1165 -0.1662  0.4186
 4686SOL    HW125694   3.731   1.390   7.077  3.3717  0.9146  0.5969
 4686SOL    HW225695   3.769   1.251   7.093  2.5697  0.6439  0.7105
 4687SOL     OW25696   3.651   3.030   7.945 -0.3772 -0.2107  0.2010
 4687SOL    HW125697   3.580   3.091   7.965  0.5280  0.8724  0.1171
 4687SOL    HW225698   3.733   3.072   7.969  0.3344 -0.9335 -1.0000
 4688SOL     OW25699   3.339   1.721   5.660  0.1297 -0.4261  0.0841
 4688SOL    HW125700   3.271   1.736   5.595  1.3410  2.5495 -0.5493
 4688SOL    HW225701   3.367   1.810   5.685  0.9637 -0.2769 -1.4164
 4689SOL     OW25702   4.112   2.055   5.009  0.2672 -0.0966 -0.4429
 4689SOL    HW125703   4.042   2.066   5.073  0.1704  0.1192 -0.5886
 4689SOL    HW225704   4.065   2.016   4.936 -1.2625 -0.9810  1.0294
 4690SOL     OW25705   3.127   1.493   4.213  0.0039 -0.5467  0.1722
 4690SOL    HW125706   3.169   1.556   4.153  0.6220 -1.7824 -0.6980
 4690SOL    HW225707   3.185   1.500   4.289 -0.2116  1.0528  0.1905
 4691SOL     OW25708   0.440   0.669  11.890 -0.3422 -0.1748  0.5110
 4691SOL    HW125709   0.439   0.758  11.854  0.8936 -0.0983  0.6580
 4691SOL    HW225710   0.387   0.688  11.967 -0.1632 -1.1905  0.8788
 4692SOL     OW25711   1.893   2.942   3.729 -0.5602  0.1580  0.0500
 4692SOL    HW125712   1.841   3.013   3.691  0.8288  1.3312  0.3362
 4692SOL    HW225713   1.959   2.932   3.661  0.3293 -0.8584  1.0700
 4693SOL     OW25714   3.992   3.685   5.855  0.4003  0.0573 -0.5578
 4693SOL    HW125715   4.065   3.658   5.799  0.1225 -0.6150 -0.6031
 4693SOL    HW225716   3.933   3.714   5.785 -1.1116  0.0434  0.7097
 4694SOL     OW25717   1.907   1.978   2.330 -0.6857 -0.2979  0.3892
 4694SOL    HW125718   1.967   2.010   2.399  0.5781  1.2225 -1.4198
 4694SOL    HW225719   1.921   2.047   2.265  0.5724  0.9576  1.9452
 4695SOL     OW25720   0.756   2.089   5.212  0.3068 -0.1996 -0.5199
 4695SOL    HW125721   0.741   1.994   5.205 -0.4824 -0.0337 -1.0881
 4695SOL    HW225722   0.827   2.097   5.275 -1.9481  0.4456  1.9748
 4696SOL     OW25723   1.185   3.656   2.885  0.1961 -0.0934  0.4000
 4696SOL    HW125724   1.224   3.667   2.798  1.0438  1.3521  0.9774
 4696SOL    HW225725   1.226   3.578   2.921 -0.9981 -0.3541  1.1748
 4697SOL     OW25726   1.217   3.577   3.921 -0.0107  0.0146  0.0027
 4697SOL    HW125727   1.278   3.600   3.991 -1.7570  2.2119  0.7974
 4697SOL    HW225728   1.203   3.658   3.872  0.7080  0.2118  0.1295
 4698SOL     OW25729   3.946   1.700  14.680 -0.0320 -0.5095  0.2695
 4698SOL    HW125730   3.854   1.690  14.702 -0.8693 -1.0700 -3.4574
 4698SOL    HW225731   3.954   1.605  14.664  0.2745 -0.2561 -1.1413
 4699SOL     OW25732   3.229   3.568   1.297  0.9256 -0.4571 -0.2048
 4699SOL    HW125733   3.178   3.628   1.351  0.3786 -1.5251  0.4854
 4699SOL    HW225734   3.261   3.631   1.233  0.3732 -0.5987 -0.6244
 4700SOL     OW25735   4.214   1.751   3.083  1.0168  0.7493  0.3459
 4700SOL    HW125736   4.211   1.754   2.987  2.6934 -0.2832  0.2686
 4700SOL    HW225737   4.307   1.753   3.103  0.8396 -0.9944  1.3138
 4701SOL     OW25738   3.494   0.303   2.260  0.4762  0.5047 -0.2387
 4701SOL    HW125739   3.481   0.213   2.228 -1.5066  1.3406 -1.8012
 4701SOL    HW225740   3.481   0.354   2.180  2.1543  1.0006 -0.1884
 4702SOL     OW25741   2.520   2.547   3.031 -0.6047 -0.3669 -0.3009
 4702SOL    HW125742   2.541   2.457   3.056 -0.4748  0.3274  2.1027
 4702SOL    HW225743   2.590   2.559   2.968  0.4848 -0.7897  0.8290
 4703SOL     OW25744   3.561   0.064   7.791  0.3418 -0.4349  0.1658
 4703SOL    HW125745   3.546   4.710   7.787 -1.4425 -0.0614 -1.5263
 4703SOL    HW225746   3.530   0.090   7.878 -1.6710  0.8437 -0.9399
 4704SOL     OW25747   4.063   4.704   7.070 -0.2806 -0.2046  0.0215
 4704SOL    HW125748   4.076   4.616   7.106 -3.4164  0.1317  2.0007
 4704SOL    HW225749   4.106   0.019   7.134 -1.1099 -2.1637  2.3041
 4705SOL     OW25750   1.519   1.716   8.235  0.3384  0.5236 -0.3690
 4705SOL    HW125751   1.527   1.810   8.218 -2.5146  1.0733  1.4053
 4705SOL    HW225752   1.591   1.697   8.296 -0.6502  3.0875  1.5785
 4706SOL     OW25753   4.548   4.271   7.087 -0.4167 -0.4994  0.5420
 4706SOL    HW125754   4.612   4.242   7.022  0.9419 -0.4221  1.8529
 4706SOL    HW225755   4.479   4.295   7.025  0.0497  0.9249  0.5877
 4707SOL     OW25756   1.355   1.666  15.242  0.0479  0.3791 -0.1211
 4707SOL    HW125757   1.265   1.697  15.232 -0.1531 -0.0912  0.2101
 4707SOL    HW225758   1.361   1.615  15.162 -0.1404  0.9345 -0.4879
 4708SOL     OW25759   1.878   0.862   2.891 -0.5950 -0.0905 -0.1365
 4708SOL    HW125760   1.786   0.878   2.912 -0.6328 -0.1446 -0.2576
 4708SOL    HW225761   1.877   0.835   2.799 -3.1513 -0.8163  0.1023
 4709SOL     OW25762   3.616   1.876   7.074 -0.5220 -0.2100 -0.1090
 4709SOL    HW125763   3.621   1.877   6.979 -1.8492 -1.3354 -0.1851
 4709SOL    HW225764   3.676   1.950   7.088 -1.3314  0.3575  0.3737
 4710SOL     OW25765   3.156   2.761  11.849  0.4191  0.1544  0.2968
 4710SOL    HW125766   3.130   2.778  11.940 -1.1445 -0.1041 -0.0993
 4710SOL    HW225767   3.173   2.667  11.848  0.5036  0.1644  0.6234
 4711SOL     OW25768   0.727   0.499   5.422  0.4061 -0.1472 -0.0907
 4711SOL    HW125769   0.782   0.577   5.428  1.1699 -0.7550  0.8668
 4711SOL    HW225770   0.746   0.462   5.335  0.5135  0.5356 -0.3540
 4712SOL     OW25771   1.905   1.925   4.901  0.1554  0.1021 -0.2772
 4712SOL    HW125772   1.931   1.841   4.863  0.1839 -0.1036  0.2066
 4712SOL    HW225773   1.909   1.985   4.826 -1.5682  0.2658 -0.2385
 4713SOL     OW25774   1.164   3.934   2.482 -0.0695  0.2027  0.0486
 4713SOL    HW125775   1.186   4.016   2.437  0.7270 -0.4822 -0.8165
 4713SOL    HW225776   1.090   3.901   2.431 -1.6392  0.7589  1.9518
 4714SOL     OW25777   3.190   2.355   2.662 -0.0123 -0.4353 -0.7670
 4714SOL    HW125778   3.156   2.268   2.681 -2.1215  0.5911  0.1350
 4714SOL    HW225779   3.280   2.339   2.635 -0.6546 -0.2816 -2.9368
 4715SOL     OW25780   3.483   1.632   7.179 -0.2059 -0.2685  0.3164
 4715SOL    HW125781   3.509   1.714   7.136 -1.7950 -0.2274 -0.5550
 4715SOL    HW225782   3.441   1.585   7.108  2.4560 -0.0546 -1.4198
 4716SOL     OW25783   3.544   2.552   8.484 -0.1874  0.2393  0.4764
 4716SOL    HW125784   3.605   2.599   8.540  0.3924 -1.4825  1.2816
 4716SOL    HW225785   3.482   2.511   8.545  1.4393 -2.5519  0.2530
 4717SOL     OW25786   3.977   0.895   3.585 -0.6273 -0.7011  0.2667
 4717SOL    HW125787   3.894   0.909   3.540  1.3420  1.5336 -2.6963
 4717SOL    HW225788   3.939   0.876   3.670  0.6717 -0.4431  0.8996
 4718SOL     OW25789   1.966   0.623   7.151 -0.2002  0.4162 -0.1121
 4718SOL    HW125790   2.056   0.616   7.119 -1.2343 -2.9799 -2.2587
 4718SOL    HW225791   1.912   0.569   7.094  0.5859  0.1320 -0.5842
 4719SOL     OW25792   3.191   1.604   3.495 -0.0347  0.1181  0.1376
 4719SOL    HW125793   3.147   1.520   3.504  0.0783  0.1533  1.0783
 4719SOL    HW225794   3.246   1.575   3.423  1.2064  2.7788  0.0030
 4720SOL     OW25795   2.215   0.167  16.470 -0.0124 -0.8251  0.0083
 4720SOL    HW125796   2.173   0.228  16.530  0.4248 -0.8177  0.3038
 4720SOL    HW225797   2.273   0.227  16.423 -0.0689 -1.8436 -1.3686
 4721SOL     OW25798   1.570   1.177   7.355 -1.2570 -0.0889 -0.5440
 4721SOL    HW125799   1.609   1.198   7.440  0.7593  1.1791 -1.7605
 4721SOL    HW225800   1.602   1.251   7.303  2.0365 -0.8653  0.3329
 4722SOL     OW25801   0.980   3.652   8.980  0.6350  0.0391  0.1082
 4722SOL    HW125802   1.051   3.708   9.011  3.0343 -2.2829 -1.1075
 4722SOL    HW225803   0.963   3.682   8.891  1.3347  1.4683  0.4678
 4723SOL     OW25804   3.052   0.773   5.812 -0.5150  0.5097  0.1548
 4723SOL    HW125805   3.107   0.851   5.806 -0.5505  0.7238  2.4617
 4723SOL    HW225806   2.962   0.799   5.794 -0.7849 -0.4343  0.1203
 4724SOL     OW25807   3.616   0.629   5.329 -0.3201 -0.3412  0.5941
 4724SOL    HW125808   3.637   0.568   5.258  2.1999  1.8466 -0.5593
 4724SOL    HW225809   3.635   0.714   5.290 -0.1061 -0.9250 -0.5618
 4725SOL     OW25810   4.548   3.888   6.431  0.1919  0.9494  0.2527
 4725SOL    HW125811   4.471   3.836   6.454  0.1759  1.1937  0.7459
 4725SOL    HW225812   4.503   3.948   6.371 -0.9106 -0.6032 -0.4641
 4726SOL     OW25813   4.532   1.315   8.099  0.1989 -1.2595  0.1896
 4726SOL    HW125814   4.473   1.373   8.148  1.6652 -1.0225  1.6594
 4726SOL    HW225815   4.572   1.386   8.050 -0.0247 -0.5956  0.9705
 4727SOL     OW25816   3.977   2.659   9.245  0.4394 -0.1481  0.3748
 4727SOL    HW125817   3.994   2.710   9.324 -3.0518  0.6536  0.6177
 4727SOL    HW225818   4.031   2.582   9.259 -0.4110 -0.5864  1.2548
 4728SOL     OW25819   1.501   3.796   8.996  1.2223  0.1963 -0.6664
 4728SOL    HW125820   1.592   3.809   9.023  1.1486 -1.4492  0.3025
 4728SOL    HW225821   1.491   3.724   9.058  0.8790  0.9248  0.1167
 4729SOL     OW25822   0.601   3.393  15.898 -0.3685  0.1401 -0.5163
 4729SOL    HW125823   0.576   3.485  15.903 -1.2291  0.0501 -3.6109
 4729SOL    HW225824   0.545   3.358  15.968  2.4059 -3.1570  0.0332
 4730SOL     OW25825   1.996   0.963   2.069  0.0595 -0.6375 -0.4246
 4730SOL    HW125826   1.908   0.928   2.056 -0.5352  0.7957 -0.3114
 4730SOL    HW225827   2.042   0.895   2.117  1.8016  1.5345  0.9742
 4731SOL     OW25828   4.140   1.649   6.698 -0.9208  0.2599  0.3574
 4731SOL    HW125829   4.214   1.607   6.742  0.7912  3.3756  0.4346
 4731SOL    HW225830   4.180   1.716   6.643 -1.9984 -0.5858 -1.4624
 4732SOL     OW25831   4.268   3.366   1.929  0.2267 -0.3597 -0.8608
 4732SOL    HW125832   4.175   3.356   1.911  0.1128 -2.1719  0.7362
 4732SOL    HW225833   4.264   3.440   1.990 -1.4857 -1.3962  0.2690
 4733SOL     OW25834   1.252   3.133   1.868 -0.0214  0.0793 -0.5250
 4733SOL    HW125835   1.267   3.153   1.775 -0.6115 -2.4649 -1.1900
 4733SOL    HW225836   1.340   3.132   1.906 -0.8408  0.4216  1.3496
 4734SOL     OW25837   2.205   2.543   2.259  0.1479 -0.2031  0.0801
 4734SOL    HW125838   2.200   2.611   2.191  0.5527  0.1266  0.3732
 4734SOL    HW225839   2.124   2.495   2.243  0.3166 -0.1276 -0.9766
 4735SOL     OW25840   1.873   0.102   8.479 -0.2166 -0.5007  0.1608
 4735SOL    HW125841   1.965   0.116   8.500 -0.9487  2.6122  1.3406
 4735SOL    HW225842   1.878   0.026   8.420  1.9660 -0.2206 -0.0102
 4736SOL     OW25843   4.609   3.890   4.880 -0.2924  0.4349 -0.3294
 4736SOL    HW125844   4.650   3.972   4.906 -1.2784  0.5013  0.9907
 4736SOL    HW225845   4.604   3.837   4.959 -0.0893  1.7252  0.5441
 4737SOL     OW25846   1.800   3.690   7.139  0.2196  0.5243 -0.8787
 4737SOL    HW125847   1.887   3.666   7.171 -0.1558  1.7695  1.0839
 4737SOL    HW225848   1.771   3.739   7.215 -1.6214 -1.5225 -0.2489
 4738SOL     OW25849   3.896   2.951  10.062  0.6507  0.1554 -0.3949
 4738SOL    HW125850   3.915   2.978   9.972 -0.4184 -0.6893 -0.8811
 4738SOL    HW225851   3.981   2.916  10.087 -0.4063 -2.6243 -0.6645
 4739SOL     OW25852   3.431   0.012  12.519  0.6525  0.1681 -0.2120
 4739SOL    HW125853   3.518   4.736  12.555  0.5888  1.4517  0.5285
 4739SOL    HW225854   3.396   0.088  12.566 -1.4676 -0.6533 -0.4387
 4740SOL     OW25855   1.834   2.555  10.126  0.7635  0.1090  0.1816
 4740SOL    HW125856   1.842   2.547  10.030 -0.2146 -0.9393  0.1869
 4740SOL    HW225857   1.926   2.559  10.154  1.0427 -1.1031 -0.5356
 4741SOL     OW25858   1.186   0.745   8.441  0.1868 -0.0820 -0.1423
 4741SOL    HW125859   1.093   0.764   8.453  1.0200  2.7824  1.4890
 4741SOL    HW225860   1.182   0.700   8.356 -1.3910 -0.8452  0.3399
 4742SOL     OW25861   2.209   3.924   8.467  0.0353 -0.8017 -0.6500
 4742SOL    HW125862   2.219   3.953   8.376  1.4691 -1.8232 -0.8206
 4742SOL    HW225863   2.135   3.863   8.466 -1.9914  1.6828 -1.5920
 4743SOL     OW25864   3.087   0.325   6.702 -0.4846 -0.2972 -0.5916
 4743SOL    HW125865   3.174   0.363   6.689  0.2754 -1.1697  2.0772
 4743SOL    HW225866   3.039   0.382   6.762  0.2500 -0.4302  0.1241
 4744SOL     OW25867   2.060   3.121   5.398 -0.2112  0.8293  0.2038
 4744SOL    HW125868   2.076   3.128   5.304  0.8828  1.0333  0.3998
 4744SOL    HW225869   2.075   3.211   5.426  1.6220 -0.2728  2.7789
 4745SOL     OW25870   0.494   0.241  15.427  0.1948 -0.3982 -0.0965
 4745SOL    HW125871   0.540   0.163  15.456  1.2709  0.5583  0.7473
 4745SOL    HW225872   0.563   0.306  15.442 -0.4545 -0.2808  2.2407
 4746SOL     OW25873   3.739   0.006   4.168  0.4659  0.4047  0.1174
 4746SOL    HW125874   3.735   0.097   4.138 -0.8043  0.0891 -0.6816
 4746SOL    HW225875   3.702   0.012   4.256  0.5166  1.0081  0.1016
 4747SOL     OW25876   3.310   2.361   7.944 -0.0644  0.6045 -0.5176
 4747SOL    HW125877   3.387   2.408   7.911 -0.2944 -1.1373 -3.5218
 4747SOL    HW225878   3.334   2.283   7.894 -2.6345 -0.7418  0.3922
 4748SOL     OW25879   3.681   1.280  13.768  0.4589 -0.4315 -0.1392
 4748SOL    HW125880   3.662   1.368  13.736  0.2648  0.0381  1.2921
 4748SOL    HW225881   3.739   1.240  13.703  0.2093 -0.0604 -0.5942
 4749SOL     OW25882   4.258   2.476   5.664 -0.4139  0.0403  0.1621
 4749SOL    HW125883   4.228   2.540   5.599 -0.2046 -0.4313 -0.3965
 4749SOL    HW225884   4.316   2.427   5.606  0.4712 -0.5827  1.5815
 4750SOL     OW25885   3.680   3.250   7.565  0.1604  0.4052 -0.3172
 4750SOL    HW125886   3.717   3.287   7.646  0.0564 -1.2804  0.4937
 4750SOL    HW225887   3.748   3.289   7.510  1.6138 -4.3283 -1.8643
 4751SOL     OW25888   4.213   3.283   1.392 -1.2619 -0.9146  0.0908
 4751SOL    HW125889   4.245   3.364   1.351 -1.4621 -1.1962 -0.6235
 4751SOL    HW225890   4.239   3.294   1.484 -1.1568  0.8074 -0.1418
 4752SOL     OW25891   1.584   2.624   5.219 -0.3224 -0.0216 -0.0306
 4752SOL    HW125892   1.576   2.651   5.128  0.4843  3.1412  0.8594
 4752SOL    HW225893   1.609   2.708   5.256 -1.0678 -0.3176  1.1333
 4753SOL     OW25894   3.543   3.489   2.419  0.0213 -0.4498 -0.4424
 4753SOL    HW125895   3.562   3.570   2.464  0.4550 -2.0005  2.1446
 4753SOL    HW225896   3.475   3.453   2.476  0.9866  0.9342  1.5395
 4754SOL     OW25897   2.670   1.058  10.282  0.1019  0.0867  0.1977
 4754SOL    HW125898   2.682   0.970  10.318  0.3339  0.6034  1.3816
 4754SOL    HW225899   2.724   1.106  10.345  0.0694  0.0466  0.2555
 4755SOL     OW25900   1.418   4.082   0.654 -0.4653  0.1429 -0.9410
 4755SOL    HW125901   1.352   4.036   0.706  0.7934  0.3197  0.8129
 4755SOL    HW225902   1.496   4.031   0.675 -0.6256  0.9901  1.5918
 4756SOL     OW25903   3.352   0.704  15.890  0.1753  0.3130 -0.2367
 4756SOL    HW125904   3.389   0.699  15.978 -0.8821 -0.6813  0.1424
 4756SOL    HW225905   3.376   0.616  15.861  1.4106  1.1858 -1.8849
 4757SOL     OW25906   2.062   3.983   2.454 -0.0753 -0.2911 -0.0885
 4757SOL    HW125907   1.990   3.982   2.390 -1.0017 -0.1570  0.9396
 4757SOL    HW225908   2.029   4.057   2.504 -0.3705 -1.1814  1.0323
 4758SOL     OW25909   2.319   4.378  16.873  0.3175  0.1822  0.6426
 4758SOL    HW125910   2.413   4.366  16.874  0.4044  0.8229  0.3291
 4758SOL    HW225911   2.284   4.324  16.802  0.6171  0.4370  0.3033
 4759SOL     OW25912   4.676   2.054   7.642 -0.1783 -0.1645  0.5376
 4759SOL    HW125913   4.712   2.114   7.577  0.8895 -1.0046  0.3633
 4759SOL    HW225914   4.729   1.975   7.631  0.1666  0.0998  0.3083
 4760SOL     OW25915   4.486   1.400  12.084 -0.2409  0.2486 -0.2870
 4760SOL    HW125916   4.456   1.410  12.175 -0.2116 -2.7006  0.0581
 4760SOL    HW225917   4.518   1.310  12.097 -0.8782  0.1634  0.6701
 4761SOL     OW25918   1.501   1.265   9.461  0.2185  0.1062 -0.1788
 4761SOL    HW125919   1.469   1.175   9.457  2.5582 -0.7970  1.4778
 4761SOL    HW225920   1.495   1.284   9.554  0.1682 -0.5854 -0.0355
 4762SOL     OW25921   4.734   0.983   8.652 -0.0458 -0.1452  0.0509
 4762SOL    HW125922   4.646   1.015   8.631  0.0434 -0.4533 -0.7807
 4762SOL    HW225923   0.017   1.046   8.721  1.1173  2.6378 -2.9038
 4763SOL     OW25924   3.054   2.532   8.733  0.4736 -0.4380  0.1829
 4763SOL    HW125925   3.076   2.517   8.825  1.0073  0.6475  0.2250
 4763SOL    HW225926   2.963   2.502   8.724  0.2397  0.5228 -0.6911
 4764SOL     OW25927   1.725   2.419   8.438  0.0009 -0.5019  0.0668
 4764SOL    HW125928   1.703   2.344   8.493  1.2186  0.8320  2.3750
 4764SOL    HW225929   1.759   2.483   8.500  1.1352 -2.6613  1.6999
 4765SOL     OW25930   3.560   1.245   8.535 -0.2321  0.1553 -0.2382
 4765SOL    HW125931   3.574   1.208   8.447 -2.5238  0.1880 -0.6392
 4765SOL    HW225932   3.637   1.298   8.552 -1.2844  2.9393 -4.0758
 4766SOL     OW25933   0.896   2.376   6.308 -0.2958  0.1392  0.2067
 4766SOL    HW125934   0.976   2.406   6.265 -0.0273 -1.4124 -0.3833
 4766SOL    HW225935   0.921   2.406   6.395  0.2831  2.0603 -0.6100
 4767SOL     OW25936   3.596   2.330   9.579 -0.3681 -0.1168  0.5341
 4767SOL    HW125937   3.642   2.346   9.496 -0.3908  0.2854  0.6028
 4767SOL    HW225938   3.538   2.405   9.592  0.0574  0.3781 -0.4120
 4768SOL     OW25939   3.033   1.788   6.226 -0.1459  0.1435 -0.1505
 4768SOL    HW125940   2.987   1.750   6.151  1.1189 -4.7383  1.5394
 4768SOL    HW225941   3.124   1.773   6.200  0.5176  1.4291  1.4545
 4769SOL     OW25942   2.428   3.640   4.546 -0.4197 -0.3544 -0.1757
 4769SOL    HW125943   2.483   3.594   4.484 -0.0691 -1.5353  1.0014
 4769SOL    HW225944   2.377   3.692   4.484 -0.2265 -1.6284 -1.4092
 4770SOL     OW25945   0.417   4.612   3.092 -0.3269  0.7806 -0.8171
 4770SOL    HW125946   0.439   4.559   3.016 -1.9742 -0.1932 -0.6146
 4770SOL    HW225947   0.351   4.673   3.058  0.1752  2.3067  0.9303
 4771SOL     OW25948   1.324   1.940   3.467 -0.2525  0.0877  0.1071
 4771SOL    HW125949   1.229   1.950   3.473 -0.1986 -0.0654  1.2469
 4771SOL    HW225950   1.321   1.865   3.407 -0.9167  0.5110 -0.3784
 4772SOL     OW25951   2.302   0.644  14.379  0.1784 -0.1517 -0.6756
 4772SOL    HW125952   2.226   0.673  14.328 -1.0748 -0.7244  0.8908
 4772SOL    HW225953   2.344   0.573  14.330  1.4449 -0.8643  1.4743
 4773SOL     OW25954   4.688   0.654   0.067  0.6512  0.0377 -0.6949
 4773SOL    HW125955   4.722   0.575   0.025  0.0357  0.5488 -2.1710
 4773SOL    HW225956   4.718   0.724   0.010  0.6421  0.2474 -0.4424
 4774SOL     OW25957   0.692   1.273   3.872  0.5733  0.4409  0.0407
 4774SOL    HW125958   0.735   1.187   3.871 -2.7290 -1.1963  1.0614
 4774SOL    HW225959   0.760   1.330   3.835  0.9451 -0.4454 -0.6308
 4775SOL     OW25960   1.781   3.138   8.913 -0.2801  0.6861  0.3337
 4775SOL    HW125961   1.714   3.077   8.945 -1.2425 -0.3870 -3.6801
 4775SOL    HW225962   1.849   3.084   8.873 -0.8054 -0.0627  0.4512
 4776SOL     OW25963   1.970   0.812   3.426  0.2395  0.0727  0.1935
 4776SOL    HW125964   1.940   0.757   3.499 -1.3806  0.7076 -0.0046
 4776SOL    HW225965   1.920   0.783   3.350  0.5438  1.6891 -0.6200
 4777SOL     OW25966   4.307   1.034  15.132 -0.1781 -0.3658  0.0529
 4777SOL    HW125967   4.287   0.941  15.134  1.8386 -0.8089 -1.0843
 4777SOL    HW225968   4.312   1.060  15.040  1.8894  1.0481  0.5417
 4778SOL     OW25969   4.698   0.108   5.033  0.5611 -0.6182 -0.2184
 4778SOL    HW125970   4.603   0.094   5.027  0.2223  1.5737 -0.1714
 4778SOL    HW225971   4.722   0.034   5.087 -0.2770 -0.8668 -0.1853
 4779SOL     OW25972   3.877   3.975  12.920 -0.6992 -0.0863  0.6520
 4779SOL    HW125973   3.783   3.975  12.938 -0.8735 -0.0844 -0.2908
 4779SOL    HW225974   3.879   3.923  12.840 -2.3588 -0.8487  1.1126
 4780SOL     OW25975   1.344   3.227  16.218 -0.3383 -0.1392 -0.2023
 4780SOL    HW125976   1.387   3.170  16.281  0.1015  0.7462  0.2964
 4780SOL    HW225977   1.332   3.164  16.147  0.1881 -0.9762  0.4677
 4781SOL     OW25978   3.873   4.295   2.034  0.2419  0.4465 -0.0863
 4781SOL    HW125979   3.837   4.370   2.081 -1.4772  1.0825 -2.4222
 4781SOL    HW225980   3.793   4.277   1.984  0.5408  2.2958 -1.2469
 4782SOL     OW25981   1.681   3.060  14.495 -0.4043 -0.1844  0.6114
 4782SOL    HW125982   1.653   2.975  14.460  2.2934 -0.8162 -0.0058
 4782SOL    HW225983   1.687   3.119  14.420 -0.0758  0.9297  1.5246
 4783SOL     OW25984   0.646   2.243   9.474 -0.0992 -0.7620  0.3280
 4783SOL    HW125985   0.638   2.235   9.569  1.4553  0.3501  0.5510
 4783SOL    HW225986   0.741   2.249   9.469  0.0181 -0.9693  2.4332
 4784SOL     OW25987   1.758   4.227   6.015 -0.4897  0.3307 -0.1317
 4784SOL    HW125988   1.853   4.226   6.028 -0.4832  2.3819  0.0230
 4784SOL    HW225989   1.740   4.250   5.924  1.9848  2.7401 -0.0312
 4785SOL     OW25990   2.838   1.787   8.942 -0.0834  0.5369 -0.1934
 4785SOL    HW125991   2.863   1.764   8.852 -1.2021  4.1736 -1.4398
 4785SOL    HW225992   2.915   1.839   8.966 -0.7194  1.8085 -0.8993
 4786SOL     OW25993   1.074   2.176   8.029  0.2560 -0.2293 -0.0166
 4786SOL    HW125994   1.130   2.103   8.006 -0.5435 -0.8828  0.1070
 4786SOL    HW225995   1.011   2.174   7.957  1.1474 -0.5240 -0.7795
 4787SOL     OW25996   0.759   0.010   6.644 -0.1271 -0.1318  0.0186
 4787SOL    HW125997   0.828   4.689   6.617 -1.4384 -0.8440 -1.7362
 4787SOL    HW225998   0.765   0.079   6.578  0.8765 -1.1394 -0.9425
 4788SOL     OW25999   0.239   0.075   3.025  0.8251 -0.1542 -0.4147
 4788SOL    HW126000   0.217   0.066   2.932  0.3209  2.2337 -0.5308
 4788SOL    HW226001   0.190   0.155   3.041  1.1520  0.3890 -2.1831
 4789SOL     OW26002   1.236   1.328   6.192 -0.1596 -0.5857 -0.3994
 4789SOL    HW126003   1.188   1.388   6.250  1.2032 -0.1926  0.3343
 4789SOL    HW226004   1.234   1.251   6.248 -3.8450  0.2318  0.6531
 4790SOL     OW26005   4.410   0.790   2.127  0.3104  0.1615 -0.0065
 4790SOL    HW126006   4.402   0.719   2.064 -3.1705  2.1252 -1.8177
 4790SOL    HW226007   4.474   0.844   2.081  0.6577 -0.7309 -0.5794
 4791SOL     OW26008   1.189   1.503  10.864 -0.4331 -0.1410 -0.0550
 4791SOL    HW126009   1.172   1.423  10.813  0.5324  0.0227 -0.6298
 4791SOL    HW226010   1.180   1.563  10.790 -1.6018  0.3780  0.5123
 4792SOL     OW26011   2.135   1.021   9.287  0.3010  0.4041 -0.3376
 4792SOL    HW126012   2.114   0.935   9.323  0.5551  0.8093  0.8029
 4792SOL    HW226013   2.215   0.997   9.241 -0.4725  1.3101 -2.1361
 4793SOL     OW26014   0.233   0.044   7.375  0.1447  0.0126 -0.2544
 4793SOL    HW126015   0.305   0.014   7.431  2.2954  2.3673 -1.7292
 4793SOL    HW226016   0.182   0.090   7.443 -0.6688 -1.5084  0.1567
 4794SOL     OW26017   4.405   2.562   1.089 -0.1753 -0.3565  0.7474
 4794SOL    HW126018   4.412   2.563   1.185 -0.2801  0.3236  0.7422
 4794SOL    HW226019   4.412   2.656   1.075  0.3407 -0.8082 -1.9558
 4795SOL     OW26020   0.950   0.325  15.680  0.2538 -0.6473  0.6417
 4795SOL    HW126021   0.948   0.396  15.744 -1.5934  1.0365 -1.2698
 4795SOL    HW226022   1.040   0.296  15.697  1.0841  0.9152 -1.1215
 4796SOL     OW26023   2.498   0.017   3.154  0.1454 -0.5005  0.2064
 4796SOL    HW126024   2.478   0.047   3.243 -0.7315  0.8910 -0.4692
 4796SOL    HW226025   2.469   0.094   3.105 -1.8287  0.5898  3.0686
 4797SOL     OW26026   0.363   3.405   2.025 -0.4268 -0.2897  0.2093
 4797SOL    HW126027   0.418   3.446   1.958  0.4679 -0.1517  1.0327
 4797SOL    HW226028   0.344   3.323   1.979  2.3555 -0.5857 -0.4795
 4798SOL     OW26029   2.039   3.560   2.419  0.0976  0.5063  0.2880
 4798SOL    HW126030   1.971   3.621   2.390 -1.0670 -0.4718  0.9541
 4798SOL    HW226031   2.074   3.619   2.486 -0.0912  0.0977  0.7557
 4799SOL     OW26032   1.085   1.804   4.264  0.6737  0.1130 -0.3989
 4799SOL    HW126033   1.111   1.829   4.353 -0.7104  2.8605 -0.7667
 4799SOL    HW226034   1.012   1.745   4.285  1.2541 -1.5419 -3.0476
 4800SOL     OW26035   4.679   3.809   0.960 -0.2334 -0.0156 -0.6704
 4800SOL    HW126036   4.724   3.838   0.881 -1.6177 -1.0834 -1.8484
 4800SOL    HW226037   4.642   3.723   0.938 -2.5330  0.4932  1.1778
 4801SOL     OW26038   3.032   2.765   5.803  0.2257 -0.1510 -0.5024
 4801SOL    HW126039   3.054   2.856   5.782 -0.8442  0.0008 -0.9695
 4801SOL    HW226040   3.006   2.733   5.717  0.1971 -2.8630  0.5079
 4802SOL     OW26041   0.786   1.910   3.791  0.2053  0.0137  0.0659
 4802SOL    HW126042   0.822   1.879   3.874 -0.9531 -0.5885  0.3544
 4802SOL    HW226043   0.849   1.978   3.767 -1.5949  2.0529  1.0956
 4803SOL     OW26044   1.637   4.283   6.702 -0.0032  0.0395 -0.0305
 4803SOL    HW126045   1.650   4.331   6.784 -1.4825 -0.5198  0.5228
 4803SOL    HW226046   1.704   4.216   6.690  1.6084  1.4056  1.1896
 4804SOL     OW26047   4.183   1.343  15.616  0.2536  0.6281 -0.6445
 4804SOL    HW126048   4.261   1.391  15.644  0.7139 -0.7163  0.3640
 4804SOL    HW226049   4.122   1.417  15.616 -0.7602 -0.2106  3.7380
 4805SOL     OW26050   2.365   0.807   7.958  0.0821  0.2670  0.4301
 4805SOL    HW126051   2.413   0.785   7.878 -0.0018 -2.0182  1.0163
 4805SOL    HW226052   2.435   0.802   8.024  1.1272  0.8820 -0.6250
 4806SOL     OW26053   3.874   4.176   8.739 -0.5295  0.6762 -0.0718
 4806SOL    HW126054   3.778   4.177   8.738 -0.5541 -0.8734  0.0066
 4806SOL    HW226055   3.887   4.151   8.647  2.5518  0.1398  0.5003
 4807SOL     OW26056   1.754   0.953   7.029 -0.1838  0.2936 -0.3163
 4807SOL    HW126057   1.759   1.048   7.033  0.0639  0.1530  2.1966
 4807SOL    HW226058   1.832   0.945   6.974 -1.7130 -0.0150 -2.4321
 4808SOL     OW26059   4.556   1.128   2.500 -0.1425  0.4473 -0.1051
 4808SOL    HW126060   4.648   1.140   2.477 -0.0521  0.5336  0.2943
 4808SOL    HW226061   4.532   1.043   2.463  2.4346 -0.4419  0.2870
 4809SOL     OW26062   0.869   0.117   0.872  0.2681  0.0648  0.0241
 4809SOL    HW126063   0.956   0.107   0.834  0.8418  1.4092  1.0040
 4809SOL    HW226064   0.895   0.130   0.963  0.8962  1.8314 -0.4133
 4810SOL     OW26065   1.602   1.394   9.251 -0.0646  0.1598 -0.3124
 4810SOL    HW126066   1.573   1.344   9.174 -1.1900  1.0373 -0.4619
 4810SOL    HW226067   1.559   1.350   9.324  1.9031 -3.8248 -1.5502
 4811SOL     OW26068   3.131   0.123   3.511  0.6430 -0.4141 -0.0294
 4811SOL    HW126069   3.115   0.150   3.602  1.1392 -0.2895  0.0217
 4811SOL    HW226070   3.122   0.028   3.510 -3.7514  0.0212 -0.6718
 4812SOL     OW26071   0.467   1.083  16.424 -0.1097 -0.5777  0.1986
 4812SOL    HW126072   0.429   0.996  16.435  2.8130 -1.7689  1.0546
 4812SOL    HW226073   0.425   1.117  16.346  0.4611 -1.0289 -0.3035
 4813SOL     OW26074   4.457   2.826  13.737  0.2331  0.2484  0.2439
 4813SOL    HW126075   4.474   2.870  13.653  0.5122  0.9001  0.6475
 4813SOL    HW226076   4.365   2.808  13.718  0.7674 -1.5166 -0.7580
 4814SOL     OW26077   2.004   0.512   8.537  0.4300  0.1844  0.2137
 4814SOL    HW126078   2.044   0.516   8.450  0.6811  1.3316  0.3742
 4814SOL    HW226079   1.916   0.480   8.517  0.7031 -1.7471  2.0986
 4815SOL     OW26080   2.862   1.471   3.684 -0.4802 -0.0513  0.9930
 4815SOL    HW126081   2.897   1.454   3.597 -0.3834 -0.4868  1.1199
 4815SOL    HW226082   2.930   1.443   3.745  0.5410  0.1325 -0.0500
 4816SOL     OW26083   0.644   0.905   5.557 -0.2950 -0.4180  0.2018
 4816SOL    HW126084   0.556   0.938   5.573  0.1000 -0.0256  1.6591
 4816SOL    HW226085   0.657   0.912   5.463 -1.4158  0.5278  0.1091
 4817SOL     OW26086   2.670   3.762   8.600 -0.1494  0.4058 -0.5740
 4817SOL    HW126087   2.576   3.748   8.587 -0.5257  1.7414  0.6809
 4817SOL    HW226088   2.674   3.855   8.577  3.5776  0.1548 -0.9411
 4818SOL     OW26089   0.500   1.497  12.496  0.4459  0.1444  0.0954
 4818SOL    HW126090   0.479   1.454  12.413 -1.4055 -1.8385  1.5880
 4818SOL    HW226091   0.571   1.441  12.528  0.7027 -0.5843 -1.7407
 4819SOL     OW26092   2.244   2.816  16.012  0.5457  0.1993  0.0646
 4819SOL    HW126093   2.323   2.761  16.010 -0.7109 -1.6579  0.9246
 4819SOL    HW226094   2.221   2.799  15.921  0.2339  0.6232  0.0658
 4820SOL     OW26095   0.676   3.978   4.622 -0.0486 -0.1033 -0.3491
 4820SOL    HW126096   0.662   4.050   4.561 -1.1958 -1.5019 -1.7302
 4820SOL    HW226097   0.677   4.025   4.705 -0.0681  1.1650 -1.0672
 4821SOL     OW26098   3.056   0.516  16.510  0.4318 -0.2845 -0.3449
 4821SOL    HW126099   2.992   0.459  16.553  0.4819 -0.0574  0.0335
 4821SOL    HW226100   3.016   0.601  16.529 -1.4274 -1.8511  2.9480
 4822SOL     OW26101   2.396   1.122   8.859  0.0081  0.6576  0.2693
 4822SOL    HW126102   2.465   1.140   8.795  1.3048 -0.1705  1.4353
 4822SOL    HW226103   2.323   1.168   8.818 -0.0078 -0.5624 -1.0692
 4823SOL     OW26104   3.505   1.045  16.022  0.2888 -0.2326  0.1818
 4823SOL    HW126105   3.550   1.007  16.097  1.8175  0.0044 -0.6273
 4823SOL    HW226106   3.582   1.066  15.970  0.5712  1.0355  1.1054
 4824SOL     OW26107   3.371   2.625   7.216  0.2345 -0.4129  0.0024
 4824SOL    HW126108   3.466   2.614   7.221  0.2197 -0.9247 -0.8387
 4824SOL    HW226109   3.346   2.592   7.302 -1.8536 -1.2832 -0.9537
 4825SOL     OW26110   2.123   1.984   9.529 -0.0675  0.0110 -0.3091
 4825SOL    HW126111   2.152   1.970   9.439  0.4583  0.7276 -0.2570
 4825SOL    HW226112   2.145   2.076   9.544 -0.8850  0.0676  0.5131
 4826SOL     OW26113   3.898   1.168  10.588 -0.4871  0.3585  0.3079
 4826SOL    HW126114   3.825   1.168  10.649 -0.4274 -0.7713  0.3772
 4826SOL    HW226115   3.931   1.079  10.597  0.8123  1.0188  2.1256
 4827SOL     OW26116   2.775   4.290   5.372  0.8217  0.0384  0.3067
 4827SOL    HW126117   2.765   4.237   5.292  1.2877  0.7286 -0.2059
 4827SOL    HW226118   2.816   4.228   5.432  3.1208  0.8941 -0.3914
 4828SOL     OW26119   3.743   3.856   7.743 -0.6117  0.2494  0.1429
 4828SOL    HW126120   3.781   3.930   7.696  1.1025 -0.2481  0.7416
 4828SOL    HW226121   3.796   3.865   7.822  1.7400 -1.4389 -1.2582
 4829SOL     OW26122   1.802   2.360   6.577 -0.1779  0.4830  0.1473
 4829SOL    HW126123   1.736   2.322   6.636  0.7603  0.4718  1.1953
 4829SOL    HW226124   1.746   2.418   6.526 -0.9859 -0.0033  0.4881
 4830SOL     OW26125   1.848   1.037  15.387 -0.1010  0.5228 -0.6478
 4830SOL    HW126126   1.943   1.048  15.382  0.0657 -1.7849 -3.0102
 4830SOL    HW226127   1.829   1.112  15.443  1.2437  1.5615 -1.5888
 4831SOL     OW26128   2.865   4.327   3.350  0.3124  0.1083  0.0819
 4831SOL    HW126129   2.918   4.249   3.369  0.5258  0.5792  1.4107
 4831SOL    HW226130   2.933   4.391   3.329  1.3504 -0.3832  1.9693
 4832SOL     OW26131   2.309   1.347   2.829 -0.0322  0.0041  0.3505
 4832SOL    HW126132   2.252   1.422   2.810 -4.3038 -3.3535  0.1162
 4832SOL    HW226133   2.335   1.370   2.918 -0.8841 -0.0206  0.6073
 4833SOL     OW26134   0.930   3.484   5.172  0.2956 -0.1481  0.0530
 4833SOL    HW126135   0.886   3.448   5.095 -0.3007 -1.1752  0.8712
 4833SOL    HW226136   1.018   3.445   5.169  0.6668  0.8155 -1.1880
 4834SOL     OW26137   1.451   1.794   7.070  0.8912 -0.0502 -0.5044
 4834SOL    HW126138   1.401   1.720   7.103  1.1896 -0.9097 -1.9853
 4834SOL    HW226139   1.407   1.822   6.990  0.5411 -1.3724 -0.7635
 4835SOL     OW26140   3.316   4.248   2.362  0.0341 -0.0308 -0.4122
 4835SOL    HW126141   3.385   4.302   2.321 -0.7017  0.7371 -0.6507
 4835SOL    HW226142   3.369   4.237   2.441 -0.5567  2.3696  0.3327
 4836SOL     OW26143   3.841   1.705   4.697 -0.5124 -0.2445  0.0702
 4836SOL    HW126144   3.762   1.736   4.741  1.2579  0.5442  2.7058
 4836SOL    HW226145   3.810   1.667   4.615 -1.0172  1.8688 -0.7134
 4837SOL     OW26146   2.663   0.060   8.562  0.1263 -0.4802 -0.1163
 4837SOL    HW126147   2.615   4.723   8.590 -1.8400  1.5295  2.0936
 4837SOL    HW226148   2.620   0.129   8.613  0.0490 -1.0452  0.5764
 4838SOL     OW26149   0.030   0.950   7.763  0.2016 -0.6152  0.1992
 4838SOL    HW126150   0.028   0.855   7.753 -1.6408 -0.7550  1.7864
 4838SOL    HW226151   0.053   0.968   7.855 -0.3935  1.1265  0.0208
 4839SOL     OW26152   1.551   2.178   0.093  0.6469  0.1113  0.5401
 4839SOL    HW126153   1.615   2.114   0.063 -0.6861 -0.1659 -1.7446
 4839SOL    HW226154   1.512   2.131   0.167 -0.3437 -0.7546 -0.5463
 4840SOL     OW26155   3.930   2.271  10.023 -0.0624  0.3917  0.2557
 4840SOL    HW126156   3.862   2.291   9.959  1.4099  1.0456 -1.1046
 4840SOL    HW226157   3.886   2.213  10.085  0.2804  0.2492  0.3639
 4841SOL     OW26158   0.980   0.399   5.528  0.3865  0.0672 -0.1244
 4841SOL    HW126159   0.947   0.341   5.596  1.0373 -0.8923 -0.6193
 4841SOL    HW226160   0.900   0.416   5.478  0.5511 -1.4494 -0.9159
 4842SOL     OW26161   1.197   2.057   1.881 -0.2925  0.7754  0.0208
 4842SOL    HW126162   1.224   1.995   1.813 -0.2500  0.6444  0.1582
 4842SOL    HW226163   1.138   2.112   1.828 -2.9505 -2.5682 -0.4899
 4843SOL     OW26164   3.752   4.348   4.154  0.0756  0.0673  0.6986
 4843SOL    HW126165   3.769   4.437   4.123  2.5016  0.5414  3.3869
 4843SOL    HW226166   3.694   4.308   4.089 -0.2399 -3.6374  3.2730
 4844SOL     OW26167   4.699   0.373   6.801 -0.0361 -0.1428  0.3251
 4844SOL    HW126168   0.007   0.442   6.756  0.2694 -1.4063 -1.2811
 4844SOL    HW226169   0.000   0.294   6.767  2.4569  0.6717  1.5574
 4845SOL     OW26170   4.201   0.722  11.043  0.5254  1.0706  0.2343
 4845SOL    HW126171   4.157   0.787  11.098 -0.4619  0.2585  0.3925
 4845SOL    HW226172   4.282   0.769  11.023 -0.3921  2.2260 -0.7202
 4846SOL     OW26173   0.382   1.855  12.729 -0.0419  0.5780 -0.2781
 4846SOL    HW126174   0.341   1.802  12.797  1.4952  1.1183  1.0409
 4846SOL    HW226175   0.444   1.901  12.784  0.7503  0.5013 -1.1043
 4847SOL     OW26176   0.839   3.003  11.036  0.0351  0.4146  0.0959
 4847SOL    HW126177   0.920   3.045  11.067 -1.3993  0.7216  3.3772
 4847SOL    HW226178   0.822   2.966  11.123 -0.3656 -0.1274 -0.2143
 4848SOL     OW26179   2.389   1.014  15.862  0.3115  0.1876 -0.2645
 4848SOL    HW126180   2.406   1.101  15.826  0.3923  0.0919 -0.4539
 4848SOL    HW226181   2.420   1.027  15.952 -2.4332 -0.2920  0.7605
 4849SOL     OW26182   3.026   1.752   4.716  0.2993 -0.0645 -0.1933
 4849SOL    HW126183   3.056   1.832   4.673  0.1256  0.0961 -0.0187
 4849SOL    HW226184   2.943   1.777   4.756  0.9198 -1.4715  1.9794
 4850SOL     OW26185   3.045   3.835  16.850  0.2336 -0.3241 -0.3902
 4850SOL    HW126186   3.060   3.870  16.762 -2.3711  0.7409 -0.4061
 4850SOL    HW226187   3.104   3.759  16.849  2.2536  1.2416 -0.3323
 4851SOL     OW26188   0.355   2.480  10.774  0.7624  1.0040 -0.0450
 4851SOL    HW126189   0.318   2.568  10.777  0.1852  0.7463  0.4601
 4851SOL    HW226190   0.274   2.438  10.744  1.4147 -1.2450  1.3231
 4852SOL     OW26191   1.477   0.271   8.721  0.0522 -0.2314  0.6585
 4852SOL    HW126192   1.512   0.347   8.674 -0.9033 -1.0541 -1.3710
 4852SOL    HW226193   1.386   0.266   8.694  0.7392 -0.8389 -1.5227
 4853SOL     OW26194   0.169   0.721   6.997 -0.0331 -0.3216  0.0592
 4853SOL    HW126195   0.079   0.746   7.018  0.6881  0.2530  2.4100
 4853SOL    HW226196   0.157   0.640   6.948  1.1508 -0.3822 -0.1339
 4854SOL     OW26197   3.263   3.345   3.145 -0.1648 -0.0786 -0.0596
 4854SOL    HW126198   3.172   3.343   3.116 -0.4717 -1.3689  1.0153
 4854SOL    HW226199   3.254   3.292   3.224  0.0045 -0.3653 -0.2329
 4855SOL     OW26200   3.116   2.293   8.394  0.1663  0.0897 -0.3192
 4855SOL    HW126201   3.118   2.373   8.341  4.2277 -0.2904 -0.7475
 4855SOL    HW226202   3.158   2.327   8.473 -1.5928  0.6945  0.3752
 4856SOL     OW26203   3.865   3.186   8.009  0.3332  0.6511 -0.4508
 4856SOL    HW126204   3.873   3.242   8.086 -1.5146  0.3120 -0.0404
 4856SOL    HW226205   3.958   3.189   7.985  0.6939 -3.0960  0.5175
 4857SOL     OW26206   3.415   0.078   4.932 -0.5272  0.0259 -0.5421
 4857SOL    HW126207   3.445   0.058   5.021 -0.1268 -0.2267 -0.7329
 4857SOL    HW226208   3.419   0.173   4.931  0.4370 -0.0069 -0.2003
 4858SOL     OW26209   0.644   2.985   8.395 -0.0348 -0.3014  0.1962
 4858SOL    HW126210   0.568   2.931   8.415 -0.3040  0.6361  1.7973
 4858SOL    HW226211   0.665   3.015   8.484  0.2515  0.1124 -0.0117
 4859SOL     OW26212   3.431   1.363   4.572 -0.0005 -0.5901  0.4257
 4859SOL    HW126213   3.526   1.369   4.562 -0.1157 -0.4866 -0.6482
 4859SOL    HW226214   3.434   1.304   4.648  1.5904  0.0886  0.8983
 4860SOL     OW26215   1.559   1.175  15.061 -0.2006 -0.6879 -0.1075
 4860SOL    HW126216   1.468   1.197  15.080  0.1675  0.9553 -0.2769
 4860SOL    HW226217   1.593   1.262  15.041 -2.6979  0.1285 -0.7526
 4861SOL     OW26218   0.486   0.916   9.194 -0.1131  0.5230 -0.0592
 4861SOL    HW126219   0.548   0.859   9.241 -1.7323 -1.1317  0.0665
 4861SOL    HW226220   0.514   0.904   9.103 -1.0181 -1.7171 -0.0373
 4862SOL     OW26221   1.683   2.652   0.673 -0.3195  0.1806  0.0681
 4862SOL    HW126222   1.748   2.710   0.711  1.3957  0.1634 -2.8950
 4862SOL    HW226223   1.671   2.689   0.585  0.4519  1.8751  0.6874
 4863SOL     OW26224   2.084   3.539   3.967  0.4402  0.1714 -0.0200
 4863SOL    HW126225   2.177   3.540   3.943  0.8745 -1.3598  1.6082
 4863SOL    HW226226   2.046   3.579   3.888 -1.3800 -1.1257  0.1924
 4864SOL     OW26227   3.792   1.879  11.139 -0.0990  0.2478 -0.3338
 4864SOL    HW126228   3.773   1.955  11.083  1.8832  0.4112 -0.7808
 4864SOL    HW226229   3.881   1.906  11.163  0.1396  0.4324 -1.4049
 4865SOL     OW26230   1.068   1.826   7.121  0.3699  0.0959  0.0918
 4865SOL    HW126231   0.980   1.860   7.105  0.5441  0.6751  0.3725
 4865SOL    HW226232   1.096   1.816   7.030 -0.8702  0.4595 -0.3404
 4866SOL     OW26233   3.614   0.656   1.231  0.2755 -0.4009 -0.1069
 4866SOL    HW126234   3.620   0.752   1.226 -2.0992 -0.2960 -0.5780
 4866SOL    HW226235   3.557   0.640   1.306 -0.0994  1.1277 -0.0713
 4867SOL     OW26236   4.042   2.882  13.579 -0.9612  0.2806  0.0018
 4867SOL    HW126237   4.028   2.838  13.495  1.9447  1.0583 -0.8812
 4867SOL    HW226238   3.959   2.873  13.626 -2.2478 -0.8636 -2.5253
 4868SOL     OW26239   2.650   2.747   0.440  0.4216 -0.0658 -0.1804
 4868SOL    HW126240   2.574   2.799   0.415 -0.9672 -1.6662  0.6329
 4868SOL    HW226241   2.621   2.657   0.425 -0.9738  0.3749 -0.1119
 4869SOL     OW26242   3.617   2.114   2.983 -0.1894 -0.5293 -0.3168
 4869SOL    HW126243   3.623   2.208   2.964 -2.3421 -0.1678  0.8254
 4869SOL    HW226244   3.648   2.073   2.903  0.0760  1.0369 -1.0183
 4870SOL     OW26245   3.192   2.462   6.711 -0.2135 -0.3871  0.2329
 4870SOL    HW126246   3.124   2.493   6.770 -0.9743 -1.3229 -0.1435
 4870SOL    HW226247   3.176   2.369   6.726  2.1055 -0.9040 -0.4549
 4871SOL     OW26248   3.550   1.766   4.485 -0.1125  0.2660  0.1725
 4871SOL    HW126249   3.489   1.694   4.500  0.4289 -0.2897 -0.3193
 4871SOL    HW226250   3.493   1.839   4.458  2.2258  1.5113 -1.4691
 4872SOL     OW26251   4.062   3.071   1.681  0.2474 -0.2643 -0.1693
 4872SOL    HW126252   4.020   2.985   1.686  0.1056 -0.2089 -0.4290
 4872SOL    HW226253   4.068   3.090   1.775  1.4434 -0.2744 -0.2342
 4873SOL     OW26254   3.146   0.598   0.802  0.0517 -0.0061  0.4605
 4873SOL    HW126255   3.229   0.572   0.762 -0.0935 -1.5793  1.1903
 4873SOL    HW226256   3.179   0.631   0.886 -0.6212 -0.8199  1.0385
 4874SOL     OW26257   1.153   4.043   8.400 -0.5210 -0.3528 -0.5210
 4874SOL    HW126258   1.198   4.066   8.319 -0.6719 -1.2643 -0.8635
 4874SOL    HW226259   1.205   3.968   8.427  0.8298  0.0011 -2.1722
 4875SOL     OW26260   1.651   2.313   2.964  0.7594  0.2716 -0.6788
 4875SOL    HW126261   1.724   2.302   3.024 -1.6465 -0.5359  2.1098
 4875SOL    HW226262   1.702   2.298   2.884 -1.1382 -0.4070 -1.7736
 4876SOL     OW26263   0.092   4.082   6.041 -0.2917 -0.1194  0.3448
 4876SOL    HW126264   0.072   4.006   6.095  0.8059 -0.9225 -0.3713
 4876SOL    HW226265   0.015   4.137   6.053  0.7455  1.0470  1.6796
 4877SOL     OW26266   1.558   0.020   0.723 -0.1647  0.1357  0.8791
 4877SOL    HW126267   1.575   4.684   0.668 -0.4720 -0.4914  1.6619
 4877SOL    HW226268   1.497   0.071   0.669 -0.4819 -0.8198  0.3413
 4878SOL     OW26269   2.000   0.952   6.846  0.0964  0.2253  1.1309
 4878SOL    HW126270   2.013   0.860   6.823 -1.0872  0.5477 -0.7813
 4878SOL    HW226271   2.054   0.945   6.925  1.5302  0.2275  0.1296
 4879SOL     OW26272   4.272   3.842   8.314 -0.0824  0.0976 -0.1350
 4879SOL    HW126273   4.271   3.935   8.336  1.5749  0.3771 -1.2784
 4879SOL    HW226274   4.355   3.818   8.354  0.9208  0.7258 -1.8418
 4880SOL     OW26275   1.122   0.559  17.138  0.1176 -0.3425 -0.1142
 4880SOL    HW126276   1.138   0.527  17.049 -0.6486  1.2773 -0.8463
 4880SOL    HW226277   1.101   0.480  17.188  1.5964  1.0792  2.7812
 4881SOL     OW26278   1.464   0.072  17.166  0.0612  0.1220 -0.3870
 4881SOL    HW126279   1.483   4.727  17.206 -1.0307  1.1718  2.4183
 4881SOL    HW226280   1.534   0.092  17.104 -0.4192 -0.3811 -1.0826
 4882SOL     OW26281   1.405   2.940   4.251  0.2733  0.7671  0.2554
 4882SOL    HW126282   1.432   2.872   4.189  0.5564  0.4248  0.7613
 4882SOL    HW226283   1.489   2.984   4.267  0.7569  0.2110 -0.7754
 4883SOL     OW26284   1.087   2.722   7.352  0.0479 -0.0944 -0.0505
 4883SOL    HW126285   1.107   2.709   7.445 -0.5442  0.2882  0.1308
 4883SOL    HW226286   1.142   2.798   7.329  0.5319 -0.3512  0.2589
 4884SOL     OW26287   1.612   4.433  11.370 -0.7887 -0.4703 -0.6167
 4884SOL    HW126288   1.527   4.394  11.354 -0.2074 -1.2128 -1.8446
 4884SOL    HW226289   1.642   4.432  11.279 -0.8185 -1.3190 -0.6113
 4885SOL     OW26290   2.211   0.283   6.580 -0.0025  0.3860  0.0987
 4885SOL    HW126291   2.118   0.272   6.560 -0.0395 -0.0860  0.5387
 4885SOL    HW226292   2.226   0.191   6.601 -1.9670 -0.0111 -0.2410
 4886SOL     OW26293   3.722   2.821   3.191 -0.8795  0.2516  0.0362
 4886SOL    HW126294   3.681   2.880   3.254  0.1820  0.1245  0.8636
 4886SOL    HW226295   3.700   2.852   3.104  2.2082 -0.1138 -0.8952
 4887SOL     OW26296   0.246   2.445   7.656  0.0689  0.0316  0.1453
 4887SOL    HW126297   0.152   2.448   7.675  0.0840 -1.0563  0.4118
 4887SOL    HW226298   0.275   2.397   7.734 -1.4889 -0.0345  0.6810
 4888SOL     OW26299   4.265   2.052   2.907  0.2715  0.2888 -0.8379
 4888SOL    HW126300   4.309   2.120   2.958 -1.3242 -1.1499  2.4607
 4888SOL    HW226301   4.181   2.046   2.952  0.4427 -0.1894 -0.5868
 4889SOL     OW26302   1.239   0.750  15.484 -0.4023 -0.6143  0.1639
 4889SOL    HW126303   1.333   0.737  15.489 -0.1233  1.7933  1.2439
 4889SOL    HW226304   1.224   0.776  15.393 -0.1200 -0.8140  0.0600
 4890SOL     OW26305   4.464   3.895   8.016  0.1045  0.0998 -0.7050
 4890SOL    HW126306   4.535   3.893   7.952  0.0659  0.8504 -0.7682
 4890SOL    HW226307   4.413   3.820   7.984 -2.2025  1.0411  0.7930
 4891SOL     OW26308   1.274   4.182  15.063  0.0272  0.5255 -0.3905
 4891SOL    HW126309   1.300   4.226  14.983 -0.2643  0.7247 -0.3724
 4891SOL    HW226310   1.194   4.141  15.031  0.1786  0.6082 -0.8693
 4892SOL     OW26311   3.418   4.177  16.450  0.3151 -0.4346 -0.7931
 4892SOL    HW126312   3.509   4.163  16.475  0.8928  0.3968 -2.4975
 4892SOL    HW226313   3.375   4.175  16.536  1.5010 -0.9122 -0.2072
 4893SOL     OW26314   2.219   3.428   2.106  0.1631 -0.7501 -0.9808
 4893SOL    HW126315   2.304   3.419   2.061  0.7858  0.2458 -0.0155
 4893SOL    HW226316   2.242   3.509   2.152  1.0747 -1.0893 -0.8304
 4894SOL     OW26317   1.556   2.597  10.225  0.2888 -0.3522 -0.2882
 4894SOL    HW126318   1.508   2.665  10.176 -0.3754 -0.1802  0.6039
 4894SOL    HW226319   1.633   2.579  10.171  0.7251  0.8279 -0.0730
 4895SOL     OW26320   3.741   2.694   0.965 -0.2295  0.2624 -0.5796
 4895SOL    HW126321   3.764   2.776   0.920 -0.7590  1.8157  1.9931
 4895SOL    HW226322   3.814   2.685   1.025 -0.5694  0.6977 -0.1054
 4896SOL     OW26323   0.923   0.676   7.165 -0.7566 -0.1180 -0.3546
 4896SOL    HW126324   1.010   0.714   7.167 -0.0000 -1.7340 -2.5799
 4896SOL    HW226325   0.941   0.584   7.186  1.1493  0.7408  1.7962
 4897SOL     OW26326   0.793   1.614   6.968  0.9658 -0.1106  0.2464
 4897SOL    HW126327   0.776   1.706   6.947 -2.0798 -0.3922  1.4683
 4897SOL    HW226328   0.777   1.616   7.063 -2.7280  0.2769 -0.3747
 4898SOL     OW26329   3.895   3.926   4.031  1.1714 -0.0021  0.6385
 4898SOL    HW126330   3.967   3.968   3.984 -0.0021  1.7337  0.3837
 4898SOL    HW226331   3.892   3.983   4.108 -1.1709 -2.1888  2.1679
 4899SOL     OW26332   2.958   2.355   7.274  0.1157  0.2414 -0.1145
 4899SOL    HW126333   2.928   2.310   7.353  0.7036 -0.5450 -0.3428
 4899SOL    HW226334   3.052   2.340   7.281 -0.1865 -1.5900  0.1942
 4900SOL     OW26335   4.309   4.420   8.345 -0.2701 -0.2627 -0.0102
 4900SOL    HW126336   4.307   4.347   8.407 -1.4162 -0.0452  0.2061
 4900SOL    HW226337   4.305   4.385   8.256  0.4912 -0.5287  0.0585
 4901SOL     OW26338   4.689   1.412   7.311  0.6380 -0.4222 -0.7633
 4901SOL    HW126339   4.740   1.481   7.268  1.7414 -0.7646 -0.0122
 4901SOL    HW226340   4.619   1.402   7.246 -0.4775 -0.7286  0.4894
 4902SOL     OW26341   0.962   1.291   0.665  0.3519  0.6398  0.5348
 4902SOL    HW126342   0.941   1.201   0.691 -0.5680  1.1871  1.6583
 4902SOL    HW226343   0.997   1.322   0.748 -0.1564  0.0839  0.9623
 4903SOL     OW26344   0.350   4.409   7.419  0.0698  0.3503 -0.0987
 4903SOL    HW126345   0.264   4.392   7.381 -0.2139  1.9156 -0.1655
 4903SOL    HW226346   0.317   4.445   7.501 -0.1896 -1.4275  0.5662
 4904SOL     OW26347   0.353   3.254  13.099  0.1834  0.3214 -0.8675
 4904SOL    HW126348   0.312   3.239  13.014 -0.0528 -1.7631 -0.3926
 4904SOL    HW226349   0.333   3.175  13.149  0.0474  1.7934  1.4393
 4905SOL     OW26350   1.183   1.649   5.604  0.7701  0.2079  0.0905
 4905SOL    HW126351   1.215   1.572   5.651  1.5921 -1.0328 -2.5515
 4905SOL    HW226352   1.092   1.655   5.632 -0.0442 -0.9259 -2.3907
 4906SOL     OW26353   0.201   4.118  10.783 -0.0828  0.6156 -0.5710
 4906SOL    HW126354   0.240   4.114  10.871 -2.1856 -0.4901  0.3279
 4906SOL    HW226355   0.109   4.123  10.809 -0.0015 -1.3188  0.1367
 4907SOL     OW26356   1.292   2.153   4.508  0.2782 -0.0432  0.2948
 4907SOL    HW126357   1.347   2.224   4.476 -1.1302  0.6858 -0.4925
 4907SOL    HW226358   1.217   2.206   4.534  0.2567 -1.9064  4.0230
 4908SOL     OW26359   3.174   2.068   9.270 -0.0172  0.1677 -0.1949
 4908SOL    HW126360   3.167   1.988   9.322  0.9042 -0.1245 -0.5214
 4908SOL    HW226361   3.237   2.118   9.322  1.1172  1.7157 -3.0412
 4909SOL     OW26362   2.598   3.340   7.360 -0.2812 -0.2005  0.1074
 4909SOL    HW126363   2.677   3.294   7.387  0.3974  1.0633  0.2720
 4909SOL    HW226364   2.541   3.283   7.309 -0.2079 -1.6394  1.6317
 4910SOL     OW26365   0.551   3.415   5.678  0.4166  0.4906 -0.2806
 4910SOL    HW126366   0.493   3.391   5.605 -0.1753 -0.3002  0.4512
 4910SOL    HW226367   0.615   3.344   5.686  3.9744  3.7579  0.1920
 4911SOL     OW26368   3.851   3.026   0.064  0.1212  0.1593  0.5947
 4911SOL    HW126369   3.797   3.070  17.759 -1.4020 -3.1384 -0.3500
 4911SOL    HW226370   3.935   3.048   0.024 -0.3200 -1.2035 -1.0699
 4912SOL     OW26371   2.855   2.226   8.458  0.2425 -0.0849 -0.0723
 4912SOL    HW126372   2.865   2.162   8.388 -0.2495 -0.1750 -0.0627
 4912SOL    HW226373   2.946   2.253   8.459  1.0496 -2.7589 -1.3601
 4913SOL     OW26374   0.792   2.870  11.594 -0.1186 -0.1216 -0.0765
 4913SOL    HW126375   0.724   2.803  11.583  1.1061 -1.3030 -0.3656
 4913SOL    HW226376   0.746   2.943  11.553 -1.4268  0.1363  1.8106
 4914SOL     OW26377   3.319   0.160  10.010  0.3355 -0.1013  0.3013
 4914SOL    HW126378   3.371   0.089  10.046  1.9239  1.0163  0.1836
 4914SOL    HW226379   3.380   0.197   9.946 -0.1203 -2.0961 -1.3079
 4915SOL     OW26380   4.629   4.524   9.228 -0.4798  0.5438 -0.1311
 4915SOL    HW126381   4.646   4.522   9.322 -1.6112 -0.5655  0.0583
 4915SOL    HW226382   4.583   4.608   9.226 -1.9066 -0.2427 -0.9770
 4916SOL     OW26383   3.143   1.563  10.051 -0.1508  0.9073  0.0729
 4916SOL    HW126384   3.227   1.584  10.009  0.7994  0.9513  1.9933
 4916SOL    HW226385   3.146   1.626  10.123 -1.7016  2.4599 -1.2323
 4917SOL     OW26386   2.752   1.495   2.901  0.1248 -0.2737 -0.0355
 4917SOL    HW126387   2.692   1.509   2.828  1.9766  1.9458 -1.1182
 4917SOL    HW226388   2.779   1.406   2.876  0.5742 -1.1236  3.4654
 4918SOL     OW26389   4.381   3.946   2.994  0.6156 -0.2866  0.0036
 4918SOL    HW126390   4.349   3.945   2.904  0.6695  0.3084 -0.0212
 4918SOL    HW226391   4.302   3.956   3.047 -0.2971  0.5766 -1.5050
 4919SOL     OW26392   4.497   2.873  12.296  0.6000  0.0677 -0.3843
 4919SOL    HW126393   4.591   2.852  12.294  0.6318  0.2154 -0.4578
 4919SOL    HW226394   4.505   2.968  12.288  2.9420 -0.1742 -0.8390
 4920SOL     OW26395   1.810   3.409   6.388  0.0088  0.2978  0.5833
 4920SOL    HW126396   1.781   3.490   6.429 -0.5534  0.2007  0.3839
 4920SOL    HW226397   1.819   3.436   6.297  0.4221 -0.4134  0.4149
 4921SOL     OW26398   0.317   3.493   4.740  0.0036 -0.5049  0.2924
 4921SOL    HW126399   0.412   3.493   4.728 -0.1706  1.5032 -1.1369
 4921SOL    HW226400   0.294   3.576   4.780 -0.5612  0.0810 -1.2409
 4922SOL     OW26401   0.379   4.140   0.248  0.3129 -0.1289  0.7426
 4922SOL    HW126402   0.414   4.097   0.326  2.4520  1.2716  0.5631
 4922SOL    HW226403   0.443   4.114   0.181 -2.6402 -2.0111 -1.3611
 4923SOL     OW26404   2.811   0.754  14.938 -0.2846  0.1231 -0.1587
 4923SOL    HW126405   2.792   0.790  14.851  1.8564  1.1369 -0.1932
 4923SOL    HW226406   2.812   0.830  14.996  0.5289  0.8852 -1.1824
 4924SOL     OW26407   3.147   2.109  17.066  0.8715 -0.7106 -0.2504
 4924SOL    HW126408   3.051   2.104  17.064  0.8270  0.1348 -0.2577
 4924SOL    HW226409   3.155   2.031  17.012 -0.9700 -0.1640 -1.3211
 4925SOL     OW26410   1.082   1.709   2.177 -0.0773  0.2039 -0.4800
 4925SOL    HW126411   1.073   1.744   2.088 -1.7891  0.9973 -0.0029
 4925SOL    HW226412   0.994   1.737   2.203  0.4309  0.4466  0.9977
 4926SOL     OW26413   0.176   3.529  12.559  0.0371  0.0675  0.4098
 4926SOL    HW126414   0.114   3.578  12.506  0.4564 -0.1844 -0.3084
 4926SOL    HW226415   0.261   3.552  12.522  0.7560 -1.6764  0.9483
 4927SOL     OW26416   1.800   4.087   6.651 -0.0462 -0.1672 -0.0672
 4927SOL    HW126417   1.793   3.992   6.661 -0.4682 -0.0294  0.9059
 4927SOL    HW226418   1.871   4.085   6.715  1.9867 -2.7512 -2.3957
 4928SOL     OW26419   4.067   3.032   1.937 -0.7144  0.0592  0.5610
 4928SOL    HW126420   4.044   3.084   2.014  0.6766  2.2948 -0.5377
 4928SOL    HW226421   4.144   2.987   1.971 -0.3239  1.3580  1.3493
 4929SOL     OW26422   2.142   1.093   3.674  0.2519 -0.5204 -0.6027
 4929SOL    HW126423   2.095   1.105   3.757 -0.0562  0.7906 -0.9659
 4929SOL    HW226424   2.068   1.076   3.615  1.2275  1.9482 -2.5266
 4930SOL     OW26425   1.549   4.594   8.391  0.2077  0.2378  0.3667
 4930SOL    HW126426   1.597   4.636   8.320 -0.2529  1.0491  0.5314
 4930SOL    HW226427   1.495   4.667   8.422 -0.5439  0.5674 -1.7311
 4931SOL     OW26428   4.557   4.287   2.557 -0.9670  0.0887  0.0744
 4931SOL    HW126429   4.573   4.338   2.636  3.8109  1.0007 -1.4794
 4931SOL    HW226430   4.608   4.339   2.496 -0.4057 -2.0506 -1.3036
 4932SOL     OW26431   3.559   4.186   7.884 -0.0736 -0.0893 -0.1854
 4932SOL    HW126432   3.599   4.272   7.873  1.6992 -1.2110 -2.3517
 4932SOL    HW226433   3.627   4.139   7.931 -0.0377  0.9769  0.8545
 4933SOL     OW26434   1.432   2.604   6.626  0.2154 -0.9706 -0.2382
 4933SOL    HW126435   1.372   2.656   6.678  0.8180  0.8012 -1.3234
 4933SOL    HW226436   1.509   2.602   6.683  0.2788 -1.4183 -0.3361
 4934SOL     OW26437   1.968   1.694   0.792  0.0842  0.2140 -0.3945
 4934SOL    HW126438   2.027   1.641   0.739  0.8981 -0.6372  1.4089
 4934SOL    HW226439   1.885   1.656   0.761  0.3706 -0.6585 -0.0817
 4935SOL     OW26440   0.121   1.857   7.608 -0.1596 -0.5828  0.0768
 4935SOL    HW126441   0.165   1.800   7.545 -0.2227  0.4205 -0.8759
 4935SOL    HW226442   0.182   1.852   7.681 -1.6023 -1.2759  1.2406
 4936SOL     OW26443   3.542   1.555  15.087  0.2303 -0.1612  0.3808
 4936SOL    HW126444   3.624   1.505  15.084  0.4964  0.4453 -2.6010
 4936SOL    HW226445   3.483   1.485  15.060 -1.1755  0.3474  2.1624
 4937SOL     OW26446   4.380   3.058   8.831 -0.8340 -0.2295  0.5224
 4937SOL    HW126447   4.336   3.029   8.911  1.0414  0.9104  1.9627
 4937SOL    HW226448   4.335   3.008   8.762 -0.6012  0.7356 -0.3415
 4938SOL     OW26449   3.641   3.933  13.029  0.3848 -0.3788 -0.3340
 4938SOL    HW126450   3.564   3.893  12.987 -0.1824 -0.5108  0.8177
 4938SOL    HW226451   3.681   3.852  13.062  2.0036 -0.0419 -1.4827
 4939SOL     OW26452   2.687   3.658   8.898 -0.7916  0.6639  0.1756
 4939SOL    HW126453   2.773   3.623   8.922  0.0519  2.3803 -0.3703
 4939SOL    HW226454   2.685   3.644   8.804 -0.8214  1.0875  0.1144
 4940SOL     OW26455   3.261   3.326   7.182 -0.3369 -0.5136 -0.3859
 4940SOL    HW126456   3.333   3.300   7.240  0.7025  0.4899 -1.2071
 4940SOL    HW226457   3.306   3.326   7.098  0.7068  1.5077  0.1628
 4941SOL     OW26458   0.494   0.627   3.271  0.3336  0.4683 -0.0639
 4941SOL    HW126459   0.506   0.720   3.257  1.5783  0.2367 -0.4927
 4941SOL    HW226460   0.453   0.626   3.358 -0.8834  3.1299 -0.6013
 4942SOL     OW26461   2.001   3.252   8.264  0.2355  0.2210  0.6012
 4942SOL    HW126462   1.953   3.170   8.251  0.1062  0.4544 -0.3755
 4942SOL    HW226463   2.086   3.240   8.222  0.5101 -1.9804  1.8197
 4943SOL     OW26464   2.817   3.766  13.196 -0.4384  0.1158  0.4712
 4943SOL    HW126465   2.820   3.846  13.249 -0.1050  1.5421 -1.6918
 4943SOL    HW226466   2.741   3.717  13.227 -0.7801 -0.4162 -1.2131
 4944SOL     OW26467   4.729   1.411   8.958  0.5145  0.0774 -0.4223
 4944SOL    HW126468   4.686   1.417   9.043  0.5680  2.0027 -0.5337
 4944SOL    HW226469   0.032   1.496   8.948  2.8571 -0.8108  2.2703
 4945SOL     OW26470   2.959   3.086   9.248  0.0743  0.4518 -0.1950
 4945SOL    HW126471   2.936   3.098   9.340 -1.7307 -1.2243 -0.4287
 4945SOL    HW226472   2.874   3.099   9.207 -0.4368  1.1205  1.0750
 4946SOL     OW26473   4.179   1.709   1.971 -0.2970  0.3835  0.0607
 4946SOL    HW126474   4.122   1.729   1.896  0.4168 -0.1930 -0.6314
 4946SOL    HW226475   4.183   1.792   2.017 -1.0208 -0.5552  1.8069
 4947SOL     OW26476   3.166   0.116   0.458 -0.2020  0.0374  0.3714
 4947SOL    HW126477   3.114   0.070   0.523  0.7040 -0.7516  0.5285
 4947SOL    HW226478   3.091   0.141   0.403  0.8339 -1.4862 -1.7427
 4948SOL     OW26479   0.592   0.786  16.553  0.2754 -0.3060  0.0998
 4948SOL    HW126480   0.614   0.862  16.608  1.7120 -0.1671 -0.6778
 4948SOL    HW226481   0.671   0.781  16.500  0.2599  0.8954 -0.0454
 4949SOL     OW26482   0.928   4.135  15.539  0.8186 -0.0029  0.0534
 4949SOL    HW126483   0.911   4.180  15.456  0.2698  1.8267  1.1539
 4949SOL    HW226484   0.905   4.202  15.603 -3.6781 -1.0327 -0.5364
 4950SOL     OW26485   2.148   3.667  14.989  0.3951 -0.4443 -0.0806
 4950SOL    HW126486   2.217   3.637  15.047 -0.2225 -1.4982  0.1149
 4950SOL    HW226487   2.087   3.593  14.991  1.6681 -1.4943 -0.4726
 4951SOL     OW26488   0.756   2.179   1.665 -0.3256  0.9350  0.3749
 4951SOL    HW126489   0.718   2.130   1.739  0.2171 -0.5031 -0.2901
 4951SOL    HW226490   0.765   2.107   1.602  0.2503 -0.1274  1.6526
 4952SOL     OW26491   0.313   0.841   6.583 -0.2680  0.0810  0.6020
 4952SOL    HW126492   0.347   0.900   6.515 -2.2759  2.7564  1.9044
 4952SOL    HW226493   0.224   0.828   6.552  0.7851 -2.1268 -1.4705
 4953SOL     OW26494   4.421   1.684  12.639  0.1199 -0.1235 -0.0218
 4953SOL    HW126495   4.365   1.612  12.669  0.2440 -0.2856 -0.1828
 4953SOL    HW226496   4.488   1.628  12.603  2.1343  2.1630  0.1499
 4954SOL     OW26497   2.369   0.200   5.177  0.4624  0.5152  0.0362
 4954SOL    HW126498   2.414   0.284   5.169  0.9443  0.2537  0.0101
 4954SOL    HW226499   2.352   0.193   5.271  1.5360 -0.3865  0.1557
 4955SOL     OW26500   3.123   0.309   5.707  0.4353  0.2505 -0.3763
 4955SOL    HW126501   3.039   0.339   5.672 -0.1257 -0.1522  0.6316
 4955SOL    HW226502   3.105   0.296   5.800  0.4291  4.2813  0.1476
 4956SOL     OW26503   2.559   3.511   6.126 -0.1428  0.2992  0.0918
 4956SOL    HW126504   2.619   3.492   6.054 -0.4889 -0.3930 -0.0089
 4956SOL    HW226505   2.482   3.462   6.098  1.0444 -1.3924 -0.2070
 4957SOL     OW26506   4.685   4.507   3.977  0.3777  0.1097 -0.1619
 4957SOL    HW126507   4.704   4.430   3.924  1.8879  1.9606 -2.3428
 4957SOL    HW226508   4.703   4.569   3.906  1.1955  0.2829  0.1975
 4958SOL     OW26509   3.790   4.451  10.702 -0.5606 -0.3443  0.6859
 4958SOL    HW126510   3.803   4.409  10.617  2.0761  0.4664  0.6978
 4958SOL    HW226511   3.855   4.521  10.692  0.3982 -1.5567 -1.5266
 4959SOL     OW26512   0.708   0.017   0.668 -0.1448  0.6439  0.5360
 4959SOL    HW126513   0.632   0.074   0.659  0.0540  1.0784  1.6123
 4959SOL    HW226514   0.744   0.048   0.751  0.7666 -1.6387  0.9999
 4960SOL     OW26515   2.452   1.458   3.076 -0.5552 -0.9660  0.0454
 4960SOL    HW126516   2.459   1.420   3.164  0.3850 -1.0883 -0.0852
 4960SOL    HW226517   2.545   1.469   3.057 -0.8066  0.5502 -0.2874
 4961SOL     OW26518   4.401   3.693   5.400  0.7041 -0.4036 -0.3883
 4961SOL    HW126519   4.445   3.615   5.368  2.8170  0.1071  1.2614
 4961SOL    HW226520   4.318   3.693   5.353  0.2445  1.0751  0.4139
 4962SOL     OW26521   2.484   3.095   0.601 -0.1067 -0.8798  0.5006
 4962SOL    HW126522   2.524   3.155   0.537  1.0340 -0.3106  1.7557
 4962SOL    HW226523   2.457   3.017   0.553  0.5850 -0.8075 -0.0206
 4963SOL     OW26524   1.841   3.615   3.084  0.0098 -0.0375  0.1927
 4963SOL    HW126525   1.926   3.615   3.128 -0.9773  1.0060  2.0854
 4963SOL    HW226526   1.862   3.671   3.009 -0.2357 -0.2343 -0.0222
 4964SOL     OW26527   4.390   2.841  13.070 -0.0138  0.6633 -0.6884
 4964SOL    HW126528   4.429   2.835  12.982  0.4109 -1.2430 -0.3734
 4964SOL    HW226529   4.387   2.937  13.072  0.6288  0.7478 -2.9031
 4965SOL     OW26530   3.071   2.777   8.943  0.4414  0.0372  0.0674
 4965SOL    HW126531   3.077   2.702   9.003 -1.6948  0.4461  0.8184
 4965SOL    HW226532   3.052   2.733   8.860 -3.0551  1.1153  0.2792
 4966SOL     OW26533   3.047   4.197   1.937 -0.0088 -0.0797 -0.0031
 4966SOL    HW126534   3.018   4.190   2.028 -0.9796 -1.4788 -0.4169
 4966SOL    HW226535   3.032   4.109   1.903  0.7407  0.2535 -1.1945
 4967SOL     OW26536   2.158   4.207  16.238  0.8188  0.7069 -0.4791
 4967SOL    HW126537   2.107   4.205  16.157 -2.2376  1.7584  1.4034
 4967SOL    HW226538   2.125   4.294  16.258 -1.8917 -1.2228  3.6803
 4968SOL     OW26539   3.302   2.007   5.675  0.0955  0.6060 -0.3275
 4968SOL    HW126540   3.360   2.058   5.619  1.5641  1.1099  1.6480
 4968SOL    HW226541   3.236   2.073   5.694  0.6263  0.6367  1.4230
 4969SOL     OW26542   2.940   1.647   6.463  0.5365 -0.0437 -0.0481
 4969SOL    HW126543   2.854   1.652   6.420  0.7822  1.1515 -0.3908
 4969SOL    HW226544   3.007   1.654   6.395 -1.0719 -0.3551 -1.6977
 4970SOL     OW26545   3.803   1.355   6.117 -0.5742 -0.1122 -0.3211
 4970SOL    HW126546   3.898   1.350   6.121 -0.6914 -1.0442  1.3837
 4970SOL    HW226547   3.793   1.409   6.038 -0.4502  0.6535  0.1897
 4971SOL     OW26548   0.408   1.939   4.628  0.7203  0.0068  0.0160
 4971SOL    HW126549   0.361   1.937   4.711  2.3492  0.7749  0.9412
 4971SOL    HW226550   0.344   1.890   4.575  0.1893 -0.9306  1.5181
 4972SOL     OW26551   3.807   2.315   9.356  0.1378  0.2378 -0.6014
 4972SOL    HW126552   3.902   2.311   9.343  0.0875 -0.0391 -0.8807
 4972SOL    HW226553   3.771   2.252   9.294 -0.6664 -0.5782  0.6933
 4973SOL     OW26554   4.256   3.460   8.735 -0.0536  0.3250 -0.3000
 4973SOL    HW126555   4.196   3.438   8.664  1.4251 -2.3046 -0.7547
 4973SOL    HW226556   4.330   3.400   8.721  0.8161  1.2914  0.1436
 4974SOL     OW26557   2.245   2.218   2.705 -0.5005 -0.2079  0.6285
 4974SOL    HW126558   2.184   2.286   2.676  1.2554  0.4702 -1.5231
 4974SOL    HW226559   2.273   2.182   2.621  1.7281  1.1082  0.8032
 4975SOL     OW26560   2.093   2.293   6.909  0.8459  0.5259  0.1253
 4975SOL    HW126561   2.172   2.340   6.883 -0.2294  1.6946 -1.0078
 4975SOL    HW226562   2.045   2.367   6.945  2.3086  0.9941  1.1073
 4976SOL     OW26563   0.671   3.804   2.359 -0.3907 -0.0887 -0.0661
 4976SOL    HW126564   0.593   3.778   2.309 -0.6084  0.0895  0.1832
 4976SOL    HW226565   0.670   3.726   2.415 -2.9536 -0.1201 -0.1674
 4977SOL     OW26566   4.306   2.630   6.885  0.1610 -0.4453  0.0637
 4977SOL    HW126567   4.355   2.585   6.954 -1.6146 -1.1310  0.8790
 4977SOL    HW226568   4.216   2.606   6.905 -0.0320  1.5319  1.5492
 4978SOL     OW26569   2.114   4.719  17.338 -0.0903 -0.0125  0.4304
 4978SOL    HW126570   2.182   4.716  17.270 -1.3660  1.6602 -0.9313
 4978SOL    HW226571   2.035   4.732  17.286  1.9515 -0.7171 -2.8670
 4979SOL     OW26572   2.144   1.667   8.713  0.1891 -0.2167 -0.2189
 4979SOL    HW126573   2.189   1.750   8.726 -1.2579  0.4232  0.6517
 4979SOL    HW226574   2.100   1.673   8.628 -0.6820 -0.1409  0.2369
 4980SOL     OW26575   2.837   3.479   1.215  0.0938  0.6754  0.3323
 4980SOL    HW126576   2.769   3.529   1.169  0.5061 -1.0835 -2.1708
 4980SOL    HW226577   2.783   3.436   1.282 -1.4180  0.7181 -0.8703
 4981SOL     OW26578   4.422   3.493  16.099  0.2522  0.3759  0.4248
 4981SOL    HW126579   4.425   3.530  16.011 -0.7413  0.2390  0.3343
 4981SOL    HW226580   4.508   3.526  16.127  1.7830 -1.1909 -2.4440
 4982SOL     OW26581   4.375   2.990   7.595 -0.2043 -0.3271  0.3020
 4982SOL    HW126582   4.333   3.060   7.645 -0.5988 -1.7273  1.9251
 4982SOL    HW226583   4.354   2.917   7.653  0.3603 -0.9478 -0.2816
 4983SOL     OW26584   0.819   0.820  17.015 -0.2931  0.3922 -0.0017
 4983SOL    HW126585   0.848   0.729  17.009 -0.9245  0.0842  1.6460
 4983SOL    HW226586   0.747   0.816  16.951 -1.3525 -0.0906  1.2052
 4984SOL     OW26587   2.503   3.354   2.911  0.4758 -0.5652 -0.4221
 4984SOL    HW126588   2.496   3.386   3.000  3.5094  0.6154 -0.6346
 4984SOL    HW226589   2.552   3.271   2.913 -1.0842 -1.5017 -0.6063
 4985SOL     OW26590   4.004   3.437   8.897  0.0060 -0.2571  1.0770
 4985SOL    HW126591   3.956   3.421   8.816 -0.3094  1.0503  1.0141
 4985SOL    HW226592   4.096   3.427   8.873 -0.5839 -1.7696 -0.5658
 4986SOL     OW26593   4.413   3.251   3.224  0.6863  0.3880 -0.5730
 4986SOL    HW126594   4.469   3.185   3.264 -0.4621 -0.4705 -0.3547
 4986SOL    HW226595   4.457   3.326   3.264 -0.9759  1.7845 -1.3184
 4987SOL     OW26596   2.275   2.891   9.219  0.4168  0.1341 -0.5140
 4987SOL    HW126597   2.217   2.832   9.267  0.8497  1.8840  2.1676
 4987SOL    HW226598   2.287   2.831   9.145  1.0035 -1.7591  1.1366
 4988SOL     OW26599   3.379   3.917  17.287 -0.0947  0.8263 -0.1169
 4988SOL    HW126600   3.473   3.898  17.281  0.3779  3.1676 -0.0743
 4988SOL    HW226601   3.364   3.880  17.374 -1.1106 -2.4384 -1.6523
 4989SOL     OW26602   4.076   0.769   0.784  0.0222  0.2255  0.2949
 4989SOL    HW126603   4.015   0.773   0.858  0.5590  0.9807  0.7038
 4989SOL    HW226604   4.085   0.674   0.773 -1.0526 -0.0948  2.1299
 4990SOL     OW26605   0.189   3.445   7.670 -0.2534 -0.1644 -0.3482
 4990SOL    HW126606   0.146   3.510   7.726  0.7360 -1.4780  1.9589
 4990SOL    HW226607   0.109   3.399   7.645  0.8986 -0.2830 -3.7533
 4991SOL     OW26608   3.417   1.530  10.754  0.1077 -0.2873 -0.2176
 4991SOL    HW126609   3.509   1.523  10.730  0.3043  1.0181  0.1316
 4991SOL    HW226610   3.382   1.447  10.724  2.6811 -0.7543 -1.8749
 4992SOL     OW26611   4.323   2.539   9.900  0.3506 -0.4117  0.1217
 4992SOL    HW126612   4.275   2.579   9.827 -0.2678 -1.2235  0.0870
 4992SOL    HW226613   4.287   2.452   9.914 -0.7312  0.0801  0.4517
 4993SOL     OW26614   1.747   4.262   4.107  0.4832  0.8217 -0.5154
 4993SOL    HW126615   1.785   4.298   4.187  0.8565 -1.7994  0.4650
 4993SOL    HW226616   1.761   4.334   4.045 -0.7755  0.0461 -1.6945
 4994SOL     OW26617   2.912   1.499   8.669 -0.4308 -0.0343 -0.0351
 4994SOL    HW126618   2.841   1.558   8.643  0.6517  1.5024  0.4691
 4994SOL    HW226619   2.987   1.556   8.688  0.8567 -1.9751  0.7531
 4995SOL     OW26620   3.639   0.007  10.048  0.2758  0.3078  0.3936
 4995SOL    HW126621   3.649   0.103  10.047  0.4129  0.2815 -0.4762
 4995SOL    HW226622   3.697   4.730  10.122  0.8724 -0.8176 -0.3524
 4996SOL     OW26623   1.329   0.407   6.433  0.4749 -0.1100 -0.2266
 4996SOL    HW126624   1.235   0.389   6.433  1.1444 -3.5586 -3.1476
 4996SOL    HW226625   1.357   0.382   6.345 -0.0561  1.2026 -0.7662
 4997SOL     OW26626   2.496   4.685   8.328  0.2311  0.1144  0.1537
 4997SOL    HW126627   2.582   4.666   8.365 -0.2170 -1.3041  0.4326
 4997SOL    HW226628   2.520   4.693   8.235  0.8715 -0.0070  0.3052
 4998SOL     OW26629   2.472   3.880   3.668 -0.1808 -0.0198 -0.1211
 4998SOL    HW126630   2.384   3.859   3.637 -0.4155  0.5635  0.1492
 4998SOL    HW226631   2.488   3.800   3.718 -2.2376 -1.2150 -1.3934
 4999SOL     OW26632   0.327   2.673   4.663 -0.0475  0.4060  0.0553
 4999SOL    HW126633   0.286   2.701   4.581 -1.2374  3.4004  1.6722
 4999SOL    HW226634   0.291   2.724   4.736 -0.9367  1.1488 -0.9050
 5000SOL     OW26635   3.716   3.869   4.423  0.3771  0.1851  0.4439
 5000SOL    HW126636   3.672   3.799   4.375 -0.9119  1.8102 -0.8033
 5000SOL    HW226637   3.809   3.848   4.428  0.2139 -0.2043  1.5875
 5001SOL     OW26638   4.429   4.298   7.336 -0.5267  0.2557 -0.3894
 5001SOL    HW126639   4.499   4.280   7.273  0.8790  0.7435  1.0159
 5001SOL    HW226640   4.360   4.334   7.281 -1.0258  0.2937  0.2682
 5002SOL     OW26641   3.839   3.354   4.862 -0.4511 -0.1780  0.0291
 5002SOL    HW126642   3.932   3.369   4.841 -0.0955 -4.5364 -1.5452
 5002SOL    HW226643   3.852   3.338   4.955  3.1508  2.8722  0.0615
 5003SOL     OW26644   2.970   1.571   0.021  0.0993  0.4122 -0.1153
 5003SOL    HW126645   3.062   1.591   0.008  0.3700 -1.2964 -0.9016
 5003SOL    HW226646   2.969   1.540   0.112  1.9292  3.2112  0.8366
 5004SOL     OW26647   1.523   2.812   5.978  0.3853  0.3768 -0.3943
 5004SOL    HW126648   1.595   2.771   6.026 -0.2929 -0.0248  0.2798
 5004SOL    HW226649   1.452   2.807   6.043  1.6690 -1.6313  0.8549
 5005SOL     OW26650   2.927   3.723   6.985 -0.0084 -0.1259 -0.2438
 5005SOL    HW126651   2.857   3.683   6.934 -0.1093  1.5106 -1.3933
 5005SOL    HW226652   2.887   3.759   7.065  1.3723 -1.5532  1.0813
 5006SOL     OW26653   0.024   1.498  16.692  0.3924 -0.3126 -0.2927
 5006SOL    HW126654   0.112   1.522  16.663  0.2053  0.2345 -0.4105
 5006SOL    HW226655   4.719   1.579  16.669 -1.1406 -1.2646 -0.6136
 5007SOL     OW26656   1.708   2.938  16.303 -0.7022 -0.4978  0.0540
 5007SOL    HW126657   1.776   2.870  16.306 -1.4978 -1.2784  0.2624
 5007SOL    HW226658   1.747   3.003  16.362 -1.4783 -0.9625  1.0690
 5008SOL     OW26659   3.258   2.616  10.139  0.0251  0.1075  0.4915
 5008SOL    HW126660   3.176   2.579  10.173  0.1060 -1.1450 -0.6699
 5008SOL    HW226661   3.254   2.583  10.049 -0.1303 -0.0614  0.5608
 5009SOL     OW26662   4.205   1.947   2.106 -0.6042  0.0022  0.4305
 5009SOL    HW126663   4.243   1.940   2.194  0.1720  0.0319  0.1018
 5009SOL    HW226664   4.257   2.021   2.074 -2.0017  0.0520 -1.6841
 5010SOL     OW26665   2.757   3.887   6.248 -0.6174  0.2005 -0.2001
 5010SOL    HW126666   2.849   3.896   6.225 -0.9108 -0.2910 -1.5513
 5010SOL    HW226667   2.718   3.963   6.204 -0.1220  1.0373  0.8041
 5011SOL     OW26668   4.409   2.576   9.361  0.6194  0.3733 -0.0586
 5011SOL    HW126669   4.392   2.617   9.446  1.1585  0.6470 -0.0818
 5011SOL    HW226670   4.455   2.646   9.314  1.1447  1.6919  2.4012
 5012SOL     OW26671   0.092   1.772   5.069 -0.6323  0.3395  0.0640
 5012SOL    HW126672   0.093   1.753   4.975 -1.9591  4.1217 -0.7339
 5012SOL    HW226673   0.075   1.866   5.061  1.0636  0.5173 -1.3356
 5013SOL     OW26674   3.059   3.204   8.285 -0.4524  0.2822  0.2293
 5013SOL    HW126675   3.146   3.192   8.325 -0.1011 -0.6982 -0.8362
 5013SOL    HW226676   3.037   3.116   8.255  0.0286 -0.3533  1.7049
 5014SOL     OW26677   1.549   3.915   8.187 -0.4157 -0.2925 -0.4764
 5014SOL    HW126678   1.518   3.825   8.197  1.2383 -0.9670 -1.4580
 5014SOL    HW226679   1.469   3.968   8.195 -0.9953 -1.2097 -0.2024
 5015SOL     OW26680   3.540   3.547   6.677  0.4512  0.7841 -0.4288
 5015SOL    HW126681   3.581   3.612   6.620 -0.5955  0.1549 -1.8878
 5015SOL    HW226682   3.558   3.467   6.628 -2.1018  0.1958 -0.4030
 5016SOL     OW26683   2.228   4.510  11.358  0.1338 -0.4833 -0.3093
 5016SOL    HW126684   2.279   4.433  11.385 -0.2736 -0.2282  1.1705
 5016SOL    HW226685   2.192   4.474  11.277 -0.6098  0.4508 -0.3840
 5017SOL     OW26686   4.058   1.957   4.559  0.2168 -0.2138  0.1172
 5017SOL    HW126687   4.037   1.911   4.477 -0.4350 -0.1907  0.2754
 5017SOL    HW226688   4.130   1.905   4.593 -1.0436 -0.4799  2.3171
 5018SOL     OW26689   1.051   1.962   3.474  0.6287 -0.7697  0.2904
 5018SOL    HW126690   0.981   1.896   3.476 -1.2954  1.2731  0.3845
 5018SOL    HW226691   1.019   2.026   3.538  1.1910 -1.5474  1.3436
 5019SOL     OW26692   0.756   0.856   1.426 -0.4020 -0.2664 -0.5448
 5019SOL    HW126693   0.837   0.809   1.446 -0.6589 -1.0885 -1.4458
 5019SOL    HW226694   0.767   0.859   1.331  1.0817 -1.8192 -0.4325
 5020SOL     OW26695   0.181   4.086  14.377 -0.1586 -0.3346  0.4516
 5020SOL    HW126696   0.213   4.131  14.455 -0.4870 -1.8978  1.5097
 5020SOL    HW226697   0.094   4.074  14.415  0.1170 -2.0625  0.5351
 5021SOL     OW26698   0.051   4.343   7.958 -0.2125  0.5506  0.1467
 5021SOL    HW126699   0.038   4.250   7.939 -0.4081  0.8817 -1.3064
 5021SOL    HW226700   0.005   4.385   7.886  0.0669 -0.2749 -0.5135
 5022SOL     OW26701   0.003   0.732   9.381  0.4688 -0.0113  0.2877
 5022SOL    HW126702   0.084   0.780   9.365 -0.0350  0.8490  0.3256
 5022SOL    HW226703   4.708   0.800   9.438  1.6603  0.2391  0.7435
 5023SOL     OW26704   1.269   0.822  15.986  0.3383  0.1739  0.4179
 5023SOL    HW126705   1.235   0.909  16.005 -0.9744 -0.7387  2.2717
 5023SOL    HW226706   1.362   0.841  15.972  0.3482 -1.1585 -1.3537
 5024SOL     OW26707   1.361   2.823   4.891  0.4290 -0.2102 -0.3881
 5024SOL    HW126708   1.270   2.804   4.915  0.5875  1.1692  1.2265
 5024SOL    HW226709   1.350   2.911   4.855  0.4404  1.0001  2.6411
 5025SOL     OW26710   1.640   0.252   2.449 -0.2403  0.2137  0.0088
 5025SOL    HW126711   1.582   0.220   2.380  2.0054 -1.7303 -0.9232
 5025SOL    HW226712   1.626   0.175   2.504  0.7368  0.4870  0.6440
 5026SOL     OW26713   3.590   1.672  10.006 -0.0207 -0.4958 -0.3741
 5026SOL    HW126714   3.607   1.578  10.000  1.8499 -0.1051 -1.1854
 5026SOL    HW226715   3.667   1.699  10.056 -0.1680 -0.9794  0.1239
 5027SOL     OW26716   1.745   0.534   6.988  0.6661  0.4044  0.0683
 5027SOL    HW126717   1.739   0.448   6.946  0.2144  0.2712  0.4058
 5027SOL    HW226718   1.663   0.576   6.961  2.0214  2.9348 -0.0653
 5028SOL     OW26719   0.618   0.584  14.747 -0.5299 -0.4460 -0.1515
 5028SOL    HW126720   0.606   0.552  14.836 -1.8218  0.1923 -0.0931
 5028SOL    HW226721   0.591   0.675  14.761  0.6322 -0.2790  0.9552
 5029SOL     OW26722   3.532   0.917   1.586 -0.0391  0.0934 -0.1222
 5029SOL    HW126723   3.544   0.971   1.664  0.6832 -0.7232  0.3272
 5029SOL    HW226724   3.465   0.969   1.541  0.9999  1.3153 -0.2390
 5030SOL     OW26725   1.789   1.016   4.764 -0.0559  0.0530 -0.2541
 5030SOL    HW126726   1.750   1.074   4.699  0.5852  2.5424  1.5567
 5030SOL    HW226727   1.879   1.008   4.730 -0.3136 -0.1971 -0.8688
 5031SOL     OW26728   1.609   2.997   9.096 -0.1057  0.1550  0.3789
 5031SOL    HW126729   1.606   2.922   9.155  0.8972 -0.0206  0.2036
 5031SOL    HW226730   1.694   3.032   9.123 -0.8366  1.9674  0.3781
 5032SOL     OW26731   1.390   1.579  13.084  0.1310 -0.3991 -0.2278
 5032SOL    HW126732   1.434   1.640  13.143 -1.3405  1.6135 -1.2378
 5032SOL    HW226733   1.353   1.628  13.011  0.2713  0.0335 -0.0058
 5033SOL     OW26734   0.576   2.522   8.697  0.4294 -0.3314  0.3421
 5033SOL    HW126735   0.544   2.549   8.783 -2.3111  1.0233 -1.1061
 5033SOL    HW226736   0.668   2.538   8.718  0.3160 -0.8665  1.2230
 5034SOL     OW26737   0.857   2.774   2.122  0.2476  0.1610 -0.1179
 5034SOL    HW126738   0.950   2.765   2.144  0.1037  0.2391  0.5326
 5034SOL    HW226739   0.863   2.795   2.029  0.2991 -0.6840 -0.3003
 5035SOL     OW26740   0.586   0.575   4.842  0.2130  0.1973 -0.4397
 5035SOL    HW126741   0.680   0.591   4.843 -0.0185  1.7742 -2.4333
 5035SOL    HW226742   0.575   0.515   4.915 -0.1084  0.1040 -0.5643
 5036SOL     OW26743   1.559   3.114   2.519 -0.0642 -0.6849  0.0404
 5036SOL    HW126744   1.554   3.042   2.581 -0.5641 -0.2333  0.5298
 5036SOL    HW226745   1.525   3.185   2.574 -0.4090 -1.4893  0.8532
 5037SOL     OW26746   4.284   3.000  11.287  0.5366  0.1290 -0.0537
 5037SOL    HW126747   4.300   2.937  11.357 -1.4986 -0.8474 -0.4741
 5037SOL    HW226748   4.332   3.075  11.322  0.4264  1.1183 -2.0218
 5038SOL     OW26749   2.796   2.759   6.901 -0.2322 -0.0256  0.2964
 5038SOL    HW126750   2.798   2.841   6.950 -0.0066  0.9450 -1.3250
 5038SOL    HW226751   2.797   2.787   6.809 -2.4891  0.4649  0.4225
 5039SOL     OW26752   0.263   2.759   4.181  0.1337 -0.1391 -0.3684
 5039SOL    HW126753   0.346   2.761   4.228 -1.5976  1.8153  2.6067
 5039SOL    HW226754   0.195   2.761   4.248 -0.4090 -0.2690 -0.9163
 5040SOL     OW26755   2.462   0.229   4.457 -0.4764  0.1987 -0.1025
 5040SOL    HW126756   2.463   0.318   4.422 -1.1094 -0.7206 -2.4970
 5040SOL    HW226757   2.556   0.211   4.461 -0.0635  1.9071 -2.1382
 5041SOL     OW26758   3.339   3.656   8.970  0.3506  0.5996 -0.0053
 5041SOL    HW126759   3.296   3.576   8.939  1.5398 -0.6103  1.4896
 5041SOL    HW226760   3.264   3.713   8.957 -1.3332 -1.7958 -0.9258
 5042SOL     OW26761   1.530   0.275   4.335  0.2962  0.1445  0.5420
 5042SOL    HW126762   1.594   0.215   4.373 -0.4214 -0.2218  1.1722
 5042SOL    HW226763   1.450   0.262   4.387 -2.4196  0.7945 -3.4423
 5043SOL     OW26764   4.346   4.325   5.870  0.3916  0.2480  0.1043
 5043SOL    HW126765   4.285   4.389   5.833  0.0008 -0.1429  0.0725
 5043SOL    HW226766   4.285   4.253   5.887  0.1190  0.7889  1.3517
 5044SOL     OW26767   4.296   0.958   0.015 -0.1303  0.3549  0.3588
 5044SOL    HW126768   4.265   1.024   0.078 -0.1245 -0.0230  0.7553
 5044SOL    HW226769   4.303   0.875   0.062 -0.4404  1.1723  1.8499
 5045SOL     OW26770   2.242   4.088   0.569 -0.8007 -0.1418  0.0801
 5045SOL    HW126771   2.330   4.108   0.599 -0.6123  0.6304 -1.0019
 5045SOL    HW226772   2.196   4.065   0.650  0.0034 -0.2215  0.5117
 5046SOL     OW26773   0.622   0.228  10.830 -0.2251 -0.3339 -0.1448
 5046SOL    HW126774   0.681   0.281  10.777  1.4163 -1.3778  0.6667
 5046SOL    HW226775   0.617   0.273  10.914  0.2946 -0.9705  0.2242
 5047SOL     OW26776   1.887   2.592   4.202 -0.1189  0.1211 -0.3773
 5047SOL    HW126777   1.918   2.586   4.112  2.1977 -0.8373  0.5006
 5047SOL    HW226778   1.885   2.687   4.212 -2.4737 -0.1219  1.5942
 5048SOL     OW26779   2.210   3.266   0.052  0.0407 -0.3717  0.4042
 5048SOL    HW126780   2.272   3.310   0.110  2.1533 -0.4478 -1.7835
 5048SOL    HW226781   2.223   3.314  17.730  0.8215 -3.3557 -1.2225
 5049SOL     OW26782   0.395   3.805   7.206 -0.4396 -0.0506  0.0238
 5049SOL    HW126783   0.383   3.727   7.260 -0.4582 -0.0332  0.0455
 5049SOL    HW226784   0.356   3.772   7.125 -1.2890 -1.0109  0.8222
 5050SOL     OW26785   0.353   3.706   0.553 -0.7366 -0.2946 -0.0033
 5050SOL    HW126786   0.383   3.629   0.504 -1.0907  0.0132 -0.6968
 5050SOL    HW226787   0.283   3.656   0.596 -0.5610  0.5371  1.2357
 5051SOL     OW26788   2.876   1.422   5.238 -0.0471  0.4960 -0.1401
 5051SOL    HW126789   2.796   1.430   5.291  0.0365  2.2815 -0.2971
 5051SOL    HW226790   2.861   1.499   5.183  2.7058  0.7187 -0.5912
 5052SOL     OW26791   1.990   1.832  10.452 -0.1713 -0.1750  0.4823
 5052SOL    HW126792   1.944   1.766  10.505  0.8176 -1.5259 -0.3366
 5052SOL    HW226793   2.013   1.901  10.514  2.2087 -1.8328  1.4829
 5053SOL     OW26794   1.650   2.982   4.938  0.1810 -0.0586  0.8809
 5053SOL    HW126795   1.694   3.012   4.858 -0.8864  0.3654  0.4531
 5053SOL    HW226796   1.591   3.053   4.963 -1.5928 -0.8714 -0.9776
 5054SOL     OW26797   4.653   3.839   7.840  0.1173 -0.1865  0.2750
 5054SOL    HW126798   4.699   3.909   7.793  1.5025  0.1587  2.1354
 5054SOL    HW226799   4.659   3.758   7.790  1.2783 -0.4386  0.8327
 5055SOL     OW26800   3.012   1.635  17.032 -0.1671  0.0396 -0.4875
 5055SOL    HW126801   2.964   1.617  16.952  0.4151  2.0538 -1.2956
 5055SOL    HW226802   2.962   1.576  17.088  1.6966 -0.2870  0.8558
 5056SOL     OW26803   3.820   1.175   1.502  0.1972 -0.2338  0.2120
 5056SOL    HW126804   3.837   1.204   1.412  1.9880  0.1258  0.6505
 5056SOL    HW226805   3.758   1.103   1.490 -0.5195  0.6122 -1.2058
 5057SOL     OW26806   0.944   1.472   4.718  0.2881  0.4855  0.2442
 5057SOL    HW126807   1.024   1.516   4.691  0.8865 -0.7412  0.0330
 5057SOL    HW226808   0.963   1.440   4.806  0.7409  0.8726  0.2879
 5058SOL     OW26809   3.288   0.585   8.802  0.1595 -0.5299 -0.3827
 5058SOL    HW126810   3.246   0.623   8.879 -2.2656  1.1199 -2.5394
 5058SOL    HW226811   3.221   0.528   8.765 -1.6622  1.7510 -0.5243
 5059SOL     OW26812   3.514   1.067  11.012  0.0955  0.3442  0.1874
 5059SOL    HW126813   3.476   1.136  11.066 -0.6595 -2.0181  2.6298
 5059SOL    HW226814   3.466   1.071  10.929 -0.8752 -1.0229  0.6894
 5060SOL     OW26815   4.055   0.323   2.571 -0.2155  0.3697  0.0937
 5060SOL    HW126816   3.976   0.286   2.531  0.9833  0.4428 -2.3145
 5060SOL    HW226817   4.027   0.370   2.649  2.4538  1.5860  0.3062
 5061SOL     OW26818   3.147   3.774   3.645  0.5244 -0.2031  0.3386
 5061SOL    HW126819   3.200   3.791   3.723  0.4247  2.0828 -0.0798
 5061SOL    HW226820   3.068   3.822   3.671  0.0018 -0.4208 -0.8624
 5062SOL     OW26821   0.189   0.941   9.489 -0.6935  0.4297  0.1732
 5062SOL    HW126822   0.249   1.015   9.481  1.3020 -1.0382  1.4229
 5062SOL    HW226823   0.123   0.988   9.540 -0.7327  0.9922 -0.4102
 5063SOL     OW26824   3.815   4.588  14.178 -0.1478  0.4870  0.0046
 5063SOL    HW126825   3.879   4.551  14.238  0.8451  1.0925 -0.6996
 5063SOL    HW226826   3.866   4.647  14.123  1.1311  0.6922  1.4364
 5064SOL     OW26827   2.268   1.772  10.445 -0.3821  0.2153  0.2873
 5064SOL    HW126828   2.191   1.826  10.425  0.7780  1.5215 -0.6131
 5064SOL    HW226829   2.302   1.742  10.361 -2.1828  1.6954 -0.9682
 5065SOL     OW26830   2.808   3.510  16.044  0.0764  0.6266 -0.2572
 5065SOL    HW126831   2.814   3.499  15.949 -0.2115  0.7011 -0.2838
 5065SOL    HW226832   2.821   3.418  16.065 -1.0714  0.0537 -2.0066
 5066SOL     OW26833   2.184   0.065   6.098  0.0267 -0.0949  0.2070
 5066SOL    HW126834   2.126   0.014   6.154  0.0194 -0.2513  0.0589
 5066SOL    HW226835   2.118   0.120   6.056  1.5419  0.7736 -1.0220
 5067SOL     OW26836   2.017   1.852   1.819  0.2228 -0.4381  0.1813
 5067SOL    HW126837   2.076   1.918   1.781 -1.6238  0.5966 -0.8899
 5067SOL    HW226838   1.944   1.911   1.834  0.2601 -1.0429  2.7237
 5068SOL     OW26839   1.291   1.083   4.260 -0.4189  0.6847 -0.2560
 5068SOL    HW126840   1.329   1.170   4.249 -2.7694  1.5823 -1.3693
 5068SOL    HW226841   1.369   1.034   4.283 -1.7849 -0.7542  1.3753
 5069SOL     OW26842   0.184   1.859   4.484  0.2418  0.2123  0.2904
 5069SOL    HW126843   0.096   1.837   4.514  1.1987 -2.1427  1.3573
 5069SOL    HW226844   0.174   1.902   4.399 -1.9400  0.2586  0.5603
 5070SOL     OW26845   2.617   2.052  15.917 -0.7775  0.2442 -0.2721
 5070SOL    HW126846   2.640   2.098  15.836 -0.6478 -2.0561 -1.5466
 5070SOL    HW226847   2.657   2.116  15.976  0.5016 -1.9068  1.2377
 5071SOL     OW26848   2.175   4.340   2.327 -0.2852 -0.0956  0.4052
 5071SOL    HW126849   2.209   4.413   2.378 -0.7484 -0.4161  1.1782
 5071SOL    HW226850   2.246   4.276   2.331 -0.0170  0.1963  0.3253
 5072SOL     OW26851   1.322   3.180   4.101  0.7176  0.0815  0.7446
 5072SOL    HW126852   1.245   3.231   4.075  1.7018  1.1076 -0.1951
 5072SOL    HW226853   1.283   3.095   4.119  1.1644 -0.1918  0.4218
 5073SOL     OW26854   4.358   2.469   9.065 -0.1323  0.4976  0.0011
 5073SOL    HW126855   4.401   2.517   8.993  1.6241 -0.2187  0.5769
 5073SOL    HW226856   4.270   2.504   9.052 -0.5805 -0.1469  1.3107
 5074SOL     OW26857   1.277   3.682   2.610  0.7462  0.0378 -0.2408
 5074SOL    HW126858   1.207   3.619   2.596  0.0611  0.9603 -0.9209
 5074SOL    HW226859   1.253   3.755   2.554  1.8046 -0.6869 -1.6381
 5075SOL     OW26860   0.205   3.432   5.281 -0.3041 -0.7681 -0.1530
 5075SOL    HW126861   0.143   3.437   5.354  0.8975  1.9166  0.6890
 5075SOL    HW226862   0.139   3.409   5.215 -1.8769 -3.3744  2.3462
 5076SOL     OW26863   3.303   3.620   7.968  0.5143  0.2611 -0.6923
 5076SOL    HW126864   3.304   3.623   7.872  1.6971 -0.1918 -0.7035
 5076SOL    HW226865   3.396   3.626   7.991  0.3177  2.7997 -0.5235
 5077SOL     OW26866   3.283   3.282   4.154  0.0888 -0.0327 -0.4642
 5077SOL    HW126867   3.211   3.244   4.204 -1.4570 -0.2096 -2.8488
 5077SOL    HW226868   3.266   3.375   4.140 -0.6293  0.3627  2.9366
 5078SOL     OW26869   1.333   0.919   0.753  0.1771 -0.0843  0.1170
 5078SOL    HW126870   1.268   0.859   0.789 -0.5978  1.4799  1.3396
 5078SOL    HW226871   1.413   0.871   0.770 -0.5260 -2.1193 -2.4182
 5079SOL     OW26872   0.105   0.289   1.571 -0.0686 -0.2454  0.7242
 5079SOL    HW126873   0.102   0.266   1.664 -0.5578 -1.6876  0.3616
 5079SOL    HW226874   0.028   0.343   1.554 -1.6428 -2.8255 -0.3245
 5080SOL     OW26875   0.055   3.256   1.854  0.2398  0.2786  0.0311
 5080SOL    HW126876   4.706   3.237   1.880  0.2317  1.9618  1.2535
 5080SOL    HW226877   0.097   3.194   1.914  1.3077 -0.6592 -1.6937
 5081SOL     OW26878   0.459   0.280   9.281  0.4188  0.1289 -0.3234
 5081SOL    HW126879   0.370   0.303   9.254 -0.0510  1.8458  2.6857
 5081SOL    HW226880   0.458   0.190   9.313 -1.8204  0.1794 -0.2654
 5082SOL     OW26881   0.368   2.989   2.355  0.4904 -0.6185 -0.6609
 5082SOL    HW126882   0.318   2.943   2.423  2.5235 -0.2198  1.1097
 5082SOL    HW226883   0.356   2.936   2.276  1.1187 -1.2209 -0.3478
 5083SOL     OW26884   1.804   4.550   5.594 -0.5327 -0.1615  0.1390
 5083SOL    HW126885   1.771   4.549   5.684  2.3047 -1.0525  1.1744
 5083SOL    HW226886   1.718   4.565   5.554 -0.1459 -1.6344 -1.2529
 5084SOL     OW26887   4.133   3.558   4.593  0.5660  0.2475  0.3428
 5084SOL    HW126888   4.216   3.541   4.549 -0.4730  0.8086 -1.8328
 5084SOL    HW226889   4.085   3.584   4.515 -2.3037 -0.2816  1.9365
 5085SOL     OW26890   1.607   0.254  12.690 -0.0032  0.0593  0.0974
 5085SOL    HW126891   1.590   0.316  12.619 -0.1419  0.5803  0.5960
 5085SOL    HW226892   1.550   0.181  12.665 -0.9692  0.7681  0.2271
 5086SOL     OW26893   2.151   4.069  11.201  0.3833 -0.5714 -0.0632
 5086SOL    HW126894   2.141   3.995  11.141  1.0079 -0.7186  0.0177
 5086SOL    HW226895   2.106   4.138  11.151  3.3677  1.3455 -0.1449
 5087SOL     OW26896   2.041   3.935  13.706  0.4364 -0.4141 -0.0023
 5087SOL    HW126897   1.980   3.992  13.660  2.6996  0.5420 -1.8607
 5087SOL    HW226898   1.992   3.923  13.787 -0.5509 -0.7697 -0.6585
 5088SOL     OW26899   1.852   2.521   4.711 -0.1316  0.1879 -0.2856
 5088SOL    HW126900   1.791   2.461   4.667 -0.4834 -0.5057  1.1553
 5088SOL    HW226901   1.791   2.595   4.712 -0.9858 -0.5084 -0.1288
 5089SOL     OW26902   2.573   1.050   2.281 -0.3776  0.2505  0.5217
 5089SOL    HW126903   2.494   1.102   2.263  0.3599  0.8141 -1.0364
 5089SOL    HW226904   2.555   0.966   2.238  1.3849 -0.5057  1.2921
 5090SOL     OW26905   2.732   4.194  11.376  0.8795  0.2762 -0.3090
 5090SOL    HW126906   2.710   4.230  11.462 -1.7771  1.0886 -1.3202
 5090SOL    HW226907   2.827   4.186  11.370  0.8403 -2.1076  2.1915
 5091SOL     OW26908   2.598   2.180  13.417 -0.4848  0.4096  0.3583
 5091SOL    HW126909   2.635   2.267  13.406  1.6749 -0.5692 -0.0840
 5091SOL    HW226910   2.609   2.174  13.512  0.6560 -0.9654  0.1390
 5092SOL     OW26911   1.637   2.712   9.706 -0.1100  0.0902 -0.4932
 5092SOL    HW126912   1.681   2.651   9.647 -0.6219 -0.9853  0.2476
 5092SOL    HW226913   1.627   2.791   9.653 -1.0742  0.0923 -0.3185
 5093SOL     OW26914   1.814   3.542   6.758  0.3860  0.0742  0.1787
 5093SOL    HW126915   1.827   3.452   6.729 -1.6087  0.9677 -3.5146
 5093SOL    HW226916   1.864   3.587   6.690 -0.5537  0.3639 -0.3140
 5094SOL     OW26917   4.389   2.840   7.038 -0.4925 -0.3377  0.2770
 5094SOL    HW126918   4.350   2.764   6.995 -0.5059 -0.9331  1.3453
 5094SOL    HW226919   4.392   2.816   7.130  0.1914 -0.5706  0.1952
 5095SOL     OW26920   4.145   3.487   6.982 -0.4624  0.1441  0.5489
 5095SOL    HW126921   4.069   3.432   6.966  0.6681 -0.9500 -1.1032
 5095SOL    HW226922   4.148   3.484   7.077  1.8372  0.2247  0.4876
 5096SOL     OW26923   0.088   2.138   1.915 -0.2920  0.2097  0.2449
 5096SOL    HW126924   0.031   2.062   1.933 -1.3095  0.7440 -0.7101
 5096SOL    HW226925   0.022   2.192   1.871  1.0477 -0.1606 -2.1776
 5097SOL     OW26926   4.246   1.699   6.338  0.6891  0.3208 -0.3430
 5097SOL    HW126927   4.300   1.622   6.358 -3.0463 -2.5125 -1.3394
 5097SOL    HW226928   4.266   1.703   6.245  0.1710 -0.7766 -0.4970
 5098SOL     OW26929   1.885   2.296   1.841 -0.0060  0.0115 -0.2215
 5098SOL    HW126930   1.926   2.275   1.758  0.5489  2.4667 -0.5561
 5098SOL    HW226931   1.858   2.384   1.817 -2.1065 -0.1803  1.4378
 5099SOL     OW26932   2.261   1.059   2.862  0.1126  0.0133  0.3449
 5099SOL    HW126933   2.257   1.154   2.864  1.0353  0.0890 -1.3535
 5099SOL    HW226934   2.271   1.051   2.767  1.2232 -0.7109  0.5164
 5100SOL     OW26935   1.059   3.085  11.457  0.6181  0.4749  0.1850
 5100SOL    HW126936   1.061   3.023  11.530 -0.2248 -0.3039 -0.4473
 5100SOL    HW226937   0.989   3.142  11.489 -1.7048 -2.7606  0.8996
 5101SOL     OW26938   4.537   3.347  14.529 -0.0312  0.0858 -0.0246
 5101SOL    HW126939   4.511   3.279  14.591 -0.1956  0.5207  0.3813
 5101SOL    HW226940   4.585   3.407  14.585  0.0649  0.9932 -1.0798
 5102SOL     OW26941   3.348   1.958   3.704 -0.0706 -0.3458  0.5217
 5102SOL    HW126942   3.386   1.871   3.714  1.2586  0.2326  0.4234
 5102SOL    HW226943   3.266   1.959   3.754 -0.2233  1.0733  0.2532
 5103SOL     OW26944   2.000   3.307   2.236 -0.1879  0.4145 -0.0828
 5103SOL    HW126945   1.988   3.383   2.293 -1.0113  1.0913 -1.1755
 5103SOL    HW226946   2.071   3.335   2.179  2.7748 -1.0308  2.8815
 5104SOL     OW26947   2.784   0.835   7.702  0.1682 -0.1413 -0.0036
 5104SOL    HW126948   2.789   0.882   7.619 -1.4252  1.7448  0.9556
 5104SOL    HW226949   2.876   0.810   7.709  0.0850 -0.1647  1.0017
 5105SOL     OW26950   1.127   2.339   9.683  0.1205 -0.6332 -0.3197
 5105SOL    HW126951   1.148   2.277   9.753 -0.0772  0.9694  1.1549
 5105SOL    HW226952   1.164   2.303   9.603  0.2862 -2.8902  0.7907
 5106SOL     OW26953   4.477   0.562   5.189 -0.8076  0.2868 -0.1275
 5106SOL    HW126954   4.390   0.548   5.228 -1.0478  3.0224  0.3167
 5106SOL    HW226955   4.526   0.484   5.218 -2.5160 -1.0816 -0.8952
 5107SOL     OW26956   4.533   4.290   5.058  0.0196 -0.3934  0.4546
 5107SOL    HW126957   4.459   4.262   5.004  0.6389 -2.1403  0.4821
 5107SOL    HW226958   4.503   4.373   5.093 -1.4990 -1.3512  1.4000
 5108SOL     OW26959   0.421   1.948  15.271 -0.0559 -0.2493 -0.1846
 5108SOL    HW126960   0.337   1.991  15.256  0.1088 -1.0537 -3.3251
 5108SOL    HW226961   0.404   1.908  15.357  0.1064 -0.9643 -0.4818
 5109SOL     OW26962   0.644   1.697   9.731 -0.4807 -0.2978  0.0891
 5109SOL    HW126963   0.586   1.739   9.667  0.8641  0.6702 -0.4921
 5109SOL    HW226964   0.712   1.764   9.731 -1.4914  0.7251 -2.0212
 5110SOL     OW26965   2.739   2.977   3.610 -0.0225  0.6688  0.1081
 5110SOL    HW126966   2.710   2.994   3.699 -0.0545  1.2383 -0.0097
 5110SOL    HW226967   2.692   2.897   3.590  0.8867  0.3267 -0.6831
 5111SOL     OW26968   1.066   4.224  10.893 -0.2804  0.9639  0.4574
 5111SOL    HW126969   1.071   4.320  10.894  1.1959  0.8758  1.6621
 5111SOL    HW226970   1.118   4.204  10.816 -1.3794  1.2467 -0.3621
 5112SOL     OW26971   2.448   2.292   4.337  0.6732 -0.1759  0.3638
 5112SOL    HW126972   2.409   2.327   4.417  1.9351  0.0484  0.8781
 5112SOL    HW226973   2.493   2.368   4.300 -3.5906  1.9775 -0.4037
 5113SOL     OW26974   3.472   2.607   4.423 -0.3056 -0.6111  0.0588
 5113SOL    HW126975   3.402   2.602   4.358 -1.8311  3.0909  1.3714
 5113SOL    HW226976   3.505   2.518   4.431  0.6705 -0.0500  2.4578
 5114SOL     OW26977   3.690   1.655   5.642 -0.3942 -0.2877 -0.2791
 5114SOL    HW126978   3.626   1.698   5.699  0.3759  1.7224 -0.9513
 5114SOL    HW226979   3.725   1.733   5.600 -1.4896  0.4605  0.2118
 5115SOL     OW26980   4.344   1.875   6.806 -0.0608  0.2434  0.3531
 5115SOL    HW126981   4.318   1.890   6.715 -0.3864  1.9127  0.7134
 5115SOL    HW226982   4.360   1.781   6.805  2.3026  0.6881 -2.2481
 5116SOL     OW26983   2.932   4.626  15.879 -0.6162  0.0704  0.1330
 5116SOL    HW126984   3.026   4.617  15.895 -0.9896 -1.4639  1.4327
 5116SOL    HW226985   2.930   4.719  15.857 -0.8537 -0.0984 -0.5720
 5117SOL     OW26986   3.485   0.553   4.764 -0.2034 -0.6321 -0.5017
 5117SOL    HW126987   3.503   0.603   4.844  0.5800 -2.4327  0.4434
 5117SOL    HW226988   3.485   0.625   4.700  0.0761  1.3606  1.7545
 5118SOL     OW26989   1.397   4.727   0.446  0.5065 -0.5958  0.0195
 5118SOL    HW126990   1.440   4.648   0.414  0.4725  0.2180 -2.0826
 5118SOL    HW226991   1.323   4.687   0.490 -1.2844  2.5227 -0.1827
 5119SOL     OW26992   2.735   0.050  15.028 -0.2111 -0.7568 -0.0073
 5119SOL    HW126993   2.819   0.010  15.004 -0.2857 -0.7130 -0.3458
 5119SOL    HW226994   2.772   0.110  15.093 -0.1933  1.6807 -2.2787
 5120SOL     OW26995   0.606   3.506   4.175 -0.6228 -0.4237  0.5527
 5120SOL    HW126996   0.627   3.492   4.267 -0.8641  0.4875  0.7448
 5120SOL    HW226997   0.518   3.542   4.170 -1.5159 -2.7010 -0.0592
 5121SOL     OW26998   2.598   2.423   6.485 -0.4624  0.5616  0.3908
 5121SOL    HW126999   2.600   2.333   6.453 -0.1347  0.0390  1.8746
 5121SOL    HW227000   2.692   2.441   6.493 -0.1219 -1.3910  0.8253
 5122SOL     OW27001   0.712   4.409  10.857  0.4536  0.0734  0.2596
 5122SOL    HW127002   0.683   4.499  10.849  0.8248  0.2086  0.4041
 5122SOL    HW227003   0.765   4.408  10.937 -0.2499 -1.1259  0.7012
 5123SOL     OW27004   4.721   2.376   4.466  0.4588  0.1146 -0.2122
 5123SOL    HW127005   4.663   2.448   4.492  1.5976  0.1597  2.2000
 5123SOL    HW227006   0.062   2.426   4.462 -0.1867  1.2702  0.8770
 5124SOL     OW27007   2.532   2.615   6.256 -0.3180  0.3551  0.2270
 5124SOL    HW127008   2.562   2.675   6.188 -0.4484  2.4260  1.9642
 5124SOL    HW227009   2.583   2.535   6.247  0.9259  1.4832 -2.4807
 5125SOL     OW27010   4.482   1.216   4.028  0.1603  0.2552  0.2653
 5125SOL    HW127011   4.392   1.186   4.035  0.4068 -0.5695 -0.1401
 5125SOL    HW227012   4.534   1.143   4.062  1.4652  0.2452 -1.7214
 5126SOL     OW27013   2.269   4.340   5.066 -0.0036 -0.2880 -0.4226
 5126SOL    HW127014   2.282   4.366   4.975  2.4248 -0.3853 -0.1072
 5126SOL    HW227015   2.190   4.286   5.061 -1.9174  2.3081  1.5394
 5127SOL     OW27016   3.035   1.915   9.082 -0.2631  0.5224  0.9041
 5127SOL    HW127017   3.105   1.851   9.089 -0.9154 -0.6073 -3.1251
 5127SOL    HW227018   3.050   1.976   9.154  0.2068  0.3549  0.9442
 5128SOL     OW27019   1.105   3.041   9.609  0.0857  0.0070  0.0829
 5128SOL    HW127020   1.055   3.016   9.687 -1.5838  0.8683 -0.7067
 5128SOL    HW227021   1.082   2.965   9.555 -0.8208  0.1220  0.2984
 5129SOL     OW27022   0.279   2.874   5.841  0.0791  0.2237 -0.1032
 5129SOL    HW127023   0.195   2.881   5.885  1.1562  0.8922  1.8271
 5129SOL    HW227024   0.255   2.804   5.780  4.4952  0.5324 -2.2254
 5130SOL     OW27025   0.916   2.050   1.248 -0.1760 -0.0203 -0.0173
 5130SOL    HW127026   0.828   2.081   1.272 -0.0089 -0.3915  1.0721
 5130SOL    HW227027   0.897   1.958   1.268  1.0336 -0.5967 -1.4728
 5131SOL     OW27028   4.343   0.419   1.809  0.1972  0.4958 -0.2307
 5131SOL    HW127029   4.422   0.394   1.856  1.0230  0.3799 -1.6539
 5131SOL    HW227030   4.371   0.387   1.723 -1.7044 -0.9011 -0.3531
 5132SOL     OW27031   2.473   3.033   2.982  0.3461 -0.0524  0.0785
 5132SOL    HW127032   2.453   3.101   3.047  2.4433  0.0027  0.6567
 5132SOL    HW227033   2.458   2.951   3.029  1.3233 -0.0168  0.4561
 5133SOL     OW27034   1.158   2.842   1.922  0.0399  0.2705  0.6361
 5133SOL    HW127035   1.109   2.859   2.003 -0.6580 -0.6567  0.4114
 5133SOL    HW227036   1.249   2.843   1.951  0.0654 -0.6166  0.5765
 5134SOL     OW27037   3.167   4.026   6.722  0.3445 -0.5969 -0.0688
 5134SOL    HW127038   3.101   3.961   6.697  1.2016 -0.1756 -3.3366
 5134SOL    HW227039   3.227   3.952   6.735 -0.2316 -1.2502 -1.2252
 5135SOL     OW27040   0.355   4.473   4.155 -0.1849 -0.6566  0.2563
 5135SOL    HW127041   0.372   4.404   4.220 -0.1077 -0.2443  0.6745
 5135SOL    HW227042   0.403   4.437   4.081  0.7795 -2.0330  1.5324
 5136SOL     OW27043   0.593   2.648   3.012 -0.1636  0.2694 -0.2867
 5136SOL    HW127044   0.638   2.667   3.094 -0.6746  0.5072 -0.0600
 5136SOL    HW227045   0.519   2.710   3.012  2.9503  3.9821  1.0370
 5137SOL     OW27046   1.908   0.884   1.385 -0.2597 -0.0974  0.4295
 5137SOL    HW127047   1.941   0.928   1.464  1.1451  2.0155 -1.3191
 5137SOL    HW227048   1.984   0.879   1.328 -0.8049  1.3067 -0.4203
 5138SOL     OW27049   2.951   4.392   2.182  0.0075  0.7042 -0.7876
 5138SOL    HW127050   2.994   4.440   2.253 -2.4128  0.0884  1.0738
 5138SOL    HW227051   2.862   4.426   2.187  0.5960  2.1200  0.2096
 5139SOL     OW27052   2.890   4.146   3.597 -0.2174 -0.6590  0.2088
 5139SOL    HW127053   2.898   4.109   3.509  0.5585  1.1436 -0.4752
 5139SOL    HW227054   2.794   4.145   3.596 -0.1986 -1.5350 -1.1659
 5140SOL     OW27055   4.076   2.318   0.965  0.0688  0.2927  0.1309
 5140SOL    HW127056   3.987   2.309   0.998  0.0089  1.7553  0.3966
 5140SOL    HW227057   4.091   2.227   0.941 -1.7898  0.3195 -1.1810
 5141SOL     OW27058   0.053   3.471   8.227  0.3032 -0.8482 -0.1538
 5141SOL    HW127059   0.040   3.378   8.249 -0.7984 -1.1201 -1.9807
 5141SOL    HW227060   0.047   3.508   8.315  2.8248  1.5958 -1.0543
 5142SOL     OW27061   4.269   3.954  11.119  0.2820 -0.2626  0.3124
 5142SOL    HW127062   4.269   3.926  11.210  2.8142  1.3265  0.8135
 5142SOL    HW227063   4.335   3.895  11.082  0.7199  0.7677 -0.5651
 5143SOL     OW27064   2.839   3.393  14.231 -0.4521  0.0601  0.2636
 5143SOL    HW127065   2.931   3.369  14.227 -0.6059 -0.1017 -1.9471
 5143SOL    HW227066   2.802   3.322  14.179 -0.8708 -1.0785  2.0922
 5144SOL     OW27067   0.969   3.684  11.070  0.3681  0.5266  0.0477
 5144SOL    HW127068   1.027   3.760  11.073  0.6720  0.2517  1.1483
 5144SOL    HW227069   1.030   3.611  11.053  0.3591  0.2957  1.0409
 5145SOL     OW27070   2.451   3.504   8.380 -0.1020 -0.0698 -0.2688
 5145SOL    HW127071   2.365   3.464   8.389 -0.4009  0.5829 -0.1962
 5145SOL    HW227072   2.428   3.597   8.382 -1.4795 -0.4236  0.2198
 5146SOL     OW27073   2.542   4.541   6.484 -0.5850  0.3212  0.2842
 5146SOL    HW127074   2.528   4.636   6.480  0.9592  0.5361 -0.2496
 5146SOL    HW227075   2.486   4.517   6.411 -0.0205 -0.0786 -0.0179
 5147SOL     OW27076   1.912   2.548   9.258 -0.2226 -0.1320  1.0324
 5147SOL    HW127077   1.996   2.590   9.276  0.2160 -0.9554  0.9145
 5147SOL    HW227078   1.858   2.608   9.207  1.2032 -0.4672 -0.8613
 5148SOL     OW27079   3.395   2.775  15.980 -0.1994 -0.1208  0.0714
 5148SOL    HW127080   3.302   2.752  15.981 -0.3434  0.2966 -2.0166
 5148SOL    HW227081   3.385   2.866  16.008  2.6914  0.2707 -0.1972
 5149SOL     OW27082   0.244   0.310   2.630 -0.1416 -0.5585  0.3728
 5149SOL    HW127083   0.205   0.395   2.609 -2.2196 -2.0759 -1.9066
 5149SOL    HW227084   0.338   0.305   2.614 -0.1044 -1.8665  1.0137
 5150SOL     OW27085   2.689   4.248   9.044  0.4129  0.4177  0.1109
 5150SOL    HW127086   2.594   4.240   9.036  0.6882 -1.4047 -1.1988
 5150SOL    HW227087   2.700   4.295   8.961 -1.0433 -0.5714 -0.6425
 5151SOL     OW27088   1.700   0.075   5.372  0.1129 -0.1479  0.0924
 5151SOL    HW127089   1.785   0.116   5.358 -0.7544  1.7964  0.5077
 5151SOL    HW227090   1.684   0.111   5.460  0.5822 -0.5775  0.3537
 5152SOL     OW27091   0.839   2.600   2.566 -0.1936  0.3734  0.0085
 5152SOL    HW127092   0.787   2.653   2.626 -1.1657 -3.0217  2.1806
 5152SOL    HW227093   0.781   2.533   2.528 -0.2405  0.3720  0.0821
 5153SOL     OW27094   4.498   4.486   4.176  0.3617  0.2530 -1.0488
 5153SOL    HW127095   4.450   4.404   4.162  2.0804 -1.1193  1.1917
 5153SOL    HW227096   4.567   4.481   4.109 -0.0446  0.2983 -1.4729
 5154SOL     OW27097   4.215   2.570   8.100 -0.3551  0.1154 -0.5243
 5154SOL    HW127098   4.310   2.581   8.104 -0.2521 -0.7859 -0.4487
 5154SOL    HW227099   4.208   2.554   8.006  1.8801 -0.0155 -0.6727
 5155SOL     OW27100   3.398   4.581   8.625  0.1065  1.1408 -0.0912
 5155SOL    HW127101   3.488   4.611   8.636  0.3196  1.4161 -2.4328
 5155SOL    HW227102   3.402   4.487   8.646 -0.6401  1.3205  0.8187
 5156SOL     OW27103   3.783   1.606   6.246 -0.0958 -0.1727 -0.4701
 5156SOL    HW127104   3.873   1.602   6.215 -0.3518 -0.6298 -1.1549
 5156SOL    HW227105   3.768   1.512   6.253  0.3699 -0.2312 -0.2862
 5157SOL     OW27106   1.126   2.702   8.547 -0.4579 -0.5506 -1.0784
 5157SOL    HW127107   1.149   2.795   8.542 -1.5098 -0.1936  0.7308
 5157SOL    HW227108   1.209   2.655   8.535 -0.1424  0.1499 -1.6305
 5158SOL     OW27109   1.447   2.313   3.957 -0.1534  0.2922  0.5566
 5158SOL    HW127110   1.451   2.380   4.025  2.9493 -0.1332  0.7911
 5158SOL    HW227111   1.519   2.345   3.904 -0.6507  1.5158  0.6194
 5159SOL     OW27112   2.499   0.988  14.954 -0.4700 -0.0248  0.5453
 5159SOL    HW127113   2.583   0.977  14.999  0.1225  0.5956 -0.4184
 5159SOL    HW227114   2.473   1.079  14.969 -0.4272  0.2493 -1.1336
 5160SOL     OW27115   2.061   1.481  12.277 -0.0480 -0.7006  0.2780
 5160SOL    HW127116   2.022   1.566  12.257 -1.0683 -1.6079 -1.6459
 5160SOL    HW227117   2.001   1.431  12.331  0.0973 -1.4576 -0.2592
 5161SOL     OW27118   1.764   3.627   9.066  0.5157  0.6423 -0.3726
 5161SOL    HW127119   1.844   3.575   9.080  0.6224  1.2495  1.2944
 5161SOL    HW227120   1.778   3.690   8.995  0.2688  0.9687 -0.1317
 5162SOL     OW27121   3.020   4.715   4.173 -0.3702  0.1261 -0.1594
 5162SOL    HW127122   2.964   0.050   4.154  0.7636  1.3803  1.4842
 5162SOL    HW227123   3.020   4.687   4.082  0.4514  0.2092 -0.1837
 5163SOL     OW27124   4.578   3.563   0.859 -0.3955  0.2562  0.4620
 5163SOL    HW127125   4.603   3.533   0.946  1.6929  0.4878 -0.0528
 5163SOL    HW227126   4.543   3.489   0.808 -2.2344  2.2974 -1.2211
 5164SOL     OW27127   3.265   1.632   8.134 -0.1756 -0.0802 -0.1522
 5164SOL    HW127128   3.256   1.541   8.164  0.2483  0.2561  1.0194
 5164SOL    HW227129   3.276   1.674   8.219 -1.3708 -1.6959  0.8068
 5165SOL     OW27130   1.214   0.323  14.565  0.5760  0.5896  0.2999
 5165SOL    HW127131   1.182   0.380  14.635 -0.7998  2.3903 -1.7927
 5165SOL    HW227132   1.150   0.342  14.497  0.2412 -1.5408  0.0337
 5166SOL     OW27133   4.140   3.215  10.748 -0.0534  0.6567  0.0649
 5166SOL    HW127134   4.152   3.240  10.840  1.8295 -0.0397  0.0082
 5166SOL    HW227135   4.174   3.295  10.708  0.1348  0.4938 -0.0987
 5167SOL     OW27136   0.466   2.049  14.554 -0.4886  0.1671 -0.2161
 5167SOL    HW127137   0.510   2.000  14.624  0.1441 -0.1044 -0.8085
 5167SOL    HW227138   0.393   1.988  14.550 -1.1880  0.8832  1.4629
 5168SOL     OW27139   4.400   1.280   3.545  0.0065  0.2766 -0.1043
 5168SOL    HW127140   4.452   1.203   3.525 -0.9086 -0.1255 -0.9502
 5168SOL    HW227141   4.315   1.250   3.512  0.4230  0.0658 -0.9806
 5169SOL     OW27142   2.940   4.673   7.542 -0.5067 -0.1158  0.1088
 5169SOL    HW127143   2.953   4.580   7.524  0.1087  0.2087 -1.0932
 5169SOL    HW227144   2.946   4.724   7.461  1.3342 -0.9132 -0.2528
 5170SOL     OW27145   4.065   2.971   8.240 -0.1435 -0.1135  0.1169
 5170SOL    HW127146   3.972   2.990   8.242 -0.3884 -1.3538  0.5435
 5170SOL    HW227147   4.102   3.045   8.288  0.6644 -0.3887 -0.0691
 5171SOL     OW27148   1.931   0.759   5.328  0.3958 -0.3294 -0.4661
 5171SOL    HW127149   1.868   0.708   5.277 -0.9408 -0.2096  1.0518
 5171SOL    HW227150   2.012   0.738   5.281  0.1906 -1.1071 -0.4806
 5172SOL     OW27151   4.413   3.837   7.621  0.3188 -0.5295  0.3121
 5172SOL    HW127152   4.400   3.913   7.563 -0.9553 -0.2163  0.9941
 5172SOL    HW227153   4.469   3.777   7.572  0.6824  2.4448 -2.9312
 5173SOL     OW27154   3.881   2.940  16.555  0.2759  0.1966  0.3383
 5173SOL    HW127155   3.919   2.857  16.585 -0.6782  0.2193  1.5881
 5173SOL    HW227156   3.961   2.993  16.557  1.2516 -1.2896  0.9094
 5174SOL     OW27157   2.556   1.223   7.305 -0.0565  0.3353  0.1370
 5174SOL    HW127158   2.499   1.270   7.365  0.2306  2.0903 -0.9566
 5174SOL    HW227159   2.554   1.290   7.236  0.3414  0.1423 -0.0638
 5175SOL     OW27160   0.113   2.182   1.544  0.0319 -0.0102 -0.4997
 5175SOL    HW127161   0.132   2.276   1.554 -1.1030 -0.0194  1.8271
 5175SOL    HW227162   0.050   2.181   1.616  0.5919  1.8663  0.0215
 5176SOL     OW27163   3.753   0.705   5.608  0.3119 -0.6084 -0.0746
 5176SOL    HW127164   3.720   0.678   5.523  0.0020 -0.9220  0.1413
 5176SOL    HW227165   3.677   0.698   5.666  0.2551 -0.9905 -0.1974
 5177SOL     OW27166   2.259   2.409   7.627 -0.7858  0.1102  0.5512
 5177SOL    HW127167   2.289   2.361   7.550  0.7047  0.0977  1.1289
 5177SOL    HW227168   2.263   2.505   7.620 -2.0692  0.1022 -0.3044
 5178SOL     OW27169   1.979   2.685   6.850 -0.4373  0.3354  0.7352
 5178SOL    HW127170   1.990   2.624   6.777  1.8144  1.4961  0.0923
 5178SOL    HW227171   1.901   2.652   6.894  0.4829 -0.6159  1.6608
 5179SOL     OW27172   3.251   4.637   7.483 -0.0186 -0.2655 -0.2760
 5179SOL    HW127173   3.183   4.668   7.423 -0.4116  1.2308  0.9466
 5179SOL    HW227174   3.320   4.698   7.456 -0.5432  1.5062  2.3175
 5180SOL     OW27175   2.025   2.050   9.035 -0.0900  0.8878 -0.3258
 5180SOL    HW127176   2.027   2.143   9.058 -0.4437  0.6307  0.7486
 5180SOL    HW227177   2.107   2.019   9.073 -0.1176 -0.7409 -1.6109
 5181SOL     OW27178   1.533   0.777   6.301 -1.1003 -0.0941 -0.2580
 5181SOL    HW127179   1.521   0.871   6.309 -1.7711 -0.2126  0.0801
 5181SOL    HW227180   1.458   0.747   6.352  0.0485 -1.0289  0.8596
 5182SOL     OW27181   0.954   4.708   4.968 -0.0171 -0.0095  0.3221
 5182SOL    HW127182   0.966   4.696   4.874  1.5987  1.8308  0.2827
 5182SOL    HW227183   0.966   4.620   5.003 -1.6143 -0.1734  0.4397
 5183SOL     OW27184   1.484   1.705  12.078  0.3739 -0.0151 -0.0403
 5183SOL    HW127185   1.465   1.670  11.991 -0.5259 -2.1783  1.0440
 5183SOL    HW227186   1.489   1.798  12.054  1.4487 -0.0437  0.0731
 5184SOL     OW27187   1.992   3.717   8.435 -0.3685 -0.2181 -0.4908
 5184SOL    HW127188   1.984   3.746   8.526 -2.9738  2.3753 -1.5370
 5184SOL    HW227189   1.904   3.699   8.403 -0.1441  0.7252 -1.6665
 5185SOL     OW27190   1.669   2.760   4.687  0.0573 -0.1246  0.2051
 5185SOL    HW127191   1.632   2.844   4.714 -1.3144 -0.3883 -0.9052
 5185SOL    HW227192   1.726   2.785   4.615 -1.7956  1.3330 -0.7454
 5186SOL     OW27193   3.321   4.475   9.007 -0.9653 -0.1639  0.0287
 5186SOL    HW127194   3.304   4.503   8.918  2.5190  0.8053 -0.3142
 5186SOL    HW227195   3.412   4.501   9.022 -1.2378  1.7705 -1.7614
 5187SOL     OW27196   3.568   1.149   6.855  0.0653  0.2027 -1.0158
 5187SOL    HW127197   3.476   1.145   6.828 -0.4794 -1.5927  1.1382
 5187SOL    HW227198   3.559   1.220   6.919  1.5084 -0.7141  0.1891
 5188SOL     OW27199   1.470   3.504  10.430 -0.2874  0.6672  0.8781
 5188SOL    HW127200   1.534   3.434  10.418  2.4425  3.1039  1.4902
 5188SOL    HW227201   1.451   3.526  10.339  0.4333 -0.0484  0.5514
 5189SOL     OW27202   3.305   1.723   4.661  0.2010  0.3887 -0.4621
 5189SOL    HW127203   3.334   1.805   4.622  1.2235 -0.4929 -1.5559
 5189SOL    HW227204   3.228   1.758   4.707  0.6850  1.3468 -0.3841
 5190SOL     OW27205   3.149   0.674  15.127  0.5644  0.5206 -0.8077
 5190SOL    HW127206   3.162   0.716  15.042  1.2783 -0.8855 -1.3910
 5190SOL    HW227207   3.190   0.741  15.182 -0.5629  0.9149 -0.4649
 5191SOL     OW27208   2.718   3.745  16.413 -0.0598 -0.5237  0.0598
 5191SOL    HW127209   2.724   3.748  16.318  1.7423 -1.3949  0.1559
 5191SOL    HW227210   2.699   3.652  16.427  0.7535 -1.0078 -2.1014
 5192SOL     OW27211   2.463   2.389  13.108  0.2088 -0.2423 -0.2202
 5192SOL    HW127212   2.537   2.415  13.162  1.1160 -0.3282 -1.4375
 5192SOL    HW227213   2.384   2.402  13.161 -0.9969 -1.2427 -1.7665
 5193SOL     OW27214   0.165   1.936  16.295  0.0796  0.2011 -0.2631
 5193SOL    HW127215   0.194   2.006  16.354 -2.1074  1.3745 -0.6127
 5193SOL    HW227216   0.247   1.904  16.257  0.3160 -1.1155  1.3298
 5194SOL     OW27217   0.163   0.093  14.354 -0.1459 -0.2328 -0.6714
 5194SOL    HW127218   0.249   0.132  14.343  0.6275 -1.5473  0.5451
 5194SOL    HW227219   0.148   0.131  14.441  0.6195  0.1765 -0.7176
 5195SOL     OW27220   3.796   1.353   8.599  0.0395 -0.1163  0.0894
 5195SOL    HW127221   3.838   1.418   8.655  1.4735 -0.8782 -0.1175
 5195SOL    HW227222   3.846   1.345   8.518  0.5187 -0.6665  0.4454
 5196SOL     OW27223   2.703   1.744   1.891 -1.1405  0.3441 -0.0077
 5196SOL    HW127224   2.721   1.823   1.841  1.8366 -1.9261 -2.5068
 5196SOL    HW227225   2.622   1.724   1.844 -0.6750  0.2891 -0.7783
 5197SOL     OW27226   0.027   1.061   9.665  0.2217 -0.0967 -0.2143
 5197SOL    HW127227   0.006   0.984   9.718 -0.4036 -1.0459 -1.8365
 5197SOL    HW227228   0.017   1.133   9.727  0.3946 -0.2988  0.0502
 5198SOL     OW27229   2.570   1.124   6.494  0.8912  0.4334  0.3049
 5198SOL    HW127230   2.626   1.194   6.529  1.3115  0.5157 -0.5301
 5198SOL    HW227231   2.620   1.082   6.425 -1.5338 -0.7265 -0.7491
 5199SOL     OW27232   3.589   4.441  16.644  0.5833 -0.2840  0.0991
 5199SOL    HW127233   3.540   4.444  16.726  2.8387 -1.0055  1.4498
 5199SOL    HW227234   3.593   4.346  16.630  2.5998 -0.4670  1.8787
 5200SOL     OW27235   4.674   3.531   4.061 -0.4806  0.1257 -0.4516
 5200SOL    HW127236   4.727   3.608   4.043 -2.3506  1.3259 -0.8713
 5200SOL    HW227237   4.731   3.463   4.024 -0.7352 -2.1059  3.2508
 5201SOL     OW27238   4.501   3.056   8.313 -0.0052 -0.2517 -0.2726
 5201SOL    HW127239   4.441   3.129   8.328 -0.9941 -1.0419 -0.3936
 5201SOL    HW227240   4.456   3.010   8.242  0.0680 -1.8260  0.6797
 5202SOL     OW27241   0.726   3.727  11.281  0.2434  0.2019  0.1422
 5202SOL    HW127242   0.801   3.692  11.234  0.1972 -0.2722  0.4142
 5202SOL    HW227243   0.700   3.790  11.214 -1.0468  0.7568  1.1625
 5203SOL     OW27244   0.925   0.216   5.711  0.1855  0.0899  0.4604
 5203SOL    HW127245   0.852   0.223   5.772 -0.2120 -0.4489  0.0526
 5203SOL    HW227246   1.002   0.201   5.766 -1.9790  1.2039  3.7041
 5204SOL     OW27247   1.856   1.045  13.203  0.5591 -0.1703 -0.3643
 5204SOL    HW127248   1.903   1.123  13.173 -0.9737  0.1410 -1.9333
 5204SOL    HW227249   1.770   1.059  13.165  0.1390 -0.4475  0.4908
 5205SOL     OW27250   4.436   1.534   9.423  0.2294  0.0616  0.4333
 5205SOL    HW127251   4.427   1.574   9.509  0.1209 -1.1443  0.9822
 5205SOL    HW227252   4.529   1.514   9.430  0.2188 -0.1835 -0.1204
 5206SOL     OW27253   1.820   0.667   7.735 -0.0974 -0.3584  0.1202
 5206SOL    HW127254   1.808   0.591   7.678 -0.9982 -1.7004  2.1087
 5206SOL    HW227255   1.756   0.640   7.801  1.6776  1.6049  2.6605
 5207SOL     OW27256   0.443   0.555  16.602  0.4095  0.5546 -0.1683
 5207SOL    HW127257   0.490   0.634  16.576 -1.7778  1.2466 -2.0214
 5207SOL    HW227258   0.385   0.583  16.672  1.8195  2.5389  0.2012
 5208SOL     OW27259   3.595   0.841   8.679 -0.2602 -0.5898 -0.3198
 5208SOL    HW127260   3.655   0.850   8.605 -2.9523 -0.5280 -2.5258
 5208SOL    HW227261   3.579   0.936   8.686  0.5040 -0.4392 -0.7084
 5209SOL     OW27262   2.445   0.820   7.439  0.2542  0.1974 -0.0271
 5209SOL    HW127263   2.368   0.771   7.411 -0.7895  1.8122  0.0020
 5209SOL    HW227264   2.518   0.762   7.419 -1.0408 -1.4864  0.0582
 5210SOL     OW27265   2.848   0.735   4.389 -0.1147  0.0958  0.2288
 5210SOL    HW127266   2.856   0.640   4.399  1.4403  0.4491  2.2991
 5210SOL    HW227267   2.924   0.761   4.442 -1.6253  0.3078  2.3085
 5211SOL     OW27268   3.123   2.703   8.523 -0.1799  0.3071 -0.4895
 5211SOL    HW127269   3.072   2.776   8.557  0.6117  0.7893 -0.3223
 5211SOL    HW227270   3.132   2.653   8.604  2.3709  1.8880  0.2205
 5212SOL     OW27271   3.870   2.200   2.785  0.3249  0.5830 -0.3067
 5212SOL    HW127272   3.800   2.186   2.720 -0.2907  0.1984  0.4392
 5212SOL    HW227273   3.940   2.143   2.753  0.0590 -0.3580  0.7769
 5213SOL     OW27274   1.649   0.818  11.008 -0.3573  0.0802  0.0222
 5213SOL    HW127275   1.615   0.768  11.083 -1.8216  0.3620 -0.4519
 5213SOL    HW227276   1.742   0.817  11.027 -0.0619 -0.3899 -1.4639
 5214SOL     OW27277   2.716   0.172   4.569 -0.3328 -0.1467  0.1056
 5214SOL    HW127278   2.765   0.150   4.648 -0.4508 -0.6977  0.0287
 5214SOL    HW227279   2.732   0.097   4.512 -0.4139 -0.2903  0.2721
 5215SOL     OW27280   2.498   0.228   4.870  0.0810  0.0139 -0.4494
 5215SOL    HW127281   2.577   0.267   4.907  0.3389 -1.4038  0.4645
 5215SOL    HW227282   2.457   0.313   4.852  0.7978  0.8338  1.8855
 5216SOL     OW27283   2.753   2.827   3.216  0.4780 -0.0832  0.6013
 5216SOL    HW127284   2.811   2.762   3.255  0.9365 -0.7829 -1.2510
 5216SOL    HW227285   2.795   2.912   3.233  2.2950 -1.0827  1.0929
 5217SOL     OW27286   3.302   2.198   4.560 -0.2643  0.6337 -0.6380
 5217SOL    HW127287   3.385   2.169   4.522 -0.4100  0.8047 -1.0831
 5217SOL    HW227288   3.333   2.279   4.602 -2.0858  0.9311  0.1247
 5218SOL     OW27289   3.302   0.222   6.280 -0.3743  0.3887  0.2536
 5218SOL    HW127290   3.384   0.240   6.325 -0.0850  1.5126 -0.7286
 5218SOL    HW227291   3.328   0.144   6.231  1.1991  2.0780 -1.5904
 5219SOL     OW27292   3.526   3.594  16.355  0.0279 -0.8667 -0.4527
 5219SOL    HW127293   3.591   3.591  16.286 -1.1449  2.0574 -1.6801
 5219SOL    HW227294   3.568   3.558  16.433  0.1820 -0.2302 -0.2446
 5220SOL     OW27295   3.523   2.725   1.124  0.9810 -0.1833  0.4096
 5220SOL    HW127296   3.608   2.716   1.082  1.2737  1.1445  0.7210
 5220SOL    HW227297   3.521   2.819   1.138  0.4441 -0.2591  0.9102
 5221SOL     OW27298   3.919   4.201   2.668 -0.1388 -0.1821  0.2701
 5221SOL    HW127299   3.967   4.125   2.636  1.8877  2.0542 -1.9148
 5221SOL    HW227300   3.893   4.168   2.754 -2.3242  1.2967  0.1842
 5222SOL     OW27301   1.077   3.113   8.077  0.6085 -0.0469 -0.1465
 5222SOL    HW127302   1.011   3.047   8.099  1.0727 -0.2808  0.5292
 5222SOL    HW227303   1.157   3.095   8.127  1.0297 -1.2433 -1.2554
 5223SOL     OW27304   1.962   2.494  12.638 -0.4424 -0.2527 -0.0539
 5223SOL    HW127305   1.962   2.422  12.700  0.3171  0.5704  0.8902
 5223SOL    HW227306   2.055   2.512  12.626 -0.6737 -1.3810 -3.5122
 5224SOL     OW27307   3.129   1.757  16.192 -0.2458 -0.1133  0.4439
 5224SOL    HW127308   3.038   1.745  16.163  0.1975 -0.9724 -0.5754
 5224SOL    HW227309   3.129   1.720  16.281 -2.6344 -1.2770 -0.0258
 5225SOL     OW27310   1.346   3.270   5.937 -0.4445 -0.2053 -0.5856
 5225SOL    HW127311   1.350   3.312   6.023  0.3203 -1.1867 -0.1320
 5225SOL    HW227312   1.416   3.206   5.949 -0.0166  0.3053 -0.3851
 5226SOL     OW27313   2.443   4.665  16.680  0.3153 -0.6925  0.0364
 5226SOL    HW127314   2.492   4.683  16.600  1.3863 -1.7861  0.4507
 5226SOL    HW227315   2.368   4.614  16.649  0.4668 -0.4663 -0.7097
 5227SOL     OW27316   4.316   3.966  13.809 -0.2416  0.2252 -0.3334
 5227SOL    HW127317   4.384   3.904  13.835 -0.4257  0.1492 -0.0364
 5227SOL    HW227318   4.301   3.937  13.719  0.3663  2.0401 -1.0434
 5228SOL     OW27319   3.830   1.050   6.867 -0.0544  0.3317  0.2616
 5228SOL    HW127320   3.853   1.038   6.775  1.6589 -2.3102  1.0379
 5228SOL    HW227321   3.736   1.069   6.867  0.0234  0.7241 -0.3837
 5229SOL     OW27322   3.856   2.205   4.999  0.2107 -0.1605 -1.0109
 5229SOL    HW127323   3.774   2.244   4.970  0.0919 -0.7749 -1.5024
 5229SOL    HW227324   3.853   2.116   4.963 -1.8845 -0.7164  0.4832
 5230SOL     OW27325   4.473   3.821   3.417 -0.5883  0.2566 -0.2125
 5230SOL    HW127326   4.511   3.801   3.503  0.0960 -0.6671 -0.7291
 5230SOL    HW227327   4.548   3.870   3.383  0.7847 -0.4303  1.8259
 5231SOL     OW27328   4.505   1.732   7.154  0.0978  1.1272  0.0284
 5231SOL    HW127329   4.409   1.733   7.156  0.1301  1.4242  1.5309
 5231SOL    HW227330   4.530   1.764   7.241  0.5241  0.9754 -0.0353
 5232SOL     OW27331   4.029   3.046   5.591 -0.6696 -0.0192  0.1085
 5232SOL    HW127332   4.056   2.957   5.616  0.7453  0.1571 -0.7542
 5232SOL    HW227333   4.086   3.090   5.654 -1.5563  2.4531 -0.8226
 5233SOL     OW27334   4.373   1.343   6.770  0.5573  0.8391  0.4727
 5233SOL    HW127335   4.443   1.298   6.818  0.1124  1.7631  2.0028
 5233SOL    HW227336   4.305   1.275   6.778  1.3531 -0.0920 -0.7239
 5234SOL     OW27337   4.086   1.531   2.742  0.6074 -0.3414 -0.2446
 5234SOL    HW127338   4.153   1.549   2.676 -0.2321 -1.4037 -1.3875
 5234SOL    HW227339   4.122   1.456   2.789 -1.1063 -0.7904  0.3595
 5235SOL     OW27340   4.107   3.966  16.440  0.0875 -0.3781  0.2634
 5235SOL    HW127341   4.124   4.055  16.471 -1.4361  0.1428 -0.4244
 5235SOL    HW227342   4.021   3.949  16.478 -0.4454  1.1704 -0.2645
 5236SOL     OW27343   3.557   2.178   5.127  0.3665  0.3773  0.4639
 5236SOL    HW127344   3.523   2.267   5.129  0.5495  0.4094  3.1237
 5236SOL    HW227345   3.571   2.149   5.218  0.5170  0.3862  0.4444
 5237SOL     OW27346   2.347   3.194   8.550  0.1629  0.1344 -0.0749
 5237SOL    HW127347   2.424   3.192   8.608  0.5042  0.2715 -0.5194
 5237SOL    HW227348   2.295   3.261   8.594 -0.4895 -0.1897 -0.3573
 5238SOL     OW27349   2.418   3.084   5.564 -0.6104  0.0029  0.1841
 5238SOL    HW127350   2.344   3.094   5.504 -2.1528 -1.6886  1.7957
 5238SOL    HW227351   2.479   3.135   5.511 -1.9932  1.2261 -0.2262
 5239SOL     OW27352   3.038   0.087   1.175  0.1736 -0.5519 -0.0625
 5239SOL    HW127353   3.007   0.175   1.156  1.5189 -0.3974 -1.4985
 5239SOL    HW227354   3.132   0.086   1.159  0.4236  2.2717  1.2158
 5240SOL     OW27355   0.445   0.825   1.693 -0.2157 -0.4298  0.3102
 5240SOL    HW127356   0.505   0.756   1.665 -1.2818 -1.3726  0.3673
 5240SOL    HW227357   0.365   0.778   1.717 -1.1809  0.6686 -0.7303
 5241SOL     OW27358   0.326   4.009   4.603 -0.0486 -0.1604 -0.0459
 5241SOL    HW127359   0.366   3.925   4.625 -0.0998 -0.5379 -1.4350
 5241SOL    HW227360   0.337   4.058   4.685 -1.8300 -0.7859  0.5812
 5242SOL     OW27361   3.913   0.124   0.453  0.4199  0.3424 -0.0110
 5242SOL    HW127362   3.824   0.158   0.440  0.5158  0.1851 -1.0760
 5242SOL    HW227363   3.951   0.197   0.501  0.7135 -0.3009  0.7279
 5243SOL     OW27364   4.138   1.646   9.959  0.3924 -0.2628  0.0816
 5243SOL    HW127365   4.097   1.587   9.896 -0.6432  2.4990 -1.8178
 5243SOL    HW227366   4.125   1.589  10.035 -0.4197  0.1629  0.2587
 5244SOL     OW27367   0.576   4.078   6.646 -0.1979  0.0344 -0.2580
 5244SOL    HW127368   0.558   4.171   6.631 -0.4208  0.0900  0.3727
 5244SOL    HW227369   0.664   4.067   6.609 -0.1133 -2.2307  0.6348
 5245SOL     OW27370   4.650   2.228   8.622 -0.1481 -0.2549 -0.1845
 5245SOL    HW127371   4.678   2.158   8.564  0.7890 -0.6856  0.7847
 5245SOL    HW227372   4.707   2.223   8.699 -1.5403  1.0274  0.9426
 5246SOL     OW27373   0.602   1.306   4.176 -0.0920  0.0676  0.0652
 5246SOL    HW127374   0.512   1.337   4.183 -0.2386 -0.2683 -0.3457
 5246SOL    HW227375   0.616   1.294   4.082  1.1896 -1.1119  0.4092
 5247SOL     OW27376   3.202   2.782   1.053  0.2322  0.2971  0.2435
 5247SOL    HW127377   3.278   2.743   1.011 -0.5722 -0.4542 -0.5326
 5247SOL    HW227378   3.225   2.797   1.145  3.2674  1.8752 -0.7995
 5248SOL     OW27379   3.802   1.264   5.701 -0.1852 -0.0856  0.3098
 5248SOL    HW127380   3.716   1.304   5.714  1.7108  3.1817  2.7346
 5248SOL    HW227381   3.772   1.172   5.698 -1.8803  0.4755 -0.1957
 5249SOL     OW27382   1.481   3.816   5.038 -0.4467  0.1557  0.3590
 5249SOL    HW127383   1.509   3.779   5.121  1.5293  0.2697 -0.2629
 5249SOL    HW227384   1.497   3.743   4.979 -1.2236 -1.4893  2.2030
 5250SOL     OW27385   0.481   4.052   0.505 -0.7718  0.1000  0.2361
 5250SOL    HW127386   0.576   4.058   0.515 -0.6790  1.6644 -1.6072
 5250SOL    HW227387   0.454   4.129   0.555 -1.1092 -0.7628  1.3790
 5251SOL     OW27388   1.325   2.508   8.479 -0.7162  0.1199 -0.1451
 5251SOL    HW127389   1.388   2.559   8.530 -0.4339 -0.8787  0.5064
 5251SOL    HW227390   1.324   2.424   8.524 -2.1168  1.8023  2.9442
 5252SOL     OW27391   3.393   0.500  12.967  0.3958 -0.2830  1.0278
 5252SOL    HW127392   3.398   0.505  12.872 -0.8237 -2.8026  0.8218
 5252SOL    HW227393   3.314   0.546  12.994  0.2544  1.0947 -1.6879
 5253SOL     OW27394   3.387   1.212   5.864 -0.0483  0.4209 -0.0178
 5253SOL    HW127395   3.313   1.263   5.831  1.0134 -0.1567 -3.2627
 5253SOL    HW227396   3.449   1.211   5.792 -0.9472 -1.3269 -0.7457
 5254SOL     OW27397   1.239   0.996   8.966 -0.6203 -0.4097  0.2473
 5254SOL    HW127398   1.159   1.003   8.913 -0.1516  0.9772 -0.2746
 5254SOL    HW227399   1.290   1.053   8.908 -1.6929  0.2216 -0.0878
 5255SOL     OW27400   3.942   2.855  17.509 -0.0652 -0.4145  0.5655
 5255SOL    HW127401   3.898   2.939  17.529 -0.9602 -0.4698 -1.1889
 5255SOL    HW227402   4.029   2.856  17.548  1.0274 -0.1582 -1.8869
 5256SOL     OW27403   4.725   4.548  14.517 -0.5745 -0.0117  0.0110
 5256SOL    HW127404   4.682   4.633  14.526 -0.0229  0.1030  1.4618
 5256SOL    HW227405   0.037   4.556  14.438  0.2167  1.9145  0.7388
 5257SOL     OW27406   4.535   4.226   5.561 -0.1542 -0.3440 -0.2762
 5257SOL    HW127407   4.612   4.251   5.510  0.1087 -2.4271 -0.9047
 5257SOL    HW227408   4.565   4.221   5.652 -1.8233  0.9364  0.3536
 5258SOL     OW27409   0.564   1.520   9.530  0.4952 -0.1849 -0.2085
 5258SOL    HW127410   0.499   1.481   9.589 -0.9181 -0.7316 -2.1368
 5258SOL    HW227411   0.585   1.602   9.574 -1.3468 -1.2364  2.6829
 5259SOL     OW27412   0.860   0.619  14.658  0.2457  0.0023  0.7898
 5259SOL    HW127413   0.904   0.687  14.710  2.0902  2.4349 -3.9059
 5259SOL    HW227414   0.784   0.597  14.711  0.7138  0.4468  1.6446
 5260SOL     OW27415   1.294   4.523   7.758  0.1027 -1.1426  0.5117
 5260SOL    HW127416   1.379   4.519   7.715  0.5145  0.7740  1.1701
 5260SOL    HW227417   1.278   4.616   7.773  1.2084 -0.7700 -0.6172
 5261SOL     OW27418   1.629   0.693   5.487  0.0319 -0.3267 -0.2662
 5261SOL    HW127419   1.662   0.710   5.400 -1.4689 -0.6722 -0.9128
 5261SOL    HW227420   1.696   0.732   5.543  1.4252 -1.1407 -1.3936
 5262SOL     OW27421   1.998   4.561   3.933  0.4150  0.0462  0.3318
 5262SOL    HW127422   1.919   4.521   3.896  0.0780 -0.0055  1.1084
 5262SOL    HW227423   2.055   4.490   3.960 -0.0449 -0.9694 -1.3584
 5263SOL     OW27424   0.898   2.603   5.657 -0.5116 -0.2846  0.4827
 5263SOL    HW127425   0.920   2.695   5.651  1.7999 -0.7711  1.4944
 5263SOL    HW227426   0.937   2.558   5.582  1.6647  0.5902  1.0949
 5264SOL     OW27427   2.772   4.036   1.793 -0.2907 -0.1760  0.0912
 5264SOL    HW127428   2.859   4.001   1.772 -0.1118  1.5539 -2.1010
 5264SOL    HW227429   2.725   3.976   1.851  1.6158 -0.3212  1.4859
 5265SOL     OW27430   3.130   2.544   6.211 -0.2004 -0.1588  0.1099
 5265SOL    HW127431   3.131   2.456   6.249 -1.7571 -0.4132 -0.4078
 5265SOL    HW227432   3.210   2.578   6.251 -0.1586 -1.3037  0.9951
 5266SOL     OW27433   2.574   4.686  13.358  0.1741 -0.5535  0.5586
 5266SOL    HW127434   2.583   4.601  13.316  1.5781  0.9661 -2.2296
 5266SOL    HW227435   2.633   4.676  13.432 -2.1248  0.1641  2.5143
 5267SOL     OW27436   4.684   2.524   1.045  0.1979 -0.6714 -0.6014
 5267SOL    HW127437   4.689   2.477   0.962  0.1236 -0.7920 -0.5376
 5267SOL    HW227438   4.590   2.522   1.063  0.6955  1.5085  2.2649
 5268SOL     OW27439   3.908   1.529   3.621  0.1738  0.0633  0.5200
 5268SOL    HW127440   3.903   1.623   3.639 -0.4814  0.1530 -0.1289
 5268SOL    HW227441   3.994   1.499   3.650 -0.3952 -1.0427  1.0867
 5269SOL     OW27442   3.767   1.037   4.953  0.3197  0.0172 -0.3174
 5269SOL    HW127443   3.709   1.112   4.939 -2.4236 -1.9381  0.4053
 5269SOL    HW227444   3.843   1.070   5.001 -1.9155  1.5567  2.1561
 5270SOL     OW27445   2.209   4.665   0.717  0.5611 -0.3701  0.5243
 5270SOL    HW127446   2.227   0.018   0.715 -0.1517 -0.3073 -2.1518
 5270SOL    HW227447   2.158   4.666   0.799 -0.9611  1.4851 -0.4257
 5271SOL     OW27448   0.811   2.436   2.824 -0.2921 -0.1680  0.0378
 5271SOL    HW127449   0.844   2.453   2.736  0.6733 -1.5927  0.1277
 5271SOL    HW227450   0.748   2.508   2.827 -0.1430 -0.0546  0.5428
 5272SOL     OW27451   1.074   0.452   4.588 -0.1208  0.0653 -0.0893
 5272SOL    HW127452   0.989   0.408   4.592 -0.1931  0.0631 -1.6257
 5272SOL    HW227453   1.110   0.441   4.676  1.4697  0.7381 -0.6711
 5273SOL     OW27454   0.237   3.715   2.764  0.0872  0.6750  0.8081
 5273SOL    HW127455   0.328   3.745   2.772  0.1750  0.4412  0.6916
 5273SOL    HW227456   0.187   3.789   2.730  0.7008  0.3177 -0.8770
 5274SOL     OW27457   3.624   2.205   6.663  0.0739 -0.6964  0.0279
 5274SOL    HW127458   3.662   2.268   6.602 -2.4716  0.1468 -0.7195
 5274SOL    HW227459   3.581   2.264   6.725  0.1071  0.2242 -0.8325
 5275SOL     OW27460   0.574   3.124   2.525 -0.3608  0.2368  0.1198
 5275SOL    HW127461   0.487   3.130   2.487 -0.6196  1.2812  0.8753
 5275SOL    HW227462   0.609   3.052   2.473 -1.5698 -0.5330  0.3672
 5276SOL     OW27463   4.185   4.512   8.738 -0.1110  0.1281  0.3850
 5276SOL    HW127464   4.223   4.521   8.826 -0.8722  0.2556  0.7041
 5276SOL    HW227465   4.231   4.431   8.716  1.1169  1.0667 -0.5540
 5277SOL     OW27466   2.364   1.383   9.510 -0.1102  0.0223 -0.4523
 5277SOL    HW127467   2.383   1.365   9.418  0.3289 -2.5522  0.1352
 5277SOL    HW227468   2.366   1.295   9.546 -0.8368  0.0001 -0.4662
 5278SOL     OW27469   1.833   0.556  15.016  0.4489  0.5607  0.2021
 5278SOL    HW127470   1.864   0.502  15.088 -0.1998 -1.4814 -1.0353
 5278SOL    HW227471   1.915   0.603  15.002 -0.4320  1.0997 -3.2362
 5279SOL     OW27472   2.610   0.797  10.316 -0.3543 -0.4621 -0.1870
 5279SOL    HW127473   2.621   0.759  10.229 -0.4924  1.5442 -1.0873
 5279SOL    HW227474   2.536   0.753  10.356  0.6943 -1.5147  0.6012
 5280SOL     OW27475   1.269   2.814   9.249 -0.5279  0.5431 -0.5298
 5280SOL    HW127476   1.180   2.847   9.237 -0.7314 -0.0072 -0.5336
 5280SOL    HW227477   1.290   2.806   9.156  0.3516  2.0632 -0.4633
 5281SOL     OW27478   1.801   0.040   0.916 -0.2324 -0.1618 -0.5255
 5281SOL    HW127479   1.724   0.074   0.871 -0.1090  0.9484  0.1262
 5281SOL    HW227480   1.787   4.686   0.908 -0.4702 -0.1337 -0.4223
 5282SOL     OW27481   2.253   2.231   6.268  0.4152 -0.2127  0.0928
 5282SOL    HW127482   2.202   2.287   6.327  0.5415 -1.0883  1.0302
 5282SOL    HW227483   2.265   2.291   6.194  2.7013  0.6084  1.1397
 5283SOL     OW27484   1.727   0.319   5.021  0.1810  0.1041 -0.5668
 5283SOL    HW127485   1.699   0.227   5.022  0.9974 -0.1294  1.2089
 5283SOL    HW227486   1.795   0.319   4.954  1.3017 -0.8932  0.5554
 5284SOL     OW27487   3.204   2.106  12.613 -0.1435  0.7252 -0.4892
 5284SOL    HW127488   3.219   2.012  12.603  3.8912  1.3455 -0.4091
 5284SOL    HW227489   3.234   2.131  12.525  0.5988  0.5539 -0.2847
 5285SOL     OW27490   4.153   4.655   5.389 -0.3419 -0.4353 -0.2784
 5285SOL    HW127491   4.070   4.701   5.397 -0.8640 -1.3221 -0.7120
 5285SOL    HW227492   4.131   4.569   5.424  2.0096 -1.0308 -0.2656
 5286SOL     OW27493   0.599   0.772   2.743 -0.3411 -0.7790 -0.1660
 5286SOL    HW127494   0.577   0.749   2.834  2.6404 -1.4620  0.3705
 5286SOL    HW227495   0.634   0.860   2.756  1.3243 -1.8997  2.9404
 5287SOL     OW27496   3.758   0.329   7.080  0.3161 -0.4587  0.8624
 5287SOL    HW127497   3.816   0.348   7.153  1.4374  0.9681 -0.4011
 5287SOL    HW227498   3.685   0.392   7.088  0.6598  0.2239 -1.5178
 5288SOL     OW27499   2.879   3.679   4.293  0.5262 -0.0106  0.2252
 5288SOL    HW127500   2.872   3.584   4.301 -2.6900  0.1584 -0.3682
 5288SOL    HW227501   2.822   3.700   4.219 -2.4556 -0.5787  2.3774
 5289SOL     OW27502   2.306   3.861   7.090 -0.1948 -0.1185 -0.3265
 5289SOL    HW127503   2.398   3.835   7.096 -0.9864 -2.2098  3.1319
 5289SOL    HW227504   2.288   3.864   7.184 -1.0556 -5.0879 -0.3045
 5290SOL     OW27505   1.371   0.889   3.085  0.0483  0.0163  0.8732
 5290SOL    HW127506   1.310   0.937   3.028 -0.1649 -1.4968 -0.1759
 5290SOL    HW227507   1.340   0.903   3.174  0.9849  1.3928  0.9769
 5291SOL     OW27508   4.325   0.788   0.692  0.4941 -0.5924 -0.0452
 5291SOL    HW127509   4.232   0.782   0.715  0.0593 -0.1799 -1.6914
 5291SOL    HW227510   4.343   0.873   0.652 -1.8042  0.3412  0.8952
 5292SOL     OW27511   4.179   3.174  14.542  0.5624 -0.1091  0.4701
 5292SOL    HW127512   4.207   3.105  14.602  2.9851 -0.9828 -1.6636
 5292SOL    HW227513   4.205   3.134  14.459  2.4306  0.5144  0.7464
 5293SOL     OW27514   4.549   1.101   0.204 -0.6532  0.5933 -0.3487
 5293SOL    HW127515   4.465   1.108   0.159 -0.5930  0.0603 -0.5435
 5293SOL    HW227516   4.563   1.192   0.232 -0.6264  1.1279 -2.1385
 5294SOL     OW27517   4.667   3.936   4.107 -0.3181  0.1076  0.1055
 5294SOL    HW127518   4.652   4.005   4.172 -3.7794  0.2079 -0.8187
 5294SOL    HW227519   4.697   3.994   4.037  0.1593 -0.5051 -0.1944
 5295SOL     OW27520   2.924   2.663   5.549 -0.8929 -0.2583 -0.2121
 5295SOL    HW127521   2.872   2.590   5.514 -0.4867 -0.6638  0.0179
 5295SOL    HW227522   2.861   2.734   5.559 -0.3318  0.1506  0.4108
 5296SOL     OW27523   1.065   2.736   3.695 -0.4241 -0.0715 -0.6455
 5296SOL    HW127524   1.132   2.787   3.741 -2.1005  0.6573  1.0136
 5296SOL    HW227525   0.994   2.796   3.672  0.6380  1.1451 -0.7415
 5297SOL     OW27526   0.132   3.774   7.587 -0.3695 -0.7358  0.0966
 5297SOL    HW127527   0.123   3.837   7.659  0.8828  0.1077 -0.5015
 5297SOL    HW227528   0.227   3.773   7.590 -0.3817 -0.3929  0.8376
 5298SOL     OW27529   2.303   1.634   4.107 -0.2451 -0.0718 -0.2529
 5298SOL    HW127530   2.388   1.591   4.095 -1.3837 -1.9055 -1.7553
 5298SOL    HW227531   2.249   1.597   4.038 -0.4796  1.4740 -0.9003
 5299SOL     OW27532   4.507   1.567   8.835  0.0503  0.3341  0.0082
 5299SOL    HW127533   4.558   1.497   8.876 -1.9166 -1.4470 -0.5846
 5299SOL    HW227534   4.493   1.622   8.912 -0.9513 -0.2813  0.2685
 5300SOL     OW27535   1.004   1.168   6.480  0.7204  0.0314  0.1852
 5300SOL    HW127536   0.921   1.157   6.432  0.9360  0.4473 -0.2782
 5300SOL    HW227537   0.965   1.186   6.565  0.4629 -0.9296  0.2719
 5301SOL     OW27538   0.948   4.341   4.551 -0.1900 -0.2407  0.0952
 5301SOL    HW127539   0.895   4.302   4.482 -2.1272  1.6368  0.5373
 5301SOL    HW227540   0.969   4.260   4.599  1.4747  0.8682  1.2408
 5302SOL     OW27541   1.133   2.317   3.358 -0.6092  0.1725  1.0025
 5302SOL    HW127542   1.210   2.342   3.408 -0.7617  1.5260  0.5585
 5302SOL    HW227543   1.127   2.391   3.298  0.4448 -0.3289  0.2759
 5303SOL     OW27544   0.437   1.563  10.859 -0.2658  0.4366  0.2484
 5303SOL    HW127545   0.492   1.544  10.934  2.3415 -0.4442 -1.8844
 5303SOL    HW227546   0.496   1.629  10.822  2.6523 -1.5147  1.4657
 5304SOL     OW27547   4.246   2.314   3.495  0.0386 -0.4231  0.0433
 5304SOL    HW127548   4.307   2.385   3.476  1.2403 -1.5434 -0.2724
 5304SOL    HW227549   4.213   2.284   3.410  2.2200  0.0748 -0.9743
 5305SOL     OW27550   1.996   3.506   7.348 -0.8068 -0.0820  0.3978
 5305SOL    HW127551   1.980   3.555   7.429  1.4928 -1.2144  1.5345
 5305SOL    HW227552   1.949   3.424   7.364 -1.3882  0.1814  0.0466
 5306SOL     OW27553   1.253   3.335  16.982  0.0087 -0.2125 -0.3990
 5306SOL    HW127554   1.287   3.424  16.972 -0.5460  0.1254  0.7656
 5306SOL    HW227555   1.219   3.328  16.893 -0.5521  1.3307 -0.3028
 5307SOL     OW27556   3.738   4.637   1.919  0.3593  0.2382 -0.1653
 5307SOL    HW127557   3.741   4.683   2.002 -1.0991  0.4919 -0.2566
 5307SOL    HW227558   3.645   4.617   1.913  0.6482 -1.1359  0.0732
 5308SOL     OW27559   4.397   3.070   1.262  0.2147  0.5031  0.2331
 5308SOL    HW127560   4.332   3.078   1.332  1.2811  0.6868  1.1870
 5308SOL    HW227561   4.368   3.141   1.204 -0.7308 -0.2672 -0.2517
 5309SOL     OW27562   0.718   3.872  14.742 -0.4593 -0.4108  0.1737
 5309SOL    HW127563   0.625   3.891  14.748 -0.0252  1.8546 -0.2345
 5309SOL    HW227564   0.730   3.849  14.834 -0.4102 -0.4943  0.1469
 5310SOL     OW27565   3.995   0.426   8.664  0.0026  0.3966  0.4024
 5310SOL    HW127566   4.015   0.518   8.644 -0.2098 -0.1142 -2.0501
 5310SOL    HW227567   3.901   0.423   8.649  0.0310 -0.4936  0.4260
 5311SOL     OW27568   3.853   1.298  15.821  0.7989  0.1120  0.5341
 5311SOL    HW127569   3.915   1.239  15.864 -0.8966 -1.5859  0.6373
 5311SOL    HW227570   3.831   1.247  15.743 -0.9504 -0.2888  1.2955
 5312SOL     OW27571   1.094   4.584   6.910 -0.0741 -0.1894  0.1046
 5312SOL    HW127572   1.018   4.539   6.873  1.7636 -1.1896 -2.4317
 5312SOL    HW227573   1.051   4.643   6.972  0.7781  0.7699 -0.2041
 5313SOL     OW27574   4.329   0.770  15.146 -0.2529  0.0631  0.2299
 5313SOL    HW127575   4.350   0.740  15.058 -3.2730 -0.2561 -0.4110
 5313SOL    HW227576   4.369   0.710  15.209  2.2105  0.1418 -1.2770
 5314SOL     OW27577   2.001   0.586   3.793 -0.6364 -0.1361  0.4095
 5314SOL    HW127578   2.077   0.644   3.799 -2.5129  2.0922  3.0857
 5314SOL    HW227579   2.042   0.501   3.810 -0.2567 -0.3950 -1.8680
 5315SOL     OW27580   2.831   0.609   4.894  0.2054  0.6931  0.4665
 5315SOL    HW127581   2.901   0.673   4.886  1.9226 -1.3654 -1.2529
 5315SOL    HW227582   2.770   0.661   4.945  0.0880  1.5008 -0.5126
 5316SOL     OW27583   3.096   1.219   9.400 -0.0804  0.0378 -0.0871
 5316SOL    HW127584   3.002   1.232   9.412  0.1087  0.8178  0.5553
 5316SOL    HW227585   3.109   1.137   9.447  2.3244  0.2254 -0.4150
 5317SOL     OW27586   3.164   4.061   9.140  0.2491 -0.2801  0.3176
 5317SOL    HW127587   3.163   4.155   9.158  1.3180 -0.2046 -0.0481
 5317SOL    HW227588   3.247   4.042   9.184  0.4089 -0.4390 -0.0496
 5318SOL     OW27589   4.207   3.699   8.529 -0.0068  0.3106  0.6279
 5318SOL    HW127590   4.232   3.773   8.474 -1.2102  1.8386  2.1167
 5318SOL    HW227591   4.202   3.624   8.470  1.2929 -1.3401  2.6060
 5319SOL     OW27592   2.514   4.480   7.159  0.7352  0.1736 -0.1946
 5319SOL    HW127593   2.606   4.489   7.183  0.2879 -0.4339  1.7428
 5319SOL    HW227594   2.503   4.430   7.078  2.3473 -0.5156  0.0219
 5320SOL     OW27595   3.899   3.968   6.503 -0.1153  0.5935 -0.2957
 5320SOL    HW127596   3.887   3.924   6.588 -3.5963  0.2910 -0.9389
 5320SOL    HW227597   3.939   4.052   6.525 -1.3393  0.9386  0.6157
 5321SOL     OW27598   0.261   4.667   2.023  0.0331 -0.0618 -0.1917
 5321SOL    HW127599   0.236   4.695   1.935 -2.0910  0.6503  0.6275
 5321SOL    HW227600   0.307   4.585   2.009 -0.9585 -0.8133  1.0310
 5322SOL     OW27601   0.071   1.126   9.234 -0.6794 -0.0064 -0.0705
 5322SOL    HW127602   0.163   1.143   9.214 -1.0668  1.1286 -0.9022
 5322SOL    HW227603   0.047   1.202   9.286  1.3989 -0.3312  1.3318
 5323SOL     OW27604   4.343   3.519   3.634  0.4337 -0.0438 -0.3599
 5323SOL    HW127605   4.306   3.495   3.549 -0.0404 -0.6860  0.0400
 5323SOL    HW227606   4.376   3.432   3.657 -1.6109 -0.6186  0.3666
 5324SOL     OW27607   4.615   0.750   3.992 -0.4446  0.2644 -0.8782
 5324SOL    HW127608   4.646   0.829   4.038 -1.5233 -0.1580  0.5958
 5324SOL    HW227609   4.640   0.684   4.057 -0.9685  0.8038 -0.1189
 5325SOL     OW27610   4.077   0.596   3.139 -0.4267 -0.0985 -0.3348
 5325SOL    HW127611   4.141   0.637   3.081  1.1095 -0.7234  0.9044
 5325SOL    HW227612   4.099   0.504   3.123 -0.5207 -0.5723  2.2717
 5326SOL     OW27613   1.209   4.040  10.691 -0.1589  0.1504 -0.0626
 5326SOL    HW127614   1.223   3.967  10.752  0.9215  0.4413  0.0333
 5326SOL    HW227615   1.294   4.037  10.647  0.1693 -5.0577  0.8630
 5327SOL     OW27616   0.226   2.493   3.225  0.0238  0.1129 -0.0628
 5327SOL    HW127617   0.165   2.428   3.260  0.8701 -0.9001 -0.4606
 5327SOL    HW227618   0.273   2.452   3.153 -1.7861 -1.3407 -0.4271
 5328SOL     OW27619   2.170   1.628   1.855 -0.1843  0.6526  0.5090
 5328SOL    HW127620   2.241   1.656   1.913 -1.9785  2.4908  1.8094
 5328SOL    HW227621   2.148   1.709   1.808  0.1199  0.9710  0.9179
 5329SOL     OW27622   2.687   3.434   9.312  0.3501 -0.2190  0.0731
 5329SOL    HW127623   2.719   3.398   9.394 -1.3609  0.5744  1.1041
 5329SOL    HW227624   2.623   3.500   9.340 -0.3785  0.2094 -2.5748
 5330SOL     OW27625   1.625   3.630   6.454 -0.3227  0.1880 -0.2501
 5330SOL    HW127626   1.691   3.661   6.516 -3.4291  3.3084  1.4746
 5330SOL    HW227627   1.584   3.702   6.406 -2.3696 -1.0675 -0.3695
 5331SOL     OW27628   2.388   0.474   6.228 -0.3262  0.1692  0.2091
 5331SOL    HW127629   2.365   0.564   6.205  3.1603  0.9555 -0.2435
 5331SOL    HW227630   2.307   0.427   6.205 -2.2895  3.2297  0.8727
 5332SOL     OW27631   4.527   3.310   0.972 -0.1905  0.2437  0.4593
 5332SOL    HW127632   4.562   3.310   1.062  0.8227 -0.0304  0.0654
 5332SOL    HW227633   4.436   3.290   0.996  0.3445 -2.1362  0.4558
 5333SOL     OW27634   0.164   0.384  13.299  0.3491  0.4050  0.4152
 5333SOL    HW127635   0.217   0.323  13.350 -0.1504  0.5717  1.1551
 5333SOL    HW227636   0.102   0.416  13.366 -0.7093 -0.4479 -0.1597
 5334SOL     OW27637   4.618   4.073   8.563 -0.0465 -1.0078 -0.6524
 5334SOL    HW127638   4.625   4.012   8.489  2.3761 -0.4588 -0.8900
 5334SOL    HW227639   4.660   4.151   8.527  2.0086 -0.5741  2.6959
 5335SOL     OW27640   0.789   1.197   7.228 -0.2180 -0.1187 -0.3558
 5335SOL    HW127641   0.775   1.103   7.211 -0.0021 -0.7918  3.2335
 5335SOL    HW227642   0.839   1.232   7.155 -1.7819  0.6856 -1.0379
 5336SOL     OW27643   0.681   3.025  14.529 -0.0175  0.2294  0.1252
 5336SOL    HW127644   0.713   2.951  14.580  1.1357  0.4593 -0.2618
 5336SOL    HW227645   0.758   3.050  14.478  1.0792 -0.1570  1.5779
 5337SOL     OW27646   0.484   0.050  12.191  0.3144 -0.0561 -0.2150
 5337SOL    HW127647   0.529   4.709  12.173 -0.4330 -0.1031 -1.9781
 5337SOL    HW227648   0.435   0.063  12.109 -1.3974 -0.2331  0.7728
 5338SOL     OW27649   0.738   3.567   9.079  0.3081 -0.0941 -0.0559
 5338SOL    HW127650   0.772   3.590   9.166 -0.2458 -0.1452  0.1747
 5338SOL    HW227651   0.817   3.573   9.026  1.4769  1.9986  1.9289
 5339SOL     OW27652   2.735   1.088  17.288 -0.5397  0.4752  0.6459
 5339SOL    HW127653   2.645   1.103  17.319 -0.6810  0.5097  0.2189
 5339SOL    HW227654   2.759   1.181  17.290 -2.9145  1.0987  0.1176
 5340SOL     OW27655   3.613   0.539   4.399 -0.3216 -0.5259  0.0416
 5340SOL    HW127656   3.643   0.468   4.454 -0.8653 -0.6864  0.1280
 5340SOL    HW227657   3.522   0.537   4.430 -0.6063 -1.4841 -0.8710
 5341SOL     OW27658   1.173   0.455   7.909  0.1360  0.2847  0.0070
 5341SOL    HW127659   1.166   0.499   7.994  0.3888 -0.7636  0.5703
 5341SOL    HW227660   1.082   0.431   7.891  0.2504 -0.1658  0.0329
 5342SOL     OW27661   4.434   4.729   4.370  0.1438 -0.0920  0.2054
 5342SOL    HW127662   4.469   0.064   4.324  1.5291  0.1376  1.6509
 5342SOL    HW227663   4.486   4.658   4.331 -1.5641 -1.0436 -0.3488
 5343SOL     OW27664   1.798   3.950   5.812 -0.2132  0.2507  0.3027
 5343SOL    HW127665   1.814   3.890   5.885 -1.6237  0.3577  0.7014
 5343SOL    HW227666   1.703   3.953   5.814 -0.1879  1.6552 -0.9376
 5344SOL     OW27667   3.903   1.388   2.577  0.2241  0.0981 -0.0542
 5344SOL    HW127668   3.973   1.344   2.527  0.8616  0.1124  0.8222
 5344SOL    HW227669   3.956   1.445   2.633  1.5693 -1.9239  0.7364
 5345SOL     OW27670   4.112   1.195   7.230 -0.0328 -0.3890 -0.2279
 5345SOL    HW127671   4.169   1.149   7.169  3.9666  3.0813  0.9268
 5345SOL    HW227672   4.149   1.282   7.217 -1.3630  0.3864  1.1991
 5346SOL     OW27673   0.393   4.295  16.657 -0.0884 -0.0250  0.3551
 5346SOL    HW127674   0.485   4.320  16.659  0.2721 -1.0585 -3.3256
 5346SOL    HW227675   0.369   4.326  16.569  1.3684 -1.0679 -0.4135
 5347SOL     OW27676   3.426   3.315   6.042 -0.3792 -0.7282 -0.0467
 5347SOL    HW127677   3.376   3.363   5.976  0.1128 -0.1465  0.0108
 5347SOL    HW227678   3.508   3.286   6.002 -0.7480 -0.8269 -0.7340
 5348SOL     OW27679   3.327   0.526   1.228  0.1157  0.1681 -0.2484
 5348SOL    HW127680   3.358   0.594   1.289  2.1815  0.0403 -1.1337
 5348SOL    HW227681   3.322   0.584   1.153  2.3453 -0.7773 -1.1428
 5349SOL     OW27682   2.515   0.751  14.835 -0.3608 -0.1847 -0.7070
 5349SOL    HW127683   2.597   0.753  14.788  0.6428  2.6312  1.2036
 5349SOL    HW227684   2.509   0.839  14.871 -1.2331 -0.0826 -1.0970
 5350SOL     OW27685   2.809   4.211   0.907  0.1131 -0.1500  0.3351
 5350SOL    HW127686   2.717   4.227   0.887 -0.4890 -1.7571  1.7602
 5350SOL    HW227687   2.815   4.276   0.978 -0.5511  2.3714 -1.9126
 5351SOL     OW27688   3.520   3.179   4.266 -0.2068 -0.2938 -0.1722
 5351SOL    HW127689   3.448   3.197   4.205 -0.0953  0.1143 -0.1806
 5351SOL    HW227690   3.545   3.268   4.289 -1.1807 -0.1003  0.1227
 5352SOL     OW27691   0.235   1.175  16.214  0.3591  0.2698 -0.1431
 5352SOL    HW127692   0.251   1.230  16.137 -0.6706  1.6785  0.6573
 5352SOL    HW227693   0.243   1.227  16.294  0.1797  0.4404 -0.2356
 5353SOL     OW27694   2.397   1.623   8.154  0.2196  0.4541  0.0721
 5353SOL    HW127695   2.422   1.631   8.246 -1.0241  0.5498  0.3934
 5353SOL    HW227696   2.331   1.555   8.147  1.4252 -0.6486 -0.7240
 5354SOL     OW27697   2.136   0.766   5.148  0.2156 -0.0029 -0.0839
 5354SOL    HW127698   2.186   0.706   5.093 -2.1725 -1.1754 -0.9549
 5354SOL    HW227699   2.123   0.843   5.092  0.7683  1.8397  2.3123
 5355SOL     OW27700   1.504   2.547  16.849  0.0037  0.3172 -0.0246
 5355SOL    HW127701   1.506   2.452  16.836  1.3601  0.3034  0.3165
 5355SOL    HW227702   1.417   2.560  16.886  0.3669  0.5583  0.7334
 5356SOL     OW27703   3.044   4.244   6.641 -0.3557 -0.0232  0.3753
 5356SOL    HW127704   3.084   4.165   6.677 -0.6259  0.5784  1.9864
 5356SOL    HW227705   3.001   4.274   6.721  1.7524  1.1467  1.0813
 5357SOL     OW27706   3.276   4.377   0.855  0.2265 -0.1713 -0.9992
 5357SOL    HW127707   3.349   4.386   0.916 -1.4381 -0.9450  1.1067
 5357SOL    HW227708   3.200   4.370   0.912  0.5777  0.2378 -0.4864
 5358SOL     OW27709   0.971   0.623  12.440 -0.3445  0.2210 -0.9665
 5358SOL    HW127710   0.904   0.562  12.471 -2.7474  3.5177  0.2284
 5358SOL    HW227711   0.956   0.704  12.489  0.8325  1.6413 -2.9314
 5359SOL     OW27712   2.942   3.136  10.887  0.0758  0.2511 -0.1319
 5359SOL    HW127713   2.959   3.223  10.923  3.3047 -1.7986  3.2345
 5359SOL    HW227714   2.849   3.133  10.910 -0.0396 -1.4802 -0.8303
 5360SOL     OW27715   4.137   2.251   3.228 -0.5937  0.0473 -0.3665
 5360SOL    HW127716   4.045   2.274   3.244 -1.1361 -0.7458 -2.3823
 5360SOL    HW227717   4.132   2.216   3.139 -0.2204  0.0307 -0.3781
 5361SOL     OW27718   1.927   3.245   5.924 -0.3142  0.0996  0.2972
 5361SOL    HW127719   1.852   3.268   5.869  1.1070  0.5965 -1.4743
 5361SOL    HW227720   1.948   3.159   5.889 -2.0785 -0.4102  0.5122
 5362SOL     OW27721   4.191   0.635   4.312  0.4492  0.3119 -0.4207
 5362SOL    HW127722   4.215   0.727   4.313  0.7305  0.2627 -2.4402
 5362SOL    HW227723   4.104   0.641   4.351  0.6679  0.7481 -0.0137
 5363SOL     OW27724   4.245   2.870   6.093 -0.2971  0.0490  0.0763
 5363SOL    HW127725   4.210   2.796   6.042 -2.0968 -0.5820  2.2287
 5363SOL    HW227726   4.166   2.924   6.099 -1.1767 -1.4657  2.1417
 5364SOL     OW27727   1.489   1.939   8.015  0.6321  0.1296  0.4496
 5364SOL    HW127728   1.396   1.949   7.997  0.5617 -2.8384 -0.9281
 5364SOL    HW227729   1.511   2.022   8.056 -0.5679 -0.2332  1.8495
 5365SOL     OW27730   4.740   4.059   2.414  0.1058  0.1114  0.4164
 5365SOL    HW127731   4.644   4.053   2.412  0.2467 -1.7793 -0.4133
 5365SOL    HW227732   0.013   4.068   2.320 -1.5565 -1.6195  0.0129
 5366SOL     OW27733   1.485   3.125  10.444 -0.3591 -0.1156 -0.3206
 5366SOL    HW127734   1.501   3.037  10.411  0.6422 -0.0682  0.0138
 5366SOL    HW227735   1.495   3.179  10.366  0.1195  1.4219  0.8026
 5367SOL     OW27736   4.029   3.600  16.548  0.3324  0.2949 -0.0970
 5367SOL    HW127737   3.948   3.630  16.590  0.4206 -0.0199  0.2907
 5367SOL    HW227738   4.031   3.679  16.494  1.0042 -0.7995 -1.6709
 5368SOL     OW27739   3.816   0.108   7.671 -0.2519 -0.7565 -0.0008
 5368SOL    HW127740   3.727   0.106   7.707 -0.8345  0.4685 -1.3597
 5368SOL    HW227741   3.810   0.020   7.633  2.1831  0.5631 -3.4617
 5369SOL     OW27742   1.074   1.463   0.457 -0.1139  0.1687 -0.2825
 5369SOL    HW127743   1.162   1.425   0.456  1.1112  3.0366 -2.8307
 5369SOL    HW227744   1.025   1.400   0.511  1.0599  0.6911  1.3901
 5370SOL     OW27745   3.424   1.197  17.648 -0.2069  0.2426 -0.1725
 5370SOL    HW127746   3.334   1.222  17.669 -0.0298 -0.1203  0.9725
 5370SOL    HW227747   3.420   1.104  17.626 -0.1737  0.0246  0.7404
 5371SOL     OW27748   3.091   1.544   2.173  0.1550  0.0948  0.1501
 5371SOL    HW127749   3.059   1.455   2.155  0.1505 -0.2772  2.0330
 5371SOL    HW227750   3.023   1.596   2.130 -1.8768 -2.3297  0.3492
 5372SOL     OW27751   3.447   2.930   2.906 -0.0093 -0.6279 -0.6379
 5372SOL    HW127752   3.363   2.946   2.863  0.8728  0.5064 -1.9391
 5372SOL    HW227753   3.432   2.836   2.899  0.7107 -0.8521  0.8373
 5373SOL     OW27754   1.478   0.683  17.476 -0.6463  0.2103  0.0824
 5373SOL    HW127755   1.551   0.738  17.504 -0.8839  0.1545  0.8025
 5373SOL    HW227756   1.519   0.598  17.497 -1.0632  0.7989  3.2600
 5374SOL     OW27757   2.888   1.395  13.114  1.0672 -0.1044 -0.3587
 5374SOL    HW127758   2.934   1.359  13.038 -0.7256 -0.1691 -1.4131
 5374SOL    HW227759   2.887   1.316  13.168  1.7294  1.1547  1.4818
 5375SOL     OW27760   0.742   1.401   7.417 -0.6638 -0.3466 -0.1176
 5375SOL    HW127761   0.775   1.347   7.345 -0.0932 -2.2778  1.6071
 5375SOL    HW227762   0.818   1.421   7.472  0.7319  0.2972 -2.2602
 5376SOL     OW27763   2.949   0.400   0.869 -0.6842 -0.5523  0.2387
 5376SOL    HW127764   2.912   0.370   0.785  0.6080 -2.3002  0.2951
 5376SOL    HW227765   2.986   0.481   0.835  1.8051 -2.3106 -1.2921
 5377SOL     OW27766   1.680   3.309  17.044  0.2269 -0.1890 -0.5308
 5377SOL    HW127767   1.663   3.352  17.128  1.8177  0.6758 -0.6544
 5377SOL    HW227768   1.597   3.275  17.012 -0.5017  1.0942  0.0132
 5378SOL     OW27769   1.719   4.349   5.764 -0.5465 -0.2203 -0.5044
 5378SOL    HW127770   1.703   4.428   5.815  2.2132  0.9707 -1.5132
 5378SOL    HW227771   1.814   4.343   5.762 -0.3597  2.6688 -0.2444
 5379SOL     OW27772   2.574   0.770   2.207  0.0477  0.1627  0.1365
 5379SOL    HW127773   2.644   0.715   2.241 -0.1948 -0.1471  0.1384
 5379SOL    HW227774   2.543   0.716   2.135 -1.2187  1.5561 -0.3782
 5380SOL     OW27775   3.991   2.190   3.846  1.0616 -0.1479  0.4702
 5380SOL    HW127776   3.913   2.246   3.839  0.2929 -1.1392  1.1465
 5380SOL    HW227777   4.037   2.231   3.920  0.9261 -0.6128  0.8133
 5381SOL     OW27778   4.309   4.259   8.785  0.3675 -0.4783  0.1672
 5381SOL    HW127779   4.285   4.169   8.805 -1.4579 -0.3610 -1.5246
 5381SOL    HW227780   4.372   4.277   8.855 -0.6133 -1.7643  1.3704
 5382SOL     OW27781   0.909   3.993   3.045  0.0127 -0.1029  0.7374
 5382SOL    HW127782   0.952   3.930   3.104  3.0549  0.0387 -1.3402
 5382SOL    HW227783   0.819   3.960   3.045 -0.4967  1.3156  1.4452
 5383SOL     OW27784   1.901   4.321   9.221  0.0646  0.6879 -0.2934
 5383SOL    HW127785   1.882   4.393   9.281 -1.0816 -0.8432  1.1749
 5383SOL    HW227786   1.850   4.346   9.144 -0.1840  1.6311  0.1738
 5384SOL     OW27787   3.127   1.537   4.903 -0.2499 -0.0675  0.4727
 5384SOL    HW127788   3.180   1.586   4.966  1.3473  1.4262 -2.0217
 5384SOL    HW227789   3.101   1.606   4.842  0.9031 -0.0622  0.0057
 5385SOL     OW27790   1.838   1.145  17.108  0.3607  0.2290  0.3060
 5385SOL    HW127791   1.845   1.151  17.203 -3.1990  0.8318  0.5215
 5385SOL    HW227792   1.802   1.057  17.097 -0.8044  0.7739 -0.2716
 5386SOL     OW27793   2.963   0.958   1.558  0.5030  0.4049  0.1466
 5386SOL    HW127794   2.939   0.874   1.597 -0.1017 -0.3302 -1.7775
 5386SOL    HW227795   2.964   1.007   1.640 -2.1401 -0.6484  0.8090
 5387SOL     OW27796   3.188   1.323   5.687 -0.2017 -0.6603 -0.3010
 5387SOL    HW127797   3.220   1.352   5.602 -0.6049  0.8692  0.0624
 5387SOL    HW227798   3.104   1.285   5.660  0.0945 -0.8793 -0.9108
 5388SOL     OW27799   0.087   0.036   0.356 -0.6161 -0.1452 -0.6728
 5388SOL    HW127800   0.063   0.106   0.295  1.7062  0.5725 -0.7824
 5388SOL    HW227801   0.040   4.705   0.314 -0.9157  0.8233 -2.0062
 5389SOL     OW27802   0.424   4.581   4.505  0.5772 -0.2040  1.3040
 5389SOL    HW127803   0.509   4.604   4.467 -0.8279  0.6781 -1.2948
 5389SOL    HW227804   0.444   4.522   4.578  0.5590 -0.6654  0.9398
 5390SOL     OW27805   1.764   2.197  10.705  0.2492 -0.4647 -0.3814
 5390SOL    HW127806   1.832   2.188  10.771 -0.2169  3.9796  0.6984
 5390SOL    HW227807   1.734   2.287  10.721  1.0508 -0.1181 -0.8505
 5391SOL     OW27808   1.788   1.222   5.538 -0.2297  0.7362  0.0463
 5391SOL    HW127809   1.842   1.144   5.522 -0.5609  0.2912  1.0255
 5391SOL    HW227810   1.849   1.294   5.555  3.2421 -2.6535  1.9708
 5392SOL     OW27811   1.055   2.081   8.656  0.2489 -0.3807  0.4331
 5392SOL    HW127812   1.052   2.074   8.752  0.0351 -0.0903  0.4487
 5392SOL    HW227813   1.013   2.002   8.622 -0.1573  0.5160 -1.1410
 5393SOL     OW27814   4.227   4.092  10.187  0.0753 -0.0284 -0.2834
 5393SOL    HW127815   4.312   4.057  10.211 -0.5559 -0.4558  1.3280
 5393SOL    HW227816   4.257   4.176  10.153 -2.6721  0.8818 -0.5102
 5394SOL     OW27817   4.247   4.478  12.114 -0.2973 -0.1412  0.1372
 5394SOL    HW127818   4.293   4.408  12.067  1.0809  1.9298 -1.6135
 5394SOL    HW227819   4.275   4.555  12.064  0.6328 -0.1862  0.5882
 5395SOL     OW27820   1.067   2.042   9.769  0.0047  0.4721 -0.1005
 5395SOL    HW127821   1.067   1.980   9.696 -0.8358 -0.3364  0.5814
 5395SOL    HW227822   1.058   1.975   9.837 -0.4014 -1.7004 -2.3249
 5396SOL     OW27823   2.541   4.609  15.174 -0.6048 -0.1860  0.3698
 5396SOL    HW127824   2.603   4.665  15.127 -0.1533 -2.0526 -1.2652
 5396SOL    HW227825   2.520   4.651  15.257  0.4936 -1.5247  1.3206
 5397SOL     OW27826   2.781   4.492   7.226 -0.2488 -0.0811 -0.1363
 5397SOL    HW127827   2.853   4.437   7.256  0.4526  0.2061 -1.3060
 5397SOL    HW227828   2.823   4.578   7.227  0.4263 -0.4183  0.2321
 5398SOL     OW27829   0.552   0.237   1.486  0.7556 -0.0177  0.6648
 5398SOL    HW127830   0.509   0.165   1.532  2.9334 -0.9688  1.2481
 5398SOL    HW227831   0.615   0.186   1.435  0.4308  0.4389 -0.1988
 5399SOL     OW27832   0.911   1.841   2.531  0.1952 -0.0205 -0.1545
 5399SOL    HW127833   0.909   1.747   2.545 -1.9823 -0.0533 -0.6775
 5399SOL    HW227834   0.978   1.831   2.464  0.0070 -1.9547 -0.0376
 5400SOL     OW27835   3.887   1.648   5.124  0.1207 -0.6292 -0.5863
 5400SOL    HW127836   3.836   1.587   5.070 -1.2035 -0.2584  0.2451
 5400SOL    HW227837   3.841   1.631   5.207  0.6236  0.0385 -0.1790
 5401SOL     OW27838   2.356   2.450   4.558  0.3781 -0.1025  0.4865
 5401SOL    HW127839   2.290   2.432   4.625 -0.0891  0.1907  0.1036
 5401SOL    HW227840   2.438   2.443   4.607  0.3165 -2.0949  0.3287
 5402SOL     OW27841   2.190   2.774   2.108 -0.0032 -0.0821  0.2392
 5402SOL    HW127842   2.283   2.769   2.084 -0.2472  1.2644 -0.9580
 5402SOL    HW227843   2.200   2.858   2.153  0.2199 -0.8008  1.5199
 5403SOL     OW27844   4.617   2.139   4.394 -0.0166 -0.5372 -0.1409
 5403SOL    HW127845   4.627   2.225   4.435  0.4186 -1.0321  0.7840
 5403SOL    HW227846   4.583   2.165   4.308  0.6641  0.4171 -0.1243
 5404SOL     OW27847   3.447   2.804   0.255 -0.0901  0.3034  0.1238
 5404SOL    HW127848   3.420   2.724   0.209 -0.6621  0.8462 -0.4837
 5404SOL    HW227849   3.525   2.830   0.207 -0.1907 -1.0538 -0.7748
 5405SOL     OW27850   3.060   4.600   9.419 -0.1494 -0.0941  0.6441
 5405SOL    HW127851   3.140   4.548   9.411  0.7179  1.5930 -1.6776
 5405SOL    HW227852   3.043   4.636   9.332 -1.1379 -0.4627  0.6919
 5406SOL     OW27853   1.819   1.714  16.199 -0.4643  0.2790 -0.1854
 5406SOL    HW127854   1.786   1.645  16.142  0.7661  1.0197 -1.7977
 5406SOL    HW227855   1.771   1.791  16.169 -2.0889 -0.3565  0.7996
 5407SOL     OW27856   0.706   1.458   9.847  0.2365  0.1446  0.6458
 5407SOL    HW127857   0.685   1.532   9.790  2.2992  1.6022  1.7788
 5407SOL    HW227858   0.772   1.408   9.800  0.1458  0.3556  0.2908
 5408SOL     OW27859   0.873   2.910   6.295 -0.1289  0.0594 -0.5534
 5408SOL    HW127860   0.966   2.885   6.300 -0.1880  0.2309  1.5789
 5408SOL    HW227861   0.831   2.914   6.381  1.1057  2.4661 -0.0358
 5409SOL     OW27862   1.847   3.146  16.082  0.2661  0.1154 -0.2682
 5409SOL    HW127863   1.886   3.201  16.015 -0.6731  0.7023 -0.3293
 5409SOL    HW227864   1.845   3.212  16.151  1.4356 -0.6766  0.5217
 5410SOL     OW27865   0.100   0.008   2.231 -0.4179 -0.1010 -0.6113
 5410SOL    HW127866   0.127   4.699   2.154 -2.3383 -1.3046 -0.4956
 5410SOL    HW227867   0.113   4.690   2.305 -0.2576 -0.7851 -1.1798
 5411SOL     OW27868   3.846   2.744   6.885 -0.3203 -0.7202 -0.0620
 5411SOL    HW127869   3.795   2.752   6.966 -2.6194 -1.8506 -1.3936
 5411SOL    HW227870   3.814   2.822   6.839 -1.6478  0.3508  2.6556
 5412SOL     OW27871   1.054   0.397   6.086 -0.5610 -0.5557  0.0833
 5412SOL    HW127872   1.129   0.444   6.050 -2.4367  0.9970 -1.8078
 5412SOL    HW227873   1.014   0.460   6.147  2.3513  1.1637  0.2051
 5413SOL     OW27874   3.650   2.403   6.459 -0.1914  0.8037 -0.2699
 5413SOL    HW127875   3.557   2.406   6.482  0.2178 -0.7328  1.5923
 5413SOL    HW227876   3.647   2.402   6.364  1.1267 -1.3779 -0.2755
 5414SOL     OW27877   0.388   3.297   8.439  0.0849  0.4667 -0.4276
 5414SOL    HW127878   0.339   3.339   8.510 -1.1518 -1.8356  0.0837
 5414SOL    HW227879   0.345   3.212   8.433 -0.4227  0.5698  1.6522
 5415SOL     OW27880   3.957   3.952   4.683  0.2101  0.2428 -0.4308
 5415SOL    HW127881   3.997   3.919   4.603 -1.2090  1.4445 -1.6240
 5415SOL    HW227882   3.900   4.020   4.647  0.7252  0.4852 -0.7790
 5416SOL     OW27883   2.232   0.505  13.157  0.6517 -0.1724 -0.3096
 5416SOL    HW127884   2.244   0.590  13.114  0.8796 -0.7209 -1.3386
 5416SOL    HW227885   2.282   0.516  13.238 -1.0717  1.4485  0.5324
 5417SOL     OW27886   3.553   4.334   4.696  0.0406 -0.6672  0.5171
 5417SOL    HW127887   3.618   4.335   4.626 -0.6731 -1.0944 -0.1578
 5417SOL    HW227888   3.478   4.376   4.654  0.5026  1.0420  1.4011
 5418SOL     OW27889   0.934   0.791   4.348 -0.0754  0.0269  0.2563
 5418SOL    HW127890   0.880   0.830   4.279 -0.6681 -3.5291 -1.2851
 5418SOL    HW227891   0.879   0.826   4.419 -0.3442  0.9890 -0.4232
 5419SOL     OW27892   3.361   1.620   4.043  0.0163 -0.7038 -0.0227
 5419SOL    HW127893   3.330   1.624   3.953  2.6669 -0.1183 -0.9134
 5419SOL    HW227894   3.448   1.583   4.027  0.5235 -0.0283  1.1681
 5420SOL     OW27895   4.158   4.656   3.926 -0.0820 -0.2418  0.4708
 5420SOL    HW127896   4.118   4.636   3.842  0.2526  1.3410 -0.0646
 5420SOL    HW227897   4.091   4.622   3.986 -1.2745  0.0519 -0.7042
 5421SOL     OW27898   0.208   1.307   6.019  0.4715 -0.0330  0.9733
 5421SOL    HW127899   0.223   1.352   5.935  0.1116  0.7653  1.3322
 5421SOL    HW227900   0.272   1.346   6.080  0.5033 -1.5058  1.8744
 5422SOL     OW27901   2.124   3.677   0.400  0.3784  0.1507  0.3569
 5422SOL    HW127902   2.080   3.726   0.331 -1.7560 -2.4771 -0.1687
 5422SOL    HW227903   2.080   3.593   0.386  1.2973 -0.4097  0.8175
 5423SOL     OW27904   0.617   1.521   3.456  0.3962 -0.2124 -0.4910
 5423SOL    HW127905   0.579   1.450   3.508 -1.3708  0.3652 -1.0132
 5423SOL    HW227906   0.533   1.566   3.446 -0.5447 -2.3422 -2.3005
 5424SOL     OW27907   0.557   2.792   4.854 -0.5520  0.0701 -0.0190
 5424SOL    HW127908   0.565   2.713   4.907  0.7530 -0.8857 -1.6494
 5424SOL    HW227909   0.595   2.771   4.768  2.6757 -1.1174  1.6920
 5425SOL     OW27910   1.871   3.028   9.219 -0.5374 -0.3390 -0.0094
 5425SOL    HW127911   1.907   2.978   9.293  2.4994  0.7602 -0.7448
 5425SOL    HW227912   1.923   3.002   9.144  1.0985  0.0190  0.9978
 5426SOL     OW27913   1.946   0.508   2.215 -0.2133  0.0508 -0.3100
 5426SOL    HW127914   1.928   0.537   2.125  1.3415  0.8387 -0.3537
 5426SOL    HW227915   2.017   0.448   2.196 -1.0764 -0.9309 -0.4580
 5427SOL     OW27916   4.419   1.602   6.742  0.6972 -0.2596 -0.1748
 5427SOL    HW127917   4.386   1.514   6.763  0.4994 -0.9668 -3.4145
 5427SOL    HW227918   4.510   1.582   6.722  0.5664  0.5398 -1.6274
 5428SOL     OW27919   2.616   2.290   5.581  0.3436 -0.3123  0.0215
 5428SOL    HW127920   2.636   2.242   5.662  1.9245 -0.3776 -0.4208
 5428SOL    HW227921   2.580   2.371   5.619 -0.5859 -0.6177 -0.2000
 5429SOL     OW27922   1.279   3.801  10.844  0.1702 -0.1499 -0.0301
 5429SOL    HW127923   1.265   3.729  10.782 -0.6966 -0.5220  0.5906
 5429SOL    HW227924   1.361   3.776  10.888  0.4962 -1.4752 -1.3586
 5430SOL     OW27925   4.406   0.360  13.288  0.1775 -0.8385  0.0254
 5430SOL    HW127926   4.346   0.434  13.294 -1.6448 -2.1833 -1.7823
 5430SOL    HW227927   4.457   0.387  13.212 -0.7080  0.9160  0.0613
 5431SOL     OW27928   1.586   4.129  11.065 -0.3379  0.3844  0.6702
 5431SOL    HW127929   1.514   4.087  11.113 -0.0253 -0.5416  0.3359
 5431SOL    HW227930   1.611   4.206  11.116  0.4628  0.3229  0.3701
 5432SOL     OW27931   0.420   4.321   3.697  0.7349  0.0979  0.5050
 5432SOL    HW127932   0.444   4.234   3.727 -0.1659 -1.4107 -3.1516
 5432SOL    HW227933   0.460   4.321   3.610 -0.5310  0.2895 -0.0797
 5433SOL     OW27934   0.870   2.440   9.684 -0.4516  0.4127 -0.3038
 5433SOL    HW127935   0.809   2.367   9.695 -0.3149  0.3374 -0.0317
 5433SOL    HW227936   0.958   2.402   9.677 -0.5120  0.1959  0.0847
 5434SOL     OW27937   0.580   2.964  11.320 -0.0503 -0.0687  0.0591
 5434SOL    HW127938   0.593   3.052  11.285 -0.0910  0.0359  0.3045
 5434SOL    HW227939   0.665   2.924  11.305 -0.6287 -1.1626 -0.3768
 5435SOL     OW27940   1.271   4.024   6.983  0.2970 -0.6818 -0.7514
 5435SOL    HW127941   1.221   4.104   6.966  0.7514  0.0294  1.2163
 5435SOL    HW227942   1.257   3.963   6.911  2.0416 -1.0308 -0.7991
 5436SOL     OW27943   0.407   3.347  11.201 -0.0763 -0.3481  0.3207
 5436SOL    HW127944   0.334   3.352  11.140  1.1602 -0.5052 -1.1750
 5436SOL    HW227945   0.471   3.408  11.163 -1.3950  0.8570  0.0421
 5437SOL     OW27946   3.747   2.408   0.974  0.1401 -0.1698 -0.9310
 5437SOL    HW127947   3.707   2.381   0.892 -1.8313 -1.6539  0.5135
 5437SOL    HW227948   3.718   2.499   0.979 -2.9578 -1.1806 -0.1915
 5438SOL     OW27949   2.940   4.073   4.131  0.6089 -0.0135  0.2021
 5438SOL    HW127950   2.917   4.056   4.223 -0.9563 -0.2293 -0.2291
 5438SOL    HW227951   3.004   4.005   4.109  0.2115 -0.1117 -0.6277
 5439SOL     OW27952   1.543   2.221   8.854 -0.0019  0.7856 -1.0039
 5439SOL    HW127953   1.492   2.257   8.781 -0.0513  1.0743 -0.8283
 5439SOL    HW227954   1.521   2.128   8.843 -0.7260  0.9999 -1.3951
 5440SOL     OW27955   0.685   0.160   6.936  0.7628 -0.0664  0.1334
 5440SOL    HW127956   0.753   0.218   6.903  0.2642  0.7568  0.5506
 5440SOL    HW227957   0.663   0.104   6.862 -0.6042 -0.1121  0.5768
 5441SOL     OW27958   3.950   1.852   7.048 -0.1177  0.1661  0.2846
 5441SOL    HW127959   3.938   1.927   6.990 -2.2118  0.5516  1.2311
 5441SOL    HW227960   3.987   1.907   7.116 -0.5176 -0.2702  0.8554
 5442SOL     OW27961   3.680   1.461   7.587  0.8136  0.2122 -0.0388
 5442SOL    HW127962   3.608   1.443   7.527  2.3296 -1.7400 -1.2859
 5442SOL    HW227963   3.739   1.393   7.554 -1.0931 -0.1430 -2.7479
 5443SOL     OW27964   4.255   1.130   3.142 -0.2495 -0.3019 -0.2975
 5443SOL    HW127965   4.253   1.200   3.207 -0.5849  0.2632 -0.9174
 5443SOL    HW227966   4.189   1.152   3.076  0.6932  0.1682 -1.0933
 5444SOL     OW27967   3.452   1.253   3.628  0.5306  0.0405 -0.2456
 5444SOL    HW127968   3.456   1.163   3.661  0.9011 -0.2120 -0.9903
 5444SOL    HW227969   3.468   1.237   3.535  3.0094 -2.4440  0.6226
 5445SOL     OW27970   4.011   1.486   9.782  0.2534 -0.0531  0.0735
 5445SOL    HW127971   3.944   1.550   9.757  2.2570  1.3370 -1.8013
 5445SOL    HW227972   3.985   1.410   9.731 -0.8630 -0.1292  0.7603
 5446SOL     OW27973   1.510   2.467   5.912  0.0346 -0.4513 -0.1059
 5446SOL    HW127974   1.429   2.491   5.866  0.6567 -1.0904 -1.5301
 5446SOL    HW227975   1.578   2.471   5.845  0.6523 -0.2196  0.5303
 5447SOL     OW27976   2.443   3.638   2.499 -0.0353 -0.3405  0.1999
 5447SOL    HW127977   2.519   3.692   2.519  0.1869 -0.4772 -0.2761
 5447SOL    HW227978   2.399   3.616   2.581  0.0791 -0.5180  0.2135
 5448SOL     OW27979   0.860   0.996   1.644 -0.0035 -0.6003 -0.1606
 5448SOL    HW127980   0.863   0.929   1.576  0.2858  0.6433 -1.3607
 5448SOL    HW227981   0.955   0.998   1.655  0.0150 -1.2594 -0.1661
 5449SOL     OW27982   1.193   1.765   6.884 -0.1647  0.2951 -0.2338
 5449SOL    HW127983   1.267   1.726   6.837 -0.2549 -0.4156  0.2216
 5449SOL    HW227984   1.195   1.853   6.845 -0.6043  1.0525  1.4302
 5450SOL     OW27985   3.714   0.966  15.408 -0.4303  0.1987  0.3757
 5450SOL    HW127986   3.619   0.982  15.411 -0.6417 -1.0046 -0.2758
 5450SOL    HW227987   3.759   1.002  15.485 -1.9318 -0.0394  1.3727
 5451SOL     OW27988   1.329   4.228   4.867 -0.3514 -0.1325 -0.1760
 5451SOL    HW127989   1.300   4.156   4.924  2.8474 -1.5844 -0.3416
 5451SOL    HW227990   1.275   4.201   4.793 -0.9694 -1.4122  0.7380
 5452SOL     OW27991   3.239   0.739   1.015  0.4547 -0.2612  0.0708
 5452SOL    HW127992   3.304   0.775   0.955  2.5173  1.2149  3.1527
 5452SOL    HW227993   3.224   0.826   1.053 -1.4817 -0.6507  0.1761
 5453SOL     OW27994   2.183   2.761  17.041 -0.0245  0.1886 -0.1784
 5453SOL    HW127995   2.096   2.732  17.013 -0.7980  1.0518  1.3356
 5453SOL    HW227996   2.235   2.697  16.992  2.2449  0.1773  2.1809
 5454SOL     OW27997   3.485   0.294   7.625  0.0965  0.6310  0.4247
 5454SOL    HW127998   3.501   0.215   7.676  1.8676  1.1186  0.6065
 5454SOL    HW227999   3.571   0.300   7.584  1.1389  1.2584  2.6731
 5455SOL     OW28000   3.016   0.960   6.864  0.2247 -0.3302 -0.4757
 5455SOL    HW128001   3.030   1.005   6.947 -1.3124 -2.4576  0.9233
 5455SOL    HW228002   3.079   0.888   6.858 -0.0027 -0.4959 -0.8884
 5456SOL     OW28003   4.471   4.017   7.426  0.2848 -0.4092  0.1938
 5456SOL    HW128004   4.564   4.019   7.448  0.5771 -0.0122 -1.0571
 5456SOL    HW228005   4.455   4.111   7.421  1.9051 -0.0401  2.1283
 5457SOL     OW28006   1.206   3.005   6.527  0.0728  0.3983 -0.6261
 5457SOL    HW128007   1.284   2.977   6.575 -1.3889 -1.8162  0.4281
 5457SOL    HW228008   1.241   3.085   6.486 -0.2346 -0.2637 -2.1475
 5458SOL     OW28009   2.173   3.045   2.269 -0.4690  0.3130 -0.1651
 5458SOL    HW128010   2.187   3.057   2.363 -1.6315 -2.8599  0.3962
 5458SOL    HW228011   2.099   3.104   2.254 -1.4665 -1.0761 -0.6770
 5459SOL     OW28012   3.231   4.120   6.146 -0.6526  0.1307  0.1103
 5459SOL    HW128013   3.258   4.043   6.196 -0.8787  0.4081  0.6571
 5459SOL    HW228014   3.244   4.085   6.058  0.1881  2.5676 -0.7512
 5460SOL     OW28015   0.763   1.623   1.571  0.6944 -0.1823 -0.4979
 5460SOL    HW128016   0.789   1.705   1.529 -2.3890  1.5796  1.0766
 5460SOL    HW228017   0.840   1.607   1.626  0.0762 -0.3475  0.3180
 5461SOL     OW28018   1.979   1.074   1.593 -0.6069 -0.0873 -0.1293
 5461SOL    HW128019   2.071   1.088   1.574 -1.1112 -0.0430 -2.6104
 5461SOL    HW228020   1.969   1.100   1.684 -3.1701 -0.3034 -0.3465
 5462SOL     OW28021   0.525   2.938   5.745 -0.3906  0.2091 -1.0340
 5462SOL    HW128022   0.443   2.926   5.793  0.4468 -0.0570  0.3408
 5462SOL    HW228023   0.574   2.867   5.787 -0.0097  0.4685 -1.0389
 5463SOL     OW28024   3.736   4.671  11.767 -0.3771 -0.2934  0.0106
 5463SOL    HW128025   3.814   4.614  11.765  1.4297  2.2321 -1.2874
 5463SOL    HW228026   3.708   4.670  11.676 -0.3754  1.5600  0.0071
 5464SOL     OW28027   1.384   2.021  16.418  0.0003  0.0545 -0.3250
 5464SOL    HW128028   1.290   2.007  16.430  0.4617 -1.8097  1.0398
 5464SOL    HW228029   1.415   1.936  16.450 -0.4693  0.5624  1.4609
 5465SOL     OW28030   1.219   1.362   7.959 -0.0865 -0.5001  0.1697
 5465SOL    HW128031   1.132   1.339   7.992 -0.6590  0.6702 -0.5366
 5465SOL    HW228032   1.256   1.408   8.034  1.8286 -0.3858 -0.8418
 5466SOL     OW28033   2.616   4.103   3.601 -0.0459  0.0535 -0.0993
 5466SOL    HW128034   2.579   4.046   3.669  1.6248 -0.7738  0.1135
 5466SOL    HW228035   2.541   4.162   3.605  0.5499  0.9048 -1.8292
 5467SOL     OW28036   3.027   1.151  10.087  0.3908  0.0755 -0.1349
 5467SOL    HW128037   2.944   1.174  10.129  0.3621  1.8665 -1.1682
 5467SOL    HW228038   3.088   1.215  10.126 -1.6239  1.3843  0.8796
 5468SOL     OW28039   0.278   2.861   4.911  0.3136 -0.5938 -0.4123
 5468SOL    HW128040   0.285   2.770   4.940 -1.9057 -0.5209  0.3780
 5468SOL    HW228041   0.370   2.875   4.889 -0.8072  2.8784 -2.9160
 5469SOL     OW28042   1.776   2.808   1.811 -0.4037  0.1649 -0.9777
 5469SOL    HW128043   1.865   2.814   1.844  0.7508 -0.9866 -3.8887
 5469SOL    HW228044   1.761   2.714   1.801 -0.0069  0.0884 -0.8287
 5470SOL     OW28045   0.311   2.769  17.482 -0.0085  0.8682 -0.0946
 5470SOL    HW128046   0.313   2.700  17.548  3.0668  0.4350 -0.6529
 5470SOL    HW228047   0.362   2.839  17.523  0.3995 -0.0285  0.9106
 5471SOL     OW28048   2.149   3.179  10.820 -0.3275 -0.1541  0.1131
 5471SOL    HW128049   2.074   3.183  10.879  0.4637  0.5415  1.0681
 5471SOL    HW228050   2.208   3.199  10.893  1.2952  0.0103 -1.2558
 5472SOL     OW28051   3.717   2.347   1.754 -0.5435 -0.1183  0.9193
 5472SOL    HW128052   3.799   2.303   1.779 -0.4035  0.1220  0.8868
 5472SOL    HW228053   3.657   2.278   1.729  0.7538 -0.6532 -0.7068
 5473SOL     OW28054   1.684   2.337   4.580  0.3784  0.0148  0.0661
 5473SOL    HW128055   1.598   2.303   4.556 -0.0540  1.0879  0.0709
 5473SOL    HW228056   1.715   2.372   4.496 -4.1187  3.1628 -0.2582
 5474SOL     OW28057   4.088   2.000  13.589 -0.0998  0.1281  0.6061
 5474SOL    HW128058   4.004   1.957  13.599 -0.1250  0.0820  0.1978
 5474SOL    HW228059   4.071   2.027  13.499 -1.5392 -3.3015 -0.1287
 5475SOL     OW28060   2.139   3.133   6.149 -0.6689  0.2983  0.1725
 5475SOL    HW128061   2.118   3.060   6.207  2.7275 -0.6514  0.1596
 5475SOL    HW228062   2.098   3.122   6.063 -0.2325  0.6851 -0.0848
 5476SOL     OW28063   0.492   2.722   6.243 -0.3957  0.2009 -0.4544
 5476SOL    HW128064   0.429   2.686   6.181  0.3609 -0.7002 -0.6960
 5476SOL    HW228065   0.565   2.661   6.250 -0.8539 -0.4340 -1.2121
 5477SOL     OW28066   0.935   0.144   3.207 -0.5365  0.6523  0.0962
 5477SOL    HW128067   1.023   0.109   3.215 -1.2826 -1.1993  0.2137
 5477SOL    HW228068   0.940   0.240   3.215 -1.1291  0.9023 -2.5331
 5478SOL     OW28069   3.029   4.177  17.174  0.3356 -0.9728 -0.0246
 5478SOL    HW128070   2.986   4.255  17.208  1.8746  0.3782 -1.1343
 5478SOL    HW228071   3.009   4.112  17.241 -2.7493  0.1699  0.1615
 5479SOL     OW28072   1.058   2.365  12.392 -0.3160 -0.2530 -0.3697
 5479SOL    HW128073   1.153   2.378  12.393 -0.2249 -0.9134 -0.6556
 5479SOL    HW228074   1.053   2.286  12.338  0.4388 -0.2507 -0.4476
 5480SOL     OW28075   2.638   4.268  14.125  0.3893  0.1711 -0.1696
 5480SOL    HW128076   2.568   4.208  14.097  0.0326  0.3618  0.3182
 5480SOL    HW228077   2.679   4.311  14.050  0.8721  1.8471  1.0694
 5481SOL     OW28078   4.254   3.880   6.720 -0.1481  0.4199  0.2557
 5481SOL    HW128079   4.224   3.838   6.639 -0.2478 -1.2505  1.1605
 5481SOL    HW228080   4.168   3.893   6.760  0.9070  0.6753  2.4219
 5482SOL     OW28081   1.788   4.275   7.141  0.0417 -0.7341  0.2539
 5482SOL    HW128082   1.761   4.267   7.233  0.8947 -0.1148  0.5556
 5482SOL    HW228083   1.698   4.279   7.108 -0.5465 -1.0165  1.8055
 5483SOL     OW28084   1.363   1.291  10.506 -0.6002 -0.6618 -0.0840
 5483SOL    HW128085   1.431   1.223  10.514 -0.9197 -1.2711 -2.5584
 5483SOL    HW228086   1.310   1.267  10.581 -1.5877  1.7974 -0.0109
 5484SOL     OW28087   4.197   4.292   1.656 -0.3020  0.4448 -0.3219
 5484SOL    HW128088   4.222   4.374   1.699 -3.1319  1.7723 -1.1893
 5484SOL    HW228089   4.120   4.280   1.712  1.3050  0.5882  1.9370
 5485SOL     OW28090   2.244   2.210   8.656 -0.6769  0.0877  0.3709
 5485SOL    HW128091   2.191   2.228   8.578  0.9166 -2.3238 -1.2792
 5485SOL    HW228092   2.323   2.169   8.621  0.7810  1.0863  2.4612
 5486SOL     OW28093   2.677   1.892  13.829 -0.1379  0.5615  0.0603
 5486SOL    HW128094   2.632   1.950  13.769  0.9383  0.7255 -0.5872
 5486SOL    HW228095   2.616   1.820  13.846  0.4084  0.5000  1.7876
 5487SOL     OW28096   0.130   3.751   4.069  0.2691  0.6698  0.0773
 5487SOL    HW128097   0.055   3.807   4.052 -0.7220 -1.0267 -1.1481
 5487SOL    HW228098   0.132   3.733   4.163 -1.1470 -0.2852 -0.0866
 5488SOL     OW28099   2.987   1.448   7.928  0.0906  0.3960  0.4724
 5488SOL    HW128100   2.965   1.509   7.998  0.1548  0.7266  0.2047
 5488SOL    HW228101   2.988   1.363   7.972  2.3463 -0.3715 -1.0303
 5489SOL     OW28102   4.678   3.622   2.817  0.6344 -0.0395 -0.0825
 5489SOL    HW128103   4.592   3.646   2.783  1.1210  3.3693  1.1002
 5489SOL    HW228104   4.704   3.539   2.776  1.4112  0.2850 -0.2428
 5490SOL     OW28105   3.611   1.908   8.361  0.0414 -0.3980 -0.2758
 5490SOL    HW128106   3.607   1.956   8.278  0.6135 -1.6658 -1.0257
 5490SOL    HW228107   3.700   1.935   8.385 -0.6708 -0.4728  2.4994
 5491SOL     OW28108   4.239   0.667  11.711 -0.3337  0.2940 -0.4320
 5491SOL    HW128109   4.179   0.698  11.779 -0.3947  0.8011 -0.7172
 5491SOL    HW228110   4.304   0.638  11.776 -0.9581  0.9268  0.4784
 5492SOL     OW28111   2.540   0.965   6.858  0.0748 -0.3653  0.5090
 5492SOL    HW128112   2.466   0.907   6.876  0.8134 -1.0386  1.4104
 5492SOL    HW228113   2.590   0.944   6.937 -1.6877 -0.8167  1.5003
 5493SOL     OW28114   4.160   2.254   5.397 -0.4711  0.2177 -0.4293
 5493SOL    HW128115   4.226   2.322   5.385 -1.1267  0.6290 -1.6237
 5493SOL    HW228116   4.209   2.196   5.456  1.1267  1.3256 -0.6547
 5494SOL     OW28117   3.729   1.615   5.344  0.1923 -0.8385 -0.8843
 5494SOL    HW128118   3.751   1.685   5.405 -0.0797 -1.6918  0.1774
 5494SOL    HW228119   3.634   1.622   5.353  0.3896  0.0762  0.3590
 5495SOL     OW28120   2.846   4.559   2.757  0.6728  0.2070  0.2593
 5495SOL    HW128121   2.763   4.589   2.719 -0.7568 -3.5715  0.3686
 5495SOL    HW228122   2.872   4.644   2.794 -0.4990 -0.7347  3.2476
 5496SOL     OW28123   2.105   4.509   6.330 -0.1034  0.3049  0.3422
 5496SOL    HW128124   2.171   4.515   6.261  2.1523 -0.0849  2.4499
 5496SOL    HW228125   2.100   4.603   6.349 -1.3095  0.0037  1.5333
 5497SOL     OW28126   3.787   0.881   0.875 -1.0969 -0.0843  0.2719
 5497SOL    HW128127   3.869   0.856   0.917  0.6423 -0.1103 -3.1005
 5497SOL    HW228128   3.759   0.961   0.919  1.1828  0.4723  0.7011
 5498SOL     OW28129   3.812   3.356  16.278  0.0878  0.1617 -0.6254
 5498SOL    HW128130   3.892   3.368  16.330 -0.6011 -1.9009  0.9253
 5498SOL    HW228131   3.799   3.444  16.243  0.9077 -0.3821 -2.2551
 5499SOL     OW28132   2.395   0.996   7.637  0.6400 -0.2053  1.0617
 5499SOL    HW128133   2.485   1.009   7.669  0.1096  2.0064  1.6867
 5499SOL    HW228134   2.410   0.934   7.567  1.3542  0.8451  0.2794
 5500SOL     OW28135   0.360   3.859   8.298  0.0378 -0.0727 -0.9513
 5500SOL    HW128136   0.316   3.935   8.337  0.1371 -0.0745 -0.8384
 5500SOL    HW228137   0.452   3.873   8.320  0.0595 -0.2558 -0.9261
 5501SOL     OW28138   0.406   4.042   9.342  0.1020  0.6583 -0.2305
 5501SOL    HW128139   0.343   3.974   9.319  0.2026  1.2968 -2.3555
 5501SOL    HW228140   0.357   4.124   9.334  0.3782  1.0207  1.8826
 5502SOL     OW28141   2.633   1.760   6.606  0.6782  0.3770  0.0225
 5502SOL    HW128142   2.705   1.804   6.560  0.8776  0.4491  0.4047
 5502SOL    HW228143   2.592   1.831   6.657 -1.3813 -0.2408 -0.7612
 5503SOL     OW28144   0.108   4.218   6.845 -0.0745  0.5670 -0.4994
 5503SOL    HW128145   0.149   4.304   6.842  1.8991 -0.3641 -0.3586
 5503SOL    HW228146   0.108   4.197   6.752  0.0067 -1.2562 -0.0925
 5504SOL     OW28147   4.691   4.598   0.228  0.2105 -0.2221  0.0826
 5504SOL    HW128148   4.693   4.507   0.258  0.5345 -0.2800 -0.1208
 5504SOL    HW228149   4.680   4.587   0.133 -1.2217  0.0665  0.2030
 5505SOL     OW28150   4.624   0.491   2.691 -0.2405  0.3543  0.2129
 5505SOL    HW128151   4.628   0.583   2.667  0.3231  0.0821 -0.7694
 5505SOL    HW228152   4.652   0.489   2.782 -0.7579 -0.7256  0.3494
 5506SOL     OW28153   4.103   2.514  16.843 -0.0417  0.0381 -0.2425
 5506SOL    HW128154   4.100   2.528  16.937  0.8008 -3.2951  0.2845
 5506SOL    HW228155   4.172   2.449  16.829  2.5804  2.7690  0.1036
 5507SOL     OW28156   0.559   4.069   7.139  0.2441  0.3306 -1.0799
 5507SOL    HW128157   0.524   3.980   7.140  2.6783 -0.6101 -0.5524
 5507SOL    HW228158   0.646   4.057   7.178  0.2843  1.7826 -0.7291
 5508SOL     OW28159   0.481   3.588   1.846  0.3057  0.4917  0.4372
 5508SOL    HW128160   0.552   3.629   1.895 -1.0641  0.1905  2.6797
 5508SOL    HW228161   0.528   3.578   1.763 -1.8740 -0.6970 -0.6591
 5509SOL     OW28162   3.303   3.642   7.692 -0.0858 -0.5288 -0.2331
 5509SOL    HW128163   3.228   3.685   7.649  1.1601  2.2602  0.3971
 5509SOL    HW228164   3.342   3.597   7.617  2.3427  1.3038 -0.0485
 5510SOL     OW28165   4.311   2.237  14.486 -0.0551  0.5245  0.6400
 5510SOL    HW128166   4.382   2.240  14.422 -1.6825 -1.2193 -1.2639
 5510SOL    HW228167   4.244   2.180  14.449  1.9115 -1.3351 -0.0452
 5511SOL     OW28168   3.259   0.837  17.440 -0.3438 -0.2912 -0.4442
 5511SOL    HW128169   3.340   0.847  17.491 -0.8498  0.5105  0.2007
 5511SOL    HW228170   3.223   0.925  17.431 -0.9045 -0.4188  0.5615
 5512SOL     OW28171   3.213   4.305  12.028  0.3284  0.4543 -0.2045
 5512SOL    HW128172   3.124   4.273  12.011  1.5079 -0.7521 -4.2131
 5512SOL    HW228173   3.274   4.240  11.995 -1.0058 -1.8851  1.9232
 5513SOL     OW28174   1.569   3.420   6.820 -0.2566 -0.2369 -0.3480
 5513SOL    HW128175   1.650   3.471   6.813  0.4637 -1.1144  1.6507
 5513SOL    HW228176   1.608   3.333   6.822  0.0078 -0.1123 -0.0754
 5514SOL     OW28177   4.440   1.602   2.034 -0.7917  0.2828 -0.5383
 5514SOL    HW128178   4.352   1.626   2.006 -1.2021 -1.0822 -0.3935
 5514SOL    HW228179   4.483   1.601   1.948  0.8114 -0.5269  0.2725
 5515SOL     OW28180   3.006   0.691   1.635  0.0068 -0.3713 -0.4933
 5515SOL    HW128181   2.963   0.607   1.654 -1.3384  0.9355  2.3223
 5515SOL    HW228182   3.099   0.684   1.653  0.1916 -1.2885 -1.7990
 5516SOL     OW28183   0.309   0.053  12.441  0.1598  0.0696 -0.1172
 5516SOL    HW128184   0.245   0.032  12.373 -1.3334 -0.5329  1.4658
 5516SOL    HW228185   0.390   0.052  12.390  0.4343 -2.5388  0.3681
 5517SOL     OW28186   4.301   2.573  10.416  0.6518 -0.0614  0.1517
 5517SOL    HW128187   4.375   2.523  10.451  0.4689 -2.0877 -2.3468
 5517SOL    HW228188   4.281   2.648  10.472 -0.2403  0.8090 -1.3231
 5518SOL     OW28189   3.974   1.286   4.652  0.5052 -0.0100 -0.4288
 5518SOL    HW128190   3.959   1.208   4.707 -1.1958  1.4873  1.2194
 5518SOL    HW228191   4.007   1.243   4.573  0.6172 -0.8160  0.0525
 5519SOL     OW28192   0.152   4.130   0.427  0.5226 -0.0197 -0.3555
 5519SOL    HW128193   0.130   4.097   0.514 -0.3630  0.2960 -0.4561
 5519SOL    HW228194   0.243   4.158   0.434  0.3355  0.1540  1.2209
 5520SOL     OW28195   2.048   0.483   2.520  0.3153  0.0053 -0.3691
 5520SOL    HW128196   2.012   0.396   2.503  0.5345 -0.1690  0.0669
 5520SOL    HW228197   1.966   0.532   2.514  1.2031  1.5487  0.0521
 5521SOL     OW28198   0.773   4.498   6.313 -0.7724 -0.3152 -0.8062
 5521SOL    HW128199   0.827   4.468   6.240  0.5098 -1.6513  0.6799
 5521SOL    HW228200   0.759   4.590   6.291  3.3230  0.4955 -0.1273
 5522SOL     OW28201   3.270   3.611  16.409 -0.1994  0.2398  0.5068
 5522SOL    HW128202   3.221   3.668  16.348  1.1879  0.0850 -0.7521
 5522SOL    HW228203   3.361   3.621  16.382 -0.4263  0.3567 -0.2246
 5523SOL     OW28204   4.297   2.009  14.647 -0.0439 -1.1260  0.8635
 5523SOL    HW128205   4.367   1.951  14.618  1.4651  1.1405 -0.0144
 5523SOL    HW228206   4.309   2.079  14.583 -1.3179  1.0869  3.0362
 5524SOL     OW28207   3.398   0.934   8.998 -0.0267 -0.3230  0.5082
 5524SOL    HW128208   3.319   0.922   9.050 -0.0982 -3.2903 -0.3194
 5524SOL    HW228209   3.451   0.858   9.022 -0.4336 -0.7066  0.1883
 5525SOL     OW28210   0.487   1.407   5.224 -0.5091 -0.3186  0.1398
 5525SOL    HW128211   0.396   1.433   5.213 -0.9536 -1.2784  1.5811
 5525SOL    HW228212   0.480   1.311   5.227 -0.7235 -0.3291 -0.7733
 5526SOL     OW28213   4.461   1.767   8.312  0.6215  0.5560 -0.2362
 5526SOL    HW128214   4.450   1.845   8.257  0.5022  0.8681  0.2262
 5526SOL    HW228215   4.544   1.741   8.272  1.8323  1.0460  1.9456
 5527SOL     OW28216   1.190   0.143   5.853  0.2944 -0.0760  0.1972
 5527SOL    HW128217   1.165   0.138   5.945  0.1182  0.3186  0.1712
 5527SOL    HW228218   1.221   0.054   5.835  2.3190  0.2166  2.2673
 5528SOL     OW28219   4.657   4.559   9.500  0.0253  0.4553 -0.2246
 5528SOL    HW128220   4.704   4.567   9.583 -0.1233  1.9003 -0.2798
 5528SOL    HW228221   4.588   4.624   9.514  0.5201  0.5117  1.9150
 5529SOL     OW28222   0.210   0.130   8.229 -0.1359 -0.1673  0.2270
 5529SOL    HW128223   0.122   0.168   8.226  0.6864  1.4163 -4.2179
 5529SOL    HW228224   0.258   0.176   8.298  0.5125  0.4701 -0.6486
 5530SOL     OW28225   3.812   3.451   9.766  0.2395  0.5198  0.4495
 5530SOL    HW128226   3.825   3.508   9.841  0.3489 -0.0609  0.8669
 5530SOL    HW228227   3.890   3.462   9.711 -0.3723  1.1999 -0.2900
 5531SOL     OW28228   0.319   2.765   5.322 -0.1126  0.2403  0.1748
 5531SOL    HW128229   0.301   2.859   5.313 -0.5799  0.2246  0.9702
 5531SOL    HW228230   0.317   2.734   5.232  0.2655  1.0697 -0.1205
 5532SOL     OW28231   1.110   4.729   1.812  0.1252 -0.0281  0.3803
 5532SOL    HW128232   1.156   4.678   1.878 -1.1482 -1.6683  0.0044
 5532SOL    HW228233   1.047   0.034   1.867  0.1172  1.2193 -0.6491
 5533SOL     OW28234   0.148   3.650   4.332  0.0020 -0.3420  0.3285
 5533SOL    HW128235   0.237   3.658   4.366 -0.6544 -0.0420  1.9683
 5533SOL    HW228236   0.109   3.612   4.411 -1.1734 -0.6810 -0.4097
 5534SOL     OW28237   2.627   3.347   8.884 -0.4112  0.0453 -0.0371
 5534SOL    HW128238   2.607   3.374   8.795  3.5179  1.3436 -0.5208
 5534SOL    HW228239   2.564   3.401   8.932 -0.1206  1.2740 -1.0461
 5535SOL     OW28240   4.393   0.335   3.644  0.3856 -0.3782  0.5136
 5535SOL    HW128241   4.381   0.346   3.739  1.2146 -1.1167  0.7050
 5535SOL    HW228242   4.346   0.415   3.621  0.4379 -0.4553  0.1454
 5536SOL     OW28243   1.276   2.475   7.465  0.0191  0.3196 -0.0632
 5536SOL    HW128244   1.231   2.465   7.548 -4.1510 -0.5657 -2.3985
 5536SOL    HW228245   1.205   2.447   7.407  1.0045 -0.8203 -0.7249
 5537SOL     OW28246   2.138   3.177   7.838  0.0420 -0.1874 -0.2034
 5537SOL    HW128247   2.132   3.272   7.846 -1.1413 -0.2012 -0.9987
 5537SOL    HW228248   2.231   3.170   7.861  0.2795  0.5462 -0.9560
 5538SOL     OW28249   3.393   1.521  11.113 -0.8264 -0.6848 -0.0045
 5538SOL    HW128250   3.474   1.563  11.085 -1.8061 -0.2960 -2.1985
 5538SOL    HW228251   3.354   1.595  11.159  0.6877 -0.2715  0.6133
 5539SOL     OW28252   0.388   1.061   8.308 -1.3319 -0.0457  0.2340
 5539SOL    HW128253   0.369   1.130   8.244  2.1779  0.1238 -0.6287
 5539SOL    HW228254   0.347   0.986   8.264 -0.5940 -0.2894 -0.0341
 5540SOL     OW28255   1.616   2.165   5.001 -0.4717 -0.3114 -0.7122
 5540SOL    HW128256   1.637   2.257   4.987 -0.2279 -0.2460  0.0969
 5540SOL    HW228257   1.520   2.158   4.997 -0.4731 -1.0350  0.6633
 5541SOL     OW28258   3.044   0.652   2.475  0.1137 -0.3466 -0.2127
 5541SOL    HW128259   3.070   0.662   2.566  0.7868 -2.6065 -0.1542
 5541SOL    HW228260   2.959   0.695   2.477  0.2038 -0.1298 -1.1418
 5542SOL     OW28261   0.516   3.002   1.358 -0.0698  0.1216  0.1464
 5542SOL    HW128262   0.475   3.041   1.281  0.6876 -1.4437 -1.0468
 5542SOL    HW228263   0.451   2.936   1.382 -1.4040  1.2372 -0.4182
 5543SOL     OW28264   2.002   2.998   8.780  0.1006  0.5889 -0.0152
 5543SOL    HW128265   2.032   2.955   8.860  0.3703 -2.1151 -1.6001
 5543SOL    HW228266   2.066   2.971   8.714  0.0240 -0.1506  0.2127
 5544SOL     OW28267   1.789   4.541   9.361 -0.2385  0.1867  0.4770
 5544SOL    HW128268   1.851   4.589   9.306 -0.0003  2.2692  2.5493
 5544SOL    HW228269   1.711   4.592   9.341 -0.4064  0.4117  1.6972
 5545SOL     OW28270   4.410   1.494  12.326 -0.7735  0.2389  0.0555
 5545SOL    HW128271   4.495   1.487  12.370 -1.0405 -2.1914  0.1405
 5545SOL    HW228272   4.406   1.590  12.328 -0.7316  0.2272  0.5094
 5546SOL     OW28273   3.466   4.526   4.305 -0.0288 -0.4288  0.6723
 5546SOL    HW128274   3.479   4.619   4.324 -0.0995 -0.6543  1.8609
 5546SOL    HW228275   3.396   4.528   4.240  0.6120 -1.1218 -0.0363
 5547SOL     OW28276   1.778   2.205   9.811 -0.2217  0.3700  0.1694
 5547SOL    HW128277   1.789   2.115   9.842  1.3231  0.7793  0.8035
 5547SOL    HW228278   1.683   2.203   9.800 -0.6946  0.0539  4.3857
 5548SOL     OW28279   0.830   4.158   3.265 -0.2934 -0.2517  0.2537
 5548SOL    HW128280   0.791   4.242   3.243 -0.2836  0.0760  1.4856
 5548SOL    HW228281   0.847   4.119   3.180  2.2243  0.3618  0.4743
 5549SOL     OW28282   2.958   2.552   3.315  0.0242  0.1400  0.1006
 5549SOL    HW128283   2.879   2.556   3.368 -0.1678 -0.8571 -0.1041
 5549SOL    HW228284   2.919   2.499   3.245 -0.8756 -0.6560  1.2086
 5550SOL     OW28285   3.896   4.509  13.905 -0.0423  0.1332  0.0949
 5550SOL    HW128286   3.956   4.583  13.910  2.1044 -1.6302  0.5626
 5550SOL    HW228287   3.864   4.523  13.816  1.6983 -1.0699 -0.7277
 5551SOL     OW28288   0.099   0.892   1.687 -0.1655  0.1871 -0.1253
 5551SOL    HW128289   0.092   0.937   1.603 -1.4698  3.6151  1.8124
 5551SOL    HW228290   0.030   0.826   1.688  0.1620 -0.1539 -1.2720
 5552SOL     OW28291   2.144   2.628   8.577 -0.3979  0.1771  0.1780
 5552SOL    HW128292   2.117   2.548   8.531 -2.7477  1.4165 -0.6112
 5552SOL    HW228293   2.163   2.688   8.505  2.5653 -2.4050 -1.1945
 5553SOL     OW28294   2.978   1.279   4.881  0.3069 -0.3330  0.1964
 5553SOL    HW128295   3.004   1.371   4.885  2.6166 -0.8713 -2.2550
 5553SOL    HW228296   2.980   1.250   4.972 -1.5727 -0.4517  0.1989
 5554SOL     OW28297   4.538   0.043   1.964  0.6652  0.1050  0.1970
 5554SOL    HW128298   4.619   0.062   2.012 -0.5266 -2.8761  3.3315
 5554SOL    HW228299   4.544   4.689   1.955 -3.7425  0.0104 -1.8261
 5555SOL     OW28300   4.639   0.812   9.011  0.4802 -0.5441 -0.1115
 5555SOL    HW128301   4.655   0.722   9.039 -0.3136 -1.4733 -2.6293
 5555SOL    HW228302   4.711   0.821   8.948  1.9574  1.5028  1.8973
 5556SOL     OW28303   1.823   0.644   2.427 -0.2317  0.8529  0.2421
 5556SOL    HW128304   1.733   0.638   2.395 -0.3105 -0.5455  0.7435
 5556SOL    HW228305   1.870   0.596   2.358 -2.1734  0.7080 -0.9748
 5557SOL     OW28306   0.377   4.661  14.195 -0.2925 -0.1680 -0.1848
 5557SOL    HW128307   0.323   4.660  14.117 -1.9436  1.6819  0.9341
 5557SOL    HW228308   0.406   0.012  14.191 -0.0930 -0.1056  2.4687
 5558SOL     OW28309   4.600   1.672   7.512 -0.1301  0.7674 -0.1325
 5558SOL    HW128310   4.542   1.740   7.478 -2.4338 -2.1712 -2.0981
 5558SOL    HW228311   4.659   1.668   7.437 -0.1073 -0.7593 -0.0249
 5559SOL     OW28312   4.280   3.882  15.626  0.7764 -0.4306  0.2115
 5559SOL    HW128313   4.320   3.805  15.586 -0.6389  0.1462 -2.3516
 5559SOL    HW228314   4.197   3.878  15.579  0.7744 -1.9461  0.3316
 5560SOL     OW28315   3.233   2.193  15.539  0.4476  0.0308  0.5304
 5560SOL    HW128316   3.204   2.128  15.602  1.7384 -0.8818  0.1862
 5560SOL    HW228317   3.301   2.150  15.487  0.5550  0.9605 -0.1044
 5561SOL     OW28318   3.438   4.525   7.615 -0.0186 -0.1957  0.0308
 5561SOL    HW128319   3.386   4.535   7.695  1.0104  1.2183  0.5139
 5561SOL    HW228320   3.360   4.538   7.561 -1.6129 -0.7597  2.1849
 5562SOL     OW28321   3.403   2.854   5.205 -0.0810  0.0238  0.1210
 5562SOL    HW128322   3.448   2.820   5.128  0.2484  0.1070  0.2768
 5562SOL    HW228323   3.470   2.847   5.273  0.8489  0.7595 -0.7239
 5563SOL     OW28324   3.611   1.689   1.033 -0.7752 -0.2792  0.4736
 5563SOL    HW128325   3.662   1.699   1.113 -1.3821  1.3588  0.6622
 5563SOL    HW228326   3.637   1.605   0.995  1.3567  0.5019  0.2270
 5564SOL     OW28327   2.865   2.313  16.849 -0.8841 -0.2470 -0.1715
 5564SOL    HW128328   2.906   2.262  16.919  0.4437  2.5412  1.0906
 5564SOL    HW228329   2.864   2.403  16.881 -2.1321  0.2886 -1.7151
 5565SOL     OW28330   3.400   4.220   8.909 -0.5913 -0.0518  0.6954
 5565SOL    HW128331   3.367   4.150   8.965 -1.5954 -0.6655 -0.6732
 5565SOL    HW228332   3.340   4.286   8.944 -1.3205 -0.2520 -0.1842
 5566SOL     OW28333   2.829   0.988   6.678  0.2587 -0.4821 -0.1917
 5566SOL    HW128334   2.777   1.037   6.742 -2.1679 -0.6715 -2.0069
 5566SOL    HW228335   2.904   0.977   6.736 -0.0063 -1.5441 -0.0397
 5567SOL     OW28336   2.817   1.188  12.313  0.0040 -0.6656  0.1703
 5567SOL    HW128337   2.770   1.145  12.242 -1.3951 -1.0567  1.3379
 5567SOL    HW228338   2.907   1.192  12.280  0.2316  2.1288  1.0893
 5568SOL     OW28339   2.142   1.699  13.378  0.4944  0.3763  0.3090
 5568SOL    HW128340   2.105   1.697  13.466 -1.3192 -1.8558 -0.4860
 5568SOL    HW228341   2.234   1.699  13.405  0.2298 -1.5626  1.2218
 5569SOL     OW28342   4.650   2.298  15.553 -0.3889 -0.2663  0.0001
 5569SOL    HW128343   4.708   2.355  15.604 -0.7206  0.9543 -0.9855
 5569SOL    HW228344   4.712   2.264  15.488 -0.7602 -1.1406  0.1061
 5570SOL     OW28345   3.764   3.123   3.858  0.1575  0.6189  0.3071
 5570SOL    HW128346   3.803   3.103   3.943 -0.4731 -1.6837  0.0585
 5570SOL    HW228347   3.799   3.209   3.835  0.9190  0.1908 -0.1314
 5571SOL     OW28348   4.040   3.556   4.345 -0.3809 -0.2936  0.0583
 5571SOL    HW128349   4.095   3.599   4.279  0.9769 -0.3748  1.1201
 5571SOL    HW228350   3.980   3.498   4.300 -0.2537  0.4563 -1.0659
 5572SOL     OW28351   3.376   2.987   6.553 -0.3494  0.0376  0.0428
 5572SOL    HW128352   3.295   3.013   6.598 -0.8414 -1.2022 -0.0995
 5572SOL    HW228353   3.381   2.893   6.573 -0.4802  0.1278  0.4935
 5573SOL     OW28354   3.194   3.151   8.671  0.0310 -0.0464  0.3657
 5573SOL    HW128355   3.212   3.085   8.738  1.0149 -0.2823 -0.1392
 5573SOL    HW228356   3.098   3.147   8.668 -0.0636  1.5451  1.2655
 5574SOL     OW28357   2.437   3.040   4.594 -0.1266 -0.2165  0.2060
 5574SOL    HW128358   2.406   2.951   4.610 -2.2828  0.0014 -2.7467
 5574SOL    HW228359   2.412   3.078   4.678  0.6549  2.9627 -1.0108
 5575SOL     OW28360   0.155   4.669  11.308 -0.3570  0.0288 -0.4207
 5575SOL    HW128361   0.222   4.662  11.241 -0.1089  0.7605 -0.2571
 5575SOL    HW228362   0.200   4.622  11.378  1.0928  1.2872 -0.5009
 5576SOL     OW28363   0.686   1.564   4.485  0.3077 -0.4043  0.1814
 5576SOL    HW128364   0.697   1.471   4.463 -1.3355 -0.0909 -1.9228
 5576SOL    HW228365   0.598   1.565   4.523  0.6105  0.7589  0.8459
 5577SOL     OW28366   4.536   2.371   1.514 -0.0360 -0.2399 -0.4806
 5577SOL    HW128367   4.464   2.367   1.450 -0.4696 -1.1656  0.0728
 5577SOL    HW228368   4.603   2.395   1.451  2.6221 -3.6976  1.0862
 5578SOL     OW28369   0.675   0.298  15.644 -0.0451 -0.3205 -0.2963
 5578SOL    HW128370   0.691   0.303  15.738 -2.5050 -0.1666  0.1165
 5578SOL    HW228371   0.765   0.285  15.616  1.0668  1.3313  2.5658
 5579SOL     OW28372   1.306   0.332   5.062  0.4190  0.0661  0.3256
 5579SOL    HW128373   1.334   0.243   5.040  1.3520  0.5734 -0.5562
 5579SOL    HW228374   1.260   0.315   5.144 -0.1645  1.1399  0.2246
 5580SOL     OW28375   1.921   0.163   5.234 -0.3321  0.5229 -0.2625
 5580SOL    HW128376   2.007   0.133   5.263 -1.2126 -0.3536  1.4544
 5580SOL    HW228377   1.917   0.135   5.143 -0.6150 -0.1751 -0.0388
 5581SOL     OW28378   3.779   1.368  15.072 -0.0713  0.3858 -0.2268
 5581SOL    HW128379   3.846   1.384  15.138 -0.5749  1.2073  0.0819
 5581SOL    HW228380   3.739   1.295  15.120 -0.2901  0.6938  0.0608
 5582SOL     OW28381   0.092   4.560  14.283  0.4182  0.3496  0.0509
 5582SOL    HW128382   0.046   4.544  14.201  0.5339  0.1685  0.0215
 5582SOL    HW228383   0.118   4.652  14.277 -1.9195  0.9859 -0.5580
 5583SOL     OW28384   4.005   2.421   2.375  0.7563  0.2165 -0.0922
 5583SOL    HW128385   3.989   2.328   2.359  1.4597  0.1338 -0.3064
 5583SOL    HW228386   4.034   2.425   2.465 -1.4870 -3.1340  0.7967
 5584SOL     OW28387   0.801   1.025   8.908 -0.1244 -0.0148 -0.3877
 5584SOL    HW128388   0.755   1.088   8.962 -0.2095 -0.7267  0.3758
 5584SOL    HW228389   0.806   0.950   8.968 -0.0296 -0.2826 -0.7263
 5585SOL     OW28390   1.314   0.059  16.895 -0.4709  0.4023  0.5594
 5585SOL    HW128391   1.348   0.139  16.936 -0.4553  0.1516  1.0389
 5585SOL    HW228392   1.398   0.020  16.872 -0.1006 -0.4183  3.2633
 5586SOL     OW28393   0.343   2.648   1.461  0.0630 -0.1327 -0.1920
 5586SOL    HW128394   0.316   2.738   1.445 -2.1294 -0.6650  0.5201
 5586SOL    HW228395   0.361   2.621   1.371  1.4237 -1.6112  0.5101
 5587SOL     OW28396   3.016   3.804   9.119  0.7970  0.1310  0.9750
 5587SOL    HW128397   3.067   3.880   9.149  0.5269  0.3943  0.7728
 5587SOL    HW228398   3.023   3.740   9.189 -1.0525 -1.8515 -0.6450
 5588SOL     OW28399   2.966   2.635   2.010  0.0194 -0.0558  0.0222
 5588SOL    HW128400   2.991   2.585   1.933  4.0586  2.6792 -0.4665
 5588SOL    HW228401   2.990   2.573   2.079  1.6081  1.4763  0.8618
 5589SOL     OW28402   3.973   3.079   4.905  0.7832 -0.2879  0.2015
 5589SOL    HW128403   3.965   3.148   4.971 -1.5843  1.1586 -1.6015
 5589SOL    HW228404   3.933   3.009   4.956 -1.8344  1.6293  0.7856
 5590SOL     OW28405   2.440   1.785   3.401  0.1198  0.0740 -0.1122
 5590SOL    HW128406   2.437   1.727   3.477 -2.4798  1.5471  0.8928
 5590SOL    HW228407   2.365   1.765   3.344 -1.0093 -0.6731  1.6588
 5591SOL     OW28408   3.531   3.321   7.006  0.4724 -0.2429 -0.0387
 5591SOL    HW128409   3.554   3.244   7.059  0.6825 -0.8140 -0.9689
 5591SOL    HW228410   3.538   3.283   6.919 -0.3475 -2.1979  0.7376
 5592SOL     OW28411   0.217   1.491  12.858  0.2749 -0.0675  0.1555
 5592SOL    HW128412   0.203   1.396  12.860  0.7097 -0.0712  2.6153
 5592SOL    HW228413   0.235   1.510  12.765 -0.2702  2.2141  0.5276
 5593SOL     OW28414   2.375   3.476   0.176  0.5169 -0.5784  0.9298
 5593SOL    HW128415   2.389   3.560   0.220 -1.1435 -0.1966  0.7171
 5593SOL    HW228416   2.413   3.497   0.091  0.5322 -2.0999  0.5519
 5594SOL     OW28417   2.505   0.639  17.338  0.1286  0.5495 -0.0133
 5594SOL    HW128418   2.592   0.678  17.344  1.2421 -1.8419 -0.4484
 5594SOL    HW228419   2.466   0.677  17.417 -0.0318 -0.6928  0.5121
 5595SOL     OW28420   1.881   0.719  15.921  0.5491  0.0657  0.1613
 5595SOL    HW128421   1.835   0.779  15.863  0.6726  0.6294  0.6503
 5595SOL    HW228422   1.962   0.768  15.930  1.3555 -0.8594 -2.0557
 5596SOL     OW28423   1.650   2.357  14.746 -0.2667  0.2556 -0.8678
 5596SOL    HW128424   1.565   2.345  14.788  0.0148  0.5979 -0.2019
 5596SOL    HW228425   1.634   2.431  14.687  2.5898  1.4665 -0.1617
 5597SOL     OW28426   0.347   2.473   4.339 -0.2040  0.3412 -0.3372
 5597SOL    HW128427   0.352   2.391   4.388  1.2876  1.1463  0.8540
 5597SOL    HW228428   0.420   2.458   4.278  0.5322 -2.2141  1.1672
 5598SOL     OW28429   1.984   3.465   9.106  0.1329 -0.4509 -0.2614
 5598SOL    HW128430   2.006   3.387   9.157 -0.7613  0.3230  1.3189
 5598SOL    HW228431   2.061   3.521   9.115  0.1160 -0.3431 -0.8273
 5599SOL     OW28432   3.177   0.644   3.848 -0.5436 -0.7395  0.4560
 5599SOL    HW128433   3.207   0.713   3.907 -1.0765 -1.8870  2.0684
 5599SOL    HW228434   3.167   0.566   3.902 -2.6428  1.4640  3.2439
 5600SOL     OW28435   1.638   1.559   2.480 -0.5783  0.4627  0.5244
 5600SOL    HW128436   1.685   1.618   2.420 -0.3528 -1.3312 -1.0544
 5600SOL    HW228437   1.593   1.623   2.534  0.8386  0.9384  1.1528
 5601SOL     OW28438   4.457   3.442  12.412  0.2080  0.0090 -0.8432
 5601SOL    HW128439   4.503   3.487  12.341 -1.8174  1.1898 -1.4074
 5601SOL    HW228440   4.404   3.518  12.436 -0.1189 -0.7670  0.9037
 5602SOL     OW28441   3.938   4.565  13.277 -0.1969 -0.2265  0.3652
 5602SOL    HW128442   3.843   4.563  13.287 -0.1121 -0.7698  1.0576
 5602SOL    HW228443   3.964   4.581  13.368 -0.7426  0.1538  0.4564
 5603SOL     OW28444   4.489   2.031   1.419 -0.0876 -0.1623 -0.3128
 5603SOL    HW128445   4.584   2.031   1.427 -0.1067 -2.7857 -0.0300
 5603SOL    HW228446   4.477   1.946   1.461  1.4678 -0.6408 -0.8364
 5604SOL     OW28447   2.088   4.018   9.433  0.1571 -0.3084 -0.6195
 5604SOL    HW128448   2.087   4.043   9.341  0.2844  0.9620 -0.2684
 5604SOL    HW228449   2.182   4.002   9.438 -0.0345 -0.7040  1.9155
 5605SOL     OW28450   2.219   4.538   8.428 -0.2035 -0.5899  0.5153
 5605SOL    HW128451   2.162   4.478   8.380 -1.0938  0.2354  0.5497
 5605SOL    HW228452   2.259   4.590   8.359 -0.9057 -1.9044 -0.8797
 5606SOL     OW28453   1.183   4.189   3.529  0.0469 -0.3650  0.2449
 5606SOL    HW128454   1.154   4.260   3.471 -0.8883  0.5082  1.7558
 5606SOL    HW228455   1.232   4.234   3.599 -1.8226  0.6894  0.8946
 5607SOL     OW28456   4.415   1.461   2.313 -0.6903  0.1461 -0.3898
 5607SOL    HW128457   4.475   1.389   2.293  0.2661  1.2141 -1.3798
 5607SOL    HW228458   4.371   1.483   2.232 -0.7843 -0.0513 -0.3917
 5608SOL     OW28459   4.485   1.309   2.023 -0.1856 -0.0302 -0.6259
 5608SOL    HW128460   4.498   1.403   2.010  2.7891 -0.3259  0.1424
 5608SOL    HW228461   4.451   1.282   1.938 -1.3251 -1.8466  0.4094
 5609SOL     OW28462   1.560   0.119   5.969 -0.1566  0.3666 -0.6608
 5609SOL    HW128463   1.470   0.099   5.997  0.1471  0.5622  0.4745
 5609SOL    HW228464   1.559   0.214   5.959 -0.2152  0.6874  2.2870
 5610SOL     OW28465   4.001   4.425   2.548  0.4093 -0.5268 -0.4524
 5610SOL    HW128466   3.942   4.496   2.576 -0.9649 -0.6520 -2.9876
 5610SOL    HW228467   3.963   4.352   2.597 -0.6286  0.5623  0.3822
 5611SOL     OW28468   0.497   1.146   3.728  0.4545 -0.1210 -0.3872
 5611SOL    HW128469   0.565   1.192   3.779  0.3981 -0.2664 -0.1799
 5611SOL    HW228470   0.520   1.053   3.735  0.0345 -0.0560  1.9765
 5612SOL     OW28471   0.670   1.116   1.827 -0.0925 -0.3438 -0.1858
 5612SOL    HW128472   0.727   1.082   1.758  1.1032  0.7008  0.2753
 5612SOL    HW228473   0.716   1.198   1.849  1.8161 -1.7221  0.9581
 5613SOL     OW28474   4.605   2.400   7.290  0.4058  0.5965 -0.0650
 5613SOL    HW128475   4.557   2.479   7.312  0.1142  0.8162 -1.5022
 5613SOL    HW228476   4.686   2.423   7.334 -0.4860 -2.1727  3.0800
 5614SOL     OW28477   3.852   0.701  15.346 -0.0075  0.3285 -0.3283
 5614SOL    HW128478   3.810   0.784  15.371  2.6076  1.8116 -0.9108
 5614SOL    HW228479   3.913   0.730  15.278 -0.9030 -0.4092 -1.4493
 5615SOL     OW28480   3.677   0.559   3.779 -0.5118  0.0397  0.3320
 5615SOL    HW128481   3.703   0.558   3.687 -0.2956 -3.3871  0.4484
 5615SOL    HW228482   3.685   0.468   3.808  0.9789  0.0350 -0.1185
 5616SOL     OW28483   3.094   0.502  16.809 -0.4294  0.4067  0.4659
 5616SOL    HW128484   3.027   0.433  16.810  0.8862 -0.9374 -2.2041
 5616SOL    HW228485   3.132   0.476  16.725 -0.7817 -0.0976  0.4654
 5617SOL     OW28486   1.250   2.214   2.409  0.0544  0.0100  0.1135
 5617SOL    HW128487   1.326   2.251   2.363  0.1067 -0.5299 -0.2398
 5617SOL    HW228488   1.219   2.150   2.345  0.5153  1.5271 -1.6562
 5618SOL     OW28489   2.667   2.420  10.595  0.3934 -0.3214  0.2161
 5618SOL    HW128490   2.651   2.446  10.685  2.7730  2.6828 -0.2380
 5618SOL    HW228491   2.668   2.324  10.595  0.3440 -0.3307 -1.0099
 5619SOL     OW28492   2.201   2.021   1.703  0.0849  0.5977 -0.0521
 5619SOL    HW128493   2.240   2.052   1.784  1.1446  0.7715 -0.6357
 5619SOL    HW228494   2.143   2.093   1.678 -1.5124 -1.0210 -1.0186
 5620SOL     OW28495   3.863   1.658   2.853  0.0378  0.5248 -0.4598
 5620SOL    HW128496   3.854   1.612   2.936  0.2675 -0.8780 -1.1974
 5620SOL    HW228497   3.948   1.625   2.824 -0.3990 -1.0682  0.0775
 5621SOL     OW28498   3.384   2.493   1.186 -0.0178  0.2671  0.4393
 5621SOL    HW128499   3.439   2.453   1.253 -0.0846  0.3057  0.5168
 5621SOL    HW228500   3.429   2.577   1.181  1.1372 -0.4293 -0.8597
 5622SOL     OW28501   3.971   1.203   3.308 -0.6782  0.2250  0.6778
 5622SOL    HW128502   3.924   1.123   3.283 -1.0249  0.7233 -0.2407
 5622SOL    HW228503   3.906   1.272   3.316 -0.9820  0.1151 -0.8867
 5623SOL     OW28504   2.044   1.482   8.435  0.1345  0.6965  0.3182
 5623SOL    HW128505   2.080   1.571   8.434 -0.8766  1.1362  2.6781
 5623SOL    HW228506   2.110   1.449   8.374 -0.3132  2.4696 -1.1194
 5624SOL     OW28507   0.547   3.436  16.257  0.0758  0.5017 -0.3029
 5624SOL    HW128508   0.473   3.382  16.287  2.2371 -1.0459  2.2995
 5624SOL    HW228509   0.617   3.382  16.293 -0.0691  0.5220  0.0107
 5625SOL     OW28510   2.158   0.872  17.656 -0.2381 -0.4250  0.2881
 5625SOL    HW128511   2.102   0.887  17.580  1.0815 -0.5608 -0.7149
 5625SOL    HW228512   2.150   0.778  17.675  1.4724 -0.5240  0.5281
 5626SOL     OW28513   1.346   2.860   2.140 -0.8941  0.3242  0.6296
 5626SOL    HW128514   1.344   2.788   2.203 -0.8796  1.7581  2.2528
 5626SOL    HW228515   1.419   2.899   2.189  1.8707 -2.1799 -1.4391
 5627SOL     OW28516   4.731   3.299   6.289  0.2562 -0.0190 -0.1406
 5627SOL    HW128517   4.680   3.305   6.370  2.2016  1.4763  0.9553
 5627SOL    HW228518   0.067   3.344   6.324  0.4681 -0.5617  0.0937
 5628SOL     OW28519   3.127   0.168   7.509 -0.5302  0.1537  0.7107
 5628SOL    HW128520   3.136   0.080   7.546 -2.7011 -0.2896  0.2166
 5628SOL    HW228521   3.043   0.194   7.548 -1.1271 -0.6507 -0.0368
 5629SOL     OW28522   1.723   2.897  16.615  0.1920 -0.3581  0.3253
 5629SOL    HW128523   1.806   2.924  16.575 -0.0092  1.0288  0.8461
 5629SOL    HW228524   1.683   2.978  16.647 -1.2735 -1.0402  0.2255
 5630SOL     OW28525   1.073   3.247   2.801 -0.0775 -0.4009 -0.0734
 5630SOL    HW128526   0.994   3.208   2.763  0.0481 -0.4970 -0.2316
 5630SOL    HW228527   1.137   3.257   2.730 -1.5860 -0.2626 -1.4217
 5631SOL     OW28528   1.197   1.193   3.304 -0.1713  0.1561 -0.5954
 5631SOL    HW128529   1.269   1.200   3.366  0.4006 -0.6400 -1.1763
 5631SOL    HW228530   1.168   1.107   3.334 -0.3016  0.5292  0.3473
 5632SOL     OW28531   2.325   4.232  11.376 -0.1280  0.0701 -0.4962
 5632SOL    HW128532   2.397   4.198  11.323 -0.5733 -0.7392 -0.5969
 5632SOL    HW228533   2.254   4.201  11.319 -0.5410 -2.1327  1.2101
 5633SOL     OW28534   2.388   0.183  16.770 -0.1864  0.0574 -0.5317
 5633SOL    HW128535   2.414   0.161  16.860 -2.2872 -1.1421 -0.1976
 5633SOL    HW228536   2.392   0.099  16.725 -3.9236 -0.4525  0.0498
 5634SOL     OW28537   3.038   2.225   6.735  0.0581  0.2434 -0.6464
 5634SOL    HW128538   2.978   2.261   6.800  1.7119 -1.2283  1.6836
 5634SOL    HW228539   2.986   2.218   6.655 -1.0963  0.6905  0.0744
 5635SOL     OW28540   3.662   1.211   3.139 -0.0300 -0.2107  0.6071
 5635SOL    HW128541   3.581   1.204   3.088 -1.0418  2.8050  1.8603
 5635SOL    HW228542   3.713   1.138   3.101  1.0511  0.6322  0.4329
 5636SOL     OW28543   1.173   1.802  14.803  0.4027 -0.8575  0.1426
 5636SOL    HW128544   1.217   1.718  14.791  1.7815 -0.3246  1.4516
 5636SOL    HW228545   1.246   1.861  14.787  0.8681 -0.9895  1.7240
 5637SOL     OW28546   2.784   3.912  15.921  0.4723  0.0144 -0.1200
 5637SOL    HW128547   2.752   3.991  15.877  1.2635  0.1447 -0.4628
 5637SOL    HW228548   2.743   3.843  15.869  1.1922 -1.0994  0.7858
 5638SOL     OW28549   1.742   0.311   1.897 -0.0277 -0.6144  0.3010
 5638SOL    HW128550   1.702   0.294   1.812  1.3804 -2.3410  0.0006
 5638SOL    HW228551   1.686   0.372   1.945  0.7605  0.7961 -0.5604
 5639SOL     OW28552   1.801   2.470   5.477  0.0428 -0.2710 -0.2080
 5639SOL    HW128553   1.869   2.536   5.462  1.2953 -1.3629  0.5997
 5639SOL    HW228554   1.789   2.429   5.392  0.5321  0.3447 -0.5736
 5640SOL     OW28555   1.685   0.725   5.186 -0.2563  0.5377 -0.2563
 5640SOL    HW128556   1.713   0.800   5.134  2.1929 -1.1940 -1.3968
 5640SOL    HW228557   1.657   0.652   5.132  0.2224 -0.0693  0.3220
 5641SOL     OW28558   2.866   0.473   8.121 -0.5039  0.2060  0.7058
 5641SOL    HW128559   2.774   0.498   8.113  0.1132  1.0310 -3.7128
 5641SOL    HW228560   2.863   0.434   8.034  2.6356  1.4293  0.0645
 5642SOL     OW28561   3.637   1.642  11.050  0.2478  0.1016  0.0958
 5642SOL    HW128562   3.620   1.687  10.967  1.1983  1.0770  0.4176
 5642SOL    HW228563   3.681   1.708  11.104 -0.7987  0.3367  0.6747
 5643SOL     OW28564   3.950   3.592   7.621 -0.1066  0.3676 -0.1348
 5643SOL    HW128565   4.042   3.593   7.596  0.1077 -0.2666  0.6319
 5643SOL    HW228566   3.932   3.679   7.584  0.0154  0.3706 -0.1875
 5644SOL     OW28567   1.618   2.795  10.731  0.0307  0.5388 -0.9718
 5644SOL    HW128568   1.697   2.830  10.772 -0.6948  1.4890 -0.3694
 5644SOL    HW228569   1.648   2.794  10.640 -1.4549 -0.1084 -1.4525
 5645SOL     OW28570   2.204   2.370   0.087 -0.2404 -0.4725  0.6579
 5645SOL    HW128571   2.276   2.330   0.136 -0.1003 -0.0424  0.8118
 5645SOL    HW228572   2.183   2.307   0.019  2.0657 -0.0050 -0.4737
 5646SOL     OW28573   4.461   0.105   5.606 -0.8418  0.4978 -0.1919
 5646SOL    HW128574   4.462   0.087   5.699  0.5472  0.1755 -0.2614
 5646SOL    HW228575   4.398   0.177   5.600 -0.5355  0.7370 -0.6687
 5647SOL     OW28576   2.707   2.713   1.723 -0.6152 -0.4541 -0.0501
 5647SOL    HW128577   2.643   2.780   1.699 -1.0037 -1.1184 -0.8644
 5647SOL    HW228578   2.717   2.673   1.637 -4.5531 -3.8175  1.0120
 5648SOL     OW28579   0.680   3.358  15.638  0.0185 -0.2392 -0.1154
 5648SOL    HW128580   0.657   3.451  15.640 -0.4019 -0.3365 -0.4766
 5648SOL    HW228581   0.658   3.341  15.730  0.5756 -0.9682 -0.1215
 5649SOL     OW28582   2.856   1.643   6.047  0.3818  0.1515 -0.0513
 5649SOL    HW128583   2.831   1.553   6.028 -0.8225  0.9702 -2.3510
 5649SOL    HW228584   2.919   1.656   5.975  0.5807 -1.5654 -0.1914
 5650SOL     OW28585   1.692   3.867   4.038 -0.1233 -0.0405 -0.0757
 5650SOL    HW128586   1.741   3.820   4.105  0.3356  0.8838  0.2387
 5650SOL    HW228587   1.653   3.792   3.994  3.0548 -1.9240  0.3252
 5651SOL     OW28588   1.399   3.719   6.753  0.1214 -0.5767 -0.2947
 5651SOL    HW128589   1.424   3.713   6.845  0.7721  0.6659 -0.3959
 5651SOL    HW228590   1.481   3.702   6.707  0.3820 -1.0207  0.3327
 5652SOL     OW28591   2.158   2.580  11.280  0.0543  0.5658 -0.6328
 5652SOL    HW128592   2.213   2.627  11.216  0.7676  2.1105  1.1266
 5652SOL    HW228593   2.077   2.631  11.287 -1.6708 -2.1443 -0.8614
 5653SOL     OW28594   0.556   2.437   2.196 -0.1666 -0.2018 -0.1220
 5653SOL    HW128595   0.587   2.446   2.106  0.5706 -1.5728  0.0047
 5653SOL    HW228596   0.580   2.525   2.227 -0.1127 -1.0901  2.3534
 5654SOL     OW28597   2.587   0.760   3.181  0.5824 -0.4557 -0.2279
 5654SOL    HW128598   2.664   0.768   3.124  0.7137 -3.2907 -0.4529
 5654SOL    HW228599   2.521   0.809   3.132 -0.1588  0.0377  1.2750
 5655SOL     OW28600   1.496   4.489   6.556 -0.1090  0.0225 -0.0254
 5655SOL    HW128601   1.426   4.524   6.611  0.6693  1.2024  0.2028
 5655SOL    HW228602   1.529   4.411   6.599 -2.0254  0.4942  2.2810
 5656SOL     OW28603   4.153   2.788   2.226  0.4777  0.6097  0.2458
 5656SOL    HW128604   4.204   2.801   2.306  1.2372  0.2318 -0.1863
 5656SOL    HW228605   4.194   2.857   2.174  1.7347  0.5978  1.2133
 5657SOL     OW28606   3.339   1.896   6.002 -0.1617 -0.3421  0.3234
 5657SOL    HW128607   3.378   1.941   6.077 -1.9274 -0.4640  1.3106
 5657SOL    HW228608   3.286   1.967   5.965 -0.8474 -1.6068 -1.1171
 5658SOL     OW28609   1.111   3.013  14.316 -0.1372  0.3613  0.7290
 5658SOL    HW128610   1.021   3.012  14.349 -0.7437 -2.4236 -0.9956
 5658SOL    HW228611   1.151   3.084  14.366 -1.2647  1.8926 -0.5726
 5659SOL     OW28612   3.659   2.741  11.636 -0.6265  0.1790  0.6056
 5659SOL    HW128613   3.730   2.805  11.641 -0.9135  0.5243  0.2344
 5659SOL    HW228614   3.683   2.692  11.715  2.2351 -1.4697 -1.2569
 5660SOL     OW28615   4.298   1.779   5.942 -0.0777 -0.0604 -0.3702
 5660SOL    HW128616   4.328   1.719   5.873  1.0784  0.2569 -0.1398
 5660SOL    HW228617   4.298   1.864   5.899  0.8359 -0.3750 -0.9866
 5661SOL     OW28618   1.398   0.405  14.842  0.8388  0.6054 -0.3672
 5661SOL    HW128619   1.313   0.445  14.827 -0.1536 -1.6416 -0.6734
 5661SOL    HW228620   1.440   0.475  14.892  0.7804 -0.0897  0.6465
 5662SOL     OW28621   2.086   4.611   8.907 -0.0956  0.9134 -0.3745
 5662SOL    HW128622   2.093   4.694   8.955  0.8931  0.4133  0.3521
 5662SOL    HW228623   2.006   4.626   8.857 -2.5987  0.8221  3.5741
 5663SOL     OW28624   0.387   0.734   5.692 -0.3971  0.2877 -0.1372
 5663SOL    HW128625   0.414   0.695   5.609 -4.0827 -3.3417  0.3688
 5663SOL    HW228626   0.408   0.825   5.673  1.2162 -0.2917 -1.0892
 5664SOL     OW28627   2.707   1.133   1.941  0.0389 -0.4260 -0.2220
 5664SOL    HW128628   2.661   1.214   1.921 -0.4032 -0.5764  0.1905
 5664SOL    HW228629   2.635   1.074   1.920  0.2455 -1.0040  0.6562
 5665SOL     OW28630   4.261   1.930   5.209  0.3666  0.1082  0.5049
 5665SOL    HW128631   4.244   1.839   5.183  1.0974  0.1017  0.0689
 5665SOL    HW228632   4.242   1.982   5.131  2.0682 -1.9301 -1.2625
 5666SOL     OW28633   2.112   0.318  16.794 -0.1235  1.3964  0.1090
 5666SOL    HW128634   2.097   0.365  16.712  1.9296 -1.5778 -1.9530
 5666SOL    HW228635   2.204   0.303  16.776 -0.4615 -2.0878  1.2796
 5667SOL     OW28636   0.018   4.540   6.313  0.0486  0.1074  0.6043
 5667SOL    HW128637   0.081   4.486   6.361  0.7442  0.9998  0.7149
 5667SOL    HW228638   0.079   4.593   6.261 -0.3766  0.9607  0.9790
 5668SOL     OW28639   4.328   0.308   8.959 -0.0023  0.1497 -0.4787
 5668SOL    HW128640   4.383   0.335   9.033  2.2409  0.6463 -2.3396
 5668SOL    HW228641   4.293   0.222   8.979  1.9981 -0.3805  0.8111
 5669SOL     OW28642   1.346   2.311  15.438  0.3339  0.0020 -0.1602
 5669SOL    HW128643   1.434   2.286  15.410  0.8412  0.0471  1.4428
 5669SOL    HW228644   1.310   2.223  15.427 -4.3217  1.7453  1.3593
 5670SOL     OW28645   3.769   2.601  11.835  0.2030 -0.5555  0.3901
 5670SOL    HW128646   3.724   2.571  11.914  0.3294 -2.9772 -0.4584
 5670SOL    HW228647   3.822   2.527  11.807  0.9564 -0.1084  0.6338
 5671SOL     OW28648   1.682   2.930   3.301 -0.4021  0.3006  0.5672
 5671SOL    HW128649   1.673   2.857   3.363  0.6304 -1.3302 -1.1792
 5671SOL    HW228650   1.619   2.907   3.232 -0.6951  1.1662  0.5527
 5672SOL     OW28651   2.427   3.792   8.109  0.2184 -0.0065 -0.1099
 5672SOL    HW128652   2.381   3.868   8.144 -0.2171  0.6639 -2.1180
 5672SOL    HW228653   2.512   3.810   8.148  0.3057 -2.8188  0.9419
 5673SOL     OW28654   0.730   1.182   1.129  0.6829 -0.3225  0.3528
 5673SOL    HW128655   0.733   1.243   1.056  1.0423 -0.2171  0.4551
 5673SOL    HW228656   0.638   1.163   1.146  0.9028 -1.6990 -0.0045
 5674SOL     OW28657   3.239   2.404   0.696  0.2245 -0.5971 -0.1308
 5674SOL    HW128658   3.144   2.414   0.691  0.2607  0.1649  0.6325
 5674SOL    HW228659   3.258   2.347   0.622 -2.3277 -1.8540  0.1934
 5675SOL     OW28660   3.603   3.102   5.333  0.0285 -0.2858 -0.4246
 5675SOL    HW128661   3.600   3.173   5.269  0.7636  0.6274  0.5563
 5675SOL    HW228662   3.695   3.076   5.339  0.0918  0.2705  1.0514
 5676SOL     OW28663   2.985   1.752   9.810 -0.0832 -0.4863  0.1113
 5676SOL    HW128664   2.974   1.658   9.824 -0.5998 -0.4141  0.1687
 5676SOL    HW228665   2.894   1.775   9.795  0.5787  1.3073 -1.1351
 5677SOL     OW28666   1.797   1.152   8.756  0.7941  0.5802 -0.4417
 5677SOL    HW128667   1.883   1.127   8.724  0.4720 -1.8673  0.5673
 5677SOL    HW228668   1.744   1.078   8.726  0.5828  0.6715 -0.2960
 5678SOL     OW28669   0.110   2.704   6.688 -0.1064 -0.1976  0.1551
 5678SOL    HW128670   0.095   2.646   6.614 -1.3642  2.0294 -1.3162
 5678SOL    HW228671   0.021   2.707   6.725 -0.3347  2.4597 -0.6348
 5679SOL     OW28672   2.702   2.965  13.482 -0.5890  0.0994  0.0597
 5679SOL    HW128673   2.623   2.997  13.526 -0.4395 -0.7825  0.9648
 5679SOL    HW228674   2.770   3.025  13.513  0.7861 -1.3401 -0.1457
 5680SOL     OW28675   0.504   2.634   5.580 -0.3888  0.0927 -0.3138
 5680SOL    HW128676   0.419   2.593   5.566  0.9782 -3.4031  1.6385
 5680SOL    HW228677   0.522   2.642   5.674  0.2981  0.3483 -0.4708
 5681SOL     OW28678   2.958   3.349   5.724 -0.2835  0.1510  0.4213
 5681SOL    HW128679   3.018   3.418   5.753  0.2905 -0.4894  0.7505
 5681SOL    HW228680   2.928   3.299   5.800 -1.3034  2.1050  1.2960
 5682SOL     OW28681   1.100   1.346  17.675  0.4309 -0.6178  0.0595
 5682SOL    HW128682   1.170   1.409  17.690  0.4305 -0.5571 -0.1892
 5682SOL    HW228683   1.056   1.400  17.609  0.1950 -0.8206  0.0499
 5683SOL     OW28684   2.355   3.849   5.247  0.0989  0.1040 -0.8222
 5683SOL    HW128685   2.279   3.907   5.239  2.4779  3.4330  0.7004
 5683SOL    HW228686   2.419   3.907   5.207  1.9253 -0.4928  1.2461
 5684SOL     OW28687   2.794   1.281   3.948  0.3712  0.2105  0.6952
 5684SOL    HW128688   2.764   1.199   3.910  1.3166 -0.5677  1.6059
 5684SOL    HW228689   2.888   1.264   3.959  0.4694 -0.9882 -2.2021
 5685SOL     OW28690   2.549   0.284   2.373 -0.0267  0.8375  0.0435
 5685SOL    HW128691   2.484   0.350   2.348 -0.9971 -0.4763 -0.8650
 5685SOL    HW228692   2.557   0.314   2.463 -0.6478 -0.8362  0.6584
 5686SOL     OW28693   4.505   0.069   9.541  0.4356 -0.2337 -0.0694
 5686SOL    HW128694   4.491   0.129   9.467  1.8488 -2.2988 -1.9894
 5686SOL    HW228695   4.513   0.133   9.613  0.6885 -1.2380  0.7918
 5687SOL     OW28696   1.198   3.119   8.338 -0.1517  0.2641 -0.2322
 5687SOL    HW128697   1.216   3.032   8.376  3.0514  0.0130 -2.3707
 5687SOL    HW228698   1.105   3.123   8.362  0.4595  3.1909  1.5157
 5688SOL     OW28699   0.999   4.407  16.203  0.5131  0.0354 -0.0016
 5688SOL    HW128700   1.024   4.408  16.295  0.2163  0.6830  0.0709
 5688SOL    HW228701   1.000   4.497  16.172  0.4522 -0.1515 -0.5528
 5689SOL     OW28702   3.702   0.218  13.909 -0.5803  0.5342  0.9421
 5689SOL    HW128703   3.688   0.240  14.001 -2.3029 -0.6313  0.9700
 5689SOL    HW228704   3.797   0.229  13.910 -0.5299  0.2138  0.0921
 5690SOL     OW28705   0.978   4.720   7.326  0.1759  0.6395  0.3338
 5690SOL    HW128706   1.058   0.021   7.356 -0.2852  0.8838  1.2308
 5690SOL    HW228707   0.912   0.019   7.384 -0.6039  0.6071 -0.5300
 5691SOL     OW28708   2.177   3.058  16.116  0.8182 -0.2860  0.7362
 5691SOL    HW128709   2.183   2.970  16.078 -0.2145 -0.6489  1.4407
 5691SOL    HW228710   2.131   3.095  16.041 -0.0462 -1.4051  0.7206
 5692SOL     OW28711   3.936   1.210   8.241 -0.0202 -0.1342 -0.1898
 5692SOL    HW128712   3.970   1.128   8.206 -2.8052 -0.4656 -2.1664
 5692SOL    HW228713   3.975   1.277   8.186  2.0104 -1.2428 -0.0979
 5693SOL     OW28714   4.701   2.117   0.103 -0.3091  0.2466  0.0222
 5693SOL    HW128715   4.615   2.091   0.069 -1.5751 -0.3733  3.7420
 5693SOL    HW228716   4.689   2.210   0.124 -1.6964 -0.1407  0.9375
 5694SOL     OW28717   0.679   2.401   2.511  0.8337  0.0145  0.5965
 5694SOL    HW128718   0.721   2.369   2.431  1.4661  0.3191  0.8110
 5694SOL    HW228719   0.588   2.378   2.495  0.9245 -0.7589  1.1760
 5695SOL     OW28720   1.976   3.841  10.124 -0.3695  0.1573 -0.0558
 5695SOL    HW128721   1.992   3.751  10.154  0.0859  0.5331  0.8296
 5695SOL    HW228722   1.888   3.853  10.160 -0.8549  0.6857 -1.4106
 5696SOL     OW28723   1.822   3.798   0.175 -0.2544  0.1177 -0.6137
 5696SOL    HW128724   1.858   3.877   0.214  1.8262 -1.4952  0.7544
 5696SOL    HW228725   1.728   3.814   0.163  0.2923  3.2395 -0.5975
 5697SOL     OW28726   3.822   4.116   7.657 -0.2561 -0.1335  0.0588
 5697SOL    HW128727   3.760   4.128   7.729 -0.2597  2.1304 -0.3329
 5697SOL    HW228728   3.815   4.198   7.609 -0.9031 -1.7567 -2.5929
 5698SOL     OW28729   2.209   1.070   4.481  0.1811  0.5313 -0.0393
 5698SOL    HW128730   2.249   1.021   4.553  0.6862  2.0900  0.7379
 5698SOL    HW228731   2.263   1.045   4.406 -0.8171 -0.4266 -0.4407
 5699SOL     OW28732   3.881   2.264   7.314 -0.4078 -0.3283 -0.0995
 5699SOL    HW128733   3.901   2.333   7.251 -0.0969 -0.5132 -0.2090
 5699SOL    HW228734   3.886   2.310   7.398  0.8821  1.9899 -1.4358
 5700SOL     OW28735   2.998   0.594  17.310 -0.2624 -0.0717  0.0329
 5700SOL    HW128736   2.961   0.512  17.275 -1.2406  0.2419  0.3182
 5700SOL    HW228737   3.004   0.649  17.232 -0.7686 -1.4050 -0.9539
 5701SOL     OW28738   2.742   0.457  15.385  0.2103 -0.1073 -0.1918
 5701SOL    HW128739   2.812   0.513  15.419  0.1280 -1.9283  2.9649
 5701SOL    HW228740   2.775   0.447  15.296 -0.0322 -2.4315 -0.0162
 5702SOL     OW28741   2.056   3.975   5.767 -0.1844 -0.0714 -0.0039
 5702SOL    HW128742   1.977   3.941   5.810  0.4373 -0.3304  0.9186
 5702SOL    HW228743   2.025   4.065   5.779 -0.8340 -0.1706 -0.8653
 5703SOL     OW28744   3.594   4.328  11.304  0.1719 -0.2784  0.1751
 5703SOL    HW128745   3.562   4.242  11.276 -0.1989  0.4740 -1.7290
 5703SOL    HW228746   3.509   4.361  11.333 -1.0275  0.4786 -4.1995
 5704SOL     OW28747   2.056   3.044   5.111 -0.1575 -0.0789 -0.1032
 5704SOL    HW128748   2.118   2.982   5.073 -1.2639 -1.9647  1.1968
 5704SOL    HW228749   1.975   2.993   5.108  0.1592 -0.5653 -0.2633
 5705SOL     OW28750   3.359   1.643   8.675  0.1198  0.5062 -0.3529
 5705SOL    HW128751   3.348   1.553   8.644  0.3170 -0.0734  1.2780
 5705SOL    HW228752   3.437   1.668   8.626 -0.8015  0.3003 -1.9162
 5706SOL     OW28753   1.507   0.588  15.002  0.3085  0.3338 -0.1865
 5706SOL    HW128754   1.568   0.652  14.964  3.2463 -2.2844  0.1676
 5706SOL    HW228755   1.564   0.520  15.037 -0.0599  1.0874  1.8754
 5707SOL     OW28756   2.510   2.968   2.652 -0.0337 -0.2559 -0.5133
 5707SOL    HW128757   2.461   2.943   2.574 -0.0017 -3.2779  0.4505
 5707SOL    HW228758   2.535   3.058   2.628 -2.1139  0.1906 -1.0074
 5708SOL     OW28759   3.975   2.088  16.837  0.1998 -0.2209  0.0810
 5708SOL    HW128760   3.939   2.018  16.891  0.5418 -0.0056  0.5870
 5708SOL    HW228761   3.896   2.140  16.847  0.5577  0.2841  0.2643
 5709SOL     OW28762   3.035   2.397   2.112 -0.5728  0.3147 -0.0689
 5709SOL    HW128763   3.112   2.441   2.149 -1.4642  1.3481  0.5456
 5709SOL    HW228764   3.010   2.334   2.179  0.7826 -0.7097 -0.5126
 5710SOL     OW28765   2.757   0.771   1.784 -0.8489  0.1246  0.0204
 5710SOL    HW128766   2.757   0.695   1.725 -0.4021 -1.0744  1.5414
 5710SOL    HW228767   2.790   0.725   1.862 -1.3309 -0.0401  0.1272
 5711SOL     OW28768   1.979   1.481   2.509  0.1894  0.0015 -0.0896
 5711SOL    HW128769   1.981   1.571   2.543 -0.6933 -0.2383  0.5934
 5711SOL    HW228770   1.902   1.439   2.547 -0.7264 -0.5234 -2.5377
 5712SOL     OW28771   4.072   1.926  11.702  0.2901 -0.8338 -0.0193
 5712SOL    HW128772   4.138   1.856  11.699 -0.0785 -1.0837 -2.3561
 5712SOL    HW228773   4.127   2.004  11.695 -1.0696  0.0794 -0.4963
 5713SOL     OW28774   1.691   1.767  11.324  0.5819  0.2694 -0.1294
 5713SOL    HW128775   1.725   1.694  11.273 -1.2273 -0.5109 -0.2268
 5713SOL    HW228776   1.777   1.799  11.352  0.4570  1.0454 -0.6218
 5714SOL     OW28777   0.825   3.395  16.363  0.3152 -0.5074 -0.1754
 5714SOL    HW128778   0.917   3.412  16.343  0.0160  0.5064 -0.7266
 5714SOL    HW228779   0.837   3.309  16.403  3.2863 -0.5798 -1.2247
 5715SOL     OW28780   2.543   2.138   2.409  0.0168 -0.1042  0.0346
 5715SOL    HW128781   2.563   2.216   2.357  1.0080 -0.7148 -0.4936
 5715SOL    HW228782   2.477   2.180   2.464 -0.2729 -0.0405 -0.3601
 5716SOL     OW28783   4.663   2.771   7.515  0.3923  0.3734  0.6443
 5716SOL    HW128784   4.589   2.792   7.571  1.5494  1.3045  1.8212
 5716SOL    HW228785   4.628   2.795   7.429 -1.4008  1.0308  1.5557
 5717SOL     OW28786   2.920   2.076   3.892  0.2496  0.1813  0.0442
 5717SOL    HW128787   2.925   2.114   3.804  2.2062  1.1545  0.5731
 5717SOL    HW228788   2.835   2.096   3.931 -0.0170 -1.8664  0.4957
 5718SOL     OW28789   3.032   1.238   2.455 -0.4934  0.3368 -0.2794
 5718SOL    HW128790   3.060   1.208   2.369  3.1679  0.2049  0.9673
 5718SOL    HW228791   3.113   1.272   2.492  0.0890  0.8600 -2.0705
 5719SOL     OW28792   4.112   0.901  15.434 -0.2204  0.6139 -0.3998
 5719SOL    HW128793   4.108   0.846  15.356  0.5744 -1.0955  0.7585
 5719SOL    HW228794   4.152   0.845  15.500 -0.6214  0.6025 -0.1652
 5720SOL     OW28795   3.843   2.851   2.088  0.4144 -0.0599 -0.1072
 5720SOL    HW128796   3.891   2.933   2.105 -3.5485  1.7901  2.2257
 5720SOL    HW228797   3.757   2.879   2.059 -1.0588 -4.1990  0.2439
 5721SOL     OW28798   4.702   2.647  10.663 -0.0638 -0.0508 -0.0243
 5721SOL    HW128799   0.027   2.664  10.731  0.1899  3.3112 -1.0682
 5721SOL    HW228800   4.738   2.707  10.597  1.1411  0.1132  0.7715
 5722SOL     OW28801   0.836   2.310   2.293 -0.3331  0.1358  0.0904
 5722SOL    HW128802   0.775   2.273   2.230 -2.5126  0.8931  1.7297
 5722SOL    HW228803   0.876   2.232   2.330 -0.8073  0.1490  0.6441
 5723SOL     OW28804   4.501   4.319   0.440 -0.1855  0.5329  0.2288
 5723SOL    HW128805   4.419   4.298   0.394 -0.9335  2.5116  0.6470
 5723SOL    HW228806   4.462   4.380   0.503  2.4591  0.9936  1.4123
 5724SOL     OW28807   0.680   0.168   2.736 -0.2220  0.5629  0.5306
 5724SOL    HW128808   0.694   0.167   2.831  0.6397  0.7773  0.4026
 5724SOL    HW228809   0.741   0.238   2.713 -0.0239 -0.0941 -0.9120
 5725SOL     OW28810   4.444   0.908   8.270 -0.3490  0.1826  0.2021
 5725SOL    HW128811   4.527   0.895   8.315  0.4112 -0.8301 -1.5003
 5725SOL    HW228812   4.448   1.001   8.250 -1.2772  0.5109  1.5569
 5726SOL     OW28813   0.636   4.086  12.564  0.0527 -0.3477 -0.4333
 5726SOL    HW128814   0.665   3.998  12.585  0.2371  0.3642  2.3643
 5726SOL    HW228815   0.543   4.091  12.589 -0.0019 -0.0926 -0.6884
 5727SOL     OW28816   4.529   1.214  14.502 -0.2783 -0.1676  0.8043
 5727SOL    HW128817   4.602   1.246  14.555 -0.9533  0.4760  1.3332
 5727SOL    HW228818   4.454   1.208  14.561 -1.6926 -1.6865 -1.1669
 5728SOL     OW28819   3.958   4.018   5.793  0.3937 -0.4484  0.0627
 5728SOL    HW128820   3.908   4.097   5.811 -3.0138 -2.2167 -1.7873
 5728SOL    HW228821   3.925   3.985   5.710  2.3745 -2.6875  0.1681
 5729SOL     OW28822   1.953   4.076   8.223  0.3498 -0.5228  0.1969
 5729SOL    HW128823   1.924   4.157   8.266  1.2925  0.9542 -1.9389
 5729SOL    HW228824   1.990   4.111   8.142  0.6545 -1.2593  0.0206
 5730SOL     OW28825   2.932   4.206  16.542  0.0773  0.1225  0.0442
 5730SOL    HW128826   2.950   4.225  16.634  1.1110  0.2657 -0.1815
 5730SOL    HW228827   2.919   4.290  16.497  0.7981 -0.7203 -1.7559
 5731SOL     OW28828   0.832   3.014   3.938  0.2538 -0.7284  0.0393
 5731SOL    HW128829   0.779   3.093   3.943  0.8462 -0.3733  0.7126
 5731SOL    HW228830   0.781   2.935   3.958 -0.2822  0.2563  2.5904
 5732SOL     OW28831   0.304   0.738  12.126  0.5603 -0.1002 -0.1047
 5732SOL    HW128832   0.276   0.830  12.135 -4.7149 -1.7309  0.2529
 5732SOL    HW228833   0.301   0.716  12.219 -3.0430 -0.0790 -0.2147
 5733SOL     OW28834   1.442   1.662   6.794  0.6814 -0.2283 -0.1556
 5733SOL    HW128835   1.518   1.648   6.850  0.9788  2.7634  0.2096
 5733SOL    HW228836   1.454   1.598   6.725 -0.0790  0.0098 -0.5136
 5734SOL     OW28837   2.589   2.152   6.386  0.5344  0.0586  0.2756
 5734SOL    HW128838   2.624   2.077   6.337 -1.6518 -0.2585 -0.8359
 5734SOL    HW228839   2.547   2.195   6.311  1.0216  0.1649  0.0647
 5735SOL     OW28840   1.404   3.448   1.965 -0.0797  0.3908  0.1441
 5735SOL    HW128841   1.450   3.530   1.985 -0.8137  1.2230 -1.5322
 5735SOL    HW228842   1.469   3.381   1.983 -0.2925 -0.1106 -0.9592
 5736SOL     OW28843   3.660   1.082   3.892 -0.5072 -0.2904  0.1988
 5736SOL    HW128844   3.693   1.056   3.978 -0.1994  5.0346  1.6935
 5736SOL    HW228845   3.608   1.008   3.859 -1.7743  0.4607  0.5361
 5737SOL     OW28846   3.709   0.579   0.976  0.1921 -0.0483 -0.5274
 5737SOL    HW128847   3.690   0.605   1.066  2.5326  2.5491 -0.7890
 5737SOL    HW228848   3.732   0.661   0.932 -2.0084  0.1267 -1.3187
 5738SOL     OW28849   3.555   4.475  12.913  0.1902 -0.4524 -0.7138
 5738SOL    HW128850   3.607   4.554  12.926  0.1359  0.1074 -3.9017
 5738SOL    HW228851   3.484   4.515  12.862 -0.1924  1.7445  1.5789
 5739SOL     OW28852   2.816   0.768  13.382 -0.3928 -0.5844 -0.3404
 5739SOL    HW128853   2.749   0.724  13.330 -2.0003  0.5753  0.7480
 5739SOL    HW228854   2.889   0.706  13.377  0.5536  0.5222 -0.2605
 5740SOL     OW28855   3.354   0.789   6.651 -0.7167  0.5439 -0.3320
 5740SOL    HW128856   3.429   0.848   6.659 -1.4664  1.6144 -1.1488
 5740SOL    HW228857   3.375   0.744   6.569 -0.0279 -0.3547  0.3479
 5741SOL     OW28858   3.042   0.410  14.085 -1.0848  0.8013  0.0166
 5741SOL    HW128859   3.018   0.334  14.137  0.4090 -0.2634 -0.8547
 5741SOL    HW228860   3.065   0.374  13.999  1.2365  2.9462 -0.2611
 5742SOL     OW28861   1.899   4.451   9.679  0.4865  0.0604  0.0636
 5742SOL    HW128862   1.856   4.397   9.746  0.1488  1.2757  0.8263
 5742SOL    HW228863   1.964   4.388   9.646 -0.1456  0.6821 -2.3382
 5743SOL     OW28864   4.242   0.955   1.905 -0.4037 -0.5260  0.2261
 5743SOL    HW128865   4.150   0.938   1.886 -0.2930 -0.1822 -0.6446
 5743SOL    HW228866   4.269   0.878   1.955 -0.2341 -0.6974 -0.1286
 5744SOL     OW28867   2.266   4.561  17.143  0.5806 -0.1080  0.5760
 5744SOL    HW128868   2.245   4.603  17.060 -1.3359  1.3722  1.7893
 5744SOL    HW228869   2.269   4.468  17.122 -2.5260 -0.3101  1.0996
 5745SOL     OW28870   0.004   1.435   4.856  0.2364  0.2312 -0.2655
 5745SOL    HW128871   4.673   1.421   4.918  0.7209  0.1592  0.2769
 5745SOL    HW228872   4.740   1.530   4.844  1.1922  0.5100  1.6027
 5746SOL     OW28873   1.920   4.053   2.195  0.2572  0.5506  0.5157
 5746SOL    HW128874   1.880   4.139   2.208 -2.6523 -0.7794  0.3057
 5746SOL    HW228875   1.854   4.005   2.145 -0.8497  0.6180  1.9139
 5747SOL     OW28876   1.079   4.384   3.002  0.1269 -0.1385 -0.8893
 5747SOL    HW128877   1.150   4.443   3.030 -1.5322  0.7672  1.4360
 5747SOL    HW228878   1.128   4.309   2.967 -1.2209 -2.1362  1.4438
 5748SOL     OW28879   2.013   3.837  16.894 -0.3757 -0.3804 -0.0482
 5748SOL    HW128880   2.022   3.880  16.809 -2.3026  0.3551  0.1324
 5748SOL    HW228881   2.066   3.889  16.954  0.3573  0.8547 -1.7850
 5749SOL     OW28882   1.543   0.123   5.053 -0.4518  0.5446 -0.4467
 5749SOL    HW128883   1.523   0.130   5.146  0.3363  0.4884 -0.2716
 5749SOL    HW228884   1.542   0.028   5.041 -0.9029  0.2421  1.9862
 5750SOL     OW28885   1.900   1.051   3.508 -0.2220 -0.0506 -0.0955
 5750SOL    HW128886   1.931   0.971   3.467  1.0403  0.9045 -1.0187
 5750SOL    HW228887   1.863   1.017   3.590  3.0219  0.9882  1.8367
 5751SOL     OW28888   0.303   0.132  11.984 -0.3049 -0.4647  0.3638
 5751SOL    HW128889   0.309   0.225  11.961 -0.8501 -0.6027 -0.3518
 5751SOL    HW228890   0.265   0.093  11.905 -0.9642  2.2289 -0.6735
 5752SOL     OW28891   4.597   3.419   5.697  0.1262 -0.3336  0.3745
 5752SOL    HW128892   4.681   3.428   5.743  1.1800 -1.2980 -1.3507
 5752SOL    HW228893   4.548   3.368   5.761 -3.8924 -0.4321 -2.7825
 5753SOL     OW28894   3.544   3.835   5.840  0.2606  0.1790 -0.7764
 5753SOL    HW128895   3.612   3.890   5.801 -0.3615 -0.8511 -3.2777
 5753SOL    HW228896   3.470   3.833   5.780  0.6456  0.5584 -1.2651
 5754SOL     OW28897   0.613   3.780   8.429  0.0446  0.2653 -0.0885
 5754SOL    HW128898   0.662   3.780   8.511 -1.1991  0.2800  0.6612
 5754SOL    HW228899   0.580   3.694   8.403 -0.3572 -0.0001  1.3492
 5755SOL     OW28900   0.358   4.395   5.943  0.0227  0.2577  0.9235
 5755SOL    HW128901   0.366   4.472   5.886  0.7378  0.0752  0.7775
 5755SOL    HW228902   0.433   4.348   5.907 -1.3974  0.5201 -2.3766
 5756SOL     OW28903   4.662   3.076   2.824  0.8692  0.0808  0.7299
 5756SOL    HW128904   4.711   3.158   2.822  0.5270  0.2029 -2.7347
 5756SOL    HW228905   4.586   3.098   2.878 -1.8921 -2.0255 -2.3704
 5757SOL     OW28906   3.119   4.333   9.193 -0.0983  0.8742  0.0621
 5757SOL    HW128907   3.156   4.392   9.128  0.5547  2.0620  1.5123
 5757SOL    HW228908   3.160   4.367   9.272  0.0015  1.2237 -0.1403
 5758SOL     OW28909   1.451   1.396   6.007  0.1550 -0.7368  0.0157
 5758SOL    HW128910   1.420   1.356   6.089  0.2180 -1.3326 -0.2483
 5758SOL    HW228911   1.543   1.389   6.032  0.0281  0.4984  0.8508
 5759SOL     OW28912   3.195   2.884   3.413 -0.0262 -0.1126 -0.1717
 5759SOL    HW128913   3.177   2.920   3.326  0.0973 -0.6439 -0.4169
 5759SOL    HW228914   3.255   2.813   3.391  1.7036  0.7529  1.7422
 5760SOL     OW28915   1.135   4.676  11.473 -0.2928  0.0507  0.0428
 5760SOL    HW128916   1.184   4.727  11.408  0.7452 -0.4481  0.4319
 5760SOL    HW228917   1.207   4.629  11.514  0.7511  1.3222 -0.3337
 5761SOL     OW28918   1.247   0.952  13.117 -0.1039 -0.0573 -0.1039
 5761SOL    HW128919   1.174   0.901  13.080 -1.0275  0.9755  0.2874
 5761SOL    HW228920   1.256   1.005  13.038 -1.1801  2.3975  1.4170
 5762SOL     OW28921   2.447   2.472  13.523  0.4855  0.2466  0.4218
 5762SOL    HW128922   2.428   2.469  13.616 -2.6611  2.2285 -0.1408
 5762SOL    HW228923   2.368   2.430  13.488 -1.4872  2.0178  2.7484
 5763SOL     OW28924   0.026   2.041   7.298 -0.3089 -0.3942  0.6585
 5763SOL    HW128925   0.060   2.090   7.373  0.1503 -0.2059  0.3273
 5763SOL    HW228926   4.679   2.078   7.303 -0.9819 -1.6333 -2.0595
 5764SOL     OW28927   1.570   4.179   3.407 -0.2041  0.3026 -0.3853
 5764SOL    HW128928   1.590   4.231   3.485  1.2908  0.0563 -0.5936
 5764SOL    HW228929   1.655   4.200   3.368  1.1554 -0.7559  2.0515
 5765SOL     OW28930   4.131   2.534   1.125  0.2847  0.4888  0.4088
 5765SOL    HW128931   4.224   2.511   1.131  0.8923  2.5813 -1.1581
 5765SOL    HW228932   4.102   2.458   1.074 -1.3240  0.8310  0.8058
 5766SOL     OW28933   4.032   3.098   8.871 -0.2033 -1.0969 -0.8906
 5766SOL    HW128934   4.027   3.174   8.929  1.0791 -1.3333 -0.4716
 5766SOL    HW228935   4.114   3.057   8.900  0.7741  0.3920 -1.5743
 5767SOL     OW28936   2.433   3.256  15.298  0.0544  0.3303 -0.4514
 5767SOL    HW128937   2.428   3.168  15.335  1.4616  0.2135 -0.5428
 5767SOL    HW228938   2.470   3.247  15.211  0.3116  0.6126 -0.3697
 5768SOL     OW28939   2.278   1.039   2.172 -0.0644  0.2954 -0.1899
 5768SOL    HW128940   2.184   1.054   2.165  0.0215  1.1656  0.5207
 5768SOL    HW228941   2.303   1.118   2.219 -1.0652  0.2999  0.3329
 5769SOL     OW28942   2.862   2.284   9.065 -0.4817 -0.6339  0.4482
 5769SOL    HW128943   2.775   2.258   9.033  0.2975 -2.9372  0.2290
 5769SOL    HW228944   2.834   2.326   9.147  0.6919  1.8700 -0.4261
 5770SOL     OW28945   3.636   4.594  10.929  0.3575  0.2160  0.2704
 5770SOL    HW128946   3.562   4.631  10.879 -0.6696 -2.0176  0.1459
 5770SOL    HW228947   3.684   4.563  10.852  1.2357 -0.3551  1.0535
 5771SOL     OW28948   3.136   4.540   4.447  0.0031  0.4060  0.2347
 5771SOL    HW128949   3.146   4.634   4.462 -1.2814  0.4072  1.0542
 5771SOL    HW228950   3.218   4.503   4.479 -0.7375 -1.3654  0.0787
 5772SOL     OW28951   1.505   1.835   7.663 -0.1699 -0.3026 -0.4640
 5772SOL    HW128952   1.428   1.838   7.606  1.1048  0.9367 -2.1183
 5772SOL    HW228953   1.471   1.807   7.749 -1.5697 -1.0559 -1.2586
 5773SOL     OW28954   3.362   1.802   2.922  0.5303  0.3435 -0.3071
 5773SOL    HW128955   3.426   1.870   2.942 -0.2221  0.6694  0.9531
 5773SOL    HW228956   3.411   1.756   2.853  0.2364 -1.0119  0.3757
 5774SOL     OW28957   2.436   1.028   5.983 -0.0349 -0.4097 -0.2937
 5774SOL    HW128958   2.429   0.974   6.062  0.5007 -0.3053 -0.1772
 5774SOL    HW228959   2.416   0.961   5.918 -1.8166  0.5714 -0.7535
 5775SOL     OW28960   1.326   1.344   2.629  0.1341 -0.2750  0.5935
 5775SOL    HW128961   1.278   1.309   2.553  0.8496 -0.8383  0.3983
 5775SOL    HW228962   1.270   1.420   2.643  1.0593  0.7392 -1.0802
 5776SOL     OW28963   0.861   1.883   2.971 -0.4769 -0.0881 -0.2271
 5776SOL    HW128964   0.854   1.971   3.007  0.5255 -1.7432  4.0762
 5776SOL    HW228965   0.848   1.909   2.880 -0.9276  2.1577  0.4979
 5777SOL     OW28966   3.393   2.032  15.372 -0.8625  0.2110 -0.0482
 5777SOL    HW128967   3.408   1.941  15.347 -0.2989  0.5710 -1.0341
 5777SOL    HW228968   3.361   2.069  15.289 -1.6809  1.1825  0.7035
 5778SOL     OW28969   2.549   3.718   7.026  0.2942 -0.0552  0.0970
 5778SOL    HW128970   2.607   3.680   7.092 -0.2859  0.2049  0.7681
 5778SOL    HW228971   2.602   3.694   6.951  1.4860  0.4976  0.7672
 5779SOL     OW28972   1.867   0.929   6.536 -1.0616 -0.0001  0.1039
 5779SOL    HW128973   1.860   0.850   6.590 -2.3069  0.4762  0.6420
 5779SOL    HW228974   1.774   0.947   6.526 -0.9483  0.1992 -0.6115
 5780SOL     OW28975   0.173   2.246   8.376 -0.1230 -0.4595 -0.2089
 5780SOL    HW128976   0.182   2.288   8.462 -1.6427 -0.9243  0.1849
 5780SOL    HW228977   0.108   2.304   8.337 -0.4360 -0.9660 -0.4341
 5781SOL     OW28978   1.046   0.910   7.417  0.5605 -0.5435 -0.2101
 5781SOL    HW128979   1.099   0.833   7.398 -2.3176 -2.7946  0.8615
 5781SOL    HW228980   0.975   0.909   7.354  0.1483 -2.5712  0.2645
 5782SOL     OW28981   0.536   0.435  11.928  0.0471  0.0248  0.1346
 5782SOL    HW128982   0.509   0.439  12.019 -1.7882 -0.9737 -0.3467
 5782SOL    HW228983   0.499   0.520  11.903  0.0721  0.0919  0.3275
 5783SOL     OW28984   2.184   3.202   8.935  0.4205  0.3196 -0.9038
 5783SOL    HW128985   2.277   3.224   8.944  0.8123 -1.9889  0.7744
 5783SOL    HW228986   2.160   3.212   8.843 -0.9397 -0.3950 -0.6299
 5784SOL     OW28987   3.385   3.195  12.540 -0.3788  0.6135  0.0393
 5784SOL    HW128988   3.375   3.288  12.518  0.6364  0.8582  0.6014
 5784SOL    HW228989   3.413   3.152  12.459 -0.4445  4.0414 -1.8041
 5785SOL     OW28990   4.692   3.946   6.657  0.1503  0.1254  0.2709
 5785SOL    HW128991   4.620   3.974   6.715  1.4658 -1.5747  2.7194
 5785SOL    HW228992   4.643   3.895   6.593  1.7109 -0.2176 -0.6285
 5786SOL     OW28993   4.252   2.793  10.585  0.6866 -0.2519  0.4215
 5786SOL    HW128994   4.295   2.869  10.545 -1.5785  1.5634  1.4380
 5786SOL    HW228995   4.192   2.839  10.644 -1.5030 -0.8972 -1.2849
 5787SOL     OW28996   2.789   3.790   0.021  0.5636 -0.2850 -0.4530
 5787SOL    HW128997   2.804   3.880   0.051 -1.0684 -1.6901  4.6155
 5787SOL    HW228998   2.705   3.768   0.061  0.3508  0.0008 -0.7498
 5788SOL     OW28999   0.730   2.530   5.994  0.1203  0.0732  0.1708
 5788SOL    HW129000   0.727   2.522   6.089 -0.6049 -0.6010  0.0952
 5788SOL    HW229001   0.814   2.485   5.982  0.1051 -0.1405  0.8439
 5789SOL     OW29002   3.912   2.559   1.403  0.1439 -1.1401 -0.2274
 5789SOL    HW129003   3.919   2.603   1.318  1.0761  1.0058  0.9614
 5789SOL    HW229004   3.841   2.608   1.444  0.6876  1.7276 -2.6727
 5790SOL     OW29005   2.403   3.053   2.108  0.2338 -0.1182  0.6003
 5790SOL    HW129006   2.330   3.041   2.169 -0.4871  0.3862 -0.1787
 5790SOL    HW229007   2.427   2.965   2.077 -0.4315 -0.9524  2.4171
 5791SOL     OW29008   1.593   0.554   6.741  0.9289 -0.3255  0.4548
 5791SOL    HW129009   1.543   0.581   6.818  0.5832  2.7264 -0.8309
 5791SOL    HW229010   1.524   0.511   6.690  2.1697  0.5698 -1.9787
 5792SOL     OW29011   3.385   0.231   5.228  0.1299  0.8329 -0.3726
 5792SOL    HW129012   3.442   0.257   5.300  1.8554 -1.3909 -0.8979
 5792SOL    HW229013   3.406   0.137   5.229 -0.0517  0.8101  0.9242
 5793SOL     OW29014   0.342   3.810   8.666  0.5012 -0.3274 -0.7334
 5793SOL    HW129015   0.338   3.765   8.582 -1.4337  0.0364 -0.8342
 5793SOL    HW229016   0.255   3.800   8.704  0.1804 -0.1542 -1.4412
 5794SOL     OW29017   1.502   1.175   2.014 -0.4917 -0.2983  0.1302
 5794SOL    HW129018   1.548   1.124   1.948 -0.8926 -1.4798  0.7636
 5794SOL    HW229019   1.537   1.137   2.096  1.5556  0.5126 -0.3601
 5795SOL     OW29020   3.092   0.486  12.679  0.3932 -0.0583  0.1165
 5795SOL    HW129021   3.026   0.437  12.630  2.3749 -2.5616 -0.0598
 5795SOL    HW229022   3.027   0.541  12.724 -1.7904 -1.1055 -1.7781
 5796SOL     OW29023   0.807   1.810   3.443 -0.4482  0.1171 -0.2574
 5796SOL    HW129024   0.821   1.777   3.355  0.9827  1.3651 -0.4914
 5796SOL    HW229025   0.714   1.831   3.448 -1.0825 -2.4796 -1.0889
 5797SOL     OW29026   1.826   0.625   3.589  0.0068 -0.2372  0.3861
 5797SOL    HW129027   1.837   0.601   3.681 -0.6185  2.3433  1.1424
 5797SOL    HW229028   1.732   0.612   3.582 -0.0794 -0.3537  1.7143
 5798SOL     OW29029   4.164   2.948   7.184  0.7095 -0.3685 -0.3704
 5798SOL    HW129030   4.205   2.928   7.100  0.4976  2.0470 -1.0656
 5798SOL    HW229031   4.184   3.042   7.190 -0.3474 -0.1139 -0.8790
 5799SOL     OW29032   0.720   3.389   6.841  0.4631  0.1514 -0.0922
 5799SOL    HW129033   0.763   3.472   6.862 -1.2604  1.1068 -0.3592
 5799SOL    HW229034   0.657   3.427   6.781 -1.1344  0.2266  1.6269
 5800SOL     OW29035   2.141   2.618   6.298 -0.1285 -0.2213 -0.8592
 5800SOL    HW129036   2.105   2.536   6.331  1.9007 -1.1390 -0.8746
 5800SOL    HW229037   2.223   2.625   6.348  0.5584 -0.6422 -1.9255
 5801SOL     OW29038   3.555   0.826   2.648  0.4378 -0.0176  0.0556
 5801SOL    HW129039   3.574   0.752   2.707 -1.0679 -0.3859  0.0839
 5801SOL    HW229040   3.606   0.798   2.572  1.0518  0.6533  0.2232
 5802SOL     OW29041   4.122   4.464  16.818  0.1952  0.2998 -0.0621
 5802SOL    HW129042   4.063   4.526  16.860  0.3755  0.1707  0.3801
 5802SOL    HW229043   4.178   4.523  16.767 -0.4821  2.1587  1.3414
 5803SOL     OW29044   4.181   3.672  15.842  0.0433  0.3712 -0.2060
 5803SOL    HW129045   4.164   3.659  15.935 -1.5227  0.0882 -0.5219
 5803SOL    HW229046   4.160   3.763  15.822  0.1849  0.7330  1.3467
 5804SOL     OW29047   4.029   2.097   1.708 -0.2390  0.6437 -0.2949
 5804SOL    HW129048   4.100   2.152   1.676  1.4930 -2.5377 -1.9436
 5804SOL    HW229049   3.984   2.151   1.773 -0.8504 -1.0423  0.6912
 5805SOL     OW29050   0.518   3.489   5.947  0.0010 -0.7188 -0.5245
 5805SOL    HW129051   0.540   3.420   6.009  0.7131 -0.8426 -0.9235
 5805SOL    HW229052   0.550   3.458   5.863  0.0903  0.3862 -0.9006
 5806SOL     OW29053   4.202   2.026   7.518 -0.0012  0.4542 -0.2521
 5806SOL    HW129054   4.197   1.937   7.554  1.2089 -0.8344 -3.2070
 5806SOL    HW229055   4.146   2.020   7.440 -1.2886 -3.3838  0.9490
 5807SOL     OW29056   3.194   2.865   2.364 -0.4904 -0.2937 -0.6415
 5807SOL    HW129057   3.269   2.920   2.340  0.0360 -0.9499 -0.5288
 5807SOL    HW229058   3.219   2.783   2.322 -1.7386 -0.4528 -1.0586
 5808SOL     OW29059   2.871   2.162   6.521 -0.5948 -0.3017 -0.3901
 5808SOL    HW129060   2.889   2.081   6.474 -0.2670 -1.4474  1.7267
 5808SOL    HW229061   2.778   2.170   6.503 -0.9669  0.7390  2.0134
 5809SOL     OW29062   4.712   2.603  14.335  0.1073 -0.4802  0.5395
 5809SOL    HW129063   0.009   2.522  14.369 -0.0958  0.4855  3.0890
 5809SOL    HW229064   0.055   2.648  14.324 -0.3853  0.2732 -0.0845
 5810SOL     OW29065   3.768   1.490   0.911 -0.2391 -0.2330  0.1236
 5810SOL    HW129066   3.776   1.396   0.926 -0.2632 -0.1442  0.6845
 5810SOL    HW229067   3.853   1.507   0.870  0.9116  0.7474  2.9123
 5811SOL     OW29068   0.653   3.193  11.230 -0.1513  0.1471 -0.5767
 5811SOL    HW129069   0.731   3.247  11.238 -1.9757  2.3331  2.5258
 5811SOL    HW229070   0.587   3.260  11.209 -0.4008 -0.6057 -2.1703
 5812SOL     OW29071   1.414   4.587  14.966 -0.7993 -0.3351  0.7058
 5812SOL    HW129072   1.330   4.574  15.010 -0.5037  0.4584  1.4902
 5812SOL    HW229073   1.411   4.683  14.967 -0.7690 -0.3336  0.6507
 5813SOL     OW29074   1.519   3.464   2.889 -0.1836 -0.1015  0.2299
 5813SOL    HW129075   1.521   3.533   2.823  3.2727 -2.2660 -1.9625
 5813SOL    HW229076   1.530   3.516   2.969 -0.8794 -2.5682  1.9365
 5814SOL     OW29077   2.252   1.916   4.866 -0.5253  0.0287  0.1593
 5814SOL    HW129078   2.240   1.995   4.814  1.4174 -0.1995 -0.6366
 5814SOL    HW229079   2.186   1.855   4.833 -0.8630 -0.0133  0.9088
 5815SOL     OW29080   2.943   3.113   3.503  0.0718 -0.2549  0.7327
 5815SOL    HW129081   2.876   3.045   3.517 -0.8447  0.4047 -0.5033
 5815SOL    HW229082   2.933   3.172   3.577 -0.5227  1.0227 -0.3768
 5816SOL     OW29083   0.007   0.825   6.207  0.2406  0.1813 -0.2349
 5816SOL    HW129084   4.663   0.831   6.162  0.2515  3.0378  0.1621
 5816SOL    HW229085   0.048   0.908   6.185  1.3441 -0.0255  1.0905
 5817SOL     OW29086   2.651   1.283   9.676 -0.0989  0.2298 -0.3134
 5817SOL    HW129087   2.573   1.239   9.642  1.3834 -2.1160 -0.6860
 5817SOL    HW229088   2.634   1.276   9.770  0.6954  3.5261  0.0737
 5818SOL     OW29089   2.227   0.547  10.285 -0.1331  0.1470 -0.2901
 5818SOL    HW129090   2.151   0.533  10.342 -0.2058  1.8520  0.0121
 5818SOL    HW229091   2.266   0.459  10.278 -1.5651 -0.5020 -0.1018
 5819SOL     OW29092   2.395   1.597   7.268  0.1225  0.0077 -0.0351
 5819SOL    HW129093   2.407   1.586   7.362  0.5595  0.3652 -0.0486
 5819SOL    HW229094   2.455   1.671   7.259 -0.4288  0.6615  1.6017
 5820SOL     OW29095   3.259   3.571   9.263 -0.3235  0.2093  0.1583
 5820SOL    HW129096   3.201   3.522   9.321 -1.1968  1.1847  0.1019
 5820SOL    HW229097   3.250   3.519   9.183 -0.0601  1.9617 -1.0222
 5821SOL     OW29098   3.354   2.417  14.573  0.5733  0.1202 -0.0197
 5821SOL    HW129099   3.362   2.333  14.529 -1.9371 -0.5046  0.7507
 5821SOL    HW229100   3.392   2.478  14.509 -0.0616  0.8717  0.3195
 5822SOL     OW29101   3.206   3.912   7.429  0.4907  0.2400  0.4799
 5822SOL    HW129102   3.165   3.874   7.352 -1.7677  1.7327  0.9571
 5822SOL    HW229103   3.166   3.867   7.504  2.0441 -0.3277  0.9696
 5823SOL     OW29104   4.399   2.803   3.747  0.7154 -0.1469 -0.3750
 5823SOL    HW129105   4.415   2.747   3.823  1.3619  1.1068  0.4103
 5823SOL    HW229106   4.436   2.750   3.676 -0.0923 -0.2276 -0.7375
 5824SOL     OW29107   4.646   2.631  15.063  0.6286  0.2846  0.2776
 5824SOL    HW129108   4.596   2.631  14.981  0.1678 -0.5279  0.5528
 5824SOL    HW229109   4.646   2.724  15.086  1.3262  0.0502  1.1913
 5825SOL     OW29110   2.917   2.615   6.528  0.2732  0.1135 -0.3977
 5825SOL    HW129111   2.920   2.534   6.478 -0.2311 -0.4741  0.5371
 5825SOL    HW229112   2.889   2.676   6.460  1.4487 -0.1469 -1.1093
 5826SOL     OW29113   2.488   1.298   3.310 -0.3825  0.1290  0.3716
 5826SOL    HW129114   2.412   1.250   3.342 -1.2363 -0.5627 -2.6775
 5826SOL    HW229115   2.535   1.332   3.386 -1.7269  0.5540  1.0126
 5827SOL     OW29116   2.569   2.080   8.339  0.4349  0.7225  0.2874
 5827SOL    HW129117   2.642   2.069   8.277 -0.1695  0.9711 -0.4724
 5827SOL    HW229118   2.538   2.167   8.312  0.2531  0.3317 -0.7565
 5828SOL     OW29119   3.720   2.541   3.130  0.7497 -0.0228 -0.3337
 5828SOL    HW129120   3.739   2.635   3.136  1.0667 -0.1029 -0.0476
 5828SOL    HW229121   3.801   2.508   3.092  2.0242  1.2284  1.2608
 5829SOL     OW29122   4.721   3.093  13.675  0.1765 -0.1360 -0.0326
 5829SOL    HW129123   0.015   3.182  13.682  0.5075 -0.3131  0.6066
 5829SOL    HW229124   4.638   3.105  13.628  0.0749 -1.8457 -0.3071
 5830SOL     OW29125   2.461   2.010   9.824  0.0331  0.0626  0.2103
 5830SOL    HW129126   2.374   1.972   9.830  0.6144 -0.8942  2.7022
 5830SOL    HW229127   2.496   2.009   9.914 -2.5050  0.8418  1.1993
 5831SOL     OW29128   0.611   0.933  17.473 -0.1307  0.5814 -0.6821
 5831SOL    HW129129   0.521   0.908  17.453  0.1191  0.3705 -1.5388
 5831SOL    HW229130   0.622   1.024  17.445  2.7785  0.8231  1.2663
 5832SOL     OW29131   0.694   0.124   4.306  0.3198  0.0231 -0.1919
 5832SOL    HW129132   0.642   0.049   4.277 -2.1194  0.5778  2.7704
 5832SOL    HW229133   0.763   0.083   4.358  1.1052  0.9903 -0.4682
 5833SOL     OW29134   0.322   3.262   1.327 -0.3535  0.4230 -0.3714
 5833SOL    HW129135   0.301   3.196   1.393  0.9192  0.0289 -0.3610
 5833SOL    HW229136   0.245   3.318   1.325  0.5911  1.7297  0.2439
 5834SOL     OW29137   1.158   0.069  17.277  0.4266  0.2259 -0.2837
 5834SOL    HW129138   1.251   0.047  17.277  0.2766 -0.4240 -2.0173
 5834SOL    HW229139   1.143   0.054  17.183 -1.2355 -1.8174  0.3170
 5835SOL     OW29140   3.719   2.585   9.160 -0.4369 -0.0829 -0.0001
 5835SOL    HW129141   3.801   2.632   9.177 -0.3066 -0.8038  1.3827
 5835SOL    HW229142   3.735   2.519   9.228  0.4298 -0.6915 -0.7933
 5836SOL     OW29143   1.956   4.255  16.495 -0.1996 -0.0390 -0.7449
 5836SOL    HW129144   1.963   4.288  16.405 -0.7065 -1.6313 -1.3791
 5836SOL    HW229145   1.880   4.302  16.531  1.9086  1.8075  1.2845
 5837SOL     OW29146   2.184   3.113   2.537  0.2258 -0.4847  0.3245
 5837SOL    HW129147   2.215   3.059   2.609 -0.1171 -3.2921 -1.6517
 5837SOL    HW229148   2.095   3.122   2.570 -0.3915 -1.2854 -1.1354
 5838SOL     OW29149   3.328   0.946   4.944 -0.0097  0.0023  0.1616
 5838SOL    HW129150   3.397   0.882   4.924  0.3799  0.2717  0.6252
 5838SOL    HW229151   3.343   1.028   4.897 -0.2505 -0.5079 -0.8105
 5839SOL     OW29152   0.552   2.617  11.583 -0.1188 -0.4821 -0.0360
 5839SOL    HW129153   0.490   2.544  11.581 -1.3542  0.5242  2.0852
 5839SOL    HW229154   0.620   2.586  11.644  0.2496 -0.5125 -0.4567
 5840SOL     OW29155   1.503   2.676   8.621 -0.1754  0.0142  0.2637
 5840SOL    HW129156   1.596   2.654   8.614 -0.3724 -1.5171  2.4437
 5840SOL    HW229157   1.514   2.771   8.622  0.4720 -0.0613 -0.1564
 5841SOL     OW29158   4.175   4.308   5.252 -0.5189 -0.1611 -0.0682
 5841SOL    HW129159   4.205   4.384   5.202 -0.2544 -1.9599 -2.5958
 5841SOL    HW229160   4.230   4.315   5.331 -0.4839  0.9404 -0.1863
 5842SOL     OW29161   1.755   1.423   7.232  0.2538  0.0132  0.1496
 5842SOL    HW129162   1.741   1.466   7.316 -2.7150 -0.8577  0.1171
 5842SOL    HW229163   1.739   1.492   7.167 -0.4950 -0.0923  0.2244
 5843SOL     OW29164   0.221   4.695   6.164  0.2684  0.3757 -1.0588
 5843SOL    HW129165   0.307   4.654   6.160  1.4423  2.7589 -0.0649
 5843SOL    HW229166   0.248   0.046   6.163 -1.6831  0.9320 -2.1108
 5844SOL     OW29167   0.093   1.064   6.116 -0.0985 -0.0493  0.2736
 5844SOL    HW129168   0.002   1.086   6.133 -0.0348 -0.0300  0.5971
 5844SOL    HW229169   0.123   1.145   6.074  0.3737 -2.0576 -3.2407
 5845SOL     OW29170   3.176   0.667   9.039  0.4530 -0.4513  0.6633
 5845SOL    HW129171   3.090   0.689   9.005  0.4258 -0.6002  0.6362
 5845SOL    HW229172   3.150   0.615   9.115  2.1159  0.1375  1.6391
 5846SOL     OW29173   1.873   1.885   7.228 -0.3282  0.2291 -0.1962
 5846SOL    HW129174   1.964   1.855   7.225 -0.8672 -1.3938 -0.5312
 5846SOL    HW229175   1.881   1.953   7.294 -2.9105 -1.6649  2.0910
 5847SOL     OW29176   2.794   3.751   0.294 -0.7758  0.6232 -0.4404
 5847SOL    HW129177   2.770   3.827   0.346  1.2002 -0.4387  2.0191
 5847SOL    HW229178   2.814   3.789   0.209 -0.3341  0.9598 -0.1841
 5848SOL     OW29179   2.058   3.315   3.666  0.2500 -0.1703 -0.1040
 5848SOL    HW129180   2.001   3.359   3.602  0.7236 -0.4056 -0.6821
 5848SOL    HW229181   2.017   3.228   3.666  0.2294 -0.1635 -3.3719
 5849SOL     OW29182   3.707   2.514  11.482  0.5994  0.7280  0.2330
 5849SOL    HW129183   3.678   2.600  11.511 -1.5331  0.5152 -1.2811
 5849SOL    HW229184   3.690   2.461  11.560  2.0736  0.7079  0.5400
 5850SOL     OW29185   3.790   0.293   6.803  0.6841  0.0387 -0.2464
 5850SOL    HW129186   3.836   0.209   6.803 -0.3693 -0.5405  1.1166
 5850SOL    HW229187   3.790   0.333   6.890  0.0559 -1.2220  0.3311
 5851SOL     OW29188   0.765   3.458   7.338  0.0774 -0.1622  0.2228
 5851SOL    HW129189   0.715   3.414   7.270  0.4419  1.7064 -1.2408
 5851SOL    HW229190   0.780   3.387   7.401  1.1660  0.7083  0.9472
 5852SOL     OW29191   0.905   2.111   2.470 -0.2251  0.1755  0.1332
 5852SOL    HW129192   0.906   2.021   2.503  1.2923 -0.3053 -1.2567
 5852SOL    HW229193   0.983   2.158   2.496  0.6566  0.5121 -3.1174
 5853SOL     OW29194   2.907   4.664  10.713  0.2604  0.1501  0.3477
 5853SOL    HW129195   2.914   4.601  10.642 -0.3279  0.6273 -0.1367
 5853SOL    HW229196   2.814   4.687  10.721  0.4596  1.3107 -0.6866
 5854SOL     OW29197   1.374   2.252  12.175  0.0929 -0.1808  0.3747
 5854SOL    HW129198   1.373   2.333  12.226  2.6173 -0.4106  0.7730
 5854SOL    HW229199   1.469   2.238  12.180  0.0144  0.3918  3.4005
 5855SOL     OW29200   1.519   2.666  16.593 -0.0107 -0.2310  0.3053
 5855SOL    HW129201   1.613   2.678  16.576 -0.3570  2.1550 -0.0015
 5855SOL    HW229202   1.528   2.657  16.688 -0.8107 -0.4755  0.3511
 5856SOL     OW29203   3.346   3.744   7.138 -0.2539  0.0022 -0.8221
 5856SOL    HW129204   3.422   3.687   7.153  0.8532  1.2359 -1.7361
 5856SOL    HW229205   3.277   3.708   7.194 -1.7883  0.7465 -2.2439
 5857SOL     OW29206   2.082   4.077   6.171 -0.0007 -0.4193 -0.1802
 5857SOL    HW129207   2.079   4.086   6.266 -0.8602  2.5350 -0.4991
 5857SOL    HW229208   2.062   4.166   6.144  3.8926  0.1447 -1.2112
 5858SOL     OW29209   4.089   1.309  13.020  0.3358  0.3235 -0.0015
 5858SOL    HW129210   4.107   1.334  12.930  2.3940 -0.6680  0.1211
 5858SOL    HW229211   4.042   1.384  13.056 -0.1820 -0.3178  0.6815
 5859SOL     OW29212   3.845   3.679  12.147  0.2144  0.2047  0.4305
 5859SOL    HW129213   3.933   3.703  12.117  0.3970 -2.6784 -1.3231
 5859SOL    HW229214   3.826   3.604  12.091 -1.3655  0.5942  0.4547
 5860SOL     OW29215   2.114   4.326   0.763  0.0978  0.0790 -0.2074
 5860SOL    HW129216   2.097   4.383   0.838  0.9922  1.2226 -0.8761
 5860SOL    HW229217   2.118   4.241   0.807  0.5110 -0.3971 -1.1498
 5861SOL     OW29218   0.385   0.165   5.594  0.2019 -0.0769  0.1063
 5861SOL    HW129219   0.330   0.217   5.653 -0.9853 -0.3500 -0.7636
 5861SOL    HW229220   0.327   0.147   5.520  0.0583 -0.7726  0.3903
 5862SOL     OW29221   1.351   3.798   6.003  0.0486  0.4708 -0.2886
 5862SOL    HW129222   1.382   3.732   5.941  2.3435  0.5266  0.7986
 5862SOL    HW229223   1.375   3.877   5.953  1.1543  0.0451 -0.4289
 5863SOL     OW29224   0.910   0.499  15.445  0.3401 -0.1981 -0.6088
 5863SOL    HW129225   0.833   0.553  15.463 -0.8601 -2.0988 -0.0516
 5863SOL    HW229226   0.904   0.443  15.522  1.9283 -0.0716 -0.3924
 5864SOL     OW29227   3.095   3.136   7.948 -0.0464 -0.2598 -0.2826
 5864SOL    HW129228   3.117   3.226   7.923 -1.8796 -0.1729 -1.5695
 5864SOL    HW229229   3.172   3.081   7.934 -1.1863 -1.9125 -0.0787
 5865SOL     OW29230   4.665   1.560   5.609  0.0405  0.0786 -0.1531
 5865SOL    HW129231   4.733   1.499   5.639  0.3548  1.0296  1.0634
 5865SOL    HW229232   4.585   1.512   5.632  0.0861  0.4311  0.7670
 5866SOL     OW29233   4.269   0.289   6.719 -0.1357 -0.0710  0.1529
 5866SOL    HW129234   4.342   0.324   6.667 -1.1603 -1.6801 -2.3617
 5866SOL    HW229235   4.320   0.247   6.788  1.0629  0.5131 -0.3619
 5867SOL     OW29236   2.944   2.162   7.956  0.0154 -0.3805  0.0630
 5867SOL    HW129237   3.017   2.106   7.928  1.4912  1.0415  1.0828
 5867SOL    HW229238   2.986   2.248   7.957 -1.1308  0.1784  2.1589
 5868SOL     OW29239   3.980   4.302  16.624  0.2952  0.0448 -0.2929
 5868SOL    HW129240   3.919   4.268  16.688  0.2476  0.8592  0.0926
 5868SOL    HW229241   4.031   4.349  16.690 -0.0285 -2.4750  1.7319
 5869SOL     OW29242   4.403   4.014   9.967  0.4896  0.2244  0.2322
 5869SOL    HW129243   4.419   4.038  10.059  0.5498  1.8896 -0.2103
 5869SOL    HW229244   4.470   4.070   9.927  1.6117 -1.8279 -0.7607
 5870SOL     OW29245   2.068   2.599   5.511  0.9022 -0.8773  0.2355
 5870SOL    HW129246   2.123   2.677   5.520 -1.2943  0.8093 -1.0267
 5870SOL    HW229247   2.013   2.621   5.436 -0.1142  0.3494  1.3502
 5871SOL     OW29248   4.478   3.273   6.744 -0.0509  0.4609  0.0861
 5871SOL    HW129249   4.454   3.184   6.769  1.6961  0.2421  1.0493
 5871SOL    HW229250   4.400   3.323   6.768 -0.6994  0.3307 -1.7459
 5872SOL     OW29251   4.223   0.820   1.139 -0.4980  0.6848  0.2650
 5872SOL    HW129252   4.295   0.830   1.076 -0.9063 -1.4298 -0.5239
 5872SOL    HW229253   4.271   0.831   1.221  2.1189 -1.6297 -0.9415
 5873SOL     OW29254   2.322   4.523   1.114  0.4445 -0.0073  0.0409
 5873SOL    HW129255   2.267   4.590   1.073  0.2110 -1.1828 -1.5777
 5873SOL    HW229256   2.328   4.558   1.203 -0.0575  0.9559 -0.2962
 5874SOL     OW29257   3.730   4.001   2.313 -0.9004  0.0525 -0.1036
 5874SOL    HW129258   3.706   4.003   2.221  1.8879  0.2228 -0.8091
 5874SOL    HW229259   3.644   3.973   2.344 -0.4546 -3.3716 -2.0092
 5875SOL     OW29260   3.596   4.187   6.761 -0.1968 -0.0154 -0.6895
 5875SOL    HW129261   3.568   4.159   6.674 -2.4711 -0.6611  0.2647
 5875SOL    HW229262   3.584   4.112   6.820 -0.8991  0.4792 -0.2027
 5876SOL     OW29263   4.657   3.128   7.217  0.0498 -0.3501 -0.1576
 5876SOL    HW129264   4.680   3.220   7.234 -1.2275 -0.0538 -0.0978
 5876SOL    HW229265   4.699   3.083   7.290  1.6611  1.9232  0.3254
 5877SOL     OW29266   3.927   2.272  11.960 -0.6709  0.0524 -0.9557
 5877SOL    HW129267   3.871   2.340  11.997 -1.7728 -1.6648  0.4887
 5877SOL    HW229268   3.909   2.295  11.869  0.3148  0.3522 -1.0716
 5878SOL     OW29269   3.375   3.362   5.352 -0.0369  0.6702 -0.1094
 5878SOL    HW129270   3.429   3.383   5.428  1.0355  0.0005 -0.6973
 5878SOL    HW229271   3.286   3.384   5.380  0.3860  0.4144  1.4687
 5879SOL     OW29272   2.777   3.331   6.342  0.2982  0.2480 -0.7217
 5879SOL    HW129273   2.853   3.329   6.400 -0.0267 -0.4670 -0.3296
 5879SOL    HW229274   2.763   3.425   6.327  2.6157  1.0386  2.0674
 5880SOL     OW29275   2.211   3.979   8.193  0.2752  0.2364  0.1927
 5880SOL    HW129276   2.122   3.990   8.225 -0.2489  0.5681 -1.4302
 5880SOL    HW229277   2.199   3.956   8.101 -0.4864  2.6069 -0.2857
 5881SOL     OW29278   1.503   4.166  17.628 -0.3138  0.4523  0.7621
 5881SOL    HW129279   1.415   4.181  17.661 -0.7535 -1.1028  0.3013
 5881SOL    HW229280   1.481   4.133  17.541  0.2128  3.5952 -0.5342
 5882SOL     OW29281   2.417   3.050  13.240 -0.4273  1.0234  0.0315
 5882SOL    HW129282   2.446   3.139  13.221 -1.7414  1.0585 -1.8330
 5882SOL    HW229283   2.419   3.046  13.336 -0.7235 -0.2918 -0.0251
 5883SOL     OW29284   1.665   1.946   6.460 -0.5424  0.1913  0.5054
 5883SOL    HW129285   1.696   1.920   6.546  3.1432  0.7753 -0.6229
 5883SOL    HW229286   1.740   1.926   6.404 -0.7227  0.1758  0.2696
 5884SOL     OW29287   2.848   4.278   9.256  0.0891  0.0203  0.7114
 5884SOL    HW129288   2.795   4.257   9.179  0.5510 -1.1325  0.7094
 5884SOL    HW229289   2.927   4.319   9.221 -0.2862  0.5918  0.5417
 5885SOL     OW29290   2.313   4.713  17.513  0.0112 -0.0565 -0.0903
 5885SOL    HW129291   2.231   4.721  17.464  0.9226  3.2395 -1.0989
 5885SOL    HW229292   2.298   0.025  17.591 -0.8957 -0.1891 -0.1796
 5886SOL     OW29293   0.315   1.927   3.002  0.3310 -0.3201 -0.0878
 5886SOL    HW129294   0.283   1.975   2.926  1.3587  0.7279  0.1405
 5886SOL    HW229295   0.407   1.939   2.978  0.6101 -1.5872  0.3874
 5887SOL     OW29296   4.731   2.650   9.386 -0.1029  0.1870 -0.5242
 5887SOL    HW129297   4.722   2.580   9.450 -0.3378 -1.8785 -2.8114
 5887SOL    HW229298   4.698   2.600   9.311 -2.4384  3.2378 -1.5508
 5888SOL     OW29299   4.294   0.071  13.076  0.6249 -0.0039  0.2979
 5888SOL    HW129300   4.375   0.055  13.124 -0.3630 -0.8301  1.6863
 5888SOL    HW229301   4.336   0.062  12.990  1.7216  2.7293  0.5544
 5889SOL     OW29302   2.034   1.081   3.024 -1.0607  0.4390  0.5150
 5889SOL    HW129303   2.111   1.055   2.974 -0.1756  1.2442  1.4542
 5889SOL    HW229304   1.965   1.026   2.987  1.2821 -2.2431  0.1550
 5890SOL     OW29305   1.955   1.311   8.109 -0.7956 -1.5200 -0.3948
 5890SOL    HW129306   2.031   1.292   8.054  0.1401  0.3461  0.2521
 5890SOL    HW229307   1.901   1.368   8.054  1.6204  1.9056  0.8724
 5891SOL     OW29308   1.541   3.819   7.793  0.9431 -0.2585  0.8850
 5891SOL    HW129309   1.523   3.895   7.738 -0.5171 -0.8121  0.5879
 5891SOL    HW229310   1.451   3.821   7.826 -0.1187  0.8615 -2.0961
 5892SOL     OW29311   3.249   0.323   7.793  0.1048  0.2252  0.4642
 5892SOL    HW129312   3.269   0.246   7.846 -2.3175 -0.2818  0.6755
 5892SOL    HW229313   3.324   0.334   7.735  0.7038  1.2135  1.4411
 5893SOL     OW29314   3.880   3.358   7.442  0.3063  0.0386  0.0594
 5893SOL    HW129315   3.959   3.405   7.470 -0.2238  0.0788  1.5092
 5893SOL    HW229316   3.917   3.312   7.367 -0.1819  1.3781 -1.0214
 5894SOL     OW29317   3.752   0.027   9.175 -0.1796  0.3628  0.1855
 5894SOL    HW129318   3.699   0.075   9.239  0.0892 -0.2573  0.8745
 5894SOL    HW229319   3.727   0.070   9.093  1.5530 -2.5501 -1.8523
 5895SOL     OW29320   0.924   4.517   9.588  0.5483  0.2068 -0.4245
 5895SOL    HW129321   0.991   4.487   9.527  0.1339  0.0411 -0.7989
 5895SOL    HW229322   0.899   4.427   9.610  3.9928 -0.4956  0.5009
 5896SOL     OW29323   4.475   1.369   9.154 -0.1453 -0.0275  0.2022
 5896SOL    HW129324   4.498   1.291   9.103  0.0600 -0.5727  1.1234
 5896SOL    HW229325   4.409   1.337   9.214  1.5004  0.5936  2.3507
 5897SOL     OW29326   2.133   2.766   5.074  0.0868 -0.9649 -0.0654
 5897SOL    HW129327   2.127   2.781   4.979 -1.9909  1.7953  0.5346
 5897SOL    HW229328   2.157   2.673   5.077 -0.2285 -1.0538 -0.3515
 5898SOL     OW29329   4.442   1.231  13.319  0.0433  0.4222 -0.7106
 5898SOL    HW129330   4.424   1.307  13.373 -1.6849  0.0635 -0.7808
 5898SOL    HW229331   4.532   1.214  13.349  0.3922 -0.0348 -2.0205
 5899SOL     OW29332   2.234   0.539   4.236 -0.3283 -0.3304 -0.2301
 5899SOL    HW129333   2.180   0.476   4.282  0.8861 -0.0791  1.5601
 5899SOL    HW229334   2.176   0.615   4.231 -0.7419 -0.6102  0.3065
 5900SOL     OW29335   1.811   0.262   2.637  0.2906  0.2115  0.0124
 5900SOL    HW129336   1.746   0.280   2.569 -1.4497 -3.7768  0.6193
 5900SOL    HW229337   1.880   0.217   2.587 -0.5579  0.2088 -1.1711
 5901SOL     OW29338   3.278   0.962  15.859 -0.5901 -0.6171 -0.0788
 5901SOL    HW129339   3.372   0.977  15.873 -1.1519  2.4174  0.4750
 5901SOL    HW229340   3.276   0.867  15.861  1.1128 -0.6762 -1.0854
 5902SOL     OW29341   4.284   0.225   7.555  0.0582  0.1425 -0.0032
 5902SOL    HW129342   4.245   0.310   7.573  0.8046  0.7351 -1.1713
 5902SOL    HW229343   4.363   0.238   7.502  1.6776  0.1461  2.3611
 5903SOL     OW29344   2.220   3.360  15.446  0.0660 -0.0770 -0.2353
 5903SOL    HW129345   2.300   3.326  15.405  0.5203 -0.3053  0.8531
 5903SOL    HW229346   2.159   3.309  15.393 -0.8929  1.2601 -0.4165
 5904SOL     OW29347   0.214   0.363   9.218 -0.4203 -0.7731 -0.3526
 5904SOL    HW129348   0.158   0.339   9.144 -0.7035  0.1789 -0.4452
 5904SOL    HW229349   0.159   0.412   9.279 -0.0790 -0.1805 -0.5229
 5905SOL     OW29350   3.227   2.310   0.389 -0.2631 -0.1436 -0.2454
 5905SOL    HW129351   3.290   2.245   0.360  0.0025 -0.0708  0.1715
 5905SOL    HW229352   3.160   2.249   0.420 -1.0447  1.0878  0.5375
 5906SOL     OW29353   3.899   3.126  17.555  0.0880 -0.3302  0.8013
 5906SOL    HW129354   3.866   3.182  17.484  1.9164  0.3430  0.4945
 5906SOL    HW229355   3.977   3.174  17.583  0.4375 -0.3123 -0.2042
 5907SOL     OW29356   4.329   2.066   8.840 -0.0847 -0.2567  0.4663
 5907SOL    HW129357   4.348   2.160   8.838  4.6821 -1.2528 -1.9109
 5907SOL    HW229358   4.390   2.019   8.783 -0.5581  0.1753 -0.3930
 5908SOL     OW29359   3.241   1.250   1.657  0.4796 -0.1276  0.3573
 5908SOL    HW129360   3.163   1.257   1.712 -0.8398  1.4393 -1.7028
 5908SOL    HW229361   3.250   1.155   1.651 -1.0327 -0.0879 -2.4784
 5909SOL     OW29362   2.849   0.571   7.075 -0.3323  0.2221  0.2011
 5909SOL    HW129363   2.874   0.538   6.989  0.5634 -0.5821  0.7588
 5909SOL    HW229364   2.871   0.490   7.123 -0.0356  0.4179  0.3949
 5910SOL     OW29365   1.131   3.460  10.991 -0.0114  0.2705 -0.7199
 5910SOL    HW129366   1.055   3.410  11.021  0.6640 -1.0259 -1.1788
 5910SOL    HW229367   1.142   3.419  10.905 -2.7704 -2.9781  0.4518
 5911SOL     OW29368   4.484   0.218  11.926 -0.0885  0.2656 -0.2114
 5911SOL    HW129369   4.427   0.256  11.993 -1.7112  1.5572 -2.3388
 5911SOL    HW229370   4.412   0.196  11.867 -0.2732  0.3609 -0.0204
 5912SOL     OW29371   3.073   0.226  15.240 -0.2050  0.3959 -0.0068
 5912SOL    HW129372   3.098   0.219  15.332 -3.0330 -0.9517  0.6701
 5912SOL    HW229373   3.043   0.136  15.223 -1.6035  1.3108 -2.4838
 5913SOL     OW29374   4.238   1.205   7.630  0.3028  0.2204  0.1567
 5913SOL    HW129375   4.270   1.181   7.718 -0.4122  2.2795  0.9774
 5913SOL    HW229376   4.322   1.210   7.586  0.0452 -0.5188 -0.4063
 5914SOL     OW29377   3.471   3.812   2.351  0.1506  0.1655  0.1583
 5914SOL    HW129378   3.535   3.770   2.407  1.5112  1.5566 -0.3502
 5914SOL    HW229379   3.402   3.829   2.414  0.2624  1.1212  0.0202
 5915SOL     OW29380   3.971   3.456   3.341 -0.2394 -0.4234  0.0747
 5915SOL    HW129381   4.027   3.406   3.400  0.4387  2.6966  2.0951
 5915SOL    HW229382   3.933   3.383   3.293 -0.5147  0.4927 -1.1098
 5916SOL     OW29383   3.719   4.190   8.348 -0.4596  0.2859 -0.9698
 5916SOL    HW129384   3.765   4.140   8.415 -1.9557 -2.5182 -2.0690
 5916SOL    HW229385   3.766   4.142   8.279 -0.0916 -0.5658 -0.1226
 5917SOL     OW29386   2.826   2.478   3.743  0.0421  0.1107 -0.2471
 5917SOL    HW129387   2.819   2.439   3.656  0.1804 -0.4330 -0.0151
 5917SOL    HW229388   2.860   2.565   3.726  1.6393 -0.5943 -0.6262
 5918SOL     OW29389   3.394   3.189   4.898 -0.3906 -0.2013  1.0854
 5918SOL    HW129390   3.485   3.184   4.929 -0.1094 -0.9815  0.1451
 5918SOL    HW229391   3.349   3.183   4.981  1.2328 -0.8361  1.9262
 5919SOL     OW29392   1.250   0.054   3.837  0.5523  0.1441  0.2799
 5919SOL    HW129393   1.287   0.128   3.789 -0.9581  0.9570  0.3987
 5919SOL    HW229394   1.249   0.091   3.925  0.4391  1.8520 -0.4410
 5920SOL     OW29395   3.254   4.246   8.432 -0.1454 -0.6706 -0.4005
 5920SOL    HW129396   3.337   4.232   8.386 -0.6581  0.3040 -1.6043
 5920SOL    HW229397   3.251   4.157   8.469  0.2437 -1.4265 -2.1939
 5921SOL     OW29398   1.715   2.966  16.983 -0.6436  0.0536 -0.2128
 5921SOL    HW129399   1.790   3.025  16.974  0.2988 -0.9804  0.8972
 5921SOL    HW229400   1.740   2.934  17.069  0.8818 -0.5576 -0.8726
 5922SOL     OW29401   2.751   3.003   5.845 -0.0947 -0.1724  0.6465
 5922SOL    HW129402   2.690   3.066   5.885  1.4699  0.8992  1.3325
 5922SOL    HW229403   2.838   3.029   5.874 -0.2946  0.8238  0.3801
 5923SOL     OW29404   3.879   1.070   7.144 -0.2300  0.5141  0.1879
 5923SOL    HW129405   3.957   1.114   7.177 -0.5033 -0.2476  1.8099
 5923SOL    HW229406   3.899   1.067   7.050  0.3895  0.1336  0.3350
 5924SOL     OW29407   0.401   2.645   8.890  0.2450 -0.2203  0.5766
 5924SOL    HW129408   0.350   2.629   8.969 -0.9182 -0.3470 -0.2079
 5924SOL    HW229409   0.388   2.737   8.868 -1.9523 -0.8446 -0.7012
 5925SOL     OW29410   1.745   1.739  10.918 -0.8571 -0.4316 -0.0879
 5925SOL    HW129411   1.651   1.720  10.921 -0.6904 -1.1012  0.7947
 5925SOL    HW229412   1.788   1.687  10.986 -2.4126 -3.2087 -1.2256
 5926SOL     OW29413   1.772   2.790   4.435  0.4141  0.0941 -0.2106
 5926SOL    HW129414   1.867   2.788   4.446  0.4309  0.5267 -0.2529
 5926SOL    HW229415   1.760   2.863   4.374  2.2307  0.3937 -0.2087
 5927SOL     OW29416   0.021   3.956   5.746 -0.3036  0.4235 -0.4274
 5927SOL    HW129417   0.070   3.988   5.823 -0.6063 -2.0939  0.8256
 5927SOL    HW229418   4.672   3.937   5.773 -0.4887  0.7795 -0.7942
 5928SOL     OW29419   2.598   2.310   8.158  0.1344 -0.2405 -0.0042
 5928SOL    HW129420   2.692   2.297   8.147  0.7416  1.7665  2.6644
 5928SOL    HW229421   2.590   2.393   8.111  0.3140  0.2425  0.8178
 5929SOL     OW29422   2.506   4.669  17.232 -0.1574 -0.5938  0.0823
 5929SOL    HW129423   2.425   4.628  17.201  0.3022 -0.0088 -1.8933
 5929SOL    HW229424   2.487   4.693  17.323 -0.5507 -2.3252  0.4761
 5930SOL     OW29425   4.500   0.852   4.380 -0.0254 -0.1668  0.3279
 5930SOL    HW129426   4.571   0.818   4.436 -0.5297  0.6351  1.4556
 5930SOL    HW229427   4.540   0.876   4.297  1.0628 -0.2591  0.8166
 5931SOL     OW29428   3.563   2.793  11.097  0.3808 -0.4167 -0.0417
 5931SOL    HW129429   3.619   2.787  11.019  0.4682  2.7385 -0.2345
 5931SOL    HW229430   3.614   2.833  11.167 -0.6693 -0.0458  0.5228
 5932SOL     OW29431   4.185   3.488   9.679 -0.0226 -0.2897  0.3145
 5932SOL    HW129432   4.115   3.520   9.622 -0.3836 -1.0975  0.3103
 5932SOL    HW229433   4.256   3.528   9.628 -1.4659  1.7067 -0.1024
 5933SOL     OW29434   0.774   1.113   6.344 -0.2395  0.2965 -0.3040
 5933SOL    HW129435   0.683   1.124   6.319 -0.5101 -0.8849  0.1677
 5933SOL    HW229436   0.804   1.176   6.279 -1.7181 -0.6847 -1.9159
 5934SOL     OW29437   2.265   3.432   7.352 -0.3201 -0.3576 -0.1244
 5934SOL    HW129438   2.181   3.478   7.357  0.9777  1.8769  0.8188
 5934SOL    HW229439   2.258   3.383   7.270 -1.1281  1.1328 -0.9294
 5935SOL     OW29440   1.269   4.458   2.651  0.8747 -0.2106 -0.5089
 5935SOL    HW129441   1.259   4.363   2.657 -0.9412 -0.2407 -3.7033
 5935SOL    HW229442   1.361   4.465   2.677  0.3351 -0.3247  1.3965
 5936SOL     OW29443   4.343   2.453  10.825  0.2099  0.5194  0.4080
 5936SOL    HW129444   4.322   2.414  10.909  2.1598 -0.1040  0.6087
 5936SOL    HW229445   4.258   2.491  10.801 -0.2361  0.0882  1.3415
 5937SOL     OW29446   4.392   1.818   3.723 -0.1556 -0.3164  0.4278
 5937SOL    HW129447   4.331   1.756   3.683 -1.0381  1.9937 -1.7722
 5937SOL    HW229448   4.379   1.901   3.677 -0.7242 -0.2248  0.7485
 5938SOL     OW29449   3.721   3.363   2.237 -0.3269  0.2794 -0.5795
 5938SOL    HW129450   3.682   3.393   2.320 -0.0996 -1.8349  0.3056
 5938SOL    HW229451   3.781   3.292   2.263  0.3314  1.2637  0.5791
 5939SOL     OW29452   0.644   2.072   6.412  0.1362  0.2724  0.1433
 5939SOL    HW129453   0.705   2.068   6.339 -0.0029 -0.5957  0.0744
 5939SOL    HW229454   0.559   2.056   6.372 -0.9494  1.0338  2.1241
 5940SOL     OW29455   1.585   1.823  13.708 -0.1340  0.7914  0.1644
 5940SOL    HW129456   1.534   1.863  13.639  0.5963 -0.2469 -0.9711
 5940SOL    HW229457   1.534   1.742  13.718 -2.3706  1.9486 -1.9454
 5941SOL     OW29458   3.500   0.757   5.011  0.4838  0.1723  0.5486
 5941SOL    HW129459   3.433   0.689   5.004  0.0740  0.8326 -1.8517
 5941SOL    HW229460   3.470   0.800   5.091  1.8074  2.3440 -0.1421
 5942SOL     OW29461   4.256   2.144   4.155 -0.1281  0.2943  0.1339
 5942SOL    HW129462   4.253   2.072   4.092 -0.2562  2.4763 -2.3563
 5942SOL    HW229463   4.240   2.215   4.093 -0.5855  1.5672  1.7029
 5943SOL     OW29464   0.586   2.948  15.824 -0.2420  0.0053 -0.1875
 5943SOL    HW129465   0.574   2.853  15.820  1.9051 -0.2638 -0.4762
 5943SOL    HW229466   0.580   2.965  15.918 -0.0985 -1.6237  0.1279
 5944SOL     OW29467   0.865   1.170   7.693  0.0542  0.2035 -0.1051
 5944SOL    HW129468   0.933   1.198   7.631  0.8800  0.2389  0.8199
 5944SOL    HW229469   0.821   1.104   7.640 -2.3124  1.9595 -0.3285
 5945SOL     OW29470   0.476   1.982   2.033  0.0232  0.5826  0.8609
 5945SOL    HW129471   0.417   2.015   1.965  1.0300  0.9748  0.1772
 5945SOL    HW229472   0.446   1.891   2.030 -0.9025  0.9064  0.1244
 5946SOL     OW29473   1.866   4.307  12.741  0.2703  0.2633  0.1904
 5946SOL    HW129474   1.866   4.334  12.833  0.0735 -0.0227  0.2755
 5946SOL    HW229475   1.832   4.219  12.757  0.3046  0.2966  0.4521
 5947SOL     OW29476   4.490   3.193   1.925  0.1800 -0.1456 -0.1626
 5947SOL    HW129477   4.474   3.145   2.006  0.3154 -0.5639 -0.3843
 5947SOL    HW229478   4.415   3.251   1.913 -1.2726 -1.7470  1.1460
 5948SOL     OW29479   3.486   4.085   5.597 -0.0072 -0.3792  0.7995
 5948SOL    HW129480   3.521   4.002   5.564 -0.5362 -0.2197 -0.1670
 5948SOL    HW229481   3.463   4.119   5.511 -1.1495  2.4948  2.2506
 5949SOL     OW29482   1.996   1.360   2.034  0.0360 -0.1178 -0.0157
 5949SOL    HW129483   2.010   1.377   2.127 -1.5980 -0.1339  0.2491
 5949SOL    HW229484   1.942   1.437   2.014  0.9509  0.7564  0.9138
 5950SOL     OW29485   4.509   2.297   6.828  0.1127 -0.3754  0.6580
 5950SOL    HW129486   4.486   2.223   6.885  0.5877 -1.7087 -0.8594
 5950SOL    HW229487   4.500   2.372   6.886 -1.2063  1.4855 -1.9785
 5951SOL     OW29488   2.962   3.855   2.628 -0.4731 -0.3626 -0.1070
 5951SOL    HW129489   2.990   3.925   2.570  2.0121 -2.8599 -1.9169
 5951SOL    HW229490   2.936   3.900   2.708  0.9193  0.5938 -0.1980
 5952SOL     OW29491   1.176   2.082  17.161  0.0051  0.5705 -0.2106
 5952SOL    HW129492   1.105   2.018  17.157  1.8353 -1.2794 -2.7166
 5952SOL    HW229493   1.142   2.121  17.242  0.8664  0.8615  0.0039
 5953SOL     OW29494   1.854   3.293   7.484 -0.3474 -0.2001  0.1170
 5953SOL    HW129495   1.920   3.224   7.482  2.0007  1.9975  0.8723
 5953SOL    HW229496   1.853   3.312   7.578 -1.1660 -1.1341  0.2883
 5954SOL     OW29497   1.544   1.237   8.006  0.1599  0.4438 -0.1377
 5954SOL    HW129498   1.529   1.273   8.093  2.9315  2.6582 -0.5908
 5954SOL    HW229499   1.531   1.309   7.944  0.1069 -0.6132 -1.3597
 5955SOL     OW29500   0.750   3.042   7.014 -0.0311 -0.0812  0.8231
 5955SOL    HW129501   0.836   3.011   6.990 -1.1287 -1.8767 -0.7173
 5955SOL    HW229502   0.704   3.009   6.937  1.9515 -1.9621  0.4529
 5956SOL     OW29503   4.006   2.689   0.624  0.0632 -0.0528 -0.7528
 5956SOL    HW129504   4.046   2.611   0.662 -0.8746 -0.9857 -1.6841
 5956SOL    HW229505   3.917   2.697   0.658  1.1133 -0.6821  2.1019
 5957SOL     OW29506   4.435   0.279   1.606  0.6514 -0.1456  0.0870
 5957SOL    HW129507   4.510   0.250   1.658 -0.8225 -1.1928  1.6345
 5957SOL    HW229508   4.483   0.297   1.525  0.0471  0.6731 -0.0916
 5958SOL     OW29509   3.275   2.203   5.478 -0.0291 -0.3016  0.0863
 5958SOL    HW129510   3.364   2.194   5.444 -0.6871 -1.1078 -1.4157
 5958SOL    HW229511   3.262   2.293   5.509  0.5435 -0.2832  0.2715
 5959SOL     OW29512   4.499   2.380   0.899  0.6924 -0.4663  0.1733
 5959SOL    HW129513   4.444   2.350   0.827  1.3894  1.7062 -1.2553
 5959SOL    HW229514   4.441   2.441   0.945  2.4038  0.0546  1.6441
 5960SOL     OW29515   1.535   0.252   7.012  0.3454 -0.5678 -0.0634
 5960SOL    HW129516   1.448   0.270   7.048  0.6722  1.5134 -0.3642
 5960SOL    HW229517   1.589   0.238   7.090  3.2797 -0.2757 -2.0632
 5961SOL     OW29518   2.880   4.072   4.404 -0.0863 -0.3028 -0.0606
 5961SOL    HW129519   2.916   4.142   4.458 -0.1787 -1.2079  1.1650
 5961SOL    HW229520   2.927   3.995   4.436 -0.3424 -0.2624  0.4059
 5962SOL     OW29521   4.727   2.184  13.961  0.2102  0.2136  0.0539
 5962SOL    HW129522   4.718   2.131  14.040  0.0464 -0.1888 -0.2352
 5962SOL    HW229523   4.681   2.132  13.894  1.0084 -0.3775 -0.0404
 5963SOL     OW29524   0.401   3.940   7.630  0.0035 -0.0468 -0.1159
 5963SOL    HW129525   0.365   3.976   7.549  0.0801 -0.0348 -0.1451
 5963SOL    HW229526   0.487   3.982   7.633 -0.6725  1.4643 -2.1325
 5964SOL     OW29527   1.775   0.380   8.402 -0.1007  0.2635  0.5050
 5964SOL    HW129528   1.818   0.397   8.319 -1.3439  1.5417  0.1119
 5964SOL    HW229529   1.800   0.289   8.421  0.6445  0.1935 -0.8497
 5965SOL     OW29530   1.265   3.143   7.650  0.2141  0.6502  0.2372
 5965SOL    HW129531   1.313   3.067   7.620 -0.3146 -0.5724  2.4446
 5965SOL    HW229532   1.243   3.110   7.738 -0.4729 -0.4025 -0.3313
 5966SOL     OW29533   1.059   3.791   4.743 -0.5163 -0.0769 -0.4094
 5966SOL    HW129534   1.078   3.710   4.791 -0.1310 -0.2061 -0.7726
 5966SOL    HW229535   1.130   3.797   4.678  1.9275 -3.1886  1.9600
 5967SOL     OW29536   0.107   2.255   7.495 -0.5743  0.1178  0.0339
 5967SOL    HW129537   0.086   2.347   7.511 -0.0388  0.2069  0.2008
 5967SOL    HW229538   0.201   2.254   7.509 -0.6729 -1.1967  0.6523
 5968SOL     OW29539   4.323   1.515  13.911 -0.3976  0.1832 -0.1018
 5968SOL    HW129540   4.326   1.566  13.830 -1.5243 -1.7952 -1.4039
 5968SOL    HW229541   4.391   1.559  13.960 -1.6126  0.7070  1.1167
 5969SOL     OW29542   1.977   0.056   5.667 -0.0253 -0.2009  0.0214
 5969SOL    HW129543   1.929   4.716   5.647 -1.4345  0.9095 -1.0694
 5969SOL    HW229544   2.047   0.049   5.602 -0.2724  1.5950 -0.4305
 5970SOL     OW29545   4.429   2.955  10.138  0.5359 -0.0944  0.1167
 5970SOL    HW129546   4.339   2.940  10.109  0.0507 -2.0709  2.6018
 5970SOL    HW229547   4.450   2.865  10.116 -0.6379 -0.2848 -0.2201
 5971SOL     OW29548   2.736   0.858   9.912  0.0861  0.4420 -0.0915
 5971SOL    HW129549   2.730   0.769   9.946  0.3273  0.6447  0.4756
 5971SOL    HW229550   2.827   0.880   9.933 -0.2299  2.6465 -1.0252
 5972SOL     OW29551   4.191   3.209   5.718 -0.3213 -0.3137 -0.0330
 5972SOL    HW129552   4.235   3.243   5.797 -2.6631 -1.2536  1.6849
 5972SOL    HW229553   4.232   3.258   5.647 -1.9290  0.1308 -0.6540
 5973SOL     OW29554   3.975   0.309   8.059  0.8571  0.2870  0.3944
 5973SOL    HW129555   4.071   0.307   8.054  1.0008  1.5465  2.3009
 5973SOL    HW229556   3.970   0.231   8.115  0.6392 -0.7443 -1.0774
 5974SOL     OW29557   4.523   2.986   4.555 -0.2898 -0.0174 -0.0012
 5974SOL    HW129558   4.484   3.003   4.469  2.0433  1.4126 -0.7603
 5974SOL    HW229559   4.587   3.054   4.570 -0.8657  0.6059 -0.3673
 5975SOL     OW29560   2.515   2.333   1.950 -0.3987 -0.2830 -0.2292
 5975SOL    HW129561   2.580   2.348   1.882 -1.7425 -0.4263 -1.5351
 5975SOL    HW229562   2.563   2.265   1.998 -0.1210 -0.3877 -0.6534
 5976SOL     OW29563   2.704   0.132   3.906  0.0064 -0.1941  0.0468
 5976SOL    HW129564   2.716   0.187   3.829 -0.9949  0.5134  0.3846
 5976SOL    HW229565   2.621   0.092   3.881 -0.8154  1.6206 -0.1415
 5977SOL     OW29566   2.721   3.161   1.687 -0.3971 -0.3664  0.6056
 5977SOL    HW129567   2.736   3.211   1.767  0.0975  1.3826 -0.5802
 5977SOL    HW229568   2.626   3.166   1.685 -0.4549 -1.0781  1.3616
 5978SOL     OW29569   1.785   2.060  13.276  0.3822 -0.1593  0.3428
 5978SOL    HW129570   1.823   2.139  13.237  1.5023 -1.8643 -1.9447
 5978SOL    HW229571   1.833   1.997  13.223  1.4232  0.8126  0.1443
 5979SOL     OW29572   4.265   3.999   4.022  0.6802  0.2317 -0.1941
 5979SOL    HW129573   4.324   4.074   4.023 -0.3015  1.0116 -0.2100
 5979SOL    HW229574   4.205   4.027   3.953  1.0827 -1.4162 -1.2255
 5980SOL     OW29575   0.351   1.314  14.442 -0.3427  0.5506  0.2258
 5980SOL    HW129576   0.421   1.314  14.376 -0.2054 -0.6034  0.3773
 5980SOL    HW229577   0.285   1.252  14.411 -0.8090  1.0347  0.2535
 5981SOL     OW29578   0.323   4.158   2.382  0.1930  0.3806  0.3419
 5981SOL    HW129579   0.259   4.194   2.444  0.2337 -0.8890  1.1094
 5981SOL    HW229580   0.354   4.080   2.427 -0.2143  1.4303  2.4621
 5982SOL     OW29581   0.762   4.068   2.759 -0.2633 -0.7837 -0.3831
 5982SOL    HW129582   0.800   4.137   2.814 -0.8478 -0.7727  0.0128
 5982SOL    HW229583   0.845   4.029   2.731  1.3153  1.8191  0.7407
 5983SOL     OW29584   1.089   2.323  14.047  0.0875 -0.2016  0.4247
 5983SOL    HW129585   1.173   2.279  14.041 -0.6985 -1.4270 -1.5712
 5983SOL    HW229586   1.083   2.358  14.136 -1.6386  0.3281  0.1079
 5984SOL     OW29587   0.738   0.861   4.552 -0.1199 -0.6025  0.0609
 5984SOL    HW129588   0.647   0.874   4.581 -0.0248  0.2879 -0.0618
 5984SOL    HW229589   0.783   0.846   4.635 -2.4945 -1.2373  1.2404
 5985SOL     OW29590   1.682   2.232  16.316 -0.2680  0.9064 -0.4384
 5985SOL    HW129591   1.739   2.226  16.240 -0.0514  2.2913 -0.3774
 5985SOL    HW229592   1.752   2.242  16.380  0.4135 -2.8879 -0.5985
 5986SOL     OW29593   3.741   2.672   7.538 -0.0814  0.0813 -0.3064
 5986SOL    HW129594   3.722   2.747   7.594  0.3648  0.8049 -1.1282
 5986SOL    HW229595   3.760   2.597   7.594  0.6977  1.4569  1.2512
 5987SOL     OW29596   4.449   4.307   1.579  0.0885  0.0269  0.6438
 5987SOL    HW129597   4.355   4.321   1.583  0.5504  2.6555  2.1638
 5987SOL    HW229598   4.449   4.225   1.629  0.0844 -1.1717 -1.3187
 5988SOL     OW29599   0.922   0.036   1.558  0.1783 -0.7571  0.1540
 5988SOL    HW129600   0.895   0.055   1.648 -0.3999 -0.9977  0.0307
 5988SOL    HW229601   0.942   4.684   1.563  0.1497 -0.7802 -0.1799
 5989SOL     OW29602   1.555   0.925   2.362 -0.7337  0.2206 -0.4255
 5989SOL    HW129603   1.485   0.982   2.392 -0.2499 -0.6138  2.3246
 5989SOL    HW229604   1.617   0.976   2.415 -1.7700  1.1185 -0.0836
 5990SOL     OW29605   3.629   2.620   7.285 -0.0192 -0.3630 -0.4273
 5990SOL    HW129606   3.647   2.633   7.378 -0.5251 -0.1050 -0.3660
 5990SOL    HW229607   3.692   2.549   7.272 -2.8705 -2.8667 -0.7017
 5991SOL     OW29608   1.168   3.113   3.334  0.0506 -0.3692 -1.2315
 5991SOL    HW129609   1.192   3.199   3.300  0.8434 -0.1152 -0.0319
 5991SOL    HW229610   1.194   3.064   3.256  3.1192 -1.8165  0.6552
 5992SOL     OW29611   3.950   0.341   7.790  0.2599 -0.3176  0.0712
 5992SOL    HW129612   3.977   0.342   7.882  2.6443  1.4292 -0.6485
 5992SOL    HW229613   3.897   0.261   7.795 -0.0119 -0.1751 -0.5598
 5993SOL     OW29614   3.449   3.606  12.311  0.0161  0.4675  0.7754
 5993SOL    HW129615   3.392   3.598  12.387 -0.1774  1.3544  0.7293
 5993SOL    HW229616   3.424   3.682  12.258 -0.1854  0.9804  1.5908
 5994SOL     OW29617   0.947   0.253   7.015  0.4489  0.4132  0.0997
 5994SOL    HW129618   0.970   0.316   7.083 -3.0685  0.4624  1.2402
 5994SOL    HW229619   1.016   0.282   6.955  0.8470  0.7044  0.6928
 5995SOL     OW29620   1.903   2.598   3.374 -0.1116  0.3362  0.0427
 5995SOL    HW129621   1.914   2.536   3.446 -2.3503 -0.6639 -0.4743
 5995SOL    HW229622   1.810   2.622   3.378 -0.0873  0.4467 -0.0302
 5996SOL     OW29623   0.137   0.992   4.080  0.2598  0.2104  0.1875
 5996SOL    HW129624   0.187   1.072   4.062 -0.6341  0.6228 -0.4599
 5996SOL    HW229625   0.138   0.951   3.994  2.2066 -0.0156  0.3183
 5997SOL     OW29626   3.795   1.458   3.072 -0.5428  0.1230  0.8586
 5997SOL    HW129627   3.737   1.386   3.097  1.1942 -0.9060  2.0066
 5997SOL    HW229628   3.840   1.480   3.154 -1.1246  0.0034  1.2153
 5998SOL     OW29629   2.894   0.312   1.116  0.0076  0.0894 -0.4275
 5998SOL    HW129630   2.814   0.356   1.144  0.4974 -0.0254  1.1803
 5998SOL    HW229631   2.911   0.348   1.029 -2.4727 -0.3608 -1.0969
 5999SOL     OW29632   3.600   0.033   8.401  0.2340 -0.1073 -0.3059
 5999SOL    HW129633   3.590   4.705   8.467 -1.4819 -0.6937 -1.1754
 5999SOL    HW229634   3.543   0.105   8.428 -0.7967 -1.0247 -0.0175
 6000SOL     OW29635   0.107   2.281   5.780 -0.2626  0.0465 -0.4104
 6000SOL    HW129636   0.132   2.259   5.691  0.0869  2.4517 -0.8980
 6000SOL    HW229637   0.099   2.188   5.804 -1.2937 -0.0748 -1.2550
 6001SOL     OW29638   2.013   3.381   5.461  0.4797  0.4776 -1.0242
 6001SOL    HW129639   1.983   3.412   5.546  2.5242 -3.0050  0.9416
 6001SOL    HW229640   2.106   3.389   5.479  0.3966  0.1096 -0.4302
 6002SOL     OW29641   2.127   2.460   2.651  0.2304 -0.3997 -0.0010
 6002SOL    HW129642   2.033   2.462   2.670  0.7765  0.3412  2.5780
 6002SOL    HW229643   2.170   2.517   2.714  3.2950 -0.3293 -2.1555
 6003SOL     OW29644   0.456   1.964   5.666  0.2973  0.5067  0.0638
 6003SOL    HW129645   0.386   1.937   5.725 -0.4018  0.2413 -0.8732
 6003SOL    HW229646   0.512   2.028   5.709  0.0709  0.1520  0.8725
 6004SOL     OW29647   3.149   3.423   4.792  0.2187 -0.3696 -0.1087
 6004SOL    HW129648   3.065   3.379   4.778  0.7771 -1.4988  0.0400
 6004SOL    HW229649   3.123   3.515   4.791  0.6657 -0.2357  0.6933
 6005SOL     OW29650   1.004   2.941  13.982 -0.1536  0.4984  0.6687
 6005SOL    HW129651   0.978   2.850  13.998 -0.1534  0.3936  0.0853
 6005SOL    HW229652   0.951   2.964  13.906 -0.0980  0.6898  0.6890
 6006SOL     OW29653   2.658   2.328   3.897  0.1954  0.0938 -0.1954
 6006SOL    HW129654   2.728   2.383   3.864  0.1901  1.1677  1.5731
 6006SOL    HW229655   2.592   2.358   3.835  0.7965  2.0733  0.1305
 6007SOL     OW29656   3.240   1.092   6.503 -0.4811  0.6416 -0.5440
 6007SOL    HW129657   3.152   1.088   6.465 -0.7115 -0.5978  0.1194
 6007SOL    HW229658   3.278   1.019   6.454  0.4137  0.4520  0.4204
 6008SOL     OW29659   4.033   2.190   9.274 -0.5423 -0.1387 -0.1946
 6008SOL    HW129660   4.121   2.194   9.236 -1.2530 -1.1535 -1.9733
 6008SOL    HW229661   4.035   2.102   9.311 -2.3964  0.0238  0.2859
 6009SOL     OW29662   0.180   1.893   1.585  0.4752  0.1952 -0.1606
 6009SOL    HW129663   0.188   1.803   1.618  1.8317  0.4167  0.1272
 6009SOL    HW229664   0.088   1.912   1.598  0.4868 -0.6706  1.1973
 6010SOL     OW29665   1.003   1.886   5.067  0.1554 -0.1232  0.3451
 6010SOL    HW129666   0.925   1.940   5.058 -0.0302 -0.8091 -2.3175
 6010SOL    HW229667   0.999   1.849   5.155 -1.4184  0.2517  0.4326
 6011SOL     OW29668   0.768   2.080   6.705 -0.2795  0.5736  0.5561
 6011SOL    HW129669   0.848   2.126   6.734 -1.1987  1.4532  1.6843
 6011SOL    HW229670   0.775   2.074   6.610  1.6492  1.5816  0.6250
 6012SOL     OW29671   0.087   4.319   3.799  0.2192 -0.3624  0.4532
 6012SOL    HW129672   0.102   4.327   3.705 -1.1346  1.1188  0.3541
 6012SOL    HW229673   0.083   4.225   3.815 -1.1818 -0.6336 -1.4637
 6013SOL     OW29674   3.718   0.699   7.493  0.0435  0.2264 -0.1710
 6013SOL    HW129675   3.692   0.772   7.435 -0.3305  0.6032  0.4749
 6013SOL    HW229676   3.763   0.645   7.429  0.0487 -0.3854  0.3576
 6014SOL     OW29677   1.616   0.783  10.422  0.0601  0.1488  0.5601
 6014SOL    HW129678   1.632   0.839  10.345  0.7254 -0.0996  0.5214
 6014SOL    HW229679   1.530   0.755  10.390 -0.1697 -2.6851  3.7721
 6015SOL     OW29680   1.913   3.591  10.251  0.3667  0.0718  0.1285
 6015SOL    HW129681   1.940   3.523  10.190 -0.5022 -0.5521  0.4430
 6015SOL    HW229682   1.918   3.543  10.333 -0.7958  0.3446  0.3698
 6016SOL     OW29683   0.034   4.313   7.341 -0.0137  0.5355 -0.3108
 6016SOL    HW129684   0.034   4.406   7.363 -0.8034  0.4037  0.2747
 6016SOL    HW229685   0.066   4.314   7.251  0.0985  0.4635 -0.2719
 6017SOL     OW29686   2.177   2.244   9.568  0.0277 -0.0410 -0.0324
 6017SOL    HW129687   2.270   2.224   9.563  0.4344  1.4104  1.8226
 6017SOL    HW229688   2.169   2.314   9.503  0.9839 -0.5221 -0.6725
 6018SOL     OW29689   2.026   2.301   9.222 -0.1443 -0.1550  0.1262
 6018SOL    HW129690   2.091   2.322   9.155 -0.0698  1.2101  0.6278
 6018SOL    HW229691   1.980   2.384   9.227 -0.1322 -0.2144  1.2155
 6019SOL     OW29692   3.289   2.711   2.838  0.7328  0.2342 -0.2528
 6019SOL    HW129693   3.311   2.642   2.900 -1.9831 -1.1345 -0.8383
 6019SOL    HW229694   3.193   2.706   2.838  0.7653 -0.6292  1.6892
 6020SOL     OW29695   3.439   2.619  14.420 -0.4008 -0.2213  0.1350
 6020SOL    HW129696   3.434   2.548  14.356 -0.3731  0.3368 -0.4915
 6020SOL    HW229697   3.531   2.642  14.431 -1.2396  2.3297  1.7904
 6021SOL     OW29698   1.134   2.961   4.333 -0.7810 -0.2276  0.7357
 6021SOL    HW129699   1.229   2.948   4.328 -0.2318  4.4703 -1.2019
 6021SOL    HW229700   1.126   2.885   4.389  1.5386 -1.9220 -1.2224
 6022SOL     OW29701   4.192   0.884   3.041  0.9443  0.1788 -0.6216
 6022SOL    HW129702   4.238   0.954   3.088  2.6683 -0.3525 -1.5569
 6022SOL    HW229703   4.105   0.878   3.080  1.6630 -0.1975  0.9255
 6023SOL     OW29704   2.350   4.696   9.077  0.2500 -0.5718  0.0339
 6023SOL    HW129705   2.335   4.636   9.150  1.5335  2.7473  2.9966
 6023SOL    HW229706   2.435   4.674   9.039  0.7332 -1.1661  1.4766
 6024SOL     OW29707   4.447   2.706  10.083 -0.3618  0.2277 -0.4711
 6024SOL    HW129708   4.432   2.676   9.994  0.2860 -0.6450 -0.2854
 6024SOL    HW229709   4.468   2.627  10.134 -0.9363  1.3030  1.4512
 6025SOL     OW29710   0.826   4.207   6.029 -0.9328  0.0120 -0.2249
 6025SOL    HW129711   0.806   4.133   6.086 -0.9981  0.2550  0.0688
 6025SOL    HW229712   0.907   4.244   6.065 -1.1413  1.7736 -1.5338
 6026SOL     OW29713   3.811   0.558  12.093  0.5988 -0.2214  0.2452
 6026SOL    HW129714   3.798   0.544  12.187  0.5574 -1.7163  0.0201
 6026SOL    HW229715   3.888   0.614  12.096 -1.3129  2.4736 -0.7437
 6027SOL     OW29716   2.448   0.382   3.787  0.1700 -0.5104  0.6211
 6027SOL    HW129717   2.462   0.418   3.875  0.4178 -0.7881  0.6949
 6027SOL    HW229718   2.433   0.290   3.810 -3.0431 -0.4086 -1.1016
 6028SOL     OW29719   1.271   1.256  16.844  0.2343 -0.3186 -0.7509
 6028SOL    HW129720   1.353   1.206  16.852  0.3617  0.2660  1.7570
 6028SOL    HW229721   1.303   1.324  16.785  1.1479 -0.4726 -0.4411
 6029SOL     OW29722   2.736   1.689   3.797 -0.1414 -0.1533 -0.3030
 6029SOL    HW129723   2.800   1.704   3.867  1.0874 -2.3171 -0.9420
 6029SOL    HW229724   2.765   1.604   3.763 -1.5223 -2.0894  3.4578
 6030SOL     OW29725   2.052   0.262   7.916  0.6478  0.8010  0.3548
 6030SOL    HW129726   2.062   0.286   7.824  0.5608 -1.5519 -0.2653
 6030SOL    HW229727   2.105   0.335   7.949  1.6761  0.0091  0.4674
 6031SOL     OW29728   3.815   2.184  15.746  0.2873 -0.0351  0.2224
 6031SOL    HW129729   3.732   2.231  15.738  0.0235 -1.0054 -2.7880
 6031SOL    HW229730   3.869   2.252  15.706 -0.0490  1.1227  1.7409
 6032SOL     OW29731   3.190   1.940   9.907 -0.4096 -0.0195  0.0309
 6032SOL    HW129732   3.273   1.897   9.888  0.5156  1.5772  0.4389
 6032SOL    HW229733   3.125   1.880   9.871  1.1823 -1.4508 -0.4850
 6033SOL     OW29734   2.183   3.833   4.505 -0.3497  0.2213  0.1587
 6033SOL    HW129735   2.171   3.913   4.555  0.9214  0.8729 -0.5903
 6033SOL    HW229736   2.209   3.867   4.419  2.2749 -4.1879 -0.8245
 6034SOL     OW29737   4.519   1.851  14.570  0.1673  0.1326 -0.3630
 6034SOL    HW129738   4.548   1.769  14.529 -1.3067 -1.6892  2.1849
 6034SOL    HW229739   4.526   1.820  14.660  0.3803  1.8690  0.2087
 6035SOL     OW29740   1.644   4.090   2.419  0.4763  0.0386  0.2932
 6035SOL    HW129741   1.572   4.144   2.386  0.6367 -0.0539 -0.2084
 6035SOL    HW229742   1.712   4.154   2.396  1.0567  0.1124  2.2339
 6036SOL     OW29743   3.166   2.565   3.533  0.1833  0.3607 -0.5424
 6036SOL    HW129744   3.185   2.472   3.541  1.4986  0.8528  2.1431
 6036SOL    HW229745   3.107   2.560   3.457  0.6354  0.3698 -0.8935
 6037SOL     OW29746   4.482   3.012   5.765  0.0798  0.4954 -0.2242
 6037SOL    HW129747   4.463   2.925   5.801  0.3038  0.8363  0.7173
 6037SOL    HW229748   4.493   2.992   5.672 -0.0415 -2.3805  0.3638
 6038SOL     OW29749   3.154   4.178   7.213  0.1973  0.3912  0.4538
 6038SOL    HW129750   3.095   4.111   7.179  0.9627 -1.0241  1.9333
 6038SOL    HW229751   3.229   4.125   7.241  0.1276 -0.3423 -0.7283
 6039SOL     OW29752   2.456   0.614   1.434  0.2781  0.6014 -0.2618
 6039SOL    HW129753   2.363   0.594   1.426  0.7276 -0.9602 -1.5782
 6039SOL    HW229754   2.471   0.657   1.349 -0.6230  0.1030 -0.6743
 6040SOL     OW29755   3.358   1.797  12.601  0.1108  0.8265 -1.0378
 6040SOL    HW129756   3.274   1.804  12.555 -0.3696  1.5484 -0.0521
 6040SOL    HW229757   3.406   1.777  12.521  0.3114 -0.3175 -0.6244
 6041SOL     OW29758   1.309   2.243   6.232  0.7584  0.0387 -0.3999
 6041SOL    HW129759   1.288   2.233   6.325 -0.0704 -0.8997 -0.6858
 6041SOL    HW229760   1.404   2.245   6.245  0.9936  1.3359 -2.4066
 6042SOL     OW29761   3.498   4.300  13.738 -0.3349  0.5025  0.1345
 6042SOL    HW129762   3.513   4.266  13.649 -0.7036 -0.5957  0.4913
 6042SOL    HW229763   3.418   4.253  13.762 -1.2257  1.4786 -0.9197
 6043SOL     OW29764   4.579   3.371   3.401 -0.2404 -0.1837  0.0719
 6043SOL    HW129765   4.637   3.297   3.420  0.1221 -0.3671 -1.7096
 6043SOL    HW229766   4.643   3.440   3.380  0.9869 -2.0877 -2.4540
 6044SOL     OW29767   4.487   2.620   1.647 -0.1313  0.5037  0.1574
 6044SOL    HW129768   4.523   2.545   1.600 -1.3870 -0.3156  0.5029
 6044SOL    HW229769   4.408   2.593   1.693  0.4026 -0.8166  0.2724
 6045SOL     OW29770   1.052   1.856   7.793  0.5096  0.0968 -0.5758
 6045SOL    HW129771   1.104   1.776   7.804  1.3147  0.8933  1.5827
 6045SOL    HW229772   1.053   1.862   7.698 -0.1887 -1.1610 -0.6626
 6046SOL     OW29773   1.324   4.648   5.901 -0.2332  0.3331  0.0344
 6046SOL    HW129774   1.273   4.584   5.852  1.7065  0.9297 -2.7665
 6046SOL    HW229775   1.387   4.600   5.955 -0.5257  0.4133  0.4527
 6047SOL     OW29776   3.941   2.467   4.680  0.1662  0.1943  0.5121
 6047SOL    HW129777   4.016   2.450   4.624  1.0512 -0.9746  2.0618
 6047SOL    HW229778   3.887   2.391   4.658  1.5752 -0.3097 -1.1737
 6048SOL     OW29779   1.086   0.927   4.768 -0.5164  0.5828  0.2230
 6048SOL    HW129780   1.109   0.941   4.676 -1.7942 -1.6151 -0.4413
 6048SOL    HW229781   1.173   0.914   4.806  0.2774  0.9460 -1.4666
 6049SOL     OW29782   3.778   3.786  14.477  0.3320 -0.4716  0.0526
 6049SOL    HW129783   3.737   3.763  14.394  1.3547 -1.8960 -0.0661
 6049SOL    HW229784   3.708   3.791  14.542  0.3129 -0.4560  0.0304
 6050SOL     OW29785   2.805   3.603   5.277  0.3588  0.6150 -0.4348
 6050SOL    HW129786   2.888   3.558   5.260 -0.6317 -0.9347 -1.1517
 6050SOL    HW229787   2.749   3.538   5.319 -0.6389  1.4867 -0.4401
 6051SOL     OW29788   3.705   4.329   3.226  0.0506 -0.0201  0.3406
 6051SOL    HW129789   3.764   4.393   3.266  0.2052 -0.4375  0.7805
 6051SOL    HW229790   3.693   4.266   3.297 -0.5835  0.6986  0.8666
 6052SOL     OW29791   0.060   0.787   6.530  0.1944  0.3046 -0.4995
 6052SOL    HW129792   0.047   0.849   6.458 -0.5979 -1.4901 -1.9000
 6052SOL    HW229793   4.728   0.809   6.587 -1.4003  1.1823 -2.8526
 6053SOL     OW29794   4.224   0.072   9.017 -0.0245 -0.0839 -0.5925
 6053SOL    HW129795   4.152   0.060   9.079  2.4148 -2.2838  1.8028
 6053SOL    HW229796   4.265   4.727   9.007  1.0422  0.6070 -2.1032
 6054SOL     OW29797   3.947   2.341   9.038  0.0163 -0.3576  0.4201
 6054SOL    HW129798   3.994   2.291   9.105  2.6830  0.4676 -0.8526
 6054SOL    HW229799   3.857   2.342   9.070 -0.0413 -0.8871  0.2672
 6055SOL     OW29800   0.994   0.106  17.503  0.2594  0.3871 -0.5737
 6055SOL    HW129801   1.056   0.096  17.430  1.5306  0.1795  0.5294
 6055SOL    HW229802   1.017   0.194  17.534 -1.0676  1.6542 -3.1367
 6056SOL     OW29803   2.469   4.445   2.698  0.0484  0.2124  0.2627
 6056SOL    HW129804   2.521   4.524   2.687 -0.7501  0.6186 -0.5671
 6056SOL    HW229805   2.435   4.460   2.787 -0.6224  0.7781 -0.0898
 6057SOL     OW29806   1.128   4.179   1.875  0.1759 -0.0809 -0.0798
 6057SOL    HW129807   1.052   4.153   1.928 -1.0848  0.8848 -1.3908
 6057SOL    HW229808   1.144   4.095   1.833  0.9338  0.5458 -1.0486
 6058SOL     OW29809   1.787   2.918   5.151 -0.4365 -0.3347 -0.5642
 6058SOL    HW129810   1.785   3.012   5.168  2.0199 -0.2898 -0.5186
 6058SOL    HW229811   1.730   2.911   5.075 -1.0223 -0.4616 -0.1186
 6059SOL     OW29812   2.238   0.786   4.036  0.3236 -0.0845  0.0032
 6059SOL    HW129813   2.316   0.828   3.999  0.0343 -0.1758 -0.7138
 6059SOL    HW229814   2.230   0.717   3.970 -1.4743 -0.8871  1.0706
 6060SOL     OW29815   4.280   2.569   5.182  0.7050  1.0393  0.0766
 6060SOL    HW129816   4.263   2.612   5.098 -0.0797  1.4516  0.4486
 6060SOL    HW229817   4.318   2.485   5.157  1.1293  0.9796  0.9365
 6061SOL     OW29818   4.577   3.075   1.576 -0.5444 -0.4154 -0.4806
 6061SOL    HW129819   4.526   3.007   1.621 -1.0251  0.9488  1.0318
 6061SOL    HW229820   4.512   3.145   1.582  0.8438  0.8145  0.1209
 6062SOL     OW29821   3.749   2.147   0.210  0.0586  0.3290  0.5285
 6062SOL    HW129822   3.689   2.196   0.268  1.2564  0.8992  1.2788
 6062SOL    HW229823   3.691   2.131   0.135  2.6602  1.6782 -1.7556
 6063SOL     OW29824   2.467   4.364   3.622  0.4874  0.1587 -0.2615
 6063SOL    HW129825   2.374   4.342   3.618  0.4346  0.4280 -0.4725
 6063SOL    HW229826   2.480   4.394   3.532 -1.4874  0.2686 -0.5081
 6064SOL     OW29827   2.182   2.195   9.993  0.3950  0.1406 -0.3100
 6064SOL    HW129828   2.240   2.241  10.055  1.0422 -2.4597  1.0226
 6064SOL    HW229829   2.098   2.199  10.040  1.3716 -0.3332  1.4932
 6065SOL     OW29830   3.282   4.538   7.831  0.4234  0.1615 -0.1495
 6065SOL    HW129831   3.258   4.446   7.843  0.7068 -0.0280 -1.0322
 6065SOL    HW229832   3.195   4.578   7.832 -0.3172 -1.4122 -1.6740
 6066SOL     OW29833   4.190   1.278   5.429  0.6220  0.0470  0.2171
 6066SOL    HW129834   4.255   1.321   5.374 -0.9265  2.2128  0.0614
 6066SOL    HW229835   4.113   1.334   5.415  2.1466  1.1827 -3.4471
 6067SOL     OW29836   2.299   2.588   7.185  0.6416  0.6145  0.0774
 6067SOL    HW129837   2.295   2.530   7.109  1.6679  0.1137  0.4104
 6067SOL    HW229838   2.254   2.666   7.152 -2.2342 -0.0378  2.4984
 6068SOL     OW29839   2.138   0.570   4.558  0.1433 -0.0282  0.2319
 6068SOL    HW129840   2.140   0.475   4.551  3.0290 -0.0092  0.7581
 6068SOL    HW229841   2.065   0.583   4.498  1.7591 -0.2144 -1.7738
 6069SOL     OW29842   0.410   0.525   3.792  0.1170  0.1029  0.1002
 6069SOL    HW129843   0.355   0.485   3.860  2.1303  0.4467  1.9530
 6069SOL    HW229844   0.476   0.456   3.778 -0.7848 -0.6300 -0.5082
 6070SOL     OW29845   4.287   3.059  10.525 -0.9491 -0.1806 -0.2716
 6070SOL    HW129846   4.251   3.126  10.584  0.9406  1.3734 -0.8816
 6070SOL    HW229847   4.369   3.105  10.504  0.4062 -2.2829  0.4570
 6071SOL     OW29848   2.373   4.257   2.052 -0.1733 -0.1936 -0.0269
 6071SOL    HW129849   2.362   4.171   2.092 -0.8986 -0.9515 -1.8421
 6071SOL    HW229850   2.421   4.244   1.971 -0.2809  0.4151 -0.1852
 6072SOL     OW29851   3.084   4.248   8.188  0.4660  0.5379  0.1446
 6072SOL    HW129852   3.117   4.245   8.278  1.1581 -1.5816 -0.1645
 6072SOL    HW229853   3.163   4.254   8.135  0.9553 -2.2712  0.5368
 6073SOL     OW29854   2.960   3.590   8.878  0.2519  0.4975 -0.5564
 6073SOL    HW129855   2.969   3.495   8.870  0.6487  0.3813  1.3507
 6073SOL    HW229856   2.956   3.595   8.973 -1.2426 -0.0187 -0.5907
 6074SOL     OW29857   3.083   0.643   7.478 -0.4210 -0.0332  0.4012
 6074SOL    HW129858   3.134   0.563   7.465 -2.5983 -1.4081  0.2249
 6074SOL    HW229859   3.072   0.677   7.390 -0.3931 -0.2305  0.3222
 6075SOL     OW29860   3.993   2.602   2.082  0.1590 -0.1234  0.5506
 6075SOL    HW129861   3.951   2.688   2.078  0.7034  0.1824  1.4246
 6075SOL    HW229862   4.069   2.623   2.137 -0.7162  1.6860  1.0909
 6076SOL     OW29863   1.133   0.505  14.791  0.1151  0.2235 -0.3850
 6076SOL    HW129864   1.040   0.494  14.811  1.0445 -1.3123  2.9410
 6076SOL    HW229865   1.129   0.592  14.750  3.1188  0.0898 -0.9356
 6077SOL     OW29866   3.327   4.539   5.409  0.4786 -0.0911  0.0385
 6077SOL    HW129867   3.325   4.521   5.503  1.9492  1.1977  0.3293
 6077SOL    HW229868   3.234   4.547   5.389  0.2198 -1.8757  0.5448
 6078SOL     OW29869   2.530   0.110  17.004  0.1552  0.2476 -0.0276
 6078SOL    HW129870   2.547   0.083  17.095  0.0186 -0.7528 -0.2908
 6078SOL    HW229871   2.577   0.045  16.953  0.1287 -0.6118  1.0317
 6079SOL     OW29872   3.144   0.592   4.382  0.4917  0.3320  0.6101
 6079SOL    HW129873   3.114   0.672   4.424  0.7627  1.3446 -1.1191
 6079SOL    HW229874   3.222   0.626   4.339  0.3715 -1.7584 -1.2745
 6080SOL     OW29875   2.724   1.518   2.026 -0.1693  0.5016  0.0482
 6080SOL    HW129876   2.817   1.520   2.003  0.3690 -0.2123  2.1258
 6080SOL    HW229877   2.697   1.599   1.983  0.2700 -0.6580 -2.4162
 6081SOL     OW29878   0.809   4.526  11.103  0.1841  0.1899 -0.2544
 6081SOL    HW129879   0.746   4.598  11.109 -0.3741 -0.2184 -1.1220
 6081SOL    HW229880   0.844   4.535  11.191 -3.9326  1.8459  1.1955
 6082SOL     OW29881   3.817   2.925   7.218 -0.6272 -0.6839  0.4795
 6082SOL    HW129882   3.778   2.943   7.304 -0.8317 -2.4518  0.7496
 6082SOL    HW229883   3.867   3.006   7.206 -0.8993 -0.6966 -0.7626
 6083SOL     OW29884   3.988   2.004   7.324  0.0419  0.7727  0.4311
 6083SOL    HW129885   3.909   1.989   7.375  0.5165  2.3068  1.6021
 6083SOL    HW229886   3.968   2.097   7.311  1.2679  0.7793 -1.3816
 6084SOL     OW29887   0.607   4.201   5.427  0.0991 -0.3849 -0.1031
 6084SOL    HW129888   0.575   4.291   5.413  0.8604  0.0666  0.9866
 6084SOL    HW229889   0.701   4.215   5.410 -0.2033 -0.5105 -1.8487
 6085SOL     OW29890   0.302   0.628   7.866  0.0847 -0.0182 -0.5050
 6085SOL    HW129891   0.349   0.551   7.837  1.3523  0.9447 -0.9852
 6085SOL    HW229892   0.365   0.656   7.932 -1.0314  0.0641  0.5271
 6086SOL     OW29893   0.392   1.087   5.927  0.0345  0.6165 -0.3546
 6086SOL    HW129894   0.324   1.155   5.925 -1.6201 -1.0415 -0.0409
 6086SOL    HW229895   0.469   1.139   5.950  0.8406 -1.4653  1.6182
 6087SOL     OW29896   2.094   1.903   6.940  0.1714  0.4103  0.2581
 6087SOL    HW129897   2.179   1.945   6.932 -0.4181  1.1465 -2.2873
 6087SOL    HW229898   2.106   1.832   7.003  1.7827 -0.6234 -1.2407
 6088SOL     OW29899   2.660   2.784   6.069  0.5667 -0.4010 -1.2176
 6088SOL    HW129900   2.676   2.866   6.023  2.1030 -0.5596 -0.9598
 6088SOL    HW229901   2.653   2.723   5.995  2.3712 -1.3065 -0.6241
 6089SOL     OW29902   1.776   3.399   1.934  0.0748  0.8122  0.5736
 6089SOL    HW129903   1.869   3.388   1.915 -0.1152 -1.2703  0.8358
 6089SOL    HW229904   1.755   3.481   1.891 -0.9290  0.8853  1.1911
 6090SOL     OW29905   1.739   4.230   7.406  0.1608 -0.1293  0.5594
 6090SOL    HW129906   1.646   4.215   7.389  0.9700 -1.3726 -2.6829
 6090SOL    HW229907   1.772   4.145   7.433 -0.0718 -0.7240 -1.0183
 6091SOL     OW29908   3.654   1.194   0.517  0.0396 -0.3963 -0.2966
 6091SOL    HW129909   3.661   1.213   0.611  0.5684  1.2956 -0.6799
 6091SOL    HW229910   3.680   1.277   0.478 -0.5501 -0.0082  0.1479
 6092SOL     OW29911   4.387   2.892   1.654 -0.0391 -0.1692 -0.3258
 6092SOL    HW129912   4.341   2.881   1.738  1.8536 -1.3356  0.5628
 6092SOL    HW229913   4.405   2.800   1.632 -0.6735  0.1675 -2.2552
 6093SOL     OW29914   2.797   4.079  12.988  0.6700  0.0100  0.2223
 6093SOL    HW129915   2.884   4.051  13.018  0.1904 -1.5966  0.1505
 6093SOL    HW229916   2.806   4.109  12.898 -1.0176 -3.2047 -1.0268
 6094SOL     OW29917   2.452   1.390   4.438 -0.6362 -0.0889  0.3301
 6094SOL    HW129918   2.507   1.321   4.401  0.8035  1.5790 -0.6216
 6094SOL    HW229919   2.369   1.343   4.445 -2.2449  2.8520  0.8446
 6095SOL     OW29920   0.296   4.419  16.428 -0.4459  0.3601  0.6934
 6095SOL    HW129921   0.281   4.332  16.391  1.4391  1.0253 -1.7215
 6095SOL    HW229922   0.296   4.469  16.346  0.3529 -0.7772 -0.0036
 6096SOL     OW29923   0.281   1.459   3.413  0.9055  0.0012  0.5969
 6096SOL    HW129924   0.291   1.528   3.478 -1.6723 -0.7355  1.7837
 6096SOL    HW229925   0.344   1.394   3.443  1.0872  0.1866  0.6183
 6097SOL     OW29926   4.577   1.022   9.199 -0.1110 -0.0941 -0.1966
 6097SOL    HW129927   4.596   0.941   9.151  0.2609  0.2061 -0.5557
 6097SOL    HW229928   4.669   1.047   9.208 -0.5922  0.7600  2.4331
 6098SOL     OW29929   1.656   4.560   5.210  0.0109  0.0370 -0.4135
 6098SOL    HW129930   1.680   4.641   5.256  0.6086 -0.6123  0.3997
 6098SOL    HW229931   1.569   4.545   5.247 -1.0331  1.6474 -2.2366
 6099SOL     OW29932   2.974   3.638   0.491  0.7294 -0.2329  0.5280
 6099SOL    HW129933   2.938   3.658   0.404 -1.7090  0.6716  1.7353
 6099SOL    HW229934   3.005   3.722   0.524 -0.8443 -0.2103  1.9196
 6100SOL     OW29935   3.079   4.715   1.518 -0.4661  0.2457 -0.2139
 6100SOL    HW129936   3.121   4.656   1.581 -0.7199  0.4685  0.1683
 6100SOL    HW229937   3.142   4.713   1.447 -0.9396 -1.8920 -0.5894
 6101SOL     OW29938   1.138   4.131   9.575  0.0506 -0.7419 -0.2304
 6101SOL    HW129939   1.044   4.127   9.594  0.3209 -0.7389  1.0704
 6101SOL    HW229940   1.165   4.083   9.654  1.6659 -0.3544 -0.5473
 6102SOL     OW29941   0.909   4.568   4.719  1.0529 -0.4091  0.3629
 6102SOL    HW129942   0.834   4.566   4.778 -0.0891  0.1713 -1.0681
 6102SOL    HW229943   0.915   4.476   4.693  0.8058 -0.3242  0.0016
 6103SOL     OW29944   3.968   4.003  16.087  0.0342 -0.5687  0.6620
 6103SOL    HW129945   4.022   3.990  16.009  0.6676 -0.0457  1.0159
 6103SOL    HW229946   4.026   4.060  16.137  0.4900  0.6669 -1.2639
 6104SOL     OW29947   1.207   4.674   5.182 -0.2525 -0.1387  0.1991
 6104SOL    HW129948   1.191   4.701   5.092  1.4995 -2.0091 -0.6702
 6104SOL    HW229949   1.271   4.740   5.206  0.4753 -0.5896 -0.5156
 6105SOL     OW29950   4.642   2.472   5.294  0.2512 -0.4501  0.2420
 6105SOL    HW129951   4.624   2.493   5.202  0.0966  1.1247  0.6289
 6105SOL    HW229952   4.721   2.423   5.272 -0.6456 -1.2283 -1.2567
 6106SOL     OW29953   3.098   2.676   3.102  0.2248  0.1839  0.0064
 6106SOL    HW129954   3.074   2.652   3.192 -1.3741 -0.7256 -0.6564
 6106SOL    HW229955   3.120   2.768   3.117 -2.6971  0.6167  1.6897
 6107SOL     OW29956   2.803   0.054  10.426 -0.0228 -0.1655 -0.7128
 6107SOL    HW129957   2.835   0.108  10.498 -2.3619  1.7280 -1.1130
 6107SOL    HW229958   2.868   4.725  10.418  0.4636 -0.0334  2.0453
 6108SOL     OW29959   3.238   2.274   9.616  0.2997  0.3155 -0.2231
 6108SOL    HW129960   3.292   2.324   9.678 -1.9135  1.3280  0.8980
 6108SOL    HW229961   3.194   2.211   9.673  1.9796 -1.4096 -0.8401
 6109SOL     OW29962   1.753   0.079   8.805  0.3013 -0.3244 -0.2444
 6109SOL    HW129963   1.835   0.118   8.773 -0.5438  1.1649 -0.5840
 6109SOL    HW229964   1.757   4.729   8.773 -0.7277  0.0285 -1.3332
 6110SOL     OW29965   2.628   0.519   0.883  0.0852 -0.2197  0.1740
 6110SOL    HW129966   2.633   0.434   0.839  1.3941 -0.7878  1.4334
 6110SOL    HW229967   2.540   0.550   0.862 -0.5930  0.1530  3.5924
 6111SOL     OW29968   2.618   1.133   5.575  0.0315 -0.1367  0.2891
 6111SOL    HW129969   2.628   1.038   5.577 -0.5741 -0.1869  0.8723
 6111SOL    HW229970   2.624   1.149   5.481 -1.9563 -0.8948  0.0440
 6112SOL     OW29971   2.333   0.180   3.977  0.0502  0.4839 -0.1252
 6112SOL    HW129972   2.269   0.147   4.040  1.1006 -2.7423 -0.7242
 6112SOL    HW229973   2.380   0.100   3.953  1.5589  0.8305  1.6866
 6113SOL     OW29974   2.019   3.271  13.112  0.8160  0.7024 -0.1079
 6113SOL    HW129975   2.048   3.318  13.190 -0.3585  0.6152  0.3682
 6113SOL    HW229976   2.061   3.186  13.125 -1.8320 -0.7330 -0.9366
 6114SOL     OW29977   0.883   4.393   5.845 -0.2483 -0.3421  0.3049
 6114SOL    HW129978   0.805   4.446   5.828 -0.9657 -1.7046 -0.6480
 6114SOL    HW229979   0.855   4.323   5.904 -1.2057 -1.7584 -1.8511
 6115SOL     OW29980   2.003   1.635   6.531  0.6289  0.4355 -0.1630
 6115SOL    HW129981   1.982   1.564   6.592  1.2971  0.0962 -0.3226
 6115SOL    HW229982   2.056   1.689   6.589  0.4432  0.5105 -0.0638
 6116SOL     OW29983   2.378   1.702   9.259 -0.2285 -0.1773  0.2591
 6116SOL    HW129984   2.294   1.747   9.266 -1.0365 -1.7446  0.7431
 6116SOL    HW229985   2.424   1.729   9.338 -0.4344  0.9916 -0.0182
 6117SOL     OW29986   0.584   3.298   9.035  0.5341  0.0970 -0.2357
 6117SOL    HW129987   0.655   3.359   9.053  0.5197  0.2496 -0.7187
 6117SOL    HW229988   0.505   3.344   9.062  0.7284 -0.4021  1.2025
 6118SOL     OW29989   0.397   2.505   8.479 -0.1945 -0.4105  0.0241
 6118SOL    HW129990   0.454   2.486   8.553 -0.4764  1.5377  0.7446
 6118SOL    HW229991   0.454   2.491   8.404 -1.7431 -2.8398 -0.7135
 6119SOL     OW29992   4.218   1.581   4.488  0.4822  0.4625  0.3157
 6119SOL    HW129993   4.184   1.499   4.524  0.1012  0.3208 -0.3547
 6119SOL    HW229994   4.150   1.609   4.427  0.4901 -1.2235 -0.4560
 6120SOL     OW29995   0.332   2.947  16.147  0.1820 -0.1051 -0.4826
 6120SOL    HW129996   0.328   2.874  16.208  1.0987  1.0889  1.0165
 6120SOL    HW229997   0.299   2.908  16.066  0.8649  0.9180 -1.2721
 6121SOL     OW29998   4.730   1.860  10.129  0.3042  0.2628 -0.4062
 6121SOL    HW129999   0.047   1.848  10.204  0.2910  1.0283 -0.2771
 6121SOL    HW230000   4.646   1.843  10.170 -0.4955  2.7816 -1.0079
 6122SOL     OW30001   0.067   3.450   4.566 -0.6659 -0.3847 -0.1493
 6122SOL    HW130002   0.135   3.445   4.634 -1.2763  0.8462  0.5613
 6122SOL    HW230003   0.076   3.367   4.519 -2.9530 -0.2185 -0.9009
 6123SOL     OW30004   0.680   4.093   2.350  0.2381 -0.2937 -0.0494
 6123SOL    HW130005   0.613   4.073   2.415 -0.7658 -1.4518 -1.4151
 6123SOL    HW230006   0.700   4.002   2.327 -0.5487 -0.3313 -0.6159
 6124SOL     OW30007   4.038   0.682  11.891  0.3693  0.6303  0.3467
 6124SOL    HW130008   4.042   0.622  11.966  1.2931 -1.3800 -1.3122
 6124SOL    HW230009   4.069   0.761  11.934 -0.5189  1.0074  0.2957
 6125SOL     OW30010   4.244   0.328   7.986 -0.6475 -0.3953  0.1804
 6125SOL    HW130011   4.307   0.281   7.931  1.2217  0.1171  1.8749
 6125SOL    HW230012   4.270   0.418   7.967  0.2739 -0.9134 -1.0744
 6126SOL     OW30013   3.856   2.156   1.915  0.9084  0.1767 -0.4761
 6126SOL    HW130014   3.827   2.070   1.884  3.3823 -1.0411  0.6299
 6126SOL    HW230015   3.798   2.178   1.988  2.2483  0.9778  0.3527
 6127SOL     OW30016   3.029   2.710  12.542 -0.1720 -0.9712  0.6547
 6127SOL    HW130017   3.053   2.756  12.623  0.4868  0.8897 -0.5786
 6127SOL    HW230018   3.016   2.622  12.578 -1.1018 -1.5135 -1.0438
 6128SOL     OW30019   0.493   2.858   6.490 -0.6425 -0.2210  0.1683
 6128SOL    HW130020   0.413   2.908   6.471 -0.0789  0.5784 -0.0562
 6128SOL    HW230021   0.486   2.799   6.415  0.6465  0.6962 -0.6456
 6129SOL     OW30022   3.331   2.141  13.951 -0.3012 -0.5989  0.1117
 6129SOL    HW130023   3.336   2.132  13.856  0.3141  0.1017  0.0716
 6129SOL    HW230024   3.421   2.172  13.964 -0.1543 -1.3604  0.8969
 6130SOL     OW30025   1.461   4.272   6.346 -0.2137 -0.5782 -0.0931
 6130SOL    HW130026   1.401   4.338   6.381  0.7663  0.0569  0.3931
 6130SOL    HW230027   1.541   4.319   6.322 -0.5476 -1.6982 -3.3815
 6131SOL     OW30028   3.768   4.617   9.512  0.4494  0.1480  0.0862
 6131SOL    HW130029   3.816   4.547   9.558  3.1703  2.1151  0.2531
 6131SOL    HW230030   3.800   4.688   9.568  0.6660  0.9917 -1.1304
 6132SOL     OW30031   2.261   3.183   4.779 -0.5893  0.0547  0.2660
 6132SOL    HW130032   2.305   3.264   4.755 -1.6915  0.6560  0.2615
 6132SOL    HW230033   2.175   3.211   4.811 -0.8114  0.8767 -1.0373
 6133SOL     OW30034   1.061   2.784   9.572 -0.2838  0.2816  0.0109
 6133SOL    HW130035   1.109   2.730   9.635 -0.0194  0.9348  0.3581
 6133SOL    HW230036   1.020   2.717   9.517 -1.3446  0.2167  0.8780
 6134SOL     OW30037   2.657   0.686   8.982  0.1964 -0.7404  0.1529
 6134SOL    HW130038   2.606   0.664   9.060 -1.4372  0.9209 -0.4454
 6134SOL    HW230039   2.600   0.648   8.914  1.6177  2.3967 -2.7974
 6135SOL     OW30040   0.672   2.871   8.952 -0.4138  0.7177 -0.4693
 6135SOL    HW130041   0.701   2.929   9.022 -0.7335  0.8092 -0.4117
 6135SOL    HW230042   0.638   2.797   9.003  1.8583  1.6009  2.3730
 6136SOL     OW30043   0.110   2.326   5.208  0.8039 -0.2945  0.4911
 6136SOL    HW130044   0.197   2.361   5.230  1.0782 -1.2827  1.0038
 6136SOL    HW230045   0.143   2.275   5.134  2.4828  1.3793  0.0724
 6137SOL     OW30046   0.649   3.586   2.507  0.7959 -0.3554  0.0348
 6137SOL    HW130047   0.597   3.516   2.469 -1.0179  0.8859  0.2597
 6137SOL    HW230048   0.661   3.559   2.598 -0.4664 -0.5419  0.1440
 6138SOL     OW30049   0.532   0.674  14.226  0.4206 -0.4096  0.0818
 6138SOL    HW130050   0.506   0.764  14.208  0.4499 -0.3489  0.3359
 6138SOL    HW230051   0.577   0.690  14.309  1.4624  0.9632 -0.7499
 6139SOL     OW30052   3.037   4.310   6.928  0.5758 -0.3918 -0.2241
 6139SOL    HW130053   2.966   4.361   6.966  0.9825 -0.8221  1.1236
 6139SOL    HW230054   3.091   4.382   6.896  0.0432 -0.1243 -0.5263
 6140SOL     OW30055   2.481   0.354   6.552 -0.3570 -0.0827 -0.2002
 6140SOL    HW130056   2.394   0.321   6.532  0.1700 -2.0017  0.6229
 6140SOL    HW230057   2.469   0.442   6.587  0.7836  0.6051 -1.5520
 6141SOL     OW30058   3.468   0.557   9.220  0.1274 -0.2603 -0.0486
 6141SOL    HW130059   3.527   0.619   9.176 -1.2366  0.5134 -0.7817
 6141SOL    HW230060   3.380   0.579   9.190  0.5301  0.6518 -0.5676
 6142SOL     OW30061   3.976   0.760   1.045  0.2566 -0.4291 -0.0855
 6142SOL    HW130062   3.928   0.741   1.126 -1.4665  1.4521 -0.6474
 6142SOL    HW230063   4.058   0.797   1.078 -0.0395 -0.7732  1.0571
 6143SOL     OW30064   4.407   4.650   3.347  0.0293 -0.3064  0.1339
 6143SOL    HW130065   4.465   4.623   3.418  0.1810 -1.6891 -0.5182
 6143SOL    HW230066   4.358   4.569   3.333  0.4808 -0.2403 -1.8105
 6144SOL     OW30067   3.232   2.565   5.067 -0.0904 -0.4836  0.4363
 6144SOL    HW130068   3.284   2.636   5.030 -1.3949  1.2890  2.0497
 6144SOL    HW230069   3.153   2.567   5.012  0.1384  1.2682  0.1818
 6145SOL     OW30070   2.285   2.916  14.588 -0.1720  0.0291  0.2662
 6145SOL    HW130071   2.295   3.011  14.590  0.9865 -0.1254  1.7588
 6145SOL    HW230072   2.193   2.906  14.562  0.1025  2.8188 -1.8039
 6146SOL     OW30073   3.217   4.726   2.327 -0.0177 -0.3096  0.0183
 6146SOL    HW130074   3.191   0.018   2.413 -2.5294 -1.5076 -0.2921
 6146SOL    HW230075   3.209   4.634   2.351 -1.2560  0.0070  0.8002
 6147SOL     OW30076   4.706   2.892   9.459  0.3457  0.3704  0.0742
 6147SOL    HW130077   0.040   2.916   9.405 -0.5559 -0.0218 -1.3616
 6147SOL    HW230078   4.703   2.801   9.427 -2.6409  0.0613  1.1946
 6148SOL     OW30079   3.325   3.175   9.277  0.3194  0.2947  0.1821
 6148SOL    HW130080   3.307   3.114   9.349  0.2653  0.6367  0.4610
 6148SOL    HW230081   3.371   3.241   9.328  0.3161  1.0767 -0.8387
 6149SOL     OW30082   0.242   2.731  10.701  0.4170 -0.2049  0.2870
 6149SOL    HW130083   0.207   2.820  10.705 -2.2876 -1.2330 -0.8876
 6149SOL    HW230084   0.289   2.748  10.620 -0.1323  0.3297  0.0804
 6150SOL     OW30085   3.243   0.858   8.169 -0.3110  0.2777 -0.1118
 6150SOL    HW130086   3.162   0.811   8.149  0.1967 -1.4942  2.1070
 6150SOL    HW230087   3.307   0.790   8.147  1.0812  1.2252  0.9987
 6151SOL     OW30088   4.445   4.154   3.467 -0.2753  0.0988 -0.1842
 6151SOL    HW130089   4.474   4.078   3.516  2.1421  1.6351  0.7409
 6151SOL    HW230090   4.350   4.140   3.474  0.1784 -2.3801  0.9327
 6152SOL     OW30091   0.039   0.202  10.298  0.0388 -0.6252  0.4334
 6152SOL    HW130092   4.713   0.259  10.259 -0.6927 -1.0448  1.0831
 6152SOL    HW230093   0.091   0.276  10.329  0.4983 -1.1773  0.9677
 6153SOL     OW30094   4.227   4.516  15.330 -0.9076 -0.0308  0.4114
 6153SOL    HW130095   4.275   4.597  15.314  1.8655 -1.9378 -0.9301
 6153SOL    HW230096   4.303   4.458  15.342 -1.1893 -0.4526  0.1520
 6154SOL     OW30097   1.003   3.254   9.481  0.8059 -1.0071 -0.2957
 6154SOL    HW130098   1.082   3.208   9.510  1.6386 -0.1817 -1.2662
 6154SOL    HW230099   0.945   3.186   9.445 -0.7938  0.7463 -1.0386
 6155SOL     OW30100   1.934   1.457   7.622  0.0785  0.2949  0.7683
 6155SOL    HW130101   2.008   1.476   7.564  0.7192 -1.4610  1.0279
 6155SOL    HW230102   1.852   1.466   7.573 -0.5623  1.0663  1.9913
 6156SOL     OW30103   1.239   3.414  16.718 -0.0427 -0.7617  0.0759
 6156SOL    HW130104   1.287   3.342  16.679  0.0537 -0.2473 -0.7590
 6156SOL    HW230105   1.271   3.486  16.663 -0.9970  0.6535  1.3956
 6157SOL     OW30106   0.402   3.705   6.240  0.7754  0.1108 -0.2268
 6157SOL    HW130107   0.457   3.628   6.250  0.1140 -0.4854 -1.1582
 6157SOL    HW230108   0.432   3.763   6.310  0.7485 -2.4929  1.9380
 6158SOL     OW30109   1.808   0.861   5.002  0.7590 -0.3149  0.3108
 6158SOL    HW130110   1.835   0.773   4.978 -0.2218 -0.4485 -0.3164
 6158SOL    HW230111   1.802   0.898   4.914 -0.5824 -1.8322 -0.2282
 6159SOL     OW30112   2.417   3.404  14.376  0.2427  0.4037  0.3845
 6159SOL    HW130113   2.512   3.406  14.391 -0.3516  0.7479  4.0484
 6159SOL    HW230114   2.396   3.488  14.417 -0.4808 -0.0620  0.9849
 6160SOL     OW30115   0.508   1.592   0.466  0.3970  0.4551  0.3547
 6160SOL    HW130116   0.462   1.635   0.394 -3.0375 -0.5692  1.9201
 6160SOL    HW230117   0.538   1.513   0.422  1.4752  0.4525  1.1186
 6161SOL     OW30118   3.805   2.066  10.162  0.3622  0.0549 -0.3467
 6161SOL    HW130119   3.713   2.088  10.172  0.2604 -0.5420  0.0251
 6161SOL    HW230120   3.807   1.972  10.143  1.7782  0.1230 -0.5874
 6162SOL     OW30121   2.326   1.823   5.502  0.2655 -0.1586  0.1043
 6162SOL    HW130122   2.363   1.835   5.414 -1.3477 -0.5636 -0.6318
 6162SOL    HW230123   2.234   1.814   5.475 -0.7762  0.2052  3.6401
 6163SOL     OW30124   2.073   2.729   3.205  0.6128  0.1158 -0.3556
 6163SOL    HW130125   2.004   2.767   3.150  1.5542 -2.9636 -3.7235
 6163SOL    HW230126   2.019   2.675   3.262  0.2836  2.4632  1.5470
 6164SOL     OW30127   0.873   0.115  11.497 -0.2438  0.2234 -0.0750
 6164SOL    HW130128   0.963   0.085  11.503 -0.6395 -1.1361 -0.9667
 6164SOL    HW230129   0.828   0.038  11.531 -2.6756  0.9599 -1.5768
 6165SOL     OW30130   3.756   3.139   4.138  0.2240 -0.2262  0.2990
 6165SOL    HW130131   3.669   3.133   4.176 -1.1201 -0.7902 -2.8817
 6165SOL    HW230132   3.791   3.054   4.164 -1.5166 -0.8763  0.5068
 6166SOL     OW30133   0.656   0.804   6.857 -0.8296 -0.2734 -0.1916
 6166SOL    HW130134   0.679   0.775   6.946 -1.8783 -0.2522  0.0803
 6166SOL    HW230135   0.562   0.785   6.859 -0.5540 -1.6853 -0.3966
 6167SOL     OW30136   1.481   4.673  15.290 -0.6294  0.3392  0.3434
 6167SOL    HW130137   1.504   4.726  15.366 -1.6812 -0.4429  1.2139
 6167SOL    HW230138   1.543   4.602  15.303 -0.9104 -0.1601 -1.0357
 6168SOL     OW30139   4.070   0.475  10.949  0.0894  0.0426 -0.0355
 6168SOL    HW130140   3.991   0.527  10.936  0.3210  0.5278  0.5182
 6168SOL    HW230141   4.131   0.540  10.984 -0.9777  0.6256  0.7218
 6169SOL     OW30142   2.410   0.930   9.405 -0.3493 -0.9166  0.2646
 6169SOL    HW130143   2.481   0.874   9.372 -2.2130 -3.0346 -0.1424
 6169SOL    HW230144   2.332   0.875   9.396  0.7045 -2.0293 -2.0114
 6170SOL     OW30145   0.157   2.012   7.948  0.2079  0.5824  0.3684
 6170SOL    HW130146   0.063   2.019   7.963 -0.2314 -2.1876 -1.1176
 6170SOL    HW230147   0.196   2.035   8.032  3.1712  0.3644 -0.9328
 6171SOL     OW30148   1.749   1.574   8.284  0.2165  0.1894 -0.0933
 6171SOL    HW130149   1.780   1.642   8.225  0.7418  0.1281  0.1054
 6171SOL    HW230150   1.828   1.533   8.321  0.9139  1.2059 -0.4533
 6172SOL     OW30151   0.768   4.432   4.231  0.1047  0.1198  0.3255
 6172SOL    HW130152   0.813   4.350   4.211 -2.0092 -1.2319  1.0207
 6172SOL    HW230153   0.725   4.444   4.146 -1.8793  0.0449  1.3185
 6173SOL     OW30154   4.242   1.631   9.227 -0.0956 -0.1932 -0.2508
 6173SOL    HW130155   4.289   1.600   9.304  0.2539  0.2694 -0.2786
 6173SOL    HW230156   4.157   1.589   9.240 -0.8820  1.1891 -0.8786
 6174SOL     OW30157   4.285   3.510   6.194  0.3708  0.0826 -0.2468
 6174SOL    HW130158   4.252   3.432   6.150 -0.5501  0.3741 -0.0824
 6174SOL    HW230159   4.376   3.494   6.171  0.0636 -2.6664  0.4869
 6175SOL     OW30160   3.729   0.393   8.658  0.0269 -0.0528  0.3408
 6175SOL    HW130161   3.684   0.421   8.738  0.3052 -0.0490  0.4941
 6175SOL    HW230162   3.675   0.424   8.585  0.0509  0.4063  0.5214
 6176SOL     OW30163   4.354   3.247  14.305  0.0175  0.5399  0.0863
 6176SOL    HW130164   4.364   3.155  14.329 -3.2301  0.1002 -0.2842
 6176SOL    HW230165   4.403   3.295  14.372  2.9027 -3.6955  0.9850
 6177SOL     OW30166   3.291   1.790   8.381  0.3100  0.0167  0.4158
 6177SOL    HW130167   3.347   1.790   8.458  0.8681  0.6564  0.0001
 6177SOL    HW230168   3.244   1.873   8.384 -1.1421 -0.8075  1.0101
 6178SOL     OW30169   3.864   4.247  10.502  0.0043 -0.0088  0.4593
 6178SOL    HW130170   3.938   4.188  10.487 -0.1553  0.8625 -3.7827
 6178SOL    HW230171   3.794   4.219  10.443  0.1998  1.0390 -0.2649
 6179SOL     OW30172   3.609   2.580   1.561  0.1829 -0.4438 -0.3222
 6179SOL    HW130173   3.673   2.560   1.629 -1.8227 -0.9724  1.4247
 6179SOL    HW230174   3.580   2.668   1.586  0.5546 -0.3504 -0.2121
 6180SOL     OW30175   2.533   2.674  16.543 -0.3397  0.4580  0.3718
 6180SOL    HW130176   2.622   2.654  16.574 -0.4496  0.4341  0.6693
 6180SOL    HW230177   2.552   2.766  16.523 -2.9565  1.2052  1.3674
 6181SOL     OW30178   2.536   3.739   0.097 -0.1296  0.1913 -0.0844
 6181SOL    HW130179   2.450   3.734   0.054 -0.3532 -0.0769  0.3851
 6181SOL    HW230180   2.514   3.742   0.191  1.6514 -0.3424  0.3351
 6182SOL     OW30181   1.383   2.896  17.736 -0.0742 -0.4250  0.6119
 6182SOL    HW130182   1.364   2.822   0.033  0.9275 -0.6193  0.7007
 6182SOL    HW230183   1.459   2.866  17.685 -0.3541 -0.5762  0.2801
 6183SOL     OW30184   1.150   1.855   2.394  0.0238 -0.5492 -0.5955
 6183SOL    HW130185   1.237   1.830   2.423 -0.9694 -1.6508  1.4150
 6183SOL    HW230186   1.159   1.850   2.299 -2.3419 -1.4081 -0.7659
 6184SOL     OW30187   2.825   1.581  10.155 -0.3514 -0.7071  0.0284
 6184SOL    HW130188   2.908   1.585  10.202 -1.0351  0.4378  1.1427
 6184SOL    HW230189   2.774   1.521  10.209  0.0848  0.6226  1.9140
 6185SOL     OW30190   0.302   0.866  14.127 -0.3243  0.1060 -0.0973
 6185SOL    HW130191   0.347   0.939  14.168 -0.6052 -0.5547  1.3879
 6185SOL    HW230192   0.251   0.838  14.203  1.2249 -0.0788  0.8673
 6186SOL     OW30193   4.505   1.365  11.241  0.2667  0.1399  0.0418
 6186SOL    HW130194   4.431   1.360  11.301  1.6226  0.5847  1.7375
 6186SOL    HW230195   4.469   1.347  11.154  0.6486 -1.2136  0.1695
 6187SOL     OW30196   4.167   1.884   9.785 -0.6674 -0.0732  0.5215
 6187SOL    HW130197   4.164   1.802   9.833 -1.8716  0.5205  1.4693
 6187SOL    HW230198   4.130   1.937   9.856 -0.7845  0.1030  0.3303
 6188SOL     OW30199   0.962   3.843  17.186 -0.1651 -0.2471 -0.3614
 6188SOL    HW130200   1.008   3.822  17.267  0.1296  2.0228  0.0523
 6188SOL    HW230201   0.967   3.762  17.135  1.6106 -0.5004  0.2064
 6189SOL     OW30202   2.029   0.113  12.034 -0.4838 -1.0465 -0.1810
 6189SOL    HW130203   2.113   0.153  12.055 -0.8050 -0.9554  0.9279
 6189SOL    HW230204   2.033   0.116  11.938  0.5748  1.2975 -0.0609
 6190SOL     OW30205   1.393   1.463   3.252 -0.2326  0.3769  0.2962
 6190SOL    HW130206   1.475   1.495   3.214 -1.1198  1.1562 -0.9423
 6190SOL    HW230207   1.371   1.400   3.184  0.2640 -1.0379  1.4198
 6191SOL     OW30208   4.440   1.883   7.461 -0.0564  0.2170  0.0961
 6191SOL    HW130209   4.357   1.874   7.509 -0.6407 -1.1492 -1.1412
 6191SOL    HW230210   4.425   1.965   7.414  0.2039 -0.4357 -1.1195
 6192SOL     OW30211   4.057   0.586   3.671 -0.3004 -0.2020  0.7913
 6192SOL    HW130212   4.060   0.677   3.640 -2.7572 -1.3366 -2.7257
 6192SOL    HW230213   3.971   0.586   3.713 -0.6099 -0.9941  0.1641
 6193SOL     OW30214   2.212   4.552  16.595 -0.3872 -0.1084 -0.1649
 6193SOL    HW130215   2.179   4.465  16.614 -2.1747  0.1406 -2.0485
 6193SOL    HW230216   2.143   4.603  16.638  0.7083  1.1514  0.0879
 6194SOL     OW30217   3.556   4.101  13.255 -0.0052 -0.0333  0.4736
 6194SOL    HW130218   3.594   4.177  13.210 -0.6720  0.9740  1.5909
 6194SOL    HW230219   3.633   4.046  13.242 -2.2004 -2.9879  0.0920
 6195SOL     OW30220   0.486   1.627   5.408 -0.6032  0.2822 -0.3609
 6195SOL    HW130221   0.481   1.548   5.353  1.0551 -0.0785  0.0175
 6195SOL    HW230222   0.409   1.672   5.375 -0.5742 -0.5293 -1.5253
 6196SOL     OW30223   0.603   2.108   4.718  0.1713 -0.8757 -0.8909
 6196SOL    HW130224   0.637   2.059   4.793 -0.4754 -1.2623 -0.8476
 6196SOL    HW230225   0.525   2.058   4.694 -0.5097  0.2266 -0.9878
 6197SOL     OW30226   0.367   1.736   1.923 -0.1929 -0.0345 -0.0541
 6197SOL    HW130227   0.296   1.678   1.950 -0.2917  0.1589  0.0970
 6197SOL    HW230228   0.414   1.678   1.863  0.9837 -0.5427  1.3717
 6198SOL     OW30229   0.540   3.367   2.383  0.0666 -0.4608 -0.0702
 6198SOL    HW130230   0.575   3.367   2.295  0.6353  0.9531  0.1660
 6198SOL    HW230231   0.583   3.297   2.432 -0.5073 -1.2627 -0.7107
 6199SOL     OW30232   0.397   2.459   7.413  0.1697  0.1702  0.1264
 6199SOL    HW130233   0.309   2.483   7.443 -0.3536  2.2294 -3.0281
 6199SOL    HW230234   0.428   2.549   7.398 -0.9879  0.7456  1.1205
 6200SOL     OW30235   0.237   1.923   6.720 -0.3786 -0.4892  0.3212
 6200SOL    HW130236   0.146   1.901   6.699 -0.6050  2.1741 -1.4921
 6200SOL    HW230237   0.287   1.870   6.658  1.9802  0.3108  1.5754
 6201SOL     OW30238   0.678   0.951   4.244  0.7146  0.1011  0.3134
 6201SOL    HW130239   0.733   0.983   4.316  3.3576 -2.0976 -0.7457
 6201SOL    HW230240   0.594   0.987   4.272  0.8677  0.7564 -0.0717
 6202SOL     OW30241   1.862   1.307   0.121  0.3519  0.5851  0.2083
 6202SOL    HW130242   1.848   1.365   0.195 -0.3123 -0.7644  1.1242
 6202SOL    HW230243   1.949   1.268   0.134 -1.2428 -3.0962  0.0020
 6203SOL     OW30244   0.914   0.375  15.196 -0.3551 -0.0730  0.1312
 6203SOL    HW130245   0.949   0.288  15.212  1.0879  0.1139 -1.8605
 6203SOL    HW230246   0.942   0.413  15.279 -3.8004  0.3605  1.0766
 6204SOL     OW30247   3.290   0.867   8.723 -0.0557  0.3727 -0.1504
 6204SOL    HW130248   3.378   0.833   8.709 -1.3154 -2.0351 -2.4529
 6204SOL    HW230249   3.296   0.899   8.812  2.5263 -1.3041  0.2579
 6205SOL     OW30250   2.207   2.388   9.032 -0.2720  0.1945 -0.3292
 6205SOL    HW130251   2.159   2.431   8.962 -2.9010 -0.8538  0.8118
 6205SOL    HW230252   2.265   2.351   8.965 -0.2348 -1.0263  0.3662
 6206SOL     OW30253   3.697   2.017   2.591  0.3469  0.1695  0.1171
 6206SOL    HW130254   3.713   1.981   2.504 -3.0415 -2.3768  0.5787
 6206SOL    HW230255   3.604   2.035   2.577  0.2416  1.1567  2.0567
 6207SOL     OW30256   2.737   4.110   1.523 -0.7100 -0.0423  0.3946
 6207SOL    HW130257   2.644   4.112   1.543 -0.3564  1.6627  1.8764
 6207SOL    HW230258   2.760   4.028   1.567 -1.9943 -0.3639  0.4540
 6208SOL     OW30259   3.121   3.757  15.734  0.0141 -0.0501  0.4639
 6208SOL    HW130260   3.095   3.727  15.820 -0.7979  0.1865  0.2992
 6208SOL    HW230261   3.192   3.695  15.714  0.2699  0.4051 -0.0577
 6209SOL     OW30262   3.274   3.606   3.868  0.5562 -0.4536 -0.4804
 6209SOL    HW130263   3.299   3.530   3.815  1.4221 -0.4354 -0.1040
 6209SOL    HW230264   3.285   3.574   3.958  1.4063  1.4557  0.0864
 6210SOL     OW30265   0.165   2.424  11.704  0.7753  0.4574  0.2338
 6210SOL    HW130266   0.166   2.520  11.705  0.5831  0.4730 -1.7935
 6210SOL    HW230267   0.153   2.413  11.610 -0.7115 -0.5850  0.5468
 6211SOL     OW30268   2.060   3.960   4.295 -0.1960 -0.5588 -0.2231
 6211SOL    HW130269   1.991   3.968   4.229 -0.5350  0.3654  0.2452
 6211SOL    HW230270   2.076   3.866   4.283 -0.8688 -0.4687 -1.7650
 6212SOL     OW30271   1.601   3.501   9.754 -0.5655  0.6086 -0.4943
 6212SOL    HW130272   1.600   3.463   9.666  0.8453  0.3171 -0.3809
 6212SOL    HW230273   1.617   3.592   9.728  1.0060 -0.1116 -2.0035
 6213SOL     OW30274   0.823   4.730   1.862 -0.5520  0.4538 -0.2592
 6213SOL    HW130275   0.876   0.001   1.940 -1.1025 -0.7536  0.2979
 6213SOL    HW230276   0.737   4.711   1.899  0.0264 -1.1340  0.2853
 6214SOL     OW30277   3.677   2.148   4.089 -0.0474 -0.0269 -0.0784
 6214SOL    HW130278   3.609   2.152   4.022 -0.8769 -3.6819  0.5215
 6214SOL    HW230279   3.704   2.239   4.080  0.2960  0.1071  2.1482
 6215SOL     OW30280   3.867   1.493   3.345  0.1846  0.4437  0.1881
 6215SOL    HW130281   3.922   1.555   3.297 -1.4171  0.8440 -1.1243
 6215SOL    HW230282   3.894   1.516   3.434  0.5443  0.0367  0.1842
 6216SOL     OW30283   0.328   4.707   5.183 -0.1304 -0.0357 -0.2435
 6216SOL    HW130284   0.259   4.646   5.156  0.4992 -0.9869  0.2874
 6216SOL    HW230285   0.287   4.739   5.263  0.3648  2.4825 -1.0098
 6217SOL     OW30286   3.103   3.370   9.373  0.1625  0.7613  0.2862
 6217SOL    HW130287   3.071   3.362   9.463  2.8369  2.1682  1.3521
 6217SOL    HW230288   3.142   3.284   9.353  0.5982  1.0223  0.0246
 6218SOL     OW30289   1.523   3.740  10.995  0.1743 -0.0692 -0.1456
 6218SOL    HW130290   1.590   3.808  10.990 -1.3425  1.5288  1.3658
 6218SOL    HW230291   1.518   3.713  11.087 -1.6113  0.4079 -0.0975
 6219SOL     OW30292   1.863   2.349   8.198 -0.3063 -0.2447 -0.2351
 6219SOL    HW130293   1.894   2.260   8.217  2.3667  0.4427 -1.2963
 6219SOL    HW230294   1.798   2.370   8.265 -1.0384 -1.1655 -0.6460
 6220SOL     OW30295   3.021   2.972   5.455 -0.2147  0.4416 -0.3176
 6220SOL    HW130296   3.073   2.923   5.392  0.8127  2.0167 -0.6899
 6220SOL    HW230297   3.067   2.958   5.538  2.6286 -0.0218 -1.9844
 6221SOL     OW30298   2.613   1.775   7.269 -0.6204  0.2157  0.5290
 6221SOL    HW130299   2.618   1.832   7.345  0.7279  0.2530  0.4159
 6221SOL    HW230300   2.672   1.705   7.294 -0.4006  0.1480 -0.1600
 6222SOL     OW30301   1.823   4.605   2.988  0.0736 -0.4529  0.1488
 6222SOL    HW130302   1.828   4.560   2.903 -2.4236 -0.1305 -0.1866
 6222SOL    HW230303   1.767   4.674   2.952 -2.2682 -2.2909  0.2853
 6223SOL     OW30304   2.910   4.369   2.537  0.5555 -0.3187 -0.2554
 6223SOL    HW130305   2.878   4.391   2.625 -1.0648 -1.3940 -0.5648
 6223SOL    HW230306   2.829   4.366   2.485  1.8086 -1.3153 -2.1510
 6224SOL     OW30307   2.275   1.384   6.203  0.4235 -0.5645  0.2234
 6224SOL    HW130308   2.245   1.308   6.153 -0.9189 -0.4438  0.8587
 6224SOL    HW230309   2.191   1.410   6.241 -0.2531 -4.5114  1.4533
 6225SOL     OW30310   2.342   0.197   0.370 -0.3206  0.4584 -0.2120
 6225SOL    HW130311   2.412   0.180   0.307 -0.5408 -1.5131  0.1014
 6225SOL    HW230312   2.264   0.175   0.318 -0.7087  1.4568 -0.0667
 6226SOL     OW30313   2.329   2.479  16.629 -0.2652 -0.4105  0.6050
 6226SOL    HW130314   2.366   2.426  16.559  1.5183 -0.6228  1.6797
 6226SOL    HW230315   2.398   2.546  16.625 -0.7437  0.0940  0.8863
 6227SOL     OW30316   3.461   1.189   2.951 -0.5245 -0.2036 -0.6091
 6227SOL    HW130317   3.451   1.145   2.866 -2.7379 -0.2483 -0.3287
 6227SOL    HW230318   3.419   1.270   2.921 -1.3111 -0.2680  0.3070
 6228SOL     OW30319   3.959   2.618   3.643 -0.1223 -0.0884 -0.2397
 6228SOL    HW130320   3.923   2.686   3.700  0.3521 -0.1775  0.1755
 6228SOL    HW230321   3.927   2.656   3.561  1.0489 -2.1985 -1.6581
 6229SOL     OW30322   2.392   2.884   0.429  0.1430  0.7880 -0.0863
 6229SOL    HW130323   2.331   2.958   0.421 -0.4582  0.1546 -1.4115
 6229SOL    HW230324   2.336   2.807   0.438 -0.0173  0.8412 -0.6034
 6230SOL     OW30325   0.674   3.890  15.238  0.2911 -0.6493 -0.6112
 6230SOL    HW130326   0.579   3.880  15.230  0.0037  1.1103  0.6021
 6230SOL    HW230327   0.685   3.897  15.143 -1.1502  1.2352 -0.6348
 6231SOL     OW30328   1.238   2.813   0.291 -0.6447 -0.2114 -0.4026
 6231SOL    HW130329   1.281   2.858   0.363 -2.7193 -0.7409  1.1487
 6231SOL    HW230330   1.313   2.774   0.246 -1.6317 -1.2730 -1.1107
 6232SOL     OW30331   3.239   3.359  13.928  0.1589  0.1309  0.0319
 6232SOL    HW130332   3.256   3.281  13.875  0.7784  0.2565  0.0482
 6232SOL    HW230333   3.321   3.368  13.976 -0.3834 -1.1636  1.1956
 6233SOL     OW30334   2.102   2.200  13.629  0.9079  0.5141  0.2092
 6233SOL    HW130335   2.154   2.220  13.552 -1.4748 -1.2694 -1.8458
 6233SOL    HW230336   2.045   2.131  13.596 -0.2890  2.0522 -0.9223
 6234SOL     OW30337   3.994   0.636  11.340 -0.0083 -0.3291 -0.4022
 6234SOL    HW130338   3.930   0.668  11.404 -1.0349 -0.5271 -1.3282
 6234SOL    HW230339   4.078   0.656  11.381 -0.4148 -2.0427  1.2890
 6235SOL     OW30340   1.235   3.565   4.801 -0.0713  0.2503 -0.1671
 6235SOL    HW130341   1.297   3.598   4.736 -0.7563  1.3435 -0.2613
 6235SOL    HW230342   1.208   3.476   4.778 -0.6284 -0.0499  1.6642
 6236SOL     OW30343   0.457   0.189   4.622  0.0501  0.4520  0.7150
 6236SOL    HW130344   0.489   0.250   4.687 -2.1082  1.1760  1.0864
 6236SOL    HW230345   0.468   0.232   4.537 -1.7945  0.1428  0.3134
 6237SOL     OW30346   2.900   3.831   5.405  0.6930 -0.3055  1.0522
 6237SOL    HW130347   2.835   3.761   5.406  0.5293 -0.1637  0.2617
 6237SOL    HW230348   2.917   3.828   5.310 -4.3301 -0.5305  0.1727
 6238SOL     OW30349   1.087   0.653   2.022 -0.1300 -0.1479  0.2248
 6238SOL    HW130350   1.016   0.668   2.086 -2.2101  1.2721 -2.4412
 6238SOL    HW230351   1.129   0.738   2.025 -0.5387  0.1212 -1.7333
 6239SOL     OW30352   4.031   1.444   8.436  0.3587  0.1500  0.4018
 6239SOL    HW130353   4.066   1.451   8.348 -1.1850  0.3424 -0.1900
 6239SOL    HW230354   4.098   1.391   8.479  0.3034 -1.7630 -1.8791
 6240SOL     OW30355   4.356   4.535   8.051 -0.1975  0.1245 -0.5738
 6240SOL    HW130356   4.283   4.572   8.101 -0.3899 -0.5107 -0.3864
 6240SOL    HW230357   4.318   4.450   8.029 -1.3531  0.3497  0.5553
 6241SOL     OW30358   2.352   0.881   6.212 -0.0403 -0.1519 -0.7230
 6241SOL    HW130359   2.420   0.828   6.254 -0.5442 -0.1582  0.0894
 6241SOL    HW230360   2.337   0.955   6.271 -2.3362 -1.6855  0.6310
 6242SOL     OW30361   4.191   2.466   3.727 -0.3659 -0.2862 -0.0580
 6242SOL    HW130362   4.230   2.408   3.661 -2.1599 -1.2805 -0.2604
 6242SOL    HW230363   4.116   2.504   3.680  0.5335  0.8546 -0.5732
 6243SOL     OW30364   0.555   0.641   8.743  0.1347  0.0107  0.2610
 6243SOL    HW130365   0.615   0.606   8.808  0.7654  0.2000 -0.2251
 6243SOL    HW230366   0.550   0.563   8.687  0.7579  0.3976 -0.3180
 6244SOL     OW30367   0.677   1.585  16.919 -0.3723 -0.1772  0.5626
 6244SOL    HW130368   0.611   1.517  16.905  1.4809 -2.0569  0.9918
 6244SOL    HW230369   0.620   1.647  16.964 -1.6357 -1.1917  0.3519
 6245SOL     OW30370   1.302   4.578  13.812  0.4907  0.3711  0.2189
 6245SOL    HW130371   1.211   4.572  13.843 -0.1846  1.9702 -1.4628
 6245SOL    HW230372   1.286   4.643  13.744  1.6332 -1.6281 -1.9518
 6246SOL     OW30373   4.340   1.102   9.604 -0.6224 -0.1234  0.0632
 6246SOL    HW130374   4.319   1.192   9.629 -0.7992 -0.0915 -0.1952
 6246SOL    HW230375   4.414   1.124   9.547  0.7397 -0.1172  1.8347
 6247SOL     OW30376   0.470   2.854   2.073 -0.1488  0.9155 -0.0694
 6247SOL    HW130377   0.380   2.873   2.049 -0.6123 -1.6439 -0.2640
 6247SOL    HW230378   0.500   2.808   1.995  0.2167 -0.2773  0.7795
 6248SOL     OW30379   3.908   3.890   9.183 -0.6137 -0.0244 -0.0193
 6248SOL    HW130380   3.864   3.826   9.128  1.1415  1.1417 -2.7628
 6248SOL    HW230381   3.882   3.974   9.143  1.0533  0.3500 -0.3288
 6249SOL     OW30382   1.049   2.130   1.481 -0.0359 -0.4469  0.2885
 6249SOL    HW130383   0.991   2.127   1.405 -0.6462  0.7276  0.7109
 6249SOL    HW230384   1.085   2.218   1.477  0.7557 -0.7768  0.1795
 6250SOL     OW30385   0.068   3.526   0.375  0.6702  0.1351  0.0211
 6250SOL    HW130386   4.733   3.549   0.322  1.5036  2.9855  0.0361
 6250SOL    HW230387   0.127   3.601   0.370  1.4053 -0.4438  0.1085
 6251SOL     OW30388   0.782   4.037  12.204  0.8630 -0.3540  0.0743
 6251SOL    HW130389   0.748   4.125  12.194  1.0782 -0.1828  0.8147
 6251SOL    HW230390   0.875   4.059  12.206  0.8237 -0.2365  0.7202
 6252SOL     OW30391   3.510   3.976   4.589 -0.2920  0.3828  0.5315
 6252SOL    HW130392   3.573   3.964   4.518 -0.7428  0.6577  0.0875
 6252SOL    HW230393   3.558   4.022   4.658 -0.9005  2.3555 -0.3627
 6253SOL     OW30394   0.733   0.160   4.906  0.1314 -0.4265  0.6675
 6253SOL    HW130395   0.810   0.105   4.919  1.4938  1.1734 -0.5041
 6253SOL    HW230396   0.662   0.116   4.952 -0.9914 -1.6287 -2.1835
 6254SOL     OW30397   0.423   3.214  12.673  0.0252  0.3449 -0.1903
 6254SOL    HW130398   0.389   3.230  12.585  2.7627  1.0259 -1.1184
 6254SOL    HW230399   0.494   3.277  12.688 -0.3022  1.0314 -1.5670
 6255SOL     OW30400   4.640   0.999   4.164 -0.5398  0.0866 -0.0248
 6255SOL    HW130401   4.730   0.998   4.132 -0.2546 -0.7050  0.7842
 6255SOL    HW230402   4.649   1.069   4.228 -3.0028 -0.8562  1.3707
 6256SOL     OW30403   4.545   0.772  11.377 -0.2094  0.1390 -0.7657
 6256SOL    HW130404   4.607   0.844  11.366 -0.7083  0.5331 -0.9926
 6256SOL    HW230405   4.585   0.699  11.329  1.4082  0.3250  0.2873
 6257SOL     OW30406   4.505   1.891  10.638 -0.0364  0.7393 -0.5018
 6257SOL    HW130407   4.582   1.898  10.694  1.5703 -1.7875 -2.3760
 6257SOL    HW230408   4.455   1.962  10.678 -0.0356  0.3379  0.1986
 6258SOL     OW30409   2.275   0.260  12.026 -0.2173  0.0605 -0.2908
 6258SOL    HW130410   2.241   0.327  12.086  2.3205 -0.3191  1.5621
 6258SOL    HW230411   2.330   0.298  11.958 -1.9001  1.8700 -0.6637
 6259SOL     OW30412   2.876   4.688   3.932  0.0274  0.3161 -0.5150
 6259SOL    HW130413   2.813   4.621   3.905 -0.0639  0.0841  0.2800
 6259SOL    HW230414   2.812   0.018   3.925  1.2981  1.7293  2.4646
 6260SOL     OW30415   1.192   2.550   5.096  0.5709  0.5595  0.8415
 6260SOL    HW130416   1.198   2.637   5.057  1.4262  0.4057  0.6265
 6260SOL    HW230417   1.230   2.568   5.183 -0.3197 -0.7985  1.5012
 6261SOL     OW30418   2.971   4.199  14.660 -0.4716 -0.0088 -0.0190
 6261SOL    HW130419   3.042   4.185  14.598  1.3978  0.3265  2.0796
 6261SOL    HW230420   2.892   4.218  14.608 -0.0710  2.2978  0.2122
 6262SOL     OW30421   2.784   0.136   3.136  0.8281  0.4303  0.1023
 6262SOL    HW130422   2.701   0.090   3.150  0.7066  0.3823 -0.7751
 6262SOL    HW230423   2.845   0.068   3.163  0.7293  0.2143 -0.2188
 6263SOL     OW30424   4.483   4.021   6.202  0.1925 -0.9555 -0.0919
 6263SOL    HW130425   4.435   4.102   6.216  1.0779 -0.7219  1.5779
 6263SOL    HW230426   4.494   4.016   6.107  0.6185  0.7686 -0.1381
 6264SOL     OW30427   3.465   2.938  11.330 -0.3774  0.9196 -0.7989
 6264SOL    HW130428   3.558   2.918  11.341 -0.5833  0.8684  0.8917
 6264SOL    HW230429   3.454   2.907  11.240 -0.9859 -2.0680  0.2783
 6265SOL     OW30430   0.212   2.271   2.103  0.0682 -0.4234  0.1331
 6265SOL    HW130431   0.153   2.221   2.046  2.5704 -0.3298 -2.5684
 6265SOL    HW230432   0.255   2.323   2.035  1.0904  1.2873  2.0892
 6266SOL     OW30433   1.737   0.108  14.828 -0.0025  0.3230 -0.3149
 6266SOL    HW130434   1.718   0.066  14.912 -1.4677  0.7139 -0.4503
 6266SOL    HW230435   1.818   0.158  14.833  0.5388 -0.5356 -0.5154
 6267SOL     OW30436   0.891   1.220   2.364 -0.3692 -0.0483  0.1819
 6267SOL    HW130437   0.834   1.156   2.321 -1.6543  0.4013  1.2161
 6267SOL    HW230438   0.852   1.303   2.336 -0.3704 -0.5244 -1.2155
 6268SOL     OW30439   3.415   3.234   2.560 -0.1593  0.5394  0.5367
 6268SOL    HW130440   3.415   3.182   2.480  2.0244  1.8056 -0.2660
 6268SOL    HW230441   3.322   3.234   2.584 -0.3943  3.1450 -0.3936
 6269SOL     OW30442   3.331   3.738   4.448 -0.3241 -0.2076  0.0558
 6269SOL    HW130443   3.269   3.802   4.482 -0.5462 -0.4261  0.0591
 6269SOL    HW230444   3.417   3.780   4.458 -0.3238  0.6608 -3.6167
 6270SOL     OW30445   3.746   4.326   7.065 -0.3356 -0.4296  0.0133
 6270SOL    HW130446   3.680   4.299   7.129 -0.9425  1.9963  0.4037
 6270SOL    HW230447   3.696   4.378   7.002 -0.0940 -0.9979 -0.6423
 6271SOL     OW30448   3.936   1.038   7.581 -0.2387 -0.6518  0.0478
 6271SOL    HW130449   4.002   1.105   7.566 -0.4975 -0.9491 -2.5074
 6271SOL    HW230450   3.982   0.954   7.582  0.7788 -0.0479  3.3599
 6272SOL     OW30451   4.626   2.498   9.179 -0.0554  0.2537  0.2263
 6272SOL    HW130452   4.642   2.410   9.146  2.0514  0.1816  1.4469
 6272SOL    HW230453   4.533   2.510   9.161  0.4169  1.5743 -1.2901
 6273SOL     OW30454   4.156   3.296   4.251  0.2564  0.0984  0.2505
 6273SOL    HW130455   4.081   3.349   4.225  1.2464  0.3587 -2.0245
 6273SOL    HW230456   4.112   3.239   4.314 -2.2131  1.6328 -0.1135
 6274SOL     OW30457   0.224   1.668   8.881 -0.0905 -0.4433 -0.4583
 6274SOL    HW130458   0.237   1.584   8.926 -0.7703 -1.5725 -2.3580
 6274SOL    HW230459   0.226   1.736   8.948  0.6086 -1.2546  0.3545
 6275SOL     OW30460   2.857   0.798  14.432 -0.1358  0.1091  0.0872
 6275SOL    HW130461   2.854   0.893  14.419  2.0826  0.2145  0.2196
 6275SOL    HW230462   2.952   0.791  14.440 -0.3920 -2.5292  0.7820
 6276SOL     OW30463   1.114   1.568   3.601 -0.5685 -0.0304 -0.0861
 6276SOL    HW130464   1.047   1.615   3.652 -0.1591 -0.4244  0.8023
 6276SOL    HW230465   1.055   1.548   3.528 -0.5711 -1.7626  0.4153
 6277SOL     OW30466   1.557   2.886   2.691  0.4037 -0.1158 -0.0338
 6277SOL    HW130467   1.508   2.837   2.756  1.9273 -2.5762 -0.7491
 6277SOL    HW230468   1.595   2.954   2.748  0.3884 -1.8880  2.0677
 6278SOL     OW30469   0.097   0.352   3.316 -0.1085 -0.1589  0.1980
 6278SOL    HW130470   0.037   0.367   3.389 -0.5372 -0.1810 -0.1501
 6278SOL    HW230471   0.040   0.320   3.246  0.4990 -0.5564 -0.1149
 6279SOL     OW30472   4.478   3.217  15.268  0.2092 -0.7533  0.2229
 6279SOL    HW130473   4.482   3.124  15.250  1.6367 -0.1924 -2.2944
 6279SOL    HW230474   4.538   3.231  15.341  0.9792 -2.2042 -0.1553
 6280SOL     OW30475   4.109   0.743   7.324 -0.1376 -0.0554  0.4387
 6280SOL    HW130476   4.096   0.768   7.415 -1.1395  2.0444 -0.3014
 6280SOL    HW230477   4.030   0.694   7.300 -1.5190  2.2030  0.4598
 6281SOL     OW30478   1.979   2.709  10.982  0.4727  0.4882  0.0317
 6281SOL    HW130479   2.027   2.627  10.982 -1.1306 -0.4498  0.0362
 6281SOL    HW230480   2.058   2.759  10.961  1.0327 -0.7343 -0.7605
 6282SOL     OW30481   1.817   2.559   9.525 -0.0275  0.4047  0.4117
 6282SOL    HW130482   1.838   2.561   9.432  0.7565  0.6286  0.5963
 6282SOL    HW230483   1.843   2.468   9.539 -1.6950  0.0238  1.1366
 6283SOL     OW30484   1.196   3.819   9.075  0.0245  0.3195 -0.0637
 6283SOL    HW130485   1.271   3.805   9.133 -0.3126  0.5864  0.4259
 6283SOL    HW230486   1.213   3.910   9.050  0.5347  0.2221 -0.0720
 6284SOL     OW30487   3.258   4.363   0.589 -0.5971 -0.2127  0.0633
 6284SOL    HW130488   3.165   4.359   0.568 -0.4142  0.4840 -0.8559
 6284SOL    HW230489   3.248   4.364   0.684 -1.8966  1.0704 -0.0842
 6285SOL     OW30490   2.842   1.178   9.513 -0.5126 -0.3218 -0.5734
 6285SOL    HW130491   2.794   1.206   9.435 -1.2944 -1.6991 -0.5972
 6285SOL    HW230492   2.775   1.188   9.581  0.5939 -0.3163  0.5073
 6286SOL     OW30493   0.975   4.402   8.711  0.4498  0.3062 -0.6029
 6286SOL    HW130494   1.058   4.393   8.757  1.1104 -0.2379 -1.8703
 6286SOL    HW230495   0.939   4.315   8.727  0.9882 -0.0037 -1.0482
 6287SOL     OW30496   3.360   0.594  16.414  0.3252  0.4707 -0.7263
 6287SOL    HW130497   3.382   0.643  16.335 -1.2190  2.0083 -0.2074
 6287SOL    HW230498   3.293   0.658  16.439 -1.2498 -0.1423 -3.3839
 6288SOL     OW30499   0.919   1.596   4.350  0.1549 -0.4882 -0.2154
 6288SOL    HW130500   0.968   1.545   4.414 -1.5657  0.3493  1.7519
 6288SOL    HW230501   0.835   1.608   4.395  1.1018 -1.0262  1.7049
 6289SOL     OW30502   2.449   2.294   9.887  0.0207 -0.6712 -0.1446
 6289SOL    HW130503   2.434   2.212   9.840 -0.4606 -0.5314 -0.2321
 6289SOL    HW230504   2.424   2.279   9.978 -1.2473 -0.2225 -0.4253
 6290SOL     OW30505   0.288   0.518  13.615  0.4168  0.0910 -0.4521
 6290SOL    HW130506   0.237   0.553  13.688  0.3228 -1.8477  0.3848
 6290SOL    HW230507   0.238   0.564  13.547 -0.2801  0.8597  0.5812
 6291SOL     OW30508   0.376   3.130   7.065 -0.7565  0.3049  0.3896
 6291SOL    HW130509   0.361   3.217   7.101  2.2361  0.1807  1.9608
 6291SOL    HW230510   0.467   3.113   7.092 -1.2096 -0.5299  1.3904
 6292SOL     OW30511   3.261   1.255   7.085  0.0666  0.1275  0.1591
 6292SOL    HW130512   3.238   1.162   7.084  0.5950 -0.0272  1.5444
 6292SOL    HW230513   3.320   1.255   7.160  1.1542  1.6246 -0.7194
 6293SOL     OW30514   3.327   2.686   6.305  0.5694  0.7260  0.2174
 6293SOL    HW130515   3.422   2.701   6.304  0.6622  0.0740 -0.9789
 6293SOL    HW230516   3.315   2.677   6.399  0.3224  2.9111  0.3947
 6294SOL     OW30517   0.824   4.086   6.507  0.6982  0.3055  0.3503
 6294SOL    HW130518   0.839   4.167   6.555 -0.0771  0.0642  1.0013
 6294SOL    HW230519   0.909   4.046   6.486  0.0576 -0.8232 -0.0860
 6295SOL     OW30520   1.310   2.415  12.457  0.4314 -0.3406  0.0253
 6295SOL    HW130521   1.395   2.454  12.436  2.2640 -3.5200  1.6788
 6295SOL    HW230522   1.320   2.409  12.552 -0.7831  1.7930  0.2871
 6296SOL     OW30523   1.432   2.597   8.221  0.1486  0.0952 -0.2170
 6296SOL    HW130524   1.432   2.527   8.155 -0.5412  0.9898 -1.1756
 6296SOL    HW230525   1.401   2.557   8.302  0.4136 -0.9659 -0.6489
 6297SOL     OW30526   3.149   1.877  16.910 -0.6677 -0.0616 -0.1887
 6297SOL    HW130527   3.153   1.853  16.817 -1.2995 -0.7760 -0.0321
 6297SOL    HW230528   3.092   1.803  16.930  1.0910 -1.2038  0.5852
 6298SOL     OW30529   0.299   2.962   9.059  0.2837 -0.2416  0.0009
 6298SOL    HW130530   0.340   2.966   8.972 -0.8893  0.7686 -0.5166
 6298SOL    HW230531   0.221   2.910   9.040 -0.2550  1.1300 -1.5980
 6299SOL     OW30532   4.178   2.244   5.860  0.3285 -0.3467 -0.1646
 6299SOL    HW130533   4.215   2.296   5.931 -0.2256 -0.3306  0.1154
 6299SOL    HW230534   4.170   2.316   5.797 -2.3668  0.2189  0.7992
 6300SOL     OW30535   4.574   0.872  16.092 -0.3474 -0.0156 -0.4263
 6300SOL    HW130536   4.620   0.928  16.154 -0.3109  0.9444 -1.3215
 6300SOL    HW230537   4.618   0.904  16.013 -0.3668  1.8652  0.3447
 6301SOL     OW30538   3.146   2.849   6.181 -0.1254  0.0921 -0.0798
 6301SOL    HW130539   3.220   2.805   6.223 -0.0673 -0.0671 -0.3555
 6301SOL    HW230540   3.095   2.768   6.173 -0.1132 -0.2349  3.0503
 6302SOL     OW30541   0.968   2.346   8.694  0.1292  0.2390 -0.0728
 6302SOL    HW130542   0.997   2.259   8.670  3.2450  2.1120 -3.1198
 6302SOL    HW230543   0.886   2.321   8.737  0.3769 -0.1361  0.1832
 6303SOL     OW30544   4.653   1.135   7.609 -0.3977 -0.7434  0.2295
 6303SOL    HW130545   4.659   1.206   7.673  1.6575 -1.2966  0.6269
 6303SOL    HW230546   4.675   1.059   7.663  0.9660  0.5868  1.5279
 6304SOL     OW30547   1.162   2.188  11.670 -0.3498 -0.0849  0.6651
 6304SOL    HW130548   1.227   2.119  11.654  2.6774  2.9204 -0.0694
 6304SOL    HW230549   1.196   2.229  11.750 -0.2611  0.7999  0.1749
 6305SOL     OW30550   0.679   3.473   2.135 -0.1202  0.1615 -0.2028
 6305SOL    HW130551   0.760   3.525   2.132 -0.7817  1.3471  2.3959
 6305SOL    HW230552   0.692   3.425   2.053  0.7661 -1.7088  1.0389
 6306SOL     OW30553   1.385   3.146   7.133 -0.0386 -0.1837  0.1346
 6306SOL    HW130554   1.365   3.227   7.087  2.6231  0.1072 -0.5083
 6306SOL    HW230555   1.421   3.177   7.215 -1.5945 -0.4364  0.9180
 6307SOL     OW30556   0.043   0.622   9.140 -0.0910  0.0935  0.3273
 6307SOL    HW130557   0.012   0.644   9.228 -0.7233 -3.0517  0.9154
 6307SOL    HW230558   0.131   0.659   9.138 -0.8947  2.0602  1.3962
 6308SOL     OW30559   1.655   1.794   3.389  0.2411 -0.0236  0.1990
 6308SOL    HW130560   1.560   1.786   3.404 -0.0594 -0.7582 -2.1344
 6308SOL    HW230561   1.674   1.795   3.296  1.9292 -0.3366  0.5399
 6309SOL     OW30562   1.672   2.393   7.100  0.0416  0.6722 -0.1658
 6309SOL    HW130563   1.629   2.430   7.178 -2.1495  1.2464 -1.6560
 6309SOL    HW230564   1.648   2.301   7.107  0.8491  0.4733 -0.0279
 6310SOL     OW30565   4.734   0.959  11.278 -0.5907  0.0147 -0.0689
 6310SOL    HW130566   0.017   0.954  11.185  0.0246 -0.0406  0.0875
 6310SOL    HW230567   4.728   1.054  11.287  0.3099 -0.1300  2.1883
 6311SOL     OW30568   4.126   3.637   5.292  0.6051  0.0447  0.0627
 6311SOL    HW130569   4.068   3.703   5.256 -2.1888 -3.0989 -1.1773
 6311SOL    HW230570   4.147   3.590   5.212 -1.1303 -0.6628  0.0303
 6312SOL     OW30571   4.297   4.237   8.127 -0.4988 -0.9674  0.3046
 6312SOL    HW130572   4.391   4.219   8.125 -0.2451  0.4652 -0.2928
 6312SOL    HW230573   4.266   4.212   8.040 -1.4796 -0.8277  0.6176
 6313SOL     OW30574   3.519   4.685   8.929  0.2569  0.2778  0.6798
 6313SOL    HW130575   3.570   4.693   8.849  0.7296 -0.5857  0.8852
 6313SOL    HW230576   3.517   0.038   8.945 -0.1499  0.3976 -0.1166
 6314SOL     OW30577   3.444   1.270  15.679  0.5305 -0.1169  0.2454
 6314SOL    HW130578   3.460   1.342  15.739  0.6637 -1.5983  1.9869
 6314SOL    HW230579   3.505   1.200  15.699  1.6621  0.6273 -0.6083
 6315SOL     OW30580   2.708   0.277   6.691 -0.3203 -0.2460  0.0878
 6315SOL    HW130581   2.635   0.319   6.646 -0.0010  0.0138 -0.1848
 6315SOL    HW230582   2.743   0.221   6.622  1.4099 -1.2881  1.8154
 6316SOL     OW30583   1.626   0.461   5.624 -0.0151 -0.1210 -0.5690
 6316SOL    HW130584   1.631   0.544   5.576  0.1160  0.2225  0.0431
 6316SOL    HW230585   1.700   0.411   5.590 -0.5254 -0.6883 -0.8454
 6317SOL     OW30586   4.527   0.161   4.155 -0.1042  0.6242 -0.7686
 6317SOL    HW130587   4.450   0.215   4.175 -1.7396 -1.2341 -1.9943
 6317SOL    HW230588   4.495   0.123   4.073 -1.5827  1.9732 -0.8365
 6318SOL     OW30589   4.457   0.023  11.457 -0.2557 -0.0203  0.2021
 6318SOL    HW130590   4.419   4.676  11.456 -0.8806  0.2364  0.7483
 6318SOL    HW230591   4.535   0.011  11.404  0.8262  1.8672  1.3679
 6319SOL     OW30592   3.019   1.221   8.113 -0.2019  0.1147 -0.1606
 6319SOL    HW130593   2.971   1.184   8.187 -0.3060  0.0307 -0.2705
 6319SOL    HW230594   3.109   1.235   8.144 -1.0227  0.2093  2.1893
 6320SOL     OW30595   2.393   0.578   5.653 -0.5174  0.0549 -0.0586
 6320SOL    HW130596   2.466   0.582   5.591 -1.2493 -2.6494 -1.0680
 6320SOL    HW230597   2.335   0.512   5.616  0.7929 -0.8457 -0.5035
 6321SOL     OW30598   0.602   1.219   2.920 -0.4231  0.2910  0.4725
 6321SOL    HW130599   0.526   1.189   2.971 -0.7422 -2.2325 -1.4894
 6321SOL    HW230600   0.576   1.309   2.900 -0.5456 -0.3617 -2.3037
 6322SOL     OW30601   2.589   1.581   4.906  0.0803 -0.4397 -0.1081
 6322SOL    HW130602   2.579   1.567   4.812 -0.3985  2.0087 -0.4240
 6322SOL    HW230603   2.499   1.584   4.939 -0.1077  0.8598 -0.7756
 6323SOL     OW30604   0.061   4.407   0.782 -0.1232  0.3750  0.4577
 6323SOL    HW130605   0.128   4.473   0.802  0.7082 -0.7774  1.5228
 6323SOL    HW230606   0.065   4.424   0.688 -3.5720 -1.7858 -0.0794
 6324SOL     OW30607   0.398   2.095   5.420  0.7377  0.1136  0.4034
 6324SOL    HW130608   0.416   2.006   5.450  0.1334 -0.1932 -0.1436
 6324SOL    HW230609   0.471   2.142   5.459  1.8624 -1.8456  0.6432
 6325SOL     OW30610   2.378   3.720   0.305 -0.3903 -0.2950  0.0633
 6325SOL    HW130611   2.367   3.813   0.325 -0.2030 -0.5275  1.2313
 6325SOL    HW230612   2.295   3.694   0.346 -0.8635 -0.2798 -0.8879
 6326SOL     OW30613   1.501   2.883   6.439 -0.3422 -0.6301  0.3943
 6326SOL    HW130614   1.544   2.821   6.498  0.8521  1.4941  1.7921
 6326SOL    HW230615   1.566   2.953   6.428  1.7767 -2.8872 -1.4349
 6327SOL     OW30616   3.468   2.817  17.095 -0.6783  0.3331  0.3040
 6327SOL    HW130617   3.404   2.756  17.058 -0.5227 -1.1924  2.5167
 6327SOL    HW230618   3.532   2.825  17.025 -1.1164 -0.9837 -0.2588
 6328SOL     OW30619   2.445   2.441   3.761  0.5107  0.1768 -0.2855
 6328SOL    HW130620   2.411   2.440   3.851  1.9348 -0.4363  0.2345
 6328SOL    HW230621   2.491   2.524   3.752  0.5824  0.2833  1.0994
 6329SOL     OW30622   3.879   2.905  11.615 -0.1574 -0.3830 -0.3389
 6329SOL    HW130623   3.852   2.990  11.582 -0.4768 -0.3759 -0.0629
 6329SOL    HW230624   3.934   2.886  11.539 -1.5896 -1.5328 -1.0845
 6330SOL     OW30625   4.237   0.168   9.344 -0.3457  0.0096 -0.1859
 6330SOL    HW130626   4.183   0.157   9.422  0.3433 -0.7235  0.1878
 6330SOL    HW230627   4.179   0.117   9.287  0.8823 -1.0282 -0.5402
 6331SOL     OW30628   2.971   1.235   1.809 -0.0825  0.1606 -0.1259
 6331SOL    HW130629   2.973   1.141   1.830  1.8180 -0.4411 -2.8833
 6331SOL    HW230630   2.887   1.247   1.765 -1.4709 -0.0396  2.4623
 6332SOL     OW30631   0.173   2.976   5.222 -0.3077  0.7082  0.1886
 6332SOL    HW130632   0.202   3.007   5.308  0.6183  0.7239 -0.1305
 6332SOL    HW230633   0.173   3.057   5.172  1.0881  0.0796 -0.8291
 6333SOL     OW30634   3.313   2.166   9.924 -0.5194 -0.9341 -0.4827
 6333SOL    HW130635   3.247   2.098   9.935 -3.1941  1.8463  0.5542
 6333SOL    HW230636   3.280   2.241   9.972  0.8137  1.1205 -2.7933
 6334SOL     OW30637   1.526   1.683   9.150 -0.4565 -0.3779  0.0453
 6334SOL    HW130638   1.454   1.678   9.088  1.1468  2.6666 -2.0723
 6334SOL    HW230639   1.567   1.597   9.149 -0.0958 -0.2222  1.8810
 6335SOL     OW30640   0.132   3.431   3.825  0.5153  0.3217 -0.6371
 6335SOL    HW130641   0.110   3.475   3.743  0.8706 -0.1383 -0.9783
 6335SOL    HW230642   0.175   3.355   3.785  0.3873 -0.5226  0.8134
 6336SOL     OW30643   3.955   4.430   3.883  0.4890 -0.2019  0.3287
 6336SOL    HW130644   4.051   4.433   3.884  0.5940 -3.2186 -0.5105
 6336SOL    HW230645   3.940   4.488   3.957 -0.2530  0.7454 -0.5705
 6337SOL     OW30646   3.641   2.002   3.269 -0.1847  0.4046  0.5171
 6337SOL    HW130647   3.609   2.029   3.183 -1.4422 -2.0991  0.2157
 6337SOL    HW230648   3.575   2.039   3.328 -0.6734  0.1184  0.1390
 6338SOL     OW30649   0.800   0.282   4.654  0.0682  0.6810 -0.2742
 6338SOL    HW130650   0.814   0.201   4.605  0.0021  1.0114 -0.8310
 6338SOL    HW230651   0.758   0.252   4.735 -1.3578 -0.5183 -1.4703
 6339SOL     OW30652   3.390   1.485   1.017 -0.2728 -1.0687 -0.3745
 6339SOL    HW130653   3.412   1.573   0.987 -0.9560 -0.5995  0.5156
 6339SOL    HW230654   3.295   1.486   1.022 -0.2829 -0.4264 -0.7250
 6340SOL     OW30655   0.008   2.787   4.908 -0.1510 -0.6779 -0.2313
 6340SOL    HW130656   4.741   2.815   4.817 -0.5896  0.4771  0.1543
 6340SOL    HW230657   0.096   2.820   4.928 -1.4291  1.6186  1.7201
 6341SOL     OW30658   2.000   0.182   5.943 -0.1130 -0.3036 -0.0523
 6341SOL    HW130659   1.989   0.145   5.856  1.8085  2.3613 -1.4380
 6341SOL    HW230660   1.911   0.195   5.976  0.5593  0.2500  1.5611
 6342SOL     OW30661   4.455   3.222   9.144  1.0112  0.7423 -0.0540
 6342SOL    HW130662   4.488   3.246   9.231 -0.2141  1.3374  0.2449
 6342SOL    HW230663   4.441   3.306   9.100  1.6091  0.1200 -1.4299
 6343SOL     OW30664   3.067   0.056   6.678  0.2801 -0.3238  0.0879
 6343SOL    HW130665   3.158   0.049   6.651  0.3625  1.1635  0.0012
 6343SOL    HW230666   3.059   0.150   6.695  0.2730 -0.0475 -1.4016
 6344SOL     OW30667   2.503   2.852   1.612  0.2766  0.0955 -0.9309
 6344SOL    HW130668   2.495   2.940   1.650  4.5025 -0.2995  0.9142
 6344SOL    HW230669   2.436   2.861   1.545 -0.4581 -0.5642 -0.2769
 6345SOL     OW30670   2.715   3.531   7.169  0.1641 -0.0282 -0.0281
 6345SOL    HW130671   2.663   3.483   7.234 -0.5424 -2.4357 -2.3708
 6345SOL    HW230672   2.723   3.454   7.113  0.8295  0.0903 -0.0943
 6346SOL     OW30673   1.875   0.289   6.573  0.0654  0.6553  0.0370
 6346SOL    HW130674   1.820   0.263   6.648 -1.3380 -0.7082 -1.4672
 6346SOL    HW230675   1.849   0.229   6.503 -2.1816  1.8033 -0.1235
 6347SOL     OW30676   4.169   0.587   2.846 -0.7820  0.0030 -0.8237
 6347SOL    HW130677   4.233   0.516   2.845  0.3549  0.9778  3.6945
 6347SOL    HW230678   4.096   0.535   2.813  1.2789 -1.1020 -3.6356
 6348SOL     OW30679   4.719   4.431   2.384 -0.4952 -0.1273  0.4507
 6348SOL    HW130680   4.641   4.484   2.365 -0.1015  0.4030  0.3122
 6348SOL    HW230681   0.008   4.422   2.294  1.1873 -0.0222  1.0011
 6349SOL     OW30682   4.641   1.109   8.228 -0.2814 -0.1528  0.1130
 6349SOL    HW130683   4.706   1.076   8.166  0.2667 -0.1196  0.6632
 6349SOL    HW230684   4.590   1.174   8.179  3.6723  0.9796 -2.5492
 6350SOL     OW30685   3.698   3.006   6.572 -0.3093  0.3390 -0.2841
 6350SOL    HW130686   3.784   2.999   6.614 -1.5091 -0.5757  2.0167
 6350SOL    HW230687   3.649   2.951   6.633 -0.2030 -0.1306 -0.6227
 6351SOL     OW30688   3.146   1.883   9.561  0.0873 -0.1766 -0.1414
 6351SOL    HW130689   3.119   1.833   9.638  0.2821  0.8103  0.5745
 6351SOL    HW230690   3.096   1.840   9.492 -1.5347  1.5905 -0.0539
 6352SOL     OW30691   0.976   1.553   5.075 -0.3752  0.4246 -0.2349
 6352SOL    HW130692   0.882   1.540   5.085 -0.3698  1.4274  1.0239
 6352SOL    HW230693   0.998   1.587   5.162 -0.0267  0.2996 -0.2728
 6353SOL     OW30694   3.137   2.033   7.829  0.1416 -0.2157 -0.3321
 6353SOL    HW130695   3.126   1.944   7.797  3.0467 -1.3047  1.7827
 6353SOL    HW230696   3.227   2.048   7.803 -0.3150  3.3270  0.0673
 6354SOL     OW30697   1.750   0.956   3.719 -0.3258 -0.2786  0.2031
 6354SOL    HW130698   1.692   1.032   3.724 -0.1685 -0.0495 -1.5231
 6354SOL    HW230699   1.685   0.885   3.714 -0.7685  0.0493  1.2890
 6355SOL     OW30700   0.257   3.075   3.863  0.0966  0.7281  0.2004
 6355SOL    HW130701   0.166   3.057   3.839  1.0330 -0.3498 -2.6081
 6355SOL    HW230702   0.291   3.092   3.775  0.2619 -1.5729 -0.1595
 6356SOL     OW30703   3.250   1.698  14.354 -0.5836 -0.8215  0.3330
 6356SOL    HW130704   3.228   1.694  14.261  1.6975 -2.2996 -0.1313
 6356SOL    HW230705   3.222   1.620  14.402 -1.1337 -1.7514 -1.4841
 6357SOL     OW30706   4.685   3.344  12.577  0.7815 -0.2879 -0.0383
 6357SOL    HW130707   0.018   3.405  12.576  0.4356  0.1299  0.1037
 6357SOL    HW230708   4.630   3.362  12.501 -0.6750 -0.0384  1.0755
 6358SOL     OW30709   1.578   0.203   8.976 -0.0396 -1.0912 -0.6588
 6358SOL    HW130710   1.527   0.248   8.908  0.9616 -0.6126 -1.1032
 6358SOL    HW230711   1.631   0.137   8.931  2.3369 -1.2295  2.3424
 6359SOL     OW30712   0.922   0.787   8.531  0.1519 -0.3699  0.1648
 6359SOL    HW130713   0.966   0.748   8.606 -3.8886 -0.0135  2.7182
 6359SOL    HW230714   0.870   0.846   8.585 -1.1915  0.4205 -1.9954
 6360SOL     OW30715   2.437   2.264  11.819 -0.2641 -0.6955 -0.0061
 6360SOL    HW130716   2.354   2.285  11.776  0.8615 -1.0107 -2.3121
 6360SOL    HW230717   2.490   2.340  11.796 -0.9192 -0.2046  0.1243
 6361SOL     OW30718   1.193   2.924   6.028 -0.0777  0.2157  0.0704
 6361SOL    HW130719   1.150   3.007   6.051  0.3457  0.7715 -1.1668
 6361SOL    HW230720   1.209   2.889   6.116  0.0138 -1.6053 -0.6641
 6362SOL     OW30721   4.418   2.604   7.290 -0.4606 -1.0330 -0.1199
 6362SOL    HW130722   4.423   2.692   7.328  2.5758 -0.8166 -1.0623
 6362SOL    HW230723   4.337   2.567   7.327 -0.3358 -0.0135  1.2002
 6363SOL     OW30724   1.264   4.197  15.731 -0.5856 -0.0361  0.8860
 6363SOL    HW130725   1.355   4.173  15.745 -0.1738  1.9229  1.5858
 6363SOL    HW230726   1.217   4.116  15.750  0.3782 -0.4554  1.4675
 6364SOL     OW30727   4.256   2.884   8.662  0.4724 -0.6637 -0.4932
 6364SOL    HW130728   4.205   2.948   8.611  3.0807  1.6216 -0.2454
 6364SOL    HW230729   4.210   2.802   8.647 -1.7820  0.7380 -1.2156
 6365SOL     OW30730   0.576   1.886   2.896  0.7497 -0.2630 -0.1174
 6365SOL    HW130731   0.606   1.921   2.980 -0.0494  0.2428 -0.0319
 6365SOL    HW230732   0.660   1.883   2.852  0.8749  2.5072 -0.0496
 6366SOL     OW30733   1.573   2.748   7.910 -0.0373  0.2870  0.1349
 6366SOL    HW130734   1.552   2.713   7.824 -1.9323  0.5954  0.4750
 6366SOL    HW230735   1.605   2.678   7.967 -1.9473 -1.9274 -1.5564
 6367SOL     OW30736   3.789   2.534   6.198 -0.2200  0.8769 -0.7652
 6367SOL    HW130737   3.715   2.477   6.176 -0.6195  0.6977  1.0296
 6367SOL    HW230738   3.856   2.473   6.228  0.7502  2.0091 -0.6308
 6368SOL     OW30739   2.656   2.233   6.780  0.0490  0.1315  0.0192
 6368SOL    HW130740   2.701   2.307   6.739  1.1616 -0.5523  0.0055
 6368SOL    HW230741   2.705   2.235   6.863 -1.2967  1.3310  0.7725
 6369SOL     OW30742   4.247   2.438   2.214 -0.6513 -0.2437 -0.0269
 6369SOL    HW130743   4.162   2.451   2.256  0.3142 -1.9833  2.4959
 6369SOL    HW230744   4.294   2.383   2.277  1.3476  0.7176 -0.6408
 6370SOL     OW30745   2.126   1.009   4.989  0.2500  1.2257 -0.4212
 6370SOL    HW130746   2.196   1.065   5.023  0.2637 -1.1807  3.4310
 6370SOL    HW230747   2.047   1.057   5.012 -0.3723  1.0635 -2.2137
 6371SOL     OW30748   4.452   1.998   9.151  0.1903  0.3535  0.2524
 6371SOL    HW130749   4.390   2.014   9.080 -2.1196  1.2155  2.5054
 6371SOL    HW230750   4.393   1.973   9.222 -1.6842  0.9096 -1.1196
 6372SOL     OW30751   3.298   1.659   6.142 -0.3582 -0.4507 -0.3144
 6372SOL    HW130752   3.326   1.731   6.085  1.4881 -0.8773  0.0512
 6372SOL    HW230753   3.384   1.621   6.160 -0.3911  0.6980  2.3195
 6373SOL     OW30754   2.639   0.543   7.976 -0.1792 -0.1022  0.4268
 6373SOL    HW130755   2.565   0.484   7.962 -0.4452  0.3669 -0.1868
 6373SOL    HW230756   2.594   0.611   8.026  2.8448  2.9878 -1.0267
 6374SOL     OW30757   1.140   3.421   1.966 -0.2220 -0.2641 -1.0613
 6374SOL    HW130758   1.228   3.454   1.947  0.4063 -0.2387  1.9295
 6374SOL    HW230759   1.163   3.365   2.040  0.7735  1.5184 -0.0230
 6375SOL     OW30760   2.311   0.355  16.281 -0.0896  0.1105 -0.0649
 6375SOL    HW130761   2.293   0.313  16.196  0.5559 -0.0947 -0.0961
 6375SOL    HW230762   2.238   0.415  16.267 -0.5922 -0.3675  0.5206
 6376SOL     OW30763   0.915   4.221   4.114  0.2080  0.4928  0.3333
 6376SOL    HW130764   0.993   4.168   4.131 -0.1006 -0.1316 -0.1647
 6376SOL    HW230765   0.932   4.258   4.027 -0.3886  0.5095  0.2219
 6377SOL     OW30766   3.883   0.979   9.464 -0.1869 -0.3926  0.3707
 6377SOL    HW130767   3.843   0.967   9.377 -2.9543  3.2469  1.1347
 6377SOL    HW230768   3.974   0.980   9.435  0.0601 -2.9341  1.1150
 6378SOL     OW30769   2.579   1.340  17.508 -0.1753  0.1941 -0.2717
 6378SOL    HW130770   2.574   1.279  17.581 -2.5800  1.3695  0.5613
 6378SOL    HW230771   2.660   1.321  17.461  1.4379  0.6218  2.3326
 6379SOL     OW30772   3.152   1.135   3.829 -0.0490  0.0390 -0.5048
 6379SOL    HW130773   3.082   1.155   3.891 -0.9640 -2.2282 -0.8120
 6379SOL    HW230774   3.215   1.207   3.831 -0.6943  0.5977 -0.3781
 6380SOL     OW30775   0.497   0.213  12.613  0.2556 -0.5488 -0.3290
 6380SOL    HW130776   0.552   0.191  12.538 -0.2057 -0.5432 -0.6727
 6380SOL    HW230777   0.547   0.166  12.679 -0.3771 -1.6387 -0.6363
 6381SOL     OW30778   0.772   3.714   7.232 -0.4062 -0.3665  0.2553
 6381SOL    HW130779   0.774   3.620   7.251 -0.8732 -0.7325 -1.4987
 6381SOL    HW230780   0.732   3.747   7.312  0.4644 -0.3490  0.6909
 6382SOL     OW30781   2.701   2.855   5.633 -0.0725 -0.3146 -0.2919
 6382SOL    HW130782   2.613   2.875   5.666 -0.4718  0.4125 -1.8046
 6382SOL    HW230783   2.745   2.898   5.706 -1.7338  1.7771 -0.5047
 6383SOL     OW30784   3.530   1.081   4.658  0.0945  0.5973 -0.2911
 6383SOL    HW130785   3.558   1.140   4.728  2.7612  0.5270 -1.2806
 6383SOL    HW230786   3.621   1.064   4.635  0.1006  0.2963 -0.0539
 6384SOL     OW30787   1.036   1.474   6.309 -0.5674  0.1840 -0.7620
 6384SOL    HW130788   0.996   1.537   6.368  0.9628  0.2722  0.1709
 6384SOL    HW230789   1.036   1.522   6.226  0.4514  2.1319  0.3752
 6385SOL     OW30790   4.006   3.142   2.175 -0.0994 -0.6021 -0.1447
 6385SOL    HW130791   4.092   3.177   2.200  0.0239 -1.2711  0.3686
 6385SOL    HW230792   3.960   3.157   2.258  2.3157  0.1823  1.0488
 6386SOL     OW30793   4.212   3.363   3.085 -0.0422 -0.0084 -0.2525
 6386SOL    HW130794   4.169   3.287   3.124  0.3691 -0.7907 -1.3270
 6386SOL    HW230795   4.300   3.336   3.113 -0.3864 -1.8443 -0.9878
 6387SOL     OW30796   4.120   1.983  10.066 -0.4468  0.4605  0.2185
 6387SOL    HW130797   4.030   1.948  10.062 -0.7793  1.1735  1.4222
 6387SOL    HW230798   4.113   2.049  10.135  1.5975  2.6692 -1.6963
 6388SOL     OW30799   0.386   1.702   3.525  0.0302  0.8135 -0.0363
 6388SOL    HW130800   0.320   1.769   3.509 -1.9587 -1.3981 -1.0847
 6388SOL    HW230801   0.343   1.661   3.601  0.6894 -2.7475 -1.5917
 6389SOL     OW30802   0.349   0.970   8.844  0.8228  0.3645  0.1356
 6389SOL    HW130803   0.343   1.065   8.850 -1.3294  0.1216  2.0191
 6389SOL    HW230804   0.434   0.957   8.886  0.8828 -0.3907 -0.2030
 6390SOL     OW30805   1.018   3.942  10.502  0.2886  0.0337  0.1004
 6390SOL    HW130806   0.976   3.870  10.549 -1.2724  1.6101  1.1281
 6390SOL    HW230807   1.071   3.982  10.571  1.1785 -0.3368 -0.3763
 6391SOL     OW30808   0.734   1.262  17.665 -0.0435 -0.0724  0.1776
 6391SOL    HW130809   0.776   1.292  17.584  1.3391 -0.9492  0.5774
 6391SOL    HW230810   0.757   1.170  17.676  0.1511 -0.3288 -2.4604
 6392SOL     OW30811   1.398   0.599   4.797 -0.2709 -0.1169 -0.4821
 6392SOL    HW130812   1.315   0.560   4.824  0.3020 -1.8796 -1.2634
 6392SOL    HW230813   1.409   0.556   4.712  1.2708 -0.4035 -0.1338
 6393SOL     OW30814   2.281   0.619   2.409  0.1640  0.6396  0.3853
 6393SOL    HW130815   2.305   0.572   2.330 -2.5509 -1.4854  0.8138
 6393SOL    HW230816   2.209   0.566   2.443  0.5218  1.1287  1.9408
 6394SOL     OW30817   4.717   1.484   4.321  0.4978 -0.3321  0.7660
 6394SOL    HW130818   4.719   1.479   4.417 -2.2147  3.1997  1.0143
 6394SOL    HW230819   4.625   1.458   4.312  0.1113  1.2843 -0.0683
 6395SOL     OW30820   3.503   1.415   7.364  0.2080  0.2855 -1.1409
 6395SOL    HW130821   3.462   1.474   7.300  0.0818  2.4659  0.9689
 6395SOL    HW230822   3.510   1.326   7.330 -1.6614  0.0404 -0.8965
 6396SOL     OW30823   4.709   2.517  16.372 -0.2841 -0.3508 -0.1102
 6396SOL    HW130824   4.706   2.568  16.453 -0.8442  0.2329 -0.4990
 6396SOL    HW230825   4.635   2.563  16.333 -0.1610  1.1049  1.3825
 6397SOL     OW30826   1.439   2.767   5.689 -0.3544  0.2340 -0.0913
 6397SOL    HW130827   1.498   2.785   5.762  0.4633 -2.8830  0.0292
 6397SOL    HW230828   1.386   2.694   5.724 -0.8880 -0.0637 -1.5337
 6398SOL     OW30829   0.685   2.260  16.753  0.3299 -0.2435 -0.0153
 6398SOL    HW130830   0.747   2.306  16.809  0.6578 -1.6372  0.7711
 6398SOL    HW230831   0.618   2.239  16.818  0.5190  1.8099  0.8158
 6399SOL     OW30832   2.836   4.424  12.083 -0.4626 -0.0521  0.2138
 6399SOL    HW130833   2.856   4.518  12.081  0.1372 -0.2887 -4.0738
 6399SOL    HW230834   2.869   4.398  12.169 -2.2936 -1.5345  0.4522
 6400SOL     OW30835   0.091   1.405   3.120 -0.1929 -0.2157 -0.1849
 6400SOL    HW130836   0.110   1.497   3.135  0.8611 -0.0023 -2.8845
 6400SOL    HW230837   4.737   1.416   3.110 -0.1530  0.3320  0.0460
 6401SOL     OW30838   0.295   3.261   3.651  0.5747  0.4759  0.4525
 6401SOL    HW130839   0.374   3.315   3.654  0.8039  0.1224  0.6700
 6401SOL    HW230840   0.305   3.220   3.565  1.4590  0.0666  0.7530
 6402SOL     OW30841   1.107   3.421  16.375 -0.0585  0.1993  0.2541
 6402SOL    HW130842   1.185   3.477  16.377 -0.2104  0.3291  1.9392
 6402SOL    HW230843   1.142   3.340  16.338 -0.2580 -0.2696  1.0960
 6403SOL     OW30844   2.218   4.426  12.930  0.2256  0.2049 -0.2582
 6403SOL    HW130845   2.203   4.372  12.852  2.4652 -1.3405  0.3643
 6403SOL    HW230846   2.147   4.390  12.983 -0.0346 -0.3110 -0.9401
 6404SOL     OW30847   4.401   3.304   2.764 -0.0012  0.3262 -1.0728
 6404SOL    HW130848   4.319   3.275   2.723 -0.2264 -0.5757  0.0090
 6404SOL    HW230849   4.447   3.359   2.700  0.4797  0.8457 -0.2737
 6405SOL     OW30850   1.005   2.677   4.424  0.8453  0.4060 -0.1553
 6405SOL    HW130851   0.985   2.670   4.331 -0.9434 -0.7343  0.3150
 6405SOL    HW230852   0.934   2.622   4.457  3.0881 -1.5774  1.3148
 6406SOL     OW30853   0.068   2.506   4.777  0.0925  0.5232 -0.5434
 6406SOL    HW130854   0.035   2.577   4.723  1.5587  0.9458 -0.8874
 6406SOL    HW230855   0.161   2.527   4.781 -0.0558  1.3669 -1.6187
 6407SOL     OW30856   3.433   3.712  14.603  0.4941  0.2440 -0.0187
 6407SOL    HW130857   3.368   3.766  14.649 -1.6722 -1.7249 -0.7671
 6407SOL    HW230858   3.371   3.661  14.551  2.2583 -4.1306  2.1893
 6408SOL     OW30859   1.624   0.432  12.341 -0.1666  0.0136 -0.4128
 6408SOL    HW130860   1.577   0.489  12.401  0.4029  2.6772 -2.4525
 6408SOL    HW230861   1.551   0.403  12.287 -2.4993  2.5410  1.3978
 6409SOL     OW30862   2.989   3.469   6.532 -0.9152 -0.2306  0.5396
 6409SOL    HW130863   3.039   3.390   6.551  1.3969  1.0162 -0.2481
 6409SOL    HW230864   3.025   3.500   6.448 -2.2929  0.7941  0.3290
 6410SOL     OW30865   3.321   1.051  10.828  0.1115  0.1418  0.8628
 6410SOL    HW130866   3.233   1.043  10.865  0.0442  1.5227  1.0235
 6410SOL    HW230867   3.308   1.132  10.779  0.6173  1.1638  2.3903
 6411SOL     OW30868   3.391   0.190   6.904 -0.1548 -0.1728 -0.1321
 6411SOL    HW130869   3.375   0.133   6.829 -2.0643  1.8469 -1.2707
 6411SOL    HW230870   3.417   0.267   6.854 -0.0752 -0.4996 -0.5942
 6412SOL     OW30871   3.038   4.131   5.781  0.0925  0.8201 -0.2502
 6412SOL    HW130872   3.062   4.072   5.853  0.5300  0.0918 -0.9859
 6412SOL    HW230873   3.125   4.166   5.763  0.8896 -0.6225  0.8666
 6413SOL     OW30874   2.390   2.329   8.828  0.3247 -0.2822 -0.7660
 6413SOL    HW130875   2.321   2.280   8.784 -0.4755  1.4220 -1.3807
 6413SOL    HW230876   2.412   2.379   8.749 -0.5808  0.2469 -0.6729
 6414SOL     OW30877   2.591   0.755   9.644 -0.1532  0.4399 -0.5348
 6414SOL    HW130878   2.645   0.778   9.720 -2.5904  0.2176  1.2691
 6414SOL    HW230879   2.512   0.803   9.667  1.6474  2.5410  1.1820
 6415SOL     OW30880   4.351   2.048   9.403 -0.3016  0.5598  0.0221
 6415SOL    HW130881   4.380   2.139   9.404 -3.3009  1.5042  1.3381
 6415SOL    HW230882   4.407   2.017   9.475  0.0269  1.0180 -0.0403
 6416SOL     OW30883   0.533   1.462   2.377  0.6507  0.5370  0.0527
 6416SOL    HW130884   0.610   1.480   2.322  0.4877 -0.3663 -0.4665
 6416SOL    HW230885   0.469   1.462   2.306 -0.0788 -0.1049  0.7081
 6417SOL     OW30886   3.111   3.528   6.279 -0.3985  0.2006 -0.2498
 6417SOL    HW130887   3.096   3.443   6.238  1.0730 -0.8799  1.4748
 6417SOL    HW230888   3.151   3.575   6.206 -2.3902 -0.1571 -1.5854
 6418SOL     OW30889   0.093   0.788   3.348  0.2433 -0.2307 -0.1719
 6418SOL    HW130890   0.068   0.863   3.402 -0.8637 -1.5621  1.1698
 6418SOL    HW230891   0.128   0.726   3.413  0.2027  1.0015  1.0306
 6419SOL     OW30892   0.887   1.167   2.899 -0.6044  0.1274 -0.0183
 6419SOL    HW130893   0.795   1.142   2.897 -0.6822  0.2087  1.7827
 6419SOL    HW230894   0.884   1.250   2.948  1.7087  1.8896 -2.8927
 6420SOL     OW30895   3.233   0.993   7.388 -0.7561 -0.2421  0.4777
 6420SOL    HW130896   3.216   1.072   7.440  1.3897 -0.1433  1.0185
 6420SOL    HW230897   3.324   0.970   7.407  0.1969  1.7690 -1.7154
 6421SOL     OW30898   2.479   2.920   2.380 -0.7855  0.2063 -0.7549
 6421SOL    HW130899   2.484   3.016   2.376 -1.9627  0.3306  1.1350
 6421SOL    HW230900   2.566   2.890   2.351  0.0858  1.8901  0.1087
 6422SOL     OW30901   3.236   0.536   5.060 -0.1876 -0.0356  0.4275
 6422SOL    HW130902   3.209   0.597   5.127  0.5502  0.2183  0.4904
 6422SOL    HW230903   3.227   0.457   5.114 -2.7276 -0.7389 -1.0376
 6423SOL     OW30904   3.611   3.969   2.700 -0.4124 -0.8562  0.1776
 6423SOL    HW130905   3.654   3.910   2.762  0.6649 -1.5368 -1.2125
 6423SOL    HW230906   3.667   3.974   2.622 -1.7332 -0.8873 -0.7699
 6424SOL     OW30907   0.362   3.254   2.693  0.5772 -0.4837 -0.2040
 6424SOL    HW130908   0.430   3.222   2.634  0.9567  0.2665 -0.1608
 6424SOL    HW230909   0.358   3.179   2.753  0.1490  0.8993  1.4811
 6425SOL     OW30910   1.530   0.496   7.873  0.0263  0.2881 -0.1757
 6425SOL    HW130911   1.451   0.463   7.914 -0.5935 -0.7806 -2.2332
 6425SOL    HW230912   1.527   0.591   7.887  1.0899 -0.0987  2.6893
 6426SOL     OW30913   4.217   2.252   9.957  0.2147 -0.2871 -0.7304
 6426SOL    HW130914   4.122   2.241   9.969 -0.0190 -2.0450 -3.9553
 6426SOL    HW230915   4.226   2.185   9.889  1.2330 -1.9352  1.0230
 6427SOL     OW30916   0.403   3.206  16.047 -0.4298  0.3461  0.0875
 6427SOL    HW130917   0.388   3.112  16.037  0.1327  0.2951 -0.3260
 6427SOL    HW230918   0.321   3.242  16.081 -0.1303 -1.0254  2.2616
 6428SOL     OW30919   3.065   0.504   3.635  0.6750  0.5234 -0.0479
 6428SOL    HW130920   2.981   0.550   3.637  1.6666  2.1404  2.9975
 6428SOL    HW230921   3.118   0.549   3.700  0.5698  0.7568 -0.1214
 6429SOL     OW30922   3.601   2.940   1.991 -0.4478 -0.2412 -0.3589
 6429SOL    HW130923   3.589   3.027   2.029 -1.0015 -1.0450  1.3374
 6429SOL    HW230924   3.530   2.948   1.928 -1.1370  0.2316  0.4672
 6430SOL     OW30925   3.484   4.200  16.758  0.4489  0.9354 -0.5919
 6430SOL    HW130926   3.479   4.249  16.839 -2.4089 -1.6422  0.7711
 6430SOL    HW230927   3.401   4.154  16.754 -0.3263  2.2855  0.2830
 6431SOL     OW30928   2.610   4.114   6.171 -0.0184 -0.1748 -0.2929
 6431SOL    HW130929   2.630   4.153   6.086 -0.2822  1.2121  0.2740
 6431SOL    HW230930   2.564   4.192   6.203 -0.8923 -1.5769  1.8955
 6432SOL     OW30931   3.469   1.059  14.877 -0.7217 -0.5681 -0.3362
 6432SOL    HW130932   3.396   1.048  14.817  2.7333  1.8739 -5.0136
 6432SOL    HW230933   3.540   1.023  14.823  1.3869  1.7749  0.8793
 6433SOL     OW30934   4.255   0.579  13.346  0.0292 -0.0308  0.1125
 6433SOL    HW130935   4.261   0.649  13.280  1.3138  0.8651  1.1929
 6433SOL    HW230936   4.161   0.587  13.363  0.0478 -3.3571  1.6855
 6434SOL     OW30937   0.552   0.851   7.379 -0.6243 -0.2215  0.5633
 6434SOL    HW130938   0.516   0.816   7.461  0.6137 -0.5021  0.9953
 6434SOL    HW230939   0.487   0.854   7.309  0.9537  1.8874 -0.7989
 6435SOL     OW30940   2.359   3.193   3.191  0.2187  0.5345  0.2246
 6435SOL    HW130941   2.284   3.177   3.249  0.3041 -1.1189 -0.1156
 6435SOL    HW230942   2.397   3.269   3.235  0.1179  1.9916 -2.2622
 6436SOL     OW30943   2.809   2.377   4.624  0.4009  0.4521 -0.2844
 6436SOL    HW130944   2.817   2.286   4.655  1.1621  0.1014 -1.5058
 6436SOL    HW230945   2.822   2.428   4.704 -1.5251 -0.9583  0.9314
 6437SOL     OW30946   4.281   2.552   7.829  0.1171  0.2676 -0.7323
 6437SOL    HW130947   4.300   2.638   7.791  1.2721  1.2851  2.1373
 6437SOL    HW230948   4.341   2.500   7.775  0.2981 -0.0269 -0.2522
 6438SOL     OW30949   4.138   1.710   5.065 -0.1319  0.6072  0.3418
 6438SOL    HW130950   4.146   1.705   4.970  0.7711  0.5314  0.4298
 6438SOL    HW230951   4.048   1.683   5.083 -0.6158  1.1351 -1.2981
 6439SOL     OW30952   0.276   2.228   2.633  0.1285 -0.1563 -0.2923
 6439SOL    HW130953   0.364   2.266   2.625 -0.0892  1.2967  3.9184
 6439SOL    HW230954   0.240   2.236   2.545  1.7220  0.4973 -0.9060
 6440SOL     OW30955   4.487   1.383  14.292 -0.5457 -0.0572 -0.4903
 6440SOL    HW130956   4.505   1.308  14.349 -0.7921  1.5247  1.6466
 6440SOL    HW230957   4.568   1.391  14.241 -0.2430 -0.9408 -0.1571
 6441SOL     OW30958   0.973   0.026  16.441  0.7684 -0.2704 -0.2674
 6441SOL    HW130959   0.957   0.041  16.348 -0.5205  0.0210 -0.0019
 6441SOL    HW230960   1.045   4.704  16.444 -0.1296 -1.2620  0.3988
 6442SOL     OW30961   3.192   1.111   4.279 -0.2887  0.0520  0.0581
 6442SOL    HW130962   3.276   1.147   4.250  0.6390 -0.2260  2.4331
 6442SOL    HW230963   3.215   1.064   4.359  0.8703  0.9590  0.2570
 6443SOL     OW30964   2.313   3.800   7.381 -0.4661  0.1623  0.2963
 6443SOL    HW130965   2.345   3.855   7.452 -1.1162  3.0431 -1.6564
 6443SOL    HW230966   2.379   3.731   7.371  1.6919  2.1988  0.6289
 6444SOL     OW30967   2.741   3.094   8.856 -0.3993 -0.4179 -0.5691
 6444SOL    HW130968   2.707   3.183   8.870 -0.9508 -0.5152 -1.2964
 6444SOL    HW230969   2.814   3.080   8.917 -0.5543 -0.9966 -0.5191
 6445SOL     OW30970   0.936   2.203   9.986 -0.4208  0.3023 -0.5639
 6445SOL    HW130971   0.970   2.163   9.906  1.4707 -0.4160  0.5827
 6445SOL    HW230972   0.845   2.219   9.961 -1.1722 -2.4176  0.4740
 6446SOL     OW30973   1.571   2.819   5.404 -0.3137  0.1835  0.0427
 6446SOL    HW130974   1.498   2.835   5.464 -1.4888  1.9973 -1.8437
 6446SOL    HW230975   1.646   2.845   5.457 -1.0798  0.8262  0.8282
 6447SOL     OW30976   0.931   3.835   4.254  0.2428  0.3494 -0.3011
 6447SOL    HW130977   0.882   3.806   4.331  1.4033 -1.3745 -0.1859
 6447SOL    HW230978   0.867   3.833   4.183  1.2407  0.0112 -1.1987
 6448SOL     OW30979   3.701   1.383   4.643  0.1820  0.4995 -0.6372
 6448SOL    HW130980   3.777   1.344   4.686 -0.2960  0.2095 -0.0402
 6448SOL    HW230981   3.744   1.426   4.569  1.5692 -1.1692 -0.7785
 6449SOL     OW30982   0.952   2.027   8.942 -0.1882 -0.3705 -0.0432
 6449SOL    HW130983   1.029   1.973   8.962 -0.2689 -0.0739  1.0815
 6449SOL    HW230984   0.882   1.961   8.938 -0.0538 -0.5195  0.0320
 6450SOL     OW30985   1.365   1.159   8.780 -0.5926  0.1323  0.3107
 6450SOL    HW130986   1.417   1.105   8.721 -2.7716 -0.4501 -1.0560
 6450SOL    HW230987   1.354   1.234   8.721 -0.6869  0.4017  0.6693
 6451SOL     OW30988   1.302   1.428   3.714  0.0943  0.2340  0.2239
 6451SOL    HW130989   1.330   1.504   3.765  1.0299 -0.3259  0.5414
 6451SOL    HW230990   1.225   1.469   3.673  0.6488  1.4768  0.4053
 6452SOL     OW30991   2.797   1.224   6.823  0.4520 -0.0424  0.0565
 6452SOL    HW130992   2.839   1.308   6.842 -1.6914  0.7523  1.2282
 6452SOL    HW230993   2.807   1.233   6.729  1.6844 -0.3266  0.1554
 6453SOL     OW30994   2.327   3.854   4.010 -0.0052 -0.0430  0.0580
 6453SOL    HW130995   2.380   3.926   4.045 -0.4972  0.2055  0.3008
 6453SOL    HW230996   2.382   3.803   3.951  2.7205  1.0711  1.6488
 6454SOL     OW30997   3.450   1.688   2.275  0.1988 -0.4073 -0.5373
 6454SOL    HW130998   3.421   1.779   2.274 -0.1547 -0.5190  0.0236
 6454SOL    HW230999   3.446   1.670   2.369 -0.9143  1.7884 -0.1695
 6455SOL     OW31000   3.861   2.114   3.449 -0.0508  0.1068 -0.8333
 6455SOL    HW131001   3.924   2.092   3.518  0.0026 -1.0361 -1.2385
 6455SOL    HW231002   3.826   2.030   3.420 -1.9524  0.6523 -0.0843
 6456SOL     OW31003   4.246   2.951   5.128  0.4844  0.3893  0.0008
 6456SOL    HW131004   4.341   2.957   5.112  0.2672  0.9904 -1.0572
 6456SOL    HW231005   4.216   2.901   5.053  2.4897  0.3245 -0.7734
 6457SOL     OW31006   0.795   4.315  12.177 -0.4105 -0.8175  0.3781
 6457SOL    HW131007   0.866   4.367  12.139 -0.6472  0.2811  1.4391
 6457SOL    HW231008   0.718   4.355  12.135  2.2298  2.4308 -1.3075
 6458SOL     OW31009   2.502   3.424   7.816 -0.7085 -0.5094  0.6255
 6458SOL    HW131010   2.440   3.461   7.879 -1.3028 -0.1969 -0.1553
 6458SOL    HW231011   2.455   3.451   7.738 -1.1184  0.1488  1.0969
 6459SOL     OW31012   4.534   4.226  12.173 -0.1397 -0.2130 -0.5885
 6459SOL    HW131013   4.605   4.187  12.223 -1.0735 -1.4146 -0.1949
 6459SOL    HW231014   4.587   4.269  12.106 -0.5934  0.6867 -0.3719
 6460SOL     OW31015   0.174   3.332   9.476  0.2643  0.1835 -0.8362
 6460SOL    HW131016   0.251   3.296   9.432  0.3644  0.5218 -0.9405
 6460SOL    HW231017   0.153   3.397   9.408  2.1638  2.0385  0.3207
 6461SOL     OW31018   0.642   1.889   4.904 -0.0392 -0.3299 -0.7195
 6461SOL    HW131019   0.671   1.835   4.978  0.9325 -1.2362 -1.7601
 6461SOL    HW231020   0.668   1.839   4.827 -0.7603 -1.0897 -0.4681
 6462SOL     OW31021   2.288   3.482   3.697  0.9174  0.5496 -0.1553
 6462SOL    HW131022   2.247   3.558   3.656  0.4723 -0.1372 -0.9746
 6462SOL    HW231023   2.218   3.417   3.697  1.9286 -0.5308  3.5794
 6463SOL     OW31024   0.374   4.508   7.695 -0.2660 -0.1385  0.8201
 6463SOL    HW131025   0.424   4.441   7.741 -0.6400 -1.3163 -0.4855
 6463SOL    HW231026   0.289   4.478   7.727  0.2892 -2.5986  0.0031
 6464SOL     OW31027   0.470   3.657   2.217  0.0125 -0.0099  0.7915
 6464SOL    HW131028   0.525   3.595   2.170  1.9469  0.5200  2.3788
 6464SOL    HW231029   0.392   3.603   2.202  0.0219 -0.1986  1.4258
 6465SOL     OW31030   3.378   4.677   3.020  0.6380 -0.0152  0.2343
 6465SOL    HW131031   3.445   4.615   2.991  0.2680 -1.3350  2.2339
 6465SOL    HW231032   3.317   4.672   2.946  2.4946 -0.7705 -1.2595
 6466SOL     OW31033   3.744   2.146  11.039 -0.1553 -0.1810  0.1689
 6466SOL    HW131034   3.810   2.214  11.034 -0.0307 -0.3199 -0.0791
 6466SOL    HW231035   3.666   2.193  11.010 -1.8231 -2.8347  0.2666
 6467SOL     OW31036   0.193   4.657   6.679  0.7680 -0.0311  0.3361
 6467SOL    HW131037   0.260   4.653   6.610  1.9080  0.3729  1.4049
 6467SOL    HW231038   0.116   4.691   6.634 -0.9087 -1.1411  2.4071
 6468SOL     OW31039   0.022   3.217   8.003  0.2851  0.0557  0.2215
 6468SOL    HW131040   4.683   3.209   7.951 -0.1882 -0.1931  0.9810
 6468SOL    HW231041   0.006   3.151   8.071  0.0816 -0.0147  0.1046
 6469SOL     OW31042   1.562   4.702  11.471 -0.1195  0.1904  0.2940
 6469SOL    HW131043   1.540   4.738  11.385 -0.2699 -0.8588 -0.1062
 6469SOL    HW231044   1.577   4.609  11.454 -0.1777 -0.4355  3.5781
 6470SOL     OW31045   3.930   3.149   4.390 -0.0814 -0.5485 -0.1826
 6470SOL    HW131046   3.934   3.130   4.484 -1.9190  3.1833  0.6766
 6470SOL    HW231047   3.909   3.065   4.351  5.2388 -2.2020  0.5159
 6471SOL     OW31048   3.411   2.838  11.827 -0.1964 -0.2433 -0.4035
 6471SOL    HW131049   3.317   2.824  11.839 -0.0729 -0.1255  0.7207
 6471SOL    HW231050   3.438   2.758  11.782  1.4900  0.1425 -0.0830
 6472SOL     OW31051   2.934   1.913   4.162 -0.4644  0.0855 -0.7190
 6472SOL    HW131052   2.866   1.974   4.132  1.5066  1.6296 -2.0428
 6472SOL    HW231053   2.923   1.844   4.097  1.0406 -0.5636 -0.2829
 6473SOL     OW31054   2.091   2.458  10.966  0.3672  0.0840  0.1316
 6473SOL    HW131055   2.022   2.392  10.958  0.9806 -0.7658  1.8205
 6473SOL    HW231056   2.155   2.413  11.021  0.5093 -0.2572 -0.3095
 6474SOL     OW31057   3.935   1.251   9.195  0.6244 -0.8115  0.0359
 6474SOL    HW131058   3.842   1.249   9.172  0.1351  0.7315  1.8443
 6474SOL    HW231059   3.937   1.343   9.223  0.1306 -0.4632 -1.0597
 6475SOL     OW31060   4.586   3.003  10.371 -0.1265 -0.0971  0.1595
 6475SOL    HW131061   4.546   3.000  10.284  0.0817  1.0280  0.0306
 6475SOL    HW231062   4.547   3.082  10.410  0.2947 -0.1650  0.7217
 6476SOL     OW31063   0.722   2.716   4.641 -0.1856  0.1647  0.3968
 6476SOL    HW131064   0.746   2.789   4.585  2.4961 -0.8189  0.2644
 6476SOL    HW231065   0.804   2.673   4.665 -0.3745 -0.5247 -0.1858
 6477SOL     OW31066   2.671   1.263   9.318  0.1448 -0.3329  0.1503
 6477SOL    HW131067   2.670   1.186   9.260  1.0836  1.2515 -1.9654
 6477SOL    HW231068   2.603   1.320   9.283 -1.0017 -1.1596  1.0408
 6478SOL     OW31069   3.908   2.593   9.731 -0.6259 -0.1005  0.3681
 6478SOL    HW131070   3.832   2.536   9.724  0.7039 -1.8863  0.7615
 6478SOL    HW231071   3.944   2.580   9.819  3.7726  0.2686 -1.4025
 6479SOL     OW31072   1.278   0.271  17.530  0.4827  0.3206 -0.1235
 6479SOL    HW131073   1.343   0.297  17.464  0.8646  0.9396  0.5057
 6479SOL    HW231074   1.202   0.273  17.472 -1.6944 -3.0013  2.6061
 6480SOL     OW31075   3.980   3.826   5.169  0.0223  0.5178  0.5433
 6480SOL    HW131076   3.948   3.824   5.079 -2.0622  0.7046  1.2783
 6480SOL    HW231077   4.047   3.894   5.168  0.3777  0.1392 -2.8263
 6481SOL     OW31078   2.151   0.358  10.848  0.2965  0.2430  0.0444
 6481SOL    HW131079   2.200   0.323  10.923  1.8029 -0.4356 -1.2441
 6481SOL    HW231080   2.142   0.449  10.877 -0.8347 -0.2304  1.2149
 6482SOL     OW31081   4.702   0.639   0.345 -0.2806 -0.8890 -0.2654
 6482SOL    HW131082   4.684   0.644   0.251  0.8874 -1.3568 -0.5200
 6482SOL    HW231083   4.674   0.724   0.377 -0.2891  0.2370 -3.1940
 6483SOL     OW31084   1.665   1.784   4.172 -0.6720  0.3774  0.3206
 6483SOL    HW131085   1.578   1.785   4.132 -0.8494 -3.6147  0.6648
 6483SOL    HW231086   1.635   1.820   4.255 -2.8159 -2.5634  0.8116
 6484SOL     OW31087   1.280   0.338   7.167 -1.0065  0.2478  0.4027
 6484SOL    HW131088   1.239   0.374   7.088  0.3643  1.8211  0.4013
 6484SOL    HW231089   1.328   0.410   7.208 -0.9447 -0.2876  1.2708
 6485SOL     OW31090   0.960   1.961   6.362 -0.4879  0.7657 -0.1031
 6485SOL    HW131091   0.984   1.893   6.300 -1.6218  1.3841 -1.2107
 6485SOL    HW231092   0.927   1.905   6.432  0.7168 -0.3262 -0.4259
 6486SOL     OW31093   1.558   0.181   8.003 -0.5006 -0.4195 -0.5684
 6486SOL    HW131094   1.574   0.139   8.087 -1.5336  2.0261  0.8490
 6486SOL    HW231095   1.644   0.186   7.960 -0.0346  0.8327  0.5194
 6487SOL     OW31096   3.634   4.230   1.919 -0.0066  0.4620 -0.0153
 6487SOL    HW131097   3.576   4.254   1.847  0.8931  0.4336 -0.7569
 6487SOL    HW231098   3.601   4.153   1.965 -1.6317  0.5049 -1.0961
 6488SOL     OW31099   2.215   3.953  10.172  0.2044  0.5498 -0.4126
 6488SOL    HW131100   2.260   3.978  10.092 -0.9725  1.6261 -0.7549
 6488SOL    HW231101   2.137   3.915  10.133  0.8496 -2.5659  1.3715
 6489SOL     OW31102   4.387   2.611   3.940  0.5360  0.4750 -0.1302
 6489SOL    HW131103   4.294   2.598   3.921  0.3184 -2.6008  3.0610
 6489SOL    HW231104   4.411   2.536   3.993  0.3330  1.2875  1.1277
 6490SOL     OW31105   4.649   2.243   1.736  0.3486  0.0610  0.2342
 6490SOL    HW131106   4.610   2.304   1.674  2.5679 -1.1122 -2.3025
 6490SOL    HW231107   4.608   2.161   1.711  1.7009 -0.2720 -0.8494
 6491SOL     OW31108   4.701   2.456   9.568 -0.6262  0.2695 -0.0371
 6491SOL    HW131109   4.672   2.490   9.652 -2.1027 -1.5781  0.2170
 6491SOL    HW231110   4.631   2.393   9.548  1.0962 -1.6914  0.1414
 6492SOL     OW31111   0.556   4.447   5.373  0.7478  0.3480  0.2611
 6492SOL    HW131112   0.484   4.438   5.311  0.3636 -2.3774  1.1386
 6492SOL    HW231113   0.543   4.534   5.411 -0.9971  0.7833 -1.3593
 6493SOL     OW31114   4.193   3.016  12.222  0.4629  0.1568  0.1844
 6493SOL    HW131115   4.280   2.977  12.233 -0.3364 -1.4578  0.6928
 6493SOL    HW231116   4.200   3.082  12.291  1.4639 -0.9268  1.1146
 6494SOL     OW31117   1.346   0.504  15.632  0.1974  0.1746  0.6653
 6494SOL    HW131118   1.413   0.569  15.615 -0.9699  1.2306  0.0972
 6494SOL    HW231119   1.293   0.504  15.552 -1.0310 -1.5841  1.4552
 6495SOL     OW31120   1.106   2.443   1.949 -0.2276  0.2702  0.2253
 6495SOL    HW131121   1.022   2.488   1.955 -1.2971 -1.6619 -0.1358
 6495SOL    HW231122   1.102   2.394   1.867  0.6792 -0.4620  0.6154
 6496SOL     OW31123   2.595   0.650   7.281  0.3958 -0.0353  0.6315
 6496SOL    HW131124   2.676   0.624   7.324 -0.4749 -2.3340  0.8698
 6496SOL    HW231125   2.528   0.593   7.317  0.1568  0.3637  0.8154
 6497SOL     OW31126   0.238   1.705   5.615  0.4148  0.6158  0.0286
 6497SOL    HW131127   0.236   1.756   5.533 -0.4876  1.2489  0.4492
 6497SOL    HW231128   0.190   1.627   5.587 -0.9874  2.0969 -1.6970
 6498SOL     OW31129   2.202   2.696   0.439  0.1490 -0.0666 -0.0662
 6498SOL    HW131130   2.170   2.665   0.355 -1.5881 -0.5466  0.7821
 6498SOL    HW231131   2.129   2.751   0.467  1.6871  0.8596  2.1337
 6499SOL     OW31132   1.298   4.734  17.570  0.2755 -0.0620 -0.2913
 6499SOL    HW131133   1.234   4.687  17.516 -1.9349  1.7693  0.7668
 6499SOL    HW231134   1.275   0.086  17.563 -2.0137 -0.5004  1.4160
 6500SOL     OW31135   3.690   2.698   8.104 -0.0863 -0.0018 -0.4299
 6500SOL    HW131136   3.783   2.683   8.124 -0.7157 -0.7564  1.8966
 6500SOL    HW231137   3.669   2.754   8.178 -0.8767 -1.7558  0.6735
 6501SOL     OW31138   3.998   0.804   8.354 -0.1299 -0.5362 -0.1606
 6501SOL    HW131139   3.986   0.895   8.383 -0.1548 -0.6201  0.0899
 6501SOL    HW231140   4.088   0.783   8.378 -0.3099  0.0418  1.0382
 6502SOL     OW31141   3.963   0.306  13.967 -0.4459  0.7493 -0.0102
 6502SOL    HW131142   3.956   0.401  13.976  2.3350  0.8456  0.8985
 6502SOL    HW231143   4.056   0.293  13.982 -1.0394 -2.8036  0.7320
 6503SOL     OW31144   3.588   3.897   4.047 -0.2488 -0.1765  0.0450
 6503SOL    HW131145   3.588   3.839   3.971 -0.9650 -1.2024  0.8262
 6503SOL    HW231146   3.676   3.934   4.038 -1.6826  2.6109 -2.5566
 6504SOL     OW31147   1.201   2.705   2.865 -0.2845  0.1983  0.1059
 6504SOL    HW131148   1.292   2.731   2.854 -0.6723  1.3371 -0.4668
 6504SOL    HW231149   1.157   2.734   2.785  0.9187 -2.4142 -1.4698
 6505SOL     OW31150   1.166   0.013   3.268 -0.3316  0.1999 -0.2283
 6505SOL    HW131151   1.163   0.007   3.363  2.9844 -2.4739 -0.2876
 6505SOL    HW231152   1.240   0.073   3.265  0.0434 -0.1834  1.6131
 6506SOL     OW31153   1.023   3.066   2.983  0.2582  0.3698  0.3205
 6506SOL    HW131154   1.057   3.143   2.938 -0.3215  0.5187  0.1353
 6506SOL    HW231155   0.937   3.106   2.991 -0.4820 -1.2529  0.4421
 6507SOL     OW31156   1.092   2.510   6.496 -0.2847 -0.0053  0.5124
 6507SOL    HW131157   1.121   2.545   6.580 -0.4642 -1.6753  1.2645
 6507SOL    HW231158   1.160   2.443   6.483 -0.1299  0.2912 -0.1946
 6508SOL     OW31159   0.434   1.422   6.106  0.4827  0.4599  0.1909
 6508SOL    HW131160   0.412   1.515   6.104 -0.3561  0.2157 -2.0585
 6508SOL    HW231161   0.526   1.424   6.077  0.0239  0.6286 -1.2525
 6509SOL     OW31162   1.074   0.836   7.707  0.1437 -0.3184  0.0694
 6509SOL    HW131163   1.063   0.847   7.612  0.5934  1.9591  0.2722
 6509SOL    HW231164   1.090   0.928   7.731 -0.7618  0.0268 -0.6280
 6510SOL     OW31165   0.667   0.657   1.614  0.2918  0.2862  0.3158
 6510SOL    HW131166   0.718   0.576   1.611 -1.1984 -0.6920  1.0479
 6510SOL    HW231167   0.694   0.692   1.529 -1.4675 -4.2101 -2.1400
 6511SOL     OW31168   2.191   1.437   0.772 -0.6304 -0.1256 -0.0302
 6511SOL    HW131169   2.150   1.424   0.858 -0.7745  0.2045 -0.0515
 6511SOL    HW231170   2.277   1.407   0.803 -1.9203 -1.8436  1.9498
 6512SOL     OW31171   3.558   2.349   0.354  0.2488  0.6851 -0.1075
 6512SOL    HW131172   3.615   2.415   0.316  0.6031  0.8024  0.6251
 6512SOL    HW231173   3.487   2.407   0.383 -1.7525 -1.3282 -0.9312
 6513SOL     OW31174   1.811   2.138   3.806 -0.4266 -0.0277  0.2686
 6513SOL    HW131175   1.877   2.074   3.779  1.2224  1.0467  1.7047
 6513SOL    HW231176   1.833   2.146   3.899 -2.4663  1.1116  0.6630
 6514SOL     OW31177   4.315   3.278   1.650  0.1988 -0.0718 -0.0313
 6514SOL    HW131178   4.255   3.214   1.688  1.3204 -0.7646  0.5730
 6514SOL    HW231179   4.331   3.343   1.718  1.9227 -0.9549  0.4251
 6515SOL     OW31180   2.207   1.145   9.771 -0.1146  0.7298  0.0130
 6515SOL    HW131181   2.230   1.076   9.834 -0.3239  0.0025 -0.7059
 6515SOL    HW231182   2.127   1.185   9.806  0.3798  0.4291  1.4875
 6516SOL     OW31183   4.269   2.237  14.779  0.2509  0.0058 -0.2709
 6516SOL    HW131184   4.298   2.155  14.739 -0.3421 -1.6783  2.7613
 6516SOL    HW231185   4.298   2.231  14.871  0.1697  2.3622 -0.1026
 6517SOL     OW31186   2.085   2.498   5.770 -0.2752  0.5731  0.5004
 6517SOL    HW131187   2.069   2.530   5.682  4.7144  1.9700  0.1228
 6517SOL    HW231188   2.110   2.410   5.743 -0.7613  0.1300  1.4998
 6518SOL     OW31189   4.472   3.241  13.666  0.2033 -0.6798 -0.2941
 6518SOL    HW131190   4.454   3.333  13.647 -0.0001 -0.2738  1.9557
 6518SOL    HW231191   4.383   3.209  13.646  0.2543 -1.0410  0.0540
 6519SOL     OW31192   1.446   3.519  14.796  0.2455 -0.4723 -0.4204
 6519SOL    HW131193   1.485   3.437  14.763  1.1366  0.1635 -0.9348
 6519SOL    HW231194   1.353   3.494  14.798  0.6418 -2.0911 -1.6039
 6520SOL     OW31195   2.292   0.167   1.363  0.8385 -0.2226 -0.1268
 6520SOL    HW131196   2.279   0.072   1.354  1.2659 -0.3786  0.9797
 6520SOL    HW231197   2.387   0.164   1.347  1.0993 -1.0338  1.5975
 6521SOL     OW31198   0.408   3.352   3.363 -0.0581 -0.3726  0.8955
 6521SOL    HW131199   0.320   3.382   3.340  0.0635 -0.1582  0.7118
 6521SOL    HW231200   0.471   3.411   3.322 -0.0257 -0.0049  1.4664
 6522SOL     OW31201   0.751   3.232   8.835  0.0172  0.1451 -0.2964
 6522SOL    HW131202   0.812   3.168   8.870  0.5415  1.0350  0.4394
 6522SOL    HW231203   0.675   3.216   8.891  2.8580 -1.5384  3.0605
 6523SOL     OW31204   4.367   4.561   3.024 -0.1068 -0.3823 -0.1376
 6523SOL    HW131205   4.427   4.510   3.079 -0.0576 -0.6718 -0.4591
 6523SOL    HW231206   4.386   4.652   3.044  0.5282 -0.2404 -1.4290
 6524SOL     OW31207   2.813   0.668   6.358 -0.3396  0.2110  0.4552
 6524SOL    HW131208   2.829   0.574   6.351 -1.0291  0.1571 -0.3571
 6524SOL    HW231209   2.797   0.678   6.452 -3.2266 -2.2454  0.2137
 6525SOL     OW31210   2.111   1.503  11.138 -0.2148 -0.6176 -0.2768
 6525SOL    HW131211   2.149   1.506  11.226  1.4962  0.0198 -1.0369
 6525SOL    HW231212   2.164   1.569  11.093  0.3392  0.7679  2.4193
 6526SOL     OW31213   2.666   3.878   6.495  0.8049 -0.7247  0.0271
 6526SOL    HW131214   2.709   3.798   6.526  2.3884  0.1352  0.0531
 6526SOL    HW231215   2.677   3.879   6.400 -1.2201  0.7498 -0.1859
 6527SOL     OW31216   2.443   0.132   6.157 -0.1493  0.3787 -0.2309
 6527SOL    HW131217   2.352   0.137   6.130  0.9130  2.3571 -3.4770
 6527SOL    HW231218   2.469   0.047   6.119 -0.2863  0.6223 -0.8682
 6528SOL     OW31219   2.797   2.499   8.338 -0.5150 -0.4363  0.1183
 6528SOL    HW131220   2.742   2.559   8.388  0.2593  0.3832 -0.0055
 6528SOL    HW231221   2.776   2.417   8.384 -0.7969 -0.6828 -0.4426
 6529SOL     OW31222   4.367   1.849   8.046  0.2615  0.2196  0.3869
 6529SOL    HW131223   4.443   1.882   7.998 -1.5515  0.8298 -2.0425
 6529SOL    HW231224   4.312   1.927   8.048 -0.2551 -0.1388  0.0635
 6530SOL     OW31225   4.115   1.612  13.668 -0.1237 -0.1640 -0.2530
 6530SOL    HW131226   4.113   1.543  13.602  1.0127  0.4256 -0.9126
 6530SOL    HW231227   4.044   1.580  13.723 -0.4908 -2.5052 -2.0974
 6531SOL     OW31228   1.785   1.614   2.783  0.1745 -0.2275 -0.2247
 6531SOL    HW131229   1.690   1.627   2.776  0.1566 -0.6319 -0.7539
 6531SOL    HW231230   1.787   1.528   2.741  1.4237  0.2799 -1.2087
 6532SOL     OW31231   0.977   1.922  11.089  0.1126  0.1784 -0.0879
 6532SOL    HW131232   0.928   1.840  11.094 -0.7987  0.6529 -1.5048
 6532SOL    HW231233   0.965   1.941  10.996  0.4035 -1.3463 -0.4464
 6533SOL     OW31234   1.425   2.232   2.847 -0.4251 -0.7169 -0.7826
 6533SOL    HW131235   1.501   2.264   2.895 -0.3018  1.0763 -2.1675
 6533SOL    HW231236   1.475   2.218   2.767 -0.3928 -0.9193 -0.7266
 6534SOL     OW31237   2.665   3.087   8.181  0.0813  0.9253  0.6682
 6534SOL    HW131238   2.641   3.180   8.187 -2.0367  0.5002 -1.0618
 6534SOL    HW231239   2.728   3.090   8.110 -0.8942 -3.8227 -0.3775
 6535SOL     OW31240   1.464   1.670  10.096 -0.2010 -0.0778 -0.2859
 6535SOL    HW131241   1.384   1.619  10.084 -1.5897  2.0132  0.1936
 6535SOL    HW231242   1.443   1.753  10.054 -2.1803  0.5858  1.9922
 6536SOL     OW31243   1.130   0.614  15.058 -0.7550  0.0628 -0.4568
 6536SOL    HW131244   1.096   0.569  14.981  2.3070  0.1057 -1.8522
 6536SOL    HW231245   1.177   0.539  15.094  1.4314  1.7707  0.2365
 6537SOL     OW31246   3.070   4.620   5.960  0.2245 -0.0563  0.3483
 6537SOL    HW131247   3.013   4.682   5.915  0.0355 -0.6349 -0.2140
 6537SOL    HW231248   3.001   4.564   5.997 -1.2601  1.1341 -0.6087
 6538SOL     OW31249   3.794   2.760  13.679  0.7042 -0.1294  0.3525
 6538SOL    HW131250   3.804   2.775  13.773  0.6884 -1.8917  0.6304
 6538SOL    HW231251   3.732   2.688  13.682  0.9717 -0.5121 -2.4848
 6539SOL     OW31252   2.836   3.174   4.150 -0.2940 -0.0390 -0.2182
 6539SOL    HW131253   2.865   3.251   4.101  1.4622 -1.6050 -1.6551
 6539SOL    HW231254   2.743   3.169   4.129 -0.3733  1.9069 -0.3582
 6540SOL     OW31255   0.925   2.295   3.523  0.0564 -0.9403 -0.6199
 6540SOL    HW131256   0.871   2.229   3.479 -0.0279 -0.5072 -1.1751
 6540SOL    HW231257   1.008   2.291   3.475  0.3035  0.9678 -0.3228
 6541SOL     OW31258   3.143   4.295   7.695 -0.0176  0.8740 -0.8580
 6541SOL    HW131259   3.192   4.274   7.615  0.9787  1.1439 -0.3130
 6541SOL    HW231260   3.126   4.207   7.729  2.3748  0.3952 -0.9011
 6542SOL     OW31261   0.041   1.844  17.051  0.3195  0.5518  0.1947
 6542SOL    HW131262   0.106   1.870  17.116 -0.8901  0.2910  1.5039
 6542SOL    HW231263   4.715   1.911  17.066 -0.3757 -0.6327  2.3042
 6543SOL     OW31264   0.579   2.843  16.378  0.0260  0.7649  0.0005
 6543SOL    HW131265   0.663   2.827  16.421  0.1738  0.4042 -0.4156
 6543SOL    HW231266   0.539   2.871  16.460 -1.5794 -1.0747 -0.1597
 6544SOL     OW31267   4.557   2.306   8.145  0.4642  0.3198  0.1189
 6544SOL    HW131268   4.500   2.292   8.220 -0.8041 -0.3314 -0.9656
 6544SOL    HW231269   4.533   2.396   8.122 -0.1764 -0.1236 -0.9450
 6545SOL     OW31270   2.077   2.504   8.334  0.2697 -0.8533 -0.4504
 6545SOL    HW131271   2.016   2.453   8.281  1.8685 -2.9534 -0.2674
 6545SOL    HW231272   2.082   2.583   8.281  0.8944 -1.2942 -1.0494
 6546SOL     OW31273   4.499   0.335   8.166  0.1611 -0.3164  0.7117
 6546SOL    HW131274   4.424   0.378   8.208  2.5169  1.4811  3.0341
 6546SOL    HW231275   4.538   0.411   8.124  0.6051 -0.5364  0.7323
 6547SOL     OW31276   3.210   0.466  11.813 -0.7575 -0.4515  0.1121
 6547SOL    HW131277   3.133   0.412  11.827 -0.9350 -0.7565 -1.9374
 6547SOL    HW231278   3.248   0.461  11.900 -0.0281  1.0849 -0.1066
 6548SOL     OW31279   0.821   0.061   7.523  0.0401 -0.3881  0.1493
 6548SOL    HW131280   0.797   0.032   7.611 -0.2344 -0.1801  0.1426
 6548SOL    HW231281   0.735   0.051   7.481  0.5368  0.0436 -0.9855
 6549SOL     OW31282   2.080   0.232  15.387 -0.0949  0.0212  0.3279
 6549SOL    HW131283   2.142   0.221  15.315 -1.0652 -2.1833 -0.1790
 6549SOL    HW231284   2.094   0.145  15.426  2.8338  1.1955  1.8581
 6550SOL     OW31285   0.421   2.200   8.584 -0.0660 -0.0556  0.6174
 6550SOL    HW131286   0.498   2.228   8.534 -1.8078  1.1826 -1.3692
 6550SOL    HW231287   0.361   2.174   8.513  0.3856 -3.3846  1.4611
 6551SOL     OW31288   2.797   2.549   4.110 -0.1344  0.1605 -0.2661
 6551SOL    HW131289   2.885   2.513   4.098 -1.1307 -2.0046 -1.0109
 6551SOL    HW231290   2.782   2.530   4.203 -1.6222  1.7639 -0.1872
 6552SOL     OW31291   2.864   1.285   2.686  0.6799 -0.1599  0.3959
 6552SOL    HW131292   2.875   1.347   2.614 -0.1458 -0.8127 -0.2900
 6552SOL    HW231293   2.952   1.250   2.699  1.4043  1.2295 -0.8472
 6553SOL     OW31294   0.191   4.612   8.461 -0.2291 -0.4595  0.3019
 6553SOL    HW131295   0.101   4.624   8.432  0.3599  1.3617 -0.7822
 6553SOL    HW231296   0.245   4.675   8.413  0.0958 -0.1788  1.0244
 6554SOL     OW31297   1.708   1.533   4.334  0.3951  0.0345  0.2814
 6554SOL    HW131298   1.702   1.601   4.267 -0.1067 -0.7472 -0.4684
 6554SOL    HW231299   1.618   1.535   4.366 -0.3414  0.8332 -1.8511
 6555SOL     OW31300   4.729   2.691  14.657 -0.0183  0.1986 -0.5668
 6555SOL    HW131301   0.062   2.749  14.676  0.2746  0.7267 -3.2691
 6555SOL    HW231302   0.037   2.617  14.621  2.9357  2.1797 -0.6727
 6556SOL     OW31303   2.923   0.130   4.788 -0.0124 -0.3243 -0.2261
 6556SOL    HW131304   2.909   0.124   4.882  0.2184  0.4534 -0.1374
 6556SOL    HW231305   3.019   0.133   4.791 -0.1223  0.5120  1.9794
 6557SOL     OW31306   2.376   2.327   1.521 -0.4102  0.1420 -0.7339
 6557SOL    HW131307   2.364   2.404   1.577  1.8237 -0.3342  0.4042
 6557SOL    HW231308   2.344   2.358   1.437  0.2950  0.3764 -0.9150
 6558SOL     OW31309   2.364   4.128   7.185 -0.3761  0.2446 -0.4709
 6558SOL    HW131310   2.341   4.070   7.112  2.6807 -0.4394 -0.8999
 6558SOL    HW231311   2.277   4.143   7.222 -0.5945 -0.0717 -0.8553
 6559SOL     OW31312   2.449   3.397   6.386 -0.2972 -0.2495  0.1101
 6559SOL    HW131313   2.539   3.380   6.360 -1.0137 -0.5680 -2.2035
 6559SOL    HW231314   2.436   3.312   6.430  0.1344  1.3532  3.3296
 6560SOL     OW31315   2.929   2.001   8.293 -0.2722 -0.5468 -0.6885
 6560SOL    HW131316   3.025   2.006   8.294 -0.2621 -0.7292 -0.7939
 6560SOL    HW231317   2.912   1.983   8.200  0.9573 -2.6619 -0.5142
 6561SOL     OW31318   2.346   0.070   4.709 -0.0726 -0.0586 -0.8776
 6561SOL    HW131319   2.404   0.124   4.763  0.1111 -0.6492 -0.4859
 6561SOL    HW231320   2.391   0.066   4.625 -1.8012 -2.6846 -1.6680
 6562SOL     OW31321   3.210   1.709   1.981 -0.1317 -0.4002  0.2012
 6562SOL    HW131322   3.134   1.680   1.931  0.1746  0.4499 -0.7522
 6562SOL    HW231323   3.189   1.675   2.068 -2.2302  0.3445 -0.0304
 6563SOL     OW31324   0.116   2.119  17.584 -0.6291  0.7114 -0.1288
 6563SOL    HW131325   0.063   2.095  17.660 -1.2501  0.8559 -0.5200
 6563SOL    HW231326   0.199   2.078  17.608 -0.9690  0.1996  0.1524
 6564SOL     OW31327   4.465   3.671  15.848  0.0417  0.3710 -0.0293
 6564SOL    HW131328   4.504   3.752  15.882  2.3876 -0.5834 -0.4053
 6564SOL    HW231329   4.372   3.689  15.840  0.2791  1.5460 -0.2303
 6565SOL     OW31330   2.245   4.430   4.646  0.0416 -0.2961 -0.5949
 6565SOL    HW131331   2.326   4.388   4.676 -0.1724  0.0147  0.4268
 6565SOL    HW231332   2.222   4.483   4.722  1.4937 -0.4590 -0.0276
 6566SOL     OW31333   2.297   3.754   0.875  0.4777 -0.4697  0.1477
 6566SOL    HW131334   2.227   3.798   0.923 -1.1737 -3.5013  0.5732
 6566SOL    HW231335   2.253   3.719   0.798 -0.1160  1.0425 -0.1799
 6567SOL     OW31336   3.538   3.666   6.041  0.1086 -0.0810  0.7059
 6567SOL    HW131337   3.543   3.728   5.969 -0.9905 -1.2157 -0.3411
 6567SOL    HW231338   3.629   3.635   6.049  0.5525  1.3712  1.2956
 6568SOL     OW31339   2.073   0.118   4.717 -0.2172 -0.0949 -0.0236
 6568SOL    HW131340   2.168   0.104   4.722 -0.4076 -0.3968  2.9266
 6568SOL    HW231341   2.038   0.076   4.640  0.8932 -0.3697 -0.3781
 6569SOL     OW31342   4.380   4.698  13.815  0.2289  0.1353 -0.0539
 6569SOL    HW131343   4.439   0.007  13.871 -1.2095  0.8605  0.7891
 6569SOL    HW231344   4.299   4.719  13.861  1.1013 -0.2736  1.6461
 6570SOL     OW31345   2.422   3.417   4.701  0.8193 -0.4087  0.2866
 6570SOL    HW131346   2.494   3.394   4.759  1.1988  0.4514  0.1405
 6570SOL    HW231347   2.445   3.491   4.646 -1.4994 -0.2019 -0.3907
 6571SOL     OW31348   4.652   3.337  15.463  0.0432  0.2125  0.2300
 6571SOL    HW131349   4.738   3.360  15.429 -0.6990  2.4815 -0.0970
 6571SOL    HW231350   4.630   3.407  15.525 -0.4691  0.8334 -0.6445
 6572SOL     OW31351   0.048   3.898   9.428  0.0135  0.4671 -0.0147
 6572SOL    HW131352   0.128   3.884   9.376 -1.0233  1.6480 -1.9310
 6572SOL    HW231353   0.063   3.984   9.468 -0.5338 -1.3849  4.1396
 6573SOL     OW31354   2.778   2.394  13.063  0.4198  0.0994 -0.1075
 6573SOL    HW131355   2.865   2.385  13.023  0.0585  0.7907 -1.0554
 6573SOL    HW231356   2.792   2.473  13.116 -0.8852  1.5845 -2.0005
 6574SOL     OW31357   0.553   3.891   6.398 -0.2385 -0.1347  0.7417
 6574SOL    HW131358   0.593   3.833   6.462  1.2369 -1.7358 -1.6656
 6574SOL    HW231359   0.628   3.940   6.365 -0.2239  0.8624  2.2672
 6575SOL     OW31360   1.897   2.167   8.609 -0.7090  0.6435  0.3468
 6575SOL    HW131361   1.919   2.077   8.632 -0.7168  0.5913  0.1546
 6575SOL    HW231362   1.975   2.196   8.561 -0.9670  0.5926 -0.1071
 6576SOL     OW31363   4.048   3.384   5.387  0.3493 -0.4879  0.0041
 6576SOL    HW131364   4.048   3.477   5.408  1.0911 -0.6860  0.8535
 6576SOL    HW231365   4.097   3.363   5.308  2.0282 -0.4474  1.0301
 6577SOL     OW31366   0.765   0.274   3.602 -0.1013  0.4141 -0.2842
 6577SOL    HW131367   0.676   0.239   3.599 -0.1206  0.3465  1.0423
 6577SOL    HW231368   0.749   0.367   3.588  2.1408  0.5397 -1.9701
 6578SOL     OW31369   2.579   3.033   9.671  0.0966  0.7614  0.0014
 6578SOL    HW131370   2.656   2.986   9.705  0.5546  0.2313 -1.7347
 6578SOL    HW231371   2.500   2.991   9.705 -0.2468  0.8809 -0.6467
 6579SOL     OW31372   0.438   3.133   7.397 -0.1437  0.2093  0.0802
 6579SOL    HW131373   0.394   3.201   7.345 -3.2012 -1.7605  0.1281
 6579SOL    HW231374   0.426   3.182   7.478 -0.1424  1.4627 -0.6565
 6580SOL     OW31375   1.572   1.307   2.475  0.1974 -0.0753 -0.4171
 6580SOL    HW131376   1.493   1.309   2.529 -0.6197  0.8419 -1.6512
 6580SOL    HW231377   1.589   1.401   2.464  0.6577  0.0480  1.4368
 6581SOL     OW31378   2.193   3.606   6.160 -0.0160  0.1826 -0.2907
 6581SOL    HW131379   2.146   3.597   6.077  0.2996 -1.0320 -0.3376
 6581SOL    HW231380   2.153   3.542   6.219 -0.4619 -0.7265 -1.5791
 6582SOL     OW31381   1.961   2.430   2.320 -0.5844 -0.4092 -0.7920
 6582SOL    HW131382   1.882   2.403   2.272 -1.3755 -1.3109  1.0025
 6582SOL    HW231383   1.933   2.405   2.408  1.2641  0.6782  0.0960
 6583SOL     OW31384   0.333   2.191  16.189  0.3831  0.1509  0.2720
 6583SOL    HW131385   0.293   2.278  16.184 -1.0598 -0.5774 -0.9772
 6583SOL    HW231386   0.310   2.168  16.279  0.9725  0.6989  0.5673
 6584SOL     OW31387   2.815   3.225   8.429 -0.1623  0.0339  0.4339
 6584SOL    HW131388   2.894   3.219   8.375  0.0595 -0.0441  0.7640
 6584SOL    HW231389   2.792   3.317   8.417  0.0511 -0.2922 -2.4111
 6585SOL     OW31390   2.907   3.893  11.319 -0.4974 -0.6103  0.2432
 6585SOL    HW131391   2.912   3.939  11.403 -0.1781 -0.5301  0.1826
 6585SOL    HW231392   2.976   3.831  11.342  1.0713  0.4074 -1.7268
 6586SOL     OW31393   3.306   2.591   7.704  0.3115  0.0189  1.0457
 6586SOL    HW131394   3.324   2.555   7.617  1.1326 -0.2169  1.3138
 6586SOL    HW231395   3.393   2.578   7.743  1.5313  2.8594 -0.7257
 6587SOL     OW31396   4.676   0.921   0.848 -0.4210  0.1035  0.7410
 6587SOL    HW131397   4.667   0.905   0.755  0.6592 -1.1493  0.8474
 6587SOL    HW231398   4.730   0.844   0.864 -0.6392  0.1455  1.6897
 6588SOL     OW31399   4.481   2.824   4.944 -0.2395 -0.0502  0.2261
 6588SOL    HW131400   4.564   2.782   4.967  0.6471  2.7797  2.1361
 6588SOL    HW231401   4.512   2.912   4.962 -1.7768  0.3855  0.6910
 6589SOL     OW31402   2.278   0.268   7.449 -0.0417 -0.7294 -0.7393
 6589SOL    HW131403   2.349   0.324   7.419  1.9771 -3.8304 -1.8116
 6589SOL    HW231404   2.223   0.285   7.372  0.0217  2.5519 -0.0193
 6590SOL     OW31405   3.782   0.783   5.045 -0.8168 -0.2590  0.0918
 6590SOL    HW131406   3.689   0.761   5.051 -0.4261 -1.7024  0.8102
 6590SOL    HW231407   3.770   0.871   5.008  0.4286 -0.3892 -0.6250
 6591SOL     OW31408   2.426   4.182   7.646  0.6264 -0.7093 -0.3183
 6591SOL    HW131409   2.333   4.169   7.668  1.6582 -2.3321  3.0546
 6591SOL    HW231410   2.415   4.255   7.585 -1.1108  0.4463  1.3959
 6592SOL     OW31411   2.757   4.722   6.182 -0.2559  0.2701  0.3710
 6592SOL    HW131412   2.834   4.686   6.227 -1.0187 -1.1201  0.5822
 6592SOL    HW231413   2.721   4.639   6.152  0.5285 -0.6520  1.9469
 6593SOL     OW31414   3.311   0.467   6.643 -0.1719 -0.7231 -0.2437
 6593SOL    HW131415   3.333   0.512   6.562 -0.2832 -0.5062 -0.1546
 6593SOL    HW231416   3.388   0.410   6.651  0.3914  0.0199 -0.3792
 6594SOL     OW31417   4.377   4.599   8.924 -0.6127  0.1920 -0.1934
 6594SOL    HW131418   4.426   4.519   8.942 -2.0189 -0.8345 -0.9720
 6594SOL    HW231419   4.436   4.638   8.860  1.1807 -1.2477  0.5873
 6595SOL     OW31420   4.246   1.242  11.269  0.0140 -0.2413 -0.6889
 6595SOL    HW131421   4.158   1.218  11.240  0.3761 -0.3238 -1.6828
 6595SOL    HW231422   4.304   1.205  11.203  0.1817 -0.7116 -0.2775
 6596SOL     OW31423   1.537   1.141   3.701  0.7596 -0.3327  0.0622
 6596SOL    HW131424   1.569   1.229   3.680 -2.3472  1.1833  1.7687
 6596SOL    HW231425   1.478   1.130   3.627 -1.1057 -1.6577  1.7391
 6597SOL     OW31426   3.469   0.890   3.441 -0.0164 -0.5076  0.0945
 6597SOL    HW131427   3.453   0.943   3.363 -2.2428 -1.3494 -0.0383
 6597SOL    HW231428   3.451   0.952   3.512 -1.5244 -1.0879  0.2337
 6598SOL     OW31429   0.028   1.711   9.909  0.2949  0.3537  0.2515
 6598SOL    HW131430   0.025   1.769   9.985 -3.2165  0.2574  0.1636
 6598SOL    HW231431   0.053   1.635   9.963 -2.6661 -1.0890 -0.4051
 6599SOL     OW31432   3.692   0.268  10.078 -0.1570  0.2331 -0.4683
 6599SOL    HW131433   3.755   0.321  10.030  0.5045  0.9600  1.1790
 6599SOL    HW231434   3.719   0.286  10.169  2.5546 -0.6815 -1.0966
 6600SOL     OW31435   1.850   2.993  17.614  0.8761  0.5018  0.1475
 6600SOL    HW131436   1.794   3.071  17.615 -1.2415 -0.9671 -1.8575
 6600SOL    HW231437   1.780   2.928  17.609 -0.7540  2.2513 -0.2093
 6601SOL     OW31438   2.597   4.212   2.589 -0.7058  0.4344  0.8887
 6601SOL    HW131439   2.557   4.296   2.612 -1.9278 -0.0347  0.4165
 6601SOL    HW231440   2.609   4.174   2.676 -1.4329  0.9767  1.2261
 6602SOL     OW31441   1.723   1.663   3.687  0.1285  0.0304 -0.4692
 6602SOL    HW131442   1.652   1.727   3.684  1.1472  1.1816 -0.3762
 6602SOL    HW231443   1.715   1.626   3.599  2.1144 -1.3682 -0.0686
 6603SOL     OW31444   4.670   3.745   6.004  0.6729  0.3437 -0.0843
 6603SOL    HW131445   4.621   3.667   6.029 -3.5163  3.6603  2.0170
 6603SOL    HW231446   4.602   3.796   5.960 -0.7824 -1.9228 -0.4295
 6604SOL     OW31447   1.874   4.567  15.460 -0.2863  0.6729 -0.5622
 6604SOL    HW131448   1.788   4.583  15.499  0.1726  0.0746  0.7140
 6604SOL    HW231449   1.874   4.482  15.416  0.8047  1.3623 -1.8759
 6605SOL     OW31450   4.170   3.161   8.426 -0.2932 -0.0566 -0.5933
 6605SOL    HW131451   4.250   3.174   8.476 -1.7955  0.2236  1.7210
 6605SOL    HW231452   4.123   3.234   8.467 -0.7714 -1.4881  1.4209
 6606SOL     OW31453   2.869   2.776   4.383 -0.0647 -0.1364 -0.0601
 6606SOL    HW131454   2.860   2.723   4.462  0.0177 -1.8249 -1.1693
 6606SOL    HW231455   2.828   2.860   4.405 -1.4443 -0.2732 -2.0478
 6607SOL     OW31456   1.591   3.929   3.500 -0.0720  0.7035  0.1289
 6607SOL    HW131457   1.558   4.011   3.463 -0.4872  1.5202  2.2835
 6607SOL    HW231458   1.548   3.934   3.585  2.4630  2.0983  1.3289
 6608SOL     OW31459   2.392   4.174   8.737 -0.0791  0.6892 -0.4602
 6608SOL    HW131460   2.398   4.156   8.643 -1.5287 -1.5010 -0.1263
 6608SOL    HW231461   2.362   4.265   8.741 -0.1239  0.6101  0.9052
 6609SOL     OW31462   2.992   2.521   2.613 -0.1449 -0.6744  0.0843
 6609SOL    HW131463   3.061   2.459   2.638  0.5911 -0.2518 -0.9133
 6609SOL    HW231464   2.988   2.573   2.693  1.2310 -1.7387  0.8505
 6610SOL     OW31465   3.778   1.319   4.354  0.7802  0.7074  0.0036
 6610SOL    HW131466   3.824   1.286   4.277  0.6955 -1.3706  0.8512
 6610SOL    HW231467   3.694   1.324   4.310  1.1893  0.1819 -0.8416
 6611SOL     OW31468   3.971   1.939   4.812  0.4116  0.2015  0.0350
 6611SOL    HW131469   3.977   1.989   4.730 -0.5171  0.3027  0.0284
 6611SOL    HW231470   3.910   1.871   4.783 -0.7218  1.6758 -1.1118
 6612SOL     OW31471   0.666   1.077   2.679 -0.2668  0.4304  0.5955
 6612SOL    HW131472   0.622   1.104   2.598  0.5895 -3.0235 -1.0431
 6612SOL    HW231473   0.613   1.126   2.741 -0.3280 -0.1983  1.0346
 6613SOL     OW31474   2.792   0.610   2.301 -0.5536 -0.5571 -0.3089
 6613SOL    HW131475   2.855   0.540   2.282  0.5331  0.8957 -2.0009
 6613SOL    HW231476   2.791   0.591   2.395  0.9538 -0.4377 -0.2586
 6614SOL     OW31477   0.349   1.731   7.490 -0.0871  0.6783  0.2043
 6614SOL    HW131478   0.304   1.653   7.521 -1.3453 -0.5970 -4.7820
 6614SOL    HW231479   0.389   1.704   7.407 -0.8745 -0.1944  0.1182
 6615SOL     OW31480   4.197   1.607   8.767  0.2469 -0.1643  0.5041
 6615SOL    HW131481   4.272   1.557   8.799  0.5199 -0.3835 -0.4870
 6615SOL    HW231482   4.237   1.657   8.696 -1.3659 -0.9017 -0.9179
 6616SOL     OW31483   2.325   2.130  12.901 -0.0472 -0.2461 -0.5160
 6616SOL    HW131484   2.392   2.198  12.904 -0.3045 -0.0362  0.9210
 6616SOL    HW231485   2.316   2.116  12.996 -1.0353  2.7105 -0.1668
 6617SOL     OW31486   0.117   3.272  16.138  0.6160  0.1674 -0.3607
 6617SOL    HW131487   0.031   3.258  16.098  1.8392 -1.7916 -2.3449
 6617SOL    HW231488   0.134   3.185  16.174  1.9184  0.5450 -0.0548
 6618SOL     OW31489   3.998   0.370  11.262  0.3621  0.3853 -0.8490
 6618SOL    HW131490   3.959   0.345  11.346  1.1322 -0.4591 -0.7467
 6618SOL    HW231491   3.977   0.463  11.255  2.3032  0.7994 -1.1522
 6619SOL     OW31492   0.765   3.315   4.888 -0.4306  0.4717  0.0570
 6619SOL    HW131493   0.814   3.285   4.811 -0.0678 -0.9756  0.8402
 6619SOL    HW231494   0.774   3.247   4.955 -3.1367  0.8640  0.8150
 6620SOL     OW31495   3.574   1.677   8.498 -0.2651 -0.0035 -0.0392
 6620SOL    HW131496   3.649   1.626   8.469  1.2920  1.1531  1.9206
 6620SOL    HW231497   3.576   1.751   8.437  0.4050  1.8804  2.2264
 6621SOL     OW31498   0.289   1.475   1.619 -0.3905  0.5048  0.3889
 6621SOL    HW131499   0.382   1.501   1.620 -0.3786  0.4983 -0.3195
 6621SOL    HW231500   0.298   1.387   1.581  1.7369  0.4847  0.9392
 6622SOL     OW31501   4.505   1.706  10.224  0.2237 -0.2067 -0.4231
 6622SOL    HW131502   4.460   1.738  10.146 -0.3582  1.3981  0.5703
 6622SOL    HW231503   4.448   1.731  10.296 -1.5336 -0.2393 -1.8092
 6623SOL     OW31504   3.848   0.933  16.040  0.3226  0.0044 -0.4034
 6623SOL    HW131505   3.844   0.970  16.128 -0.0844  1.6295 -1.1084
 6623SOL    HW231506   3.914   0.992  16.004 -0.3493  1.4976  0.8274
 6624SOL     OW31507   3.107   2.473   1.145  0.1735 -0.0311 -0.3388
 6624SOL    HW131508   3.078   2.536   1.079 -1.9688  0.8966  1.4813
 6624SOL    HW231509   3.201   2.489   1.153  0.2822 -0.6277 -0.3894
 6625SOL     OW31510   1.262   0.123   4.115  0.2104  0.0424 -0.1625
 6625SOL    HW131511   1.272   0.041   4.164 -0.5492 -1.4411 -2.4774
 6625SOL    HW231512   1.186   0.168   4.154  2.3320  3.4178  0.0913
 6626SOL     OW31513   1.522   1.685   2.726 -0.3196  0.2934 -0.4229
 6626SOL    HW131514   1.461   1.627   2.770  1.1729 -0.4892  0.6263
 6626SOL    HW231515   1.465   1.758   2.703 -1.2727 -0.6032 -0.9029
 6627SOL     OW31516   1.863   2.738   7.127  0.3305  0.1594 -0.1823
 6627SOL    HW131517   1.811   2.786   7.192 -0.1960 -1.0321  0.2712
 6627SOL    HW231518   1.925   2.802   7.092 -0.7518  1.8347  0.9907
 6628SOL     OW31519   3.413   3.048   2.261 -0.0234  0.0050 -0.8390
 6628SOL    HW131520   3.475   2.976   2.280 -1.0514 -0.8863 -0.8526
 6628SOL    HW231521   3.472   3.108   2.216  0.2840  0.9497  0.8263
 6629SOL     OW31522   1.217   3.367   0.258  0.6517  0.2225 -0.2493
 6629SOL    HW131523   1.193   3.347   0.167  0.7443 -0.2290 -0.1742
 6629SOL    HW231524   1.158   3.320   0.317  0.0202  0.5047 -0.6591
 6630SOL     OW31525   2.432   3.250   9.109 -0.6702  0.0286  0.2273
 6630SOL    HW131526   2.419   3.345   9.114  2.7138  0.4975 -0.4676
 6630SOL    HW231527   2.382   3.223   9.186 -0.1198  0.7296  0.8195
 6631SOL     OW31528   1.691   3.421   7.962 -0.0561 -0.1244 -0.1188
 6631SOL    HW131529   1.690   3.516   7.973  0.3531 -0.3404  1.8533
 6631SOL    HW231530   1.597   3.406   7.962 -0.1404  0.3895 -1.5658
 6632SOL     OW31531   2.646   3.807   3.434 -0.1692 -0.6497  0.2761
 6632SOL    HW131532   2.606   3.855   3.506  0.2920 -2.2359  1.5827
 6632SOL    HW231533   2.713   3.756   3.479  0.6173  0.4746  0.3789
 6633SOL     OW31534   3.562   3.286  15.739 -0.0993 -0.2552  0.8927
 6633SOL    HW131535   3.521   3.265  15.823 -2.4084 -0.8920 -0.3860
 6633SOL    HW231536   3.490   3.294  15.676  1.1312 -2.1683 -0.7780
 6634SOL     OW31537   4.405   1.994   3.977  0.3703 -0.0781 -0.0238
 6634SOL    HW131538   4.384   1.945   3.898  0.8106  0.4388 -0.4634
 6634SOL    HW231539   4.400   1.922   4.039  1.0616  1.3910  1.7354
 6635SOL     OW31540   1.923   3.311   6.624 -0.5088 -0.2791 -0.1066
 6635SOL    HW131541   2.012   3.345   6.630 -0.9665  0.9122 -0.2384
 6635SOL    HW231542   1.906   3.330   6.532  0.2784 -0.7434 -0.3458
 6636SOL     OW31543   4.449   0.936  10.167 -0.3081 -0.0699  0.3447
 6636SOL    HW131544   4.495   0.975  10.093 -0.8243 -2.0360 -1.0189
 6636SOL    HW231545   4.526   0.916  10.221  0.2474 -1.0545 -0.7937
 6637SOL     OW31546   1.757   2.717   6.124 -0.8241  0.3631  0.3058
 6637SOL    HW131547   1.731   2.638   6.171  0.5452  0.3867  1.1276
 6637SOL    HW231548   1.819   2.754   6.188 -0.8975  0.1007  0.5247
 6638SOL     OW31549   4.030   0.041  11.567 -0.4789 -0.4466  0.1311
 6638SOL    HW131550   3.991   0.100  11.502 -0.0670  0.9516  1.1366
 6638SOL    HW231551   3.979   0.055  11.647  0.2852 -0.9035  0.6953
 6639SOL     OW31552   3.793   3.848  12.680 -0.1388  0.4581  0.5714
 6639SOL    HW131553   3.831   3.834  12.593 -1.1907  0.2780  0.1372
 6639SOL    HW231554   3.727   3.917  12.677 -0.7850 -0.1471  0.9009
 6640SOL     OW31555   2.853   2.874   6.654  0.3094 -0.0045 -0.0833
 6640SOL    HW131556   2.942   2.893   6.682 -0.2853  0.6737  1.3770
 6640SOL    HW231557   2.862   2.799   6.596 -3.0590 -0.8747  0.5267
 6641SOL     OW31558   0.059   3.214   3.362  0.0584 -0.4624  0.1816
 6641SOL    HW131559   0.121   3.239   3.431  1.2185  1.4847 -1.6075
 6641SOL    HW231560   0.082   3.121   3.356 -0.9262 -0.9051  2.8816
 6642SOL     OW31561   3.077   4.118  16.919  0.2085  0.3748 -0.1807
 6642SOL    HW131562   3.084   4.159  17.005  1.5530 -0.8970  0.3122
 6642SOL    HW231563   3.054   4.030  16.949 -2.0483  1.0812  0.1793
 6643SOL     OW31564   3.549   4.194  16.168  0.0777 -0.2617 -0.0660
 6643SOL    HW131565   3.530   4.237  16.251 -1.3773  0.0706 -0.5667
 6643SOL    HW231566   3.459   4.169  16.147  0.4984  0.6548 -2.9718
 6644SOL     OW31567   1.914   4.413   3.584 -0.3500 -0.4065 -0.1861
 6644SOL    HW131568   1.995   4.372   3.615  0.2002  0.0243 -1.0787
 6644SOL    HW231569   1.950   4.484   3.531 -2.6158  1.1944  0.4345
 6645SOL     OW31570   3.786   2.718   8.919  0.0771 -0.1584 -0.0461
 6645SOL    HW131571   3.754   2.674   8.998  1.7109  0.7729  1.1499
 6645SOL    HW231572   3.785   2.810   8.945 -2.9301  0.0078 -0.7586
 6646SOL     OW31573   2.576   0.177   8.150 -0.0381 -0.0351 -0.3164
 6646SOL    HW131574   2.634   0.132   8.212 -0.2169 -0.8572 -0.7419
 6646SOL    HW231575   2.560   0.263   8.189 -0.9145 -0.8453  1.1476
 6647SOL     OW31576   1.907   0.060   4.914  0.1303  0.0253  0.6997
 6647SOL    HW131577   1.953   0.116   4.977 -0.0890  0.2457  0.6640
 6647SOL    HW231578   1.975   0.049   4.848 -1.2567 -1.0593 -0.5429
 6648SOL     OW31579   2.046   3.537  11.352  0.3458 -0.0199  0.3586
 6648SOL    HW131580   2.115   3.527  11.418  0.3523  3.7220  0.9212
 6648SOL    HW231581   2.026   3.631  11.352  1.0723  0.1253 -0.1629
 6649SOL     OW31582   2.299   0.610   7.679  0.3541 -0.5519  0.0360
 6649SOL    HW131583   2.380   0.634   7.725  0.7706  0.2544 -1.1131
 6649SOL    HW231584   2.239   0.681   7.704 -0.2082 -1.3342  0.8833
 6650SOL     OW31585   4.117   1.059   2.691  0.1575  0.2636 -0.4839
 6650SOL    HW131586   4.063   1.049   2.613  0.4419 -0.3617 -0.5977
 6650SOL    HW231587   4.180   0.987   2.684 -0.8505 -0.7989  1.1916
 6651SOL     OW31588   1.272   4.517  15.294  0.3450 -0.7650  0.4933
 6651SOL    HW131589   1.349   4.574  15.299  1.2007 -1.8279 -0.5248
 6651SOL    HW231590   1.272   4.460  15.371 -0.6098 -0.2487  0.8800
 6652SOL     OW31591   1.764   2.275  13.826  0.3874  0.4887  0.0602
 6652SOL    HW131592   1.669   2.284  13.834  0.5300  0.4424  1.7290
 6652SOL    HW231593   1.766   2.181  13.812 -1.1949 -0.0430  3.5253
 6653SOL     OW31594   2.083   4.262   9.593 -0.6233 -0.0883  0.3500
 6653SOL    HW131595   2.062   4.187   9.538  0.8296 -1.8222  2.1607
 6653SOL    HW231596   2.088   4.227   9.682  0.4303 -0.0028  0.3216
 6654SOL     OW31597   2.647   0.152  10.240 -0.5445 -0.4933  0.1438
 6654SOL    HW131598   2.679   0.106  10.317  0.9548  1.8884  0.9126
 6654SOL    HW231599   2.612   0.078  10.190 -0.3873  0.4130 -1.3032
 6655SOL     OW31600   2.843   4.442   7.872 -0.1623  0.1118 -0.2795
 6655SOL    HW131601   2.829   4.350   7.850  1.7802 -0.5615  1.2465
 6655SOL    HW231602   2.753   4.473   7.868  0.7191  2.8622  0.8271
 6656SOL     OW31603   3.950   4.585   4.107  0.4297 -0.1949 -0.0987
 6656SOL    HW131604   3.874   4.641   4.126  0.2642 -0.0795 -1.1232
 6656SOL    HW231605   4.012   4.606   4.177  0.0194  0.3352  0.1097
 6657SOL     OW31606   1.644   2.169  12.273  0.1624 -0.6208  0.1030
 6657SOL    HW131607   1.629   2.170  12.368  0.9375  1.2364  0.2257
 6657SOL    HW231608   1.691   2.253  12.266 -0.4319 -0.1494  1.7686
 6658SOL     OW31609   4.379   3.503   3.996  0.0416 -0.8592 -0.2271
 6658SOL    HW131610   4.397   3.594   3.972  2.4295 -1.7343 -1.7013
 6658SOL    HW231611   4.459   3.494   4.048 -0.2437  2.3949  0.7997
 6659SOL     OW31612   3.021   1.093   0.396  0.4282  0.5038  0.1685
 6659SOL    HW131613   3.040   1.022   0.335 -0.6736  0.1087  0.2758
 6659SOL    HW231614   2.948   1.055   0.444 -0.7681 -0.7215 -2.5848
 6660SOL     OW31615   2.089   4.346   8.273 -0.7195  0.0039  0.1906
 6660SOL    HW131616   2.141   4.301   8.206 -0.2165 -1.0816  1.3298
 6660SOL    HW231617   2.015   4.371   8.218 -0.4195 -0.8985 -0.6400
 6661SOL     OW31618   3.493   3.069  10.937 -0.0692 -0.7952  0.1063
 6661SOL    HW131619   3.582   3.033  10.943  0.4800  0.6808  0.8750
 6661SOL    HW231620   3.503   3.142  10.998  1.5682 -2.3661  1.6688
 6662SOL     OW31621   1.704   0.821   8.400  0.0647  0.3296  0.3889
 6662SOL    HW131622   1.737   0.810   8.311 -2.7446  1.4750 -0.7871
 6662SOL    HW231623   1.624   0.770   8.391 -0.0862  0.8089 -1.0204
 6663SOL     OW31624   1.448   0.981   9.478 -0.1933 -0.5934 -0.8538
 6663SOL    HW131625   1.484   0.896   9.449  0.7970 -0.8408  1.1579
 6663SOL    HW231626   1.426   1.016   9.391 -1.1994  0.5663 -0.1205
 6664SOL     OW31627   2.708   2.056   8.092  0.6322 -1.0443  0.0750
 6664SOL    HW131628   2.699   1.976   8.041  0.6622  0.6145 -2.5501
 6664SOL    HW231629   2.771   2.109   8.042  1.0893 -0.1794  1.5461
 6665SOL     OW31630   1.491   3.511   5.140 -0.0655 -0.3616 -0.1383
 6665SOL    HW131631   1.552   3.542   5.207 -0.1152 -0.4618 -0.0473
 6665SOL    HW231632   1.545   3.448   5.093  0.8806 -0.4914  1.1251
 6666SOL     OW31633   2.728   0.491   5.211 -0.5670 -0.7061 -0.3117
 6666SOL    HW131634   2.633   0.502   5.205 -0.4838  0.4457  0.4376
 6666SOL    HW231635   2.749   0.556   5.278 -1.7329 -1.6532  0.9620
 6667SOL     OW31636   2.622   4.160   6.551  0.2638  0.0958  0.4032
 6667SOL    HW131637   2.527   4.152   6.544  0.3553  1.8531 -2.4043
 6667SOL    HW231638   2.646   4.070   6.529 -1.0986  0.1433 -1.2774
 6668SOL     OW31639   2.600   3.741  13.438 -0.8639  0.1076  0.0140
 6668SOL    HW131640   2.644   3.657  13.425  2.3085  1.7239  0.3303
 6668SOL    HW231641   2.592   3.739  13.534  2.9896 -1.6956  0.3070
 6669SOL     OW31642   2.827   3.811  11.081 -0.0255  0.3314 -0.2349
 6669SOL    HW131643   2.799   3.882  11.023 -1.7362  0.2207  0.4618
 6669SOL    HW231644   2.848   3.856  11.162  0.8051 -0.0829 -0.2257
 6670SOL     OW31645   4.638   4.196  15.600 -0.3798 -0.0294 -0.5940
 6670SOL    HW131646   4.660   4.239  15.517  1.1957  0.1180 -0.0988
 6670SOL    HW231647   4.716   4.215  15.653 -0.9436 -1.0237  0.5870
 6671SOL     OW31648   1.176   3.982  15.446 -0.2656  0.1053  0.7268
 6671SOL    HW131649   1.148   3.905  15.495 -2.8336  0.4318 -0.2557
 6671SOL    HW231650   1.096   4.029  15.469 -0.3229  0.8892 -1.0428
 6672SOL     OW31651   3.466   0.442   6.001 -0.0891 -0.5720 -0.1297
 6672SOL    HW131652   3.442   0.432   6.093  0.8736 -3.3005 -0.1624
 6672SOL    HW231653   3.388   0.487   5.967  0.5903  0.8943  0.2590
 6673SOL     OW31654   0.903   1.343  13.465  0.7969  0.2327  0.0782
 6673SOL    HW131655   0.894   1.385  13.379  0.3482  2.6018  1.3074
 6673SOL    HW231656   0.826   1.379  13.509  1.3227  1.4800 -0.0277
 6674SOL     OW31657   2.132   2.981   7.628 -0.1402  0.1078  0.0460
 6674SOL    HW131658   2.167   3.032   7.702  1.0209  1.4133 -1.4011
 6674SOL    HW231659   2.120   3.055   7.569 -1.9540  0.5501  0.9609
 6675SOL     OW31660   2.832   1.288  14.214  0.5536 -0.2270  0.1808
 6675SOL    HW131661   2.785   1.215  14.174  2.3405 -0.7876 -0.8881
 6675SOL    HW231662   2.888   1.322  14.145  2.8491 -1.5147  1.4460
 6676SOL     OW31663   1.287   2.852   3.852 -0.6298 -0.3859  0.1458
 6676SOL    HW131664   1.226   2.864   3.925 -1.0978  0.3722 -0.3703
 6676SOL    HW231665   1.273   2.940   3.816  2.1293 -0.5279 -1.2430
 6677SOL     OW31666   3.329   2.015   4.131  0.4260  0.0350  0.7470
 6677SOL    HW131667   3.293   2.103   4.118 -1.6223 -0.7665  0.9907
 6677SOL    HW231668   3.363   2.009   4.041  3.0327 -0.1792  1.7535
 6678SOL     OW31669   4.609   0.063  11.715  0.3930 -0.8633 -0.0128
 6678SOL    HW131670   4.562   0.144  11.735 -0.7079 -1.1445 -1.4936
 6678SOL    HW231671   4.575   0.041  11.629  1.3523 -1.7358 -0.1752
 6679SOL     OW31672   1.597   0.904   2.703  0.6243 -0.2384 -0.2024
 6679SOL    HW131673   1.558   0.819   2.725 -1.8479  0.5082 -1.6691
 6679SOL    HW231674   1.528   0.964   2.673 -1.8365 -3.7854 -1.6080
 6680SOL     OW31675   3.772   1.529  15.373 -0.6861  0.6175 -0.1681
 6680SOL    HW131676   3.846   1.475  15.345 -1.4007 -0.3257 -0.2257
 6680SOL    HW231677   3.824   1.610  15.371 -0.0044  0.1742 -0.3844
 6681SOL     OW31678   0.910   2.543   8.504 -0.2728 -0.3982  0.2675
 6681SOL    HW131679   0.925   2.461   8.551  2.4741  0.5110  0.9575
 6681SOL    HW231680   0.998   2.579   8.517  0.4908 -1.6942 -1.2841
 6682SOL     OW31681   2.316   1.064   6.412 -0.5507  0.3117 -0.3306
 6682SOL    HW131682   2.398   1.111   6.422  0.0444 -0.8456  0.3006
 6682SOL    HW231683   2.280   1.078   6.499 -0.7271  2.0927 -0.6917
 6683SOL     OW31684   4.232   0.794   5.164  0.2827  0.4780  0.2730
 6683SOL    HW131685   4.216   0.752   5.248  0.7205 -0.3112 -0.0317
 6683SOL    HW231686   4.321   0.827   5.177  0.9614 -0.4958 -1.7451
 6684SOL     OW31687   2.082   0.785   8.164  0.4888  0.1871  0.2700
 6684SOL    HW131688   1.990   0.767   8.145  1.3970 -1.9304 -2.2407
 6684SOL    HW231689   2.094   0.879   8.179 -2.1542  0.8206 -1.6698
 6685SOL     OW31690   2.021   3.008   2.899 -0.1459  0.5196 -0.3283
 6685SOL    HW131691   2.102   2.972   2.861  0.1029  0.6932  0.0383
 6685SOL    HW231692   1.958   2.936   2.900 -2.4847  2.6153  2.0072
 6686SOL     OW31693   3.651   2.979   7.434  0.3455 -0.0157 -0.5017
 6686SOL    HW131694   3.634   2.913   7.502  0.0346 -0.5617 -1.1034
 6686SOL    HW231695   3.663   3.056   7.489 -0.9634 -1.7370  2.1854
 6687SOL     OW31696   3.922   3.707   3.879 -0.2932 -0.0736 -0.4365
 6687SOL    HW131697   3.945   3.758   3.801 -1.9572 -0.1141 -0.9621
 6687SOL    HW231698   3.886   3.775   3.936  0.6969  1.6836 -1.8964
 6688SOL     OW31699   4.446   2.639   5.404  0.0038 -0.0648  0.2861
 6688SOL    HW131700   4.513   2.587   5.359  0.3639  0.7454 -0.1338
 6688SOL    HW231701   4.370   2.631   5.346 -1.3244  1.8556  1.7279
 6689SOL     OW31702   1.063   1.437  16.140  0.0192  0.5174  0.1884
 6689SOL    HW131703   0.983   1.384  16.143 -1.1720  2.4363  2.2478
 6689SOL    HW231704   1.126   1.377  16.179  0.5499  1.5038  0.8511
 6690SOL     OW31705   3.038   3.462   7.078 -0.0352 -0.1773 -0.1342
 6690SOL    HW131706   3.122   3.439   7.119 -0.6233 -0.6603  0.8178
 6690SOL    HW231707   3.034   3.557   7.090 -0.7455  0.1373 -2.9336
 6691SOL     OW31708   3.087   4.634   5.562 -0.6921  0.6167 -0.8626
 6691SOL    HW131709   3.021   4.615   5.494 -1.4191  1.4209 -0.3973
 6691SOL    HW231710   3.056   4.567   5.622  2.5838  1.0703  1.3072
 6692SOL     OW31711   4.077   3.565   8.254  0.0765  0.2136 -0.2477
 6692SOL    HW131712   4.172   3.565   8.255  0.0927 -0.5063 -1.2968
 6692SOL    HW231713   4.065   3.483   8.205  0.9814 -0.0221 -0.0680
 6693SOL     OW31714   4.253   3.217   6.197 -0.3810 -0.2015  0.3913
 6693SOL    HW131715   4.205   3.256   6.124  3.0378  0.1347 -1.6404
 6693SOL    HW231716   4.328   3.179   6.152  0.8492 -0.8388  2.9604
 6694SOL     OW31717   2.796   0.663  17.499  0.2383  0.2873  0.1567
 6694SOL    HW131718   2.775   0.750  17.466 -0.9558 -0.0705 -0.0341
 6694SOL    HW231719   2.804   0.617  17.416  2.3031 -0.4156  0.7388
 6695SOL     OW31720   2.956   0.287  12.293 -0.1537 -0.0706  0.4797
 6695SOL    HW131721   2.877   0.251  12.255  0.9978 -0.7272 -1.3044
 6695SOL    HW231722   2.913   0.334  12.365  0.3873 -0.8559  1.3137
 6696SOL     OW31723   3.967   0.071   6.804 -0.3166  0.0000  0.2715
 6696SOL    HW131724   4.006   0.017   6.734  2.7099 -0.2852  2.1724
 6696SOL    HW231725   4.030   0.051   6.873 -0.8870 -1.8850  0.2365
 6697SOL     OW31726   0.860   4.129  17.741  0.0870  0.2037  0.3346
 6697SOL    HW131727   0.765   4.141  17.739 -0.2029 -1.8945  1.1024
 6697SOL    HW231728   0.876   4.095   0.068  2.0163  2.1665  0.7423
 6698SOL     OW31729   3.239   0.720   3.284  0.4583 -0.1306 -0.4793
 6698SOL    HW131730   3.308   0.780   3.252  1.6407 -0.5973  1.2300
 6698SOL    HW231731   3.173   0.729   3.215  0.1956 -0.1013 -0.2192
 6699SOL     OW31732   4.681   2.330   3.554 -0.4868  0.4226  0.3361
 6699SOL    HW131733   4.650   2.240   3.548 -1.3427  0.6293  1.5706
 6699SOL    HW231734   0.001   2.316   3.627 -1.8818  0.0074  1.4254
 6700SOL     OW31735   4.633   2.317   2.864  0.0198 -0.2840  1.4138
 6700SOL    HW131736   4.546   2.302   2.826  0.3990  1.3408 -0.0927
 6700SOL    HW231737   4.621   2.399   2.911  0.8769 -1.4549  3.6776
 6701SOL     OW31738   2.598   2.031   6.023  0.3680 -0.1482 -0.9843
 6701SOL    HW131739   2.602   1.949   5.974 -0.2341 -1.3812  1.0353
 6701SOL    HW231740   2.587   1.993   6.110 -0.4775 -2.2451 -2.0162
 6702SOL     OW31741   2.661   2.626  11.147  0.2537  0.5256 -0.8733
 6702SOL    HW131742   2.578   2.616  11.099 -0.2356 -0.5585  0.2195
 6702SOL    HW231743   2.723   2.634  11.074  1.8135 -0.5439  0.3451
 6703SOL     OW31744   3.681   3.514  14.749 -0.6137 -0.4455  0.2910
 6703SOL    HW131745   3.590   3.515  14.781 -1.5193 -0.4446 -2.2530
 6703SOL    HW231746   3.678   3.424  14.716  2.0930 -0.0396 -0.9678
 6704SOL     OW31747   2.056   0.117   9.026  0.3837  0.0076 -0.0359
 6704SOL    HW131748   2.127   0.160   9.074 -0.1941  1.4714 -0.4801
 6704SOL    HW231749   2.049   0.163   8.942 -0.6171  0.1363  0.1102
 6705SOL     OW31750   1.252   2.432   2.198  0.3252 -0.2435 -0.1510
 6705SOL    HW131751   1.214   2.437   2.111  2.0428  0.1411 -0.8684
 6705SOL    HW231752   1.175   2.420   2.255  1.6989 -1.7076  1.3975
 6706SOL     OW31753   3.713   0.944   2.031 -0.1681 -0.8662  0.6973
 6706SOL    HW131754   3.721   0.925   2.124  0.5454 -0.1901  0.7729
 6706SOL    HW231755   3.687   1.036   2.038  1.3291 -0.3547 -0.4223
 6707SOL     OW31756   0.659   3.429   5.298 -0.6149 -0.0986  0.1280
 6707SOL    HW131757   0.727   3.369   5.329  0.1494  0.3313 -0.7048
 6707SOL    HW231758   0.689   3.443   5.208 -0.8722 -1.7635 -0.2173
 6708SOL     OW31759   4.433   3.745  13.904 -0.0576 -0.1817 -0.4393
 6708SOL    HW131760   4.489   3.672  13.879  0.3302  0.2120 -0.7267
 6708SOL    HW231761   4.395   3.714  13.986 -0.2649  0.4064 -0.3092
 6709SOL     OW31762   0.806   3.260   7.510  0.2879  0.5684 -0.1502
 6709SOL    HW131763   0.765   3.213   7.583  1.9361 -0.2705  0.2400
 6709SOL    HW231764   0.887   3.209   7.503  0.8040  1.2109  1.0964
 6710SOL     OW31765   4.005   1.164   5.056 -0.3912 -0.2626  0.2427
 6710SOL    HW131766   3.987   1.241   5.003 -2.8268 -0.6236  0.5334
 6710SOL    HW231767   4.099   1.151   5.043 -0.6045 -0.3649 -1.1539
 6711SOL     OW31768   2.161   2.419   6.065 -0.3248  0.1110 -0.1948
 6711SOL    HW131769   2.153   2.404   5.971  0.6770  0.3556 -0.3272
 6711SOL    HW231770   2.077   2.403   6.107 -0.7894  3.7070  0.2173
 6712SOL     OW31771   2.620   3.005  17.604 -0.0745  0.1371 -0.3031
 6712SOL    HW131772   2.526   3.018  17.590 -0.2969 -1.3863 -0.2770
 6712SOL    HW231773   2.649   3.091  17.632  1.1005  0.5461 -2.7639
 6713SOL     OW31774   2.521   2.456   2.667 -0.2319  0.8706 -0.1229
 6713SOL    HW131775   2.537   2.535   2.615  1.6524  0.7493  0.2665
 6713SOL    HW231776   2.464   2.480   2.740  1.2341  0.6692  1.0985
 6714SOL     OW31777   3.876   1.374   5.441 -0.2422  0.6111 -0.0136
 6714SOL    HW131778   3.847   1.367   5.532 -0.6989  0.1211 -0.1947
 6714SOL    HW231779   3.828   1.448   5.406  1.8866  2.5035  1.0475
 6715SOL     OW31780   0.541   1.628   3.832 -0.3170  0.0104 -0.5381
 6715SOL    HW131781   0.636   1.633   3.837 -0.2625 -1.6125 -0.1860
 6715SOL    HW231782   0.526   1.702   3.892  1.1099  0.9897 -1.3970
 6716SOL     OW31783   3.248   4.552   5.067 -0.3854  0.0970 -0.3300
 6716SOL    HW131784   3.332   4.572   5.107 -0.1419 -0.4642 -0.5607
 6716SOL    HW231785   3.194   4.625   5.098 -1.1041  0.5824 -2.7322
 6717SOL     OW31786   0.367   1.619   2.943  0.1782  0.0561  0.4201
 6717SOL    HW131787   0.378   1.709   2.975 -1.5990  0.3706  0.1783
 6717SOL    HW231788   0.455   1.582   2.952 -0.3703 -0.9241  1.8715
 6718SOL     OW31789   2.225   2.305   3.019  0.2399 -0.1804  0.1333
 6718SOL    HW131790   2.290   2.259   2.967 -2.0763 -1.3949 -1.7274
 6718SOL    HW231791   2.234   2.393   2.984 -1.5240  0.2259  0.7051
 6719SOL     OW31792   2.136   1.013  15.745  0.0895 -0.3909  0.0153
 6719SOL    HW131793   2.231   1.008  15.759  0.4831 -1.2427 -2.8792
 6719SOL    HW231794   2.125   1.108  15.736 -1.1171 -0.6581 -1.2307
 6720SOL     OW31795   0.671   0.951   4.870  0.2679  0.2102 -0.5690
 6720SOL    HW131796   0.722   0.870   4.859 -1.0620 -0.5173 -1.4135
 6720SOL    HW231797   0.739   1.012   4.843  0.5978  0.5342  0.9890
 6721SOL     OW31798   0.156   4.366   8.844 -0.9088 -0.1614 -0.3195
 6721SOL    HW131799   0.110   4.361   8.928  1.7545 -2.2842  0.9965
 6721SOL    HW231800   0.124   4.284   8.808  0.0390 -1.4600  1.7725
 6722SOL     OW31801   1.141   2.037  16.296  0.2846  0.3501 -0.4751
 6722SOL    HW131802   1.184   2.105  16.244  1.4573 -0.1936 -0.2204
 6722SOL    HW231803   1.106   1.988  16.222  0.7987 -0.8946  0.1004
 6723SOL     OW31804   0.630   4.590   7.787 -0.3041  0.0667 -0.2198
 6723SOL    HW131805   0.620   4.612   7.880 -1.0743 -0.7532 -0.1118
 6723SOL    HW231806   0.574   4.513   7.782 -0.9499  0.5856 -1.0065
 6724SOL     OW31807   0.266   1.376   9.606  0.1603  0.1533  0.0439
 6724SOL    HW131808   0.258   1.369   9.701 -2.2905  2.6301  0.0137
 6724SOL    HW231809   0.232   1.464   9.591 -1.4435 -0.0847  2.3051
 6725SOL     OW31810   2.433   0.472   3.158 -1.3538 -0.2453 -0.2533
 6725SOL    HW131811   2.347   0.497   3.189 -0.9940  1.3634 -0.5682
 6725SOL    HW231812   2.478   0.555   3.169 -0.8312 -0.7561  1.4274
 6726SOL     OW31813   0.863   3.727  14.100 -0.1375 -0.5315  0.0173
 6726SOL    HW131814   0.804   3.781  14.153 -0.5107 -1.5288  0.6198
 6726SOL    HW231815   0.813   3.655  14.062 -2.8934  1.0055  0.6739
 6727SOL     OW31816   4.155   0.417   4.977 -0.2572  0.7493  0.7911
 6727SOL    HW131817   4.193   0.330   4.990 -1.4058  0.1767  0.3053
 6727SOL    HW231818   4.233   0.467   5.003 -0.2891  1.9793 -1.4984
 6728SOL     OW31819   1.954   3.506   8.177  0.1428 -0.0728 -0.1675
 6728SOL    HW131820   1.950   3.411   8.194 -0.0539 -0.2990 -1.5015
 6728SOL    HW231821   1.867   3.534   8.204  0.6718  0.3317  1.0953
 6729SOL     OW31822   2.787   0.209  15.248 -0.6057 -0.4657  0.3108
 6729SOL    HW131823   2.792   0.136  15.310 -1.4154  0.8725  1.9586
 6729SOL    HW231824   2.779   0.281  15.311  0.5414 -0.2279  0.1753
 6730SOL     OW31825   0.323   4.410   2.013 -1.1098  0.3253 -0.1569
 6730SOL    HW131826   0.351   4.417   2.105  0.8922  0.8062 -0.8055
 6730SOL    HW231827   0.310   4.315   2.007  2.6705 -0.2767  1.0024
 6731SOL     OW31828   2.094   0.654  14.949  0.1907  0.2257 -0.1521
 6731SOL    HW131829   2.167   0.711  14.972  0.2146 -1.2330  3.4616
 6731SOL    HW231830   2.151   0.585  14.913  1.4758  0.4775  1.4172
 6732SOL     OW31831   4.501   3.328   5.001  0.3207  0.0921  0.0738
 6732SOL    HW131832   4.473   3.418   5.014  1.4005  0.6259 -1.4488
 6732SOL    HW231833   4.487   3.332   4.907  0.3408 -3.1615 -0.0919
 6733SOL     OW31834   2.480   2.138   7.466  0.2251  0.2235  0.4332
 6733SOL    HW131835   2.455   2.230   7.457  1.6649  0.4263 -1.5560
 6733SOL    HW231836   2.405   2.097   7.422 -0.3248  1.3099  0.3553
 6734SOL     OW31837   3.711   0.928   2.307  0.2817 -0.2258 -0.2916
 6734SOL    HW131838   3.776   0.959   2.369  0.8278 -1.1094 -0.4177
 6734SOL    HW231839   3.637   0.985   2.329 -0.2526 -1.0665  0.1318
 6735SOL     OW31840   3.851   0.814   7.926 -0.2406 -0.2207 -0.2065
 6735SOL    HW131841   3.841   0.732   7.878  0.5171 -0.4546  0.0418
 6735SOL    HW231842   3.763   0.850   7.915 -0.5115 -1.0804 -0.7754
 6736SOL     OW31843   4.404   1.156  11.043 -0.0229  0.1275 -0.1943
 6736SOL    HW131844   4.362   1.161  10.957  2.3982 -1.4442 -1.4539
 6736SOL    HW231845   4.488   1.114  11.022 -0.7004 -1.2473 -0.1694
 6737SOL     OW31846   3.610   1.456   1.388 -0.2615 -0.0253  0.0030
 6737SOL    HW131847   3.530   1.468   1.439 -1.1470 -1.3421 -1.0545
 6737SOL    HW231848   3.587   1.379   1.336 -0.1574  1.3449 -2.1100
 6738SOL     OW31849   1.830   3.150   3.552  0.0916 -0.5155 -0.3247
 6738SOL    HW131850   1.841   3.151   3.457  0.0390 -2.0425 -0.3360
 6738SOL    HW231851   1.737   3.177   3.553  0.2737  0.0204  1.9309
 6739SOL     OW31852   3.626   1.770   3.679  0.0734  0.1864  0.5936
 6739SOL    HW131853   3.608   1.678   3.659  1.0454  0.6832 -2.5034
 6739SOL    HW231854   3.658   1.794   3.592  0.2052  0.0986  0.6184
 6740SOL     OW31855   1.221   0.479   4.106 -0.6044 -0.0710 -0.2606
 6740SOL    HW131856   1.166   0.486   4.184 -0.8709 -1.6581 -0.2891
 6740SOL    HW231857   1.304   0.498   4.149  0.1590  0.1798 -1.8543
 6741SOL     OW31858   3.191   4.324  16.383  0.1150  0.2468 -0.0911
 6741SOL    HW131859   3.232   4.241  16.405  1.3716  1.1809  1.1046
 6741SOL    HW231860   3.099   4.317  16.410  0.3957  1.3057  1.1354
 6742SOL     OW31861   2.410   1.901   1.959  0.3373  0.4464 -0.3875
 6742SOL    HW131862   2.403   1.870   1.869 -0.1212  2.4481 -1.0586
 6742SOL    HW231863   2.349   1.975   1.962 -2.6891 -2.1183  1.2716
 6743SOL     OW31864   4.298   0.016  15.489  0.4764 -0.5210 -0.3578
 6743SOL    HW131865   4.264   4.709  15.565  0.9632  0.8780  0.7248
 6743SOL    HW231866   4.280   0.103  15.524 -2.3104 -1.7654  1.2848
 6744SOL     OW31867   2.848   0.003   8.903 -0.0217  0.0801 -0.1840
 6744SOL    HW131868   2.912   0.073   8.918  1.2115 -1.4885  1.8696
 6744SOL    HW231869   2.859   4.709   8.814 -1.2625 -2.1631  0.5338
 6745SOL     OW31870   2.169   2.113   6.663 -0.8259 -0.3123  0.2266
 6745SOL    HW131871   2.087   2.161   6.678 -0.6988 -0.1613  0.4402
 6745SOL    HW231872   2.200   2.092   6.751  0.5835  0.5794 -0.0598
 6746SOL     OW31873   0.191   0.895  11.782  0.0724  0.4611  0.0896
 6746SOL    HW131874   0.215   0.984  11.807 -0.6708  0.4536  0.8301
 6746SOL    HW231875   0.263   0.866  11.726 -0.1614 -1.5448  0.8022
 6747SOL     OW31876   3.788   3.381   2.585 -0.4427 -0.4424 -0.3205
 6747SOL    HW131877   3.793   3.476   2.599  0.7005 -0.5023 -0.3511
 6747SOL    HW231878   3.720   3.361   2.650 -0.0719  0.4654  0.3513
 6748SOL     OW31879   0.125   2.252  15.382  0.2044 -0.1463  0.0191
 6748SOL    HW131880   0.117   2.317  15.312 -2.3051 -0.1161  0.3193
 6748SOL    HW231881   0.219   2.255  15.399 -0.0665  1.6437  1.2684
 6749SOL     OW31882   1.689   0.610   2.875  0.4459 -0.5250 -0.3964
 6749SOL    HW131883   1.723   0.679   2.931 -1.6902 -1.2103  1.7833
 6749SOL    HW231884   1.613   0.659   2.844  1.6930 -0.2930 -3.1479
 6750SOL     OW31885   0.959   1.521   4.084 -0.1992 -0.3078  0.1313
 6750SOL    HW131886   0.970   1.541   4.177 -0.6265 -0.0836  0.1350
 6750SOL    HW231887   1.023   1.451   4.070 -0.4135 -0.4375 -0.1893
 6751SOL     OW31888   3.593   3.270   5.107  1.2110 -1.1749 -0.2045
 6751SOL    HW131889   3.610   3.345   5.163  1.4640 -0.3136 -1.4186
 6751SOL    HW231890   3.576   3.307   5.020  0.4065  1.1127  0.9301
 6752SOL     OW31891   0.677   3.279   4.467  0.0926  0.1509  0.1387
 6752SOL    HW131892   0.682   3.374   4.459  0.3266 -0.0505 -2.0365
 6752SOL    HW231893   0.765   3.263   4.501  0.5862  1.6474 -0.4525
 6753SOL     OW31894   0.787   2.235  13.778  0.5238 -0.2272 -0.5500
 6753SOL    HW131895   0.758   2.163  13.721 -1.6904  0.2948 -0.0799
 6753SOL    HW231896   0.764   2.312  13.727 -1.4241 -1.0952 -0.9740
 6754SOL     OW31897   0.995   1.917   9.484 -0.3775  0.0812 -0.1140
 6754SOL    HW131898   1.070   1.864   9.459 -0.4244  1.3397 -2.9219
 6754SOL    HW231899   0.955   1.918   9.397  2.7485  3.7740 -1.5230
 6755SOL     OW31900   3.994   2.202   8.245  0.1333 -0.3360  0.0079
 6755SOL    HW131901   4.086   2.226   8.242 -0.6333  2.3630 -1.0534
 6755SOL    HW231902   3.968   2.255   8.170  0.7242  1.9548  1.4330
 6756SOL     OW31903   4.603   0.068   3.197 -0.6031  0.0629 -0.3465
 6756SOL    HW131904   4.640   0.095   3.281  0.3303 -2.2877 -0.0336
 6756SOL    HW231905   4.537   0.006   3.228  0.4638 -1.8063 -1.8176
 6757SOL     OW31906   2.963   4.463   6.486 -0.3850 -0.0635  0.3236
 6757SOL    HW131907   2.993   4.372   6.495 -0.5822 -0.1879 -0.2667
 6757SOL    HW231908   2.883   4.441   6.438 -0.2876 -0.0839  0.1718
 6758SOL     OW31909   1.588   2.076   7.022 -0.1177 -0.1911 -0.1775
 6758SOL    HW131910   1.597   1.981   7.015  1.3124 -0.1775  1.3804
 6758SOL    HW231911   1.497   2.081   6.992 -0.7566 -1.6320  1.5706
 6759SOL     OW31912   3.394   4.361   6.125 -0.1666  0.0289  0.2143
 6759SOL    HW131913   3.338   4.289   6.095 -0.7336  0.1537  0.9755
 6759SOL    HW231914   3.467   4.308   6.156  0.8386  1.1360 -0.2571
 6760SOL     OW31915   1.028   3.581  17.150  0.5027  0.1649  1.0187
 6760SOL    HW131916   0.995   3.495  17.123  2.1933 -0.0768 -0.2864
 6760SOL    HW231917   1.106   3.588  17.095 -0.3963  0.2629 -0.2533
 6761SOL     OW31918   2.623   0.775   5.013  0.5856 -0.0087  0.2844
 6761SOL    HW131919   2.545   0.775   4.958  0.6682  0.1297  0.1691
 6761SOL    HW231920   2.658   0.863   5.007 -0.4128  0.2694 -1.5410
 6762SOL     OW31921   4.649   0.613  16.238 -0.0887  0.0891  0.2365
 6762SOL    HW131922   4.728   0.616  16.183 -0.6150 -0.0222 -0.5266
 6762SOL    HW231923   4.608   0.698  16.226 -2.1397 -0.8604  0.5159
 6763SOL     OW31924   1.049   0.591   7.432  0.7238 -0.5196  0.2930
 6763SOL    HW131925   0.954   0.597   7.422  0.7142 -3.1644 -1.1646
 6763SOL    HW231926   1.056   0.518   7.370  0.5475  0.8103 -1.2714
 6764SOL     OW31927   1.133   3.914   7.296  0.2202 -0.0131  0.5744
 6764SOL    HW131928   1.161   3.933   7.206  1.3606 -2.7501  0.3463
 6764SOL    HW231929   1.128   4.003   7.330 -0.8221 -0.6609  2.1342
 6765SOL     OW31930   0.433   0.070  11.055 -0.7523 -0.4943 -0.2235
 6765SOL    HW131931   0.508   0.072  11.115 -1.2599  1.3394  0.3554
 6765SOL    HW231932   0.407   4.723  11.084  1.1452 -0.9148  0.2704
 6766SOL     OW31933   4.699   1.659   2.993 -0.3253 -0.0483 -0.0404
 6766SOL    HW131934   4.647   1.642   2.915 -0.1757  0.9084 -0.3416
 6766SOL    HW231935   0.040   1.670   2.944  1.6536  0.5608  3.4009
 6767SOL     OW31936   3.773   0.775   0.610 -0.5135 -0.2460  0.5490
 6767SOL    HW131937   3.697   0.833   0.598  0.1899  0.3835 -0.8629
 6767SOL    HW231938   3.802   0.806   0.696 -0.3463 -1.9329  1.0953
 6768SOL     OW31939   0.675   2.996   7.404  0.5862 -0.7153 -0.6935
 6768SOL    HW131940   0.723   3.019   7.484 -1.6748 -1.0351  0.7430
 6768SOL    HW231941   0.597   3.052   7.409  1.2040 -0.0267  1.0787
 6769SOL     OW31942   2.115   0.187  15.815 -0.8180 -0.7313 -0.3704
 6769SOL    HW131943   2.203   0.224  15.807  0.2555 -3.0974  0.4047
 6769SOL    HW231944   2.088   0.203  15.724 -0.1276  2.1576 -0.0745
 6770SOL     OW31945   0.919   0.044  14.627  0.5364 -0.3907 -0.1623
 6770SOL    HW131946   0.868   4.738  14.561 -2.5058  1.4482  0.8688
 6770SOL    HW231947   0.969   4.712  14.663  1.3482 -0.2965 -1.0771
 6771SOL     OW31948   3.253   0.455   7.446 -0.6457 -0.1060  0.3351
 6771SOL    HW131949   3.345   0.444   7.424 -0.6205  2.5331 -0.8776
 6771SOL    HW231950   3.230   0.364   7.468  0.8758 -0.5298  0.1628
 6772SOL     OW31951   2.433   3.717   6.346 -0.1518 -0.4837  0.3563
 6772SOL    HW131952   2.419   3.626   6.322 -0.4625 -0.4086  0.2465
 6772SOL    HW231953   2.525   3.717   6.372  0.0502  0.5461 -0.3441
 6773SOL     OW31954   2.873   1.036   6.424  0.8649  0.4246  0.5215
 6773SOL    HW131955   2.928   1.113   6.435 -1.3314  2.1734 -0.6628
 6773SOL    HW231956   2.859   1.012   6.516  0.4432  0.5293  0.4849
 6774SOL     OW31957   4.678   1.922   1.955  0.0175  0.9523 -0.1001
 6774SOL    HW131958   4.735   1.847   1.939 -0.5238  0.6102 -0.4562
 6774SOL    HW231959   4.605   1.886   2.006 -1.3635  2.7859 -0.7918
 6775SOL     OW31960   4.706   2.472   7.699  0.4410  0.2832 -0.2896
 6775SOL    HW131961   4.660   2.399   7.742 -1.0219  0.5156 -1.4375
 6775SOL    HW231962   4.648   2.494   7.626  0.8519 -0.5363 -0.8580
 6776SOL     OW31963   2.134   2.627   0.182 -0.2561  0.2854  0.1654
 6776SOL    HW131964   2.127   2.540   0.144 -1.3999 -0.2868  1.6622
 6776SOL    HW231965   2.053   2.675   0.163  1.1493  2.3876 -0.5547
 6777SOL     OW31966   4.366   4.589  15.011  0.8486  0.3462 -0.2344
 6777SOL    HW131967   4.397   4.652  15.077  0.9396 -0.5429  0.5611
 6777SOL    HW231968   4.432   4.520  15.016 -2.1863 -2.4841  0.3995
 6778SOL     OW31969   3.980   4.355   7.929  0.3885 -0.1836  0.0131
 6778SOL    HW131970   4.006   4.428   7.872  1.0044  0.9271  1.7193
 6778SOL    HW231971   3.942   4.411   7.997  1.3317 -0.6606  0.9168
 6779SOL     OW31972   0.689   2.690   2.768  0.3508  0.2233  0.0160
 6779SOL    HW131973   0.616   2.676   2.829  1.7854 -0.1558  1.6146
 6779SOL    HW231974   0.748   2.743   2.820  0.0885 -0.2541  0.7958
 6780SOL     OW31975   1.097   0.732   6.823 -0.2510  0.0444  0.2301
 6780SOL    HW131976   1.145   0.805   6.783 -0.1836 -1.5750 -2.6421
 6780SOL    HW231977   1.034   0.783   6.874 -0.6080  2.1126 -2.2541
 6781SOL     OW31978   4.177   4.596   2.836  0.4372  0.5521  0.4573
 6781SOL    HW131979   4.240   4.597   2.907  1.2400 -0.5367 -0.2352
 6781SOL    HW231980   4.144   4.509   2.859 -1.3774  1.0579 -0.2376
 6782SOL     OW31981   2.336   0.636   4.956  0.1341 -0.4530 -0.7854
 6782SOL    HW131982   2.365   0.579   4.886 -2.7032 -1.6467 -0.9578
 6782SOL    HW231983   2.336   0.721   4.912 -4.6094 -0.0576  0.0063
 6783SOL     OW31984   2.169   4.649   3.025  0.4633  0.0119  0.1068
 6783SOL    HW131985   2.121   4.699   2.958 -1.3965  1.4596  2.5503
 6783SOL    HW231986   2.136   4.689   3.105 -0.5884  2.0943 -1.3480
 6784SOL     OW31987   2.625   1.849  10.203 -0.3453 -0.5454  0.7301
 6784SOL    HW131988   2.545   1.801  10.177  0.3154 -2.0478  1.4450
 6784SOL    HW231989   2.679   1.806  10.136  1.2621 -0.7504  2.1609
 6785SOL     OW31990   2.563   0.063   7.255  0.1885 -0.2680  0.0063
 6785SOL    HW131991   2.547   0.157   7.249 -0.2723 -0.2100  2.1435
 6785SOL    HW231992   2.544   0.028   7.168  2.3784  0.0689 -0.6015
 6786SOL     OW31993   2.466   2.578   1.318 -0.2344 -0.1878  0.3784
 6786SOL    HW131994   2.429   2.664   1.338  0.3537 -0.0542  0.9154
 6786SOL    HW231995   2.388   2.535   1.284 -0.3595  0.2340  0.1241
 6787SOL     OW31996   2.600   2.825  13.296  0.2023 -0.3987  0.2119
 6787SOL    HW131997   2.648   2.858  13.372  0.6296  0.2863 -0.3548
 6787SOL    HW231998   2.541   2.900  13.303 -0.9077 -1.2004 -0.5689
 6788SOL     OW31999   3.204   1.018   8.509  0.0454 -0.3523  0.5471
 6788SOL    HW132000   3.223   0.939   8.561 -1.8952 -0.1950  1.5242
 6788SOL    HW232001   3.217   1.078   8.583 -0.8729 -1.3121  1.5013
 6789SOL     OW32002   0.771   2.743  12.455  0.6603 -0.5364  0.3641
 6789SOL    HW132003   0.815   2.823  12.483  0.7867 -0.4048 -0.1994
 6789SOL    HW232004   0.841   2.677  12.446  0.5495 -0.8875  2.1822
 6790SOL     OW32005   3.938   4.419   6.145 -0.3115 -0.1571  0.4643
 6790SOL    HW132006   3.893   4.503   6.147  0.0106  0.0517 -1.1604
 6790SOL    HW232007   3.885   4.368   6.084 -0.7973  2.2851 -1.1336
 6791SOL     OW32008   1.766   2.260   9.312  0.4434  0.2786 -0.3388
 6791SOL    HW132009   1.852   2.278   9.273  1.4982 -5.6356 -0.6413
 6791SOL    HW232010   1.789   2.259   9.405 -1.4492 -0.0638  0.1121
 6792SOL     OW32011   2.028   3.416   2.648  0.0646 -0.5335 -0.4732
 6792SOL    HW132012   2.001   3.474   2.577 -0.5300 -1.4834 -1.0216
 6792SOL    HW232013   2.122   3.431   2.645 -0.0989  0.6209  0.3857
 6793SOL     OW32014   4.465   1.136  14.118  0.2763  1.0164 -0.7849
 6793SOL    HW132015   4.411   1.078  14.064  1.1962  1.6852 -2.4296
 6793SOL    HW232016   4.419   1.220  14.116  1.0621  1.4538 -0.6496
 6794SOL     OW32017   4.234   4.480   3.557 -0.4981  0.2557 -0.2980
 6794SOL    HW132018   4.159   4.421   3.551  0.3364 -0.7841 -0.5285
 6794SOL    HW232019   4.195   4.563   3.530 -0.9123  0.2430  0.2726
 6795SOL     OW32020   3.116   4.477   2.387  1.0426  0.0481 -0.7312
 6795SOL    HW132021   3.040   4.435   2.425  2.0876 -0.9436  0.2677
 6795SOL    HW232022   3.170   4.405   2.355  2.2994  1.2482 -1.3233
 6796SOL     OW32023   4.633   4.225  10.634  0.3968 -0.9476  0.4839
 6796SOL    HW132024   4.577   4.289  10.591  0.0391 -1.2695  0.4641
 6796SOL    HW232025   4.720   4.261  10.617 -0.3649  0.3795 -0.5411
 6797SOL     OW32026   2.614   0.324   6.219 -0.1877  0.0833 -0.2858
 6797SOL    HW132027   2.564   0.248   6.191  1.9365 -1.4754  0.1852
 6797SOL    HW232028   2.537   0.382   6.220 -1.0241 -1.0302  0.1921
 6798SOL     OW32029   2.413   2.564  12.880 -0.4724  0.2914 -0.0690
 6798SOL    HW132030   2.445   2.476  12.857  0.0135  0.2060  0.9019
 6798SOL    HW232031   2.467   2.588  12.956 -0.4322 -1.1564  0.3799
 6799SOL     OW32032   2.936   2.164  12.736  0.3261 -0.3392  0.3974
 6799SOL    HW132033   2.909   2.105  12.807  1.1609 -0.7965  0.3334
 6799SOL    HW232034   3.027   2.137  12.732  0.3056 -0.5516  1.5153
 6800SOL     OW32035   4.245   0.508   9.745 -0.6014  0.5881  0.1203
 6800SOL    HW132036   4.152   0.516   9.725 -1.0765  0.7423  2.3587
 6800SOL    HW232037   4.242   0.435   9.808  0.5452  0.6396  0.2327
 6801SOL     OW32038   1.372   3.065  15.981 -0.3604 -0.3887 -0.1090
 6801SOL    HW132039   1.458   3.031  16.004  0.2080  1.1161  0.0169
 6801SOL    HW232040   1.352   3.012  15.904  1.1375 -1.8532  0.4954
 6802SOL     OW32041   3.027   4.673   6.313 -0.3303 -0.5478  0.3221
 6802SOL    HW132042   3.079   4.614   6.259  1.8906 -1.9370  3.9522
 6802SOL    HW232043   3.018   4.623   6.395 -0.1599 -0.8682  0.1440
 6803SOL     OW32044   2.637   3.166   5.295 -0.1408  0.3054  0.3712
 6803SOL    HW132045   2.689   3.224   5.351  0.4743 -2.0975  2.3158
 6803SOL    HW232046   2.668   3.085   5.335 -1.4679 -0.6187 -0.4792
 6804SOL     OW32047   0.232   1.751  12.913 -0.5234 -0.1413  0.1773
 6804SOL    HW132048   0.216   1.657  12.916 -1.3076  0.0485  1.5499
 6804SOL    HW232049   0.145   1.787  12.898  0.4012  0.5510 -3.6518
 6805SOL     OW32050   3.457   1.542   6.374 -0.4031 -0.3998 -0.1734
 6805SOL    HW132051   3.435   1.469   6.432  0.0700 -0.9081 -0.6450
 6805SOL    HW232052   3.462   1.498   6.290  0.7081  0.4562 -0.5401
 6806SOL     OW32053   3.934   0.448   2.792 -0.7747 -0.3637 -0.2754
 6806SOL    HW132054   3.918   0.419   2.882  2.6642 -2.1497 -0.2314
 6806SOL    HW232055   3.853   0.412   2.756 -1.5429 -0.8295  1.8833
 6807SOL     OW32056   1.362   2.877   8.111 -0.1867 -0.6703  0.2017
 6807SOL    HW132057   1.446   2.888   8.156 -0.3197  0.6436  0.1318
 6807SOL    HW232058   1.349   2.787   8.140 -2.8317  0.2148  1.8806
 6808SOL     OW32059   4.119   4.129   7.613 -0.0956 -0.1782 -0.3200
 6808SOL    HW132060   4.034   4.166   7.590  0.0979 -0.5913 -1.7037
 6808SOL    HW232061   4.156   4.139   7.525 -1.6482 -2.4808 -1.2277
 6809SOL     OW32062   2.302   4.648  15.359 -0.0491  0.8369  0.7655
 6809SOL    HW132063   2.289   4.652  15.264  4.2819  1.0785  0.1713
 6809SOL    HW232064   2.279   4.555  15.369 -0.8848  1.1713  1.8569
 6810SOL     OW32065   4.662   0.507  15.646 -0.6678 -0.0451  0.3418
 6810SOL    HW132066   4.591   0.453  15.612  0.0662  0.4624 -1.9991
 6810SOL    HW232067   4.719   0.499  15.570 -1.3491 -2.3373  0.0934
 6811SOL     OW32068   4.156   3.080   4.035  0.0481 -0.5360  0.6042
 6811SOL    HW132069   4.152   3.155   4.095  1.1322 -0.8370  1.0579
 6811SOL    HW232070   4.228   3.103   3.977  0.2422 -2.0145  0.2777
 6812SOL     OW32071   2.069   2.854   2.580  0.3113  0.2521  0.1331
 6812SOL    HW132072   1.996   2.910   2.555 -2.9474 -3.8504  0.4153
 6812SOL    HW232073   2.067   2.791   2.507  0.0050 -0.8765  1.1136
 6813SOL     OW32074   4.161   4.404   7.348  0.1540  0.0458 -0.5298
 6813SOL    HW132075   4.141   4.314   7.371  0.2704 -0.3887 -2.1750
 6813SOL    HW232076   4.105   4.408   7.270 -0.2226 -1.4976 -0.3236
 6814SOL     OW32077   3.950   0.960   8.115 -0.5542 -0.0304 -0.2958
 6814SOL    HW132078   3.919   0.901   8.045  0.5477 -0.2665 -0.5780
 6814SOL    HW232079   3.968   0.904   8.190 -1.4504  1.3865  0.9670
 6815SOL     OW32080   2.506   3.201   9.483  0.2175 -0.5193  0.1929
 6815SOL    HW132081   2.542   3.139   9.546  0.9521 -2.4297 -2.1328
 6815SOL    HW232082   2.547   3.284   9.510  1.5836 -1.0662 -0.2360
 6816SOL     OW32083   0.451   1.384   7.189 -0.7321  0.2649  0.2481
 6816SOL    HW132084   0.504   1.389   7.109  0.9197  0.9255  1.3694
 6816SOL    HW232085   0.368   1.384   7.142  0.1705 -0.6578 -1.3430
 6817SOL     OW32086   1.197   4.671   5.595  0.2824  0.2868  0.3561
 6817SOL    HW132087   1.172   4.589   5.637 -1.1361 -0.2478 -1.5194
 6817SOL    HW232088   1.125   4.679   5.532  0.8998 -0.8340 -0.4828
 6818SOL     OW32089   1.811   0.808   8.142 -0.0085  0.2366 -0.0128
 6818SOL    HW132090   1.804   0.901   8.120 -1.6803  0.9356  3.4272
 6818SOL    HW232091   1.741   0.774   8.086  0.7382  0.0896 -0.8560
 6819SOL     OW32092   4.666   1.310  12.876 -0.0110 -0.2060  0.0304
 6819SOL    HW132093   4.648   1.224  12.839 -2.8262  0.4264 -0.1030
 6819SOL    HW232094   0.017   1.303  12.904  0.5754  3.4943 -0.9734
 6820SOL     OW32095   4.391   0.023   5.330 -0.2087 -0.0884 -0.3717
 6820SOL    HW132096   4.302   4.730   5.341  0.0047 -0.2292  0.9210
 6820SOL    HW232097   4.416   0.037   5.421 -0.3100  0.2936 -0.4002
 6821SOL     OW32098   1.192   0.600  17.437  0.4854  0.2673  0.5548
 6821SOL    HW132099   1.158   0.673  17.488  0.5976  0.9948 -0.4100
 6821SOL    HW232100   1.276   0.644  17.430  1.1473 -1.0850 -0.0586
 6822SOL     OW32101   3.617   1.345   2.479  0.2594 -0.3026  0.1210
 6822SOL    HW132102   3.637   1.252   2.488  0.3222 -0.1433  1.5873
 6822SOL    HW232103   3.706   1.376   2.461 -0.3271  0.2334 -1.8965
 6823SOL     OW32104   0.731   2.685  16.173 -0.0215 -0.5368 -0.4413
 6823SOL    HW132105   0.719   2.773  16.138 -0.2459 -0.1941  0.4954
 6823SOL    HW232106   0.700   2.708  16.260  2.2564 -4.6677  1.5251
 6824SOL     OW32107   2.204   1.748   6.111  0.1739  0.0288  0.0856
 6824SOL    HW132108   2.243   1.662   6.094  2.1426  0.6880  1.2845
 6824SOL    HW232109   2.111   1.725   6.107 -0.0471  1.0370 -0.4016
 6825SOL     OW32110   0.203   2.982   9.332  0.2296 -0.4382 -0.1558
 6825SOL    HW132111   0.229   2.984   9.240 -0.1751  2.6102 -0.2029
 6825SOL    HW232112   0.291   2.976   9.370  0.2796  0.9122 -0.0535
 6826SOL     OW32113   0.998   0.080   8.131  0.1793  0.4545  0.7182
 6826SOL    HW132114   0.969   0.040   8.213  0.7253 -1.5423 -0.0919
 6826SOL    HW232115   1.053   0.010   8.097 -1.3678 -0.9720  1.1628
 6827SOL     OW32116   3.114   1.066   2.770 -0.4149  0.3740  0.1454
 6827SOL    HW132117   3.079   1.000   2.710 -1.7980 -0.2033  1.5851
 6827SOL    HW232118   3.181   1.108   2.716  2.0358 -2.9684  0.5707
 6828SOL     OW32119   0.320   3.953   6.564 -0.4750  0.1577  1.0213
 6828SOL    HW132120   0.363   3.967   6.479 -0.2907 -2.2960  0.7222
 6828SOL    HW232121   0.397   3.972   6.618 -0.2475 -1.9302  1.4044
 6829SOL     OW32122   0.574   0.507  17.625 -0.0995  0.2973 -0.3433
 6829SOL    HW132123   0.647   0.529  17.568  1.7612 -0.0219  1.8872
 6829SOL    HW232124   0.566   0.579  17.688  0.5857  0.3444 -0.3046
 6830SOL     OW32125   1.911   1.546   4.549 -0.0734  0.3125 -0.1953
 6830SOL    HW132126   1.859   1.550   4.469 -0.6448 -0.4454  0.1334
 6830SOL    HW232127   1.967   1.470   4.533 -1.4685 -0.8798  0.5692
 6831SOL     OW32128   2.771   3.043   7.761 -0.6881  0.0859 -0.5753
 6831SOL    HW132129   2.822   3.044   7.680 -0.0185  3.7120 -0.1116
 6831SOL    HW232130   2.703   2.981   7.735  1.3324 -0.1632 -5.1351
 6832SOL     OW32131   2.917   1.796   9.456  0.5396 -0.0312 -0.0567
 6832SOL    HW132132   2.895   1.885   9.429  0.9378 -0.4563 -1.7494
 6832SOL    HW232133   2.849   1.780   9.521  0.0291  0.8997 -0.3624
 6833SOL     OW32134   0.519   1.642   1.703 -0.0167 -0.0499 -0.2765
 6833SOL    HW132135   0.589   1.623   1.640  2.0545  2.1002  1.3930
 6833SOL    HW232136   0.520   1.737   1.714  1.8556 -0.3128  1.8800
 6834SOL     OW32137   1.011   3.734   6.429 -0.0743  0.1452  0.1711
 6834SOL    HW132138   1.084   3.736   6.367  0.9205 -0.3321  1.3198
 6834SOL    HW232139   1.056   3.702   6.507  1.8336  0.1077 -0.9338
 6835SOL     OW32140   0.115   1.337   5.653  0.1087 -0.5004  0.5627
 6835SOL    HW132141   0.062   1.288   5.716 -1.6321  0.1546 -0.4058
 6835SOL    HW232142   0.203   1.332   5.691 -0.6946 -2.5304  2.1781
 6836SOL     OW32143   3.868   3.180   2.419 -0.0594  0.0573 -0.1454
 6836SOL    HW132144   3.863   3.250   2.484 -0.2055  1.5457 -1.7602
 6836SOL    HW232145   3.838   3.107   2.473  1.1996  0.9204  1.6876
 6837SOL     OW32146   2.360   0.078   7.961 -0.6816 -0.1741  0.2481
 6837SOL    HW132147   2.439   0.108   8.005 -0.3184 -0.6943 -0.0546
 6837SOL    HW232148   2.339   0.147   7.898  1.0622  0.2305  0.1226
 6838SOL     OW32149   1.763   2.362  12.419 -0.1351 -0.3220  0.2742
 6838SOL    HW132150   1.849   2.373  12.379  0.7862  0.5746  2.5357
 6838SOL    HW232151   1.785   2.305  12.493 -0.6034  0.6742  1.1862
 6839SOL     OW32152   3.171   2.945   3.127 -0.7439 -0.5235  0.1409
 6839SOL    HW132153   3.082   2.979   3.142 -1.8792 -3.3658 -0.1354
 6839SOL    HW232154   3.178   2.969   3.034 -0.7763  1.2723  0.5955
 6840SOL     OW32155   2.447   3.806   3.035 -0.3145 -0.3267  0.1615
 6840SOL    HW132156   2.491   3.829   2.953  3.3836 -0.8182  1.9917
 6840SOL    HW232157   2.524   3.796   3.093 -0.3080  0.2145  0.2446
 6841SOL     OW32158   0.249   4.286   6.184 -0.0947  0.0086  0.1454
 6841SOL    HW132159   0.252   4.191   6.176  1.8929 -0.1033  2.1298
 6841SOL    HW232160   0.258   4.315   6.093 -0.6115 -0.4952 -0.0627
 6842SOL     OW32161   1.190   1.601   2.669 -0.0279  0.0171 -0.2612
 6842SOL    HW132162   1.174   1.695   2.679 -2.9860 -0.3656 -1.3775
 6842SOL    HW232163   1.239   1.591   2.751 -1.6040 -0.0620  0.6825
 6843SOL     OW32164   2.946   1.413   9.917 -0.1365 -0.4571  0.0982
 6843SOL    HW132165   3.002   1.482   9.953 -1.0126  0.1495  0.2797
 6843SOL    HW232166   3.001   1.336   9.933 -1.0028 -1.6898 -2.8694
 6844SOL     OW32167   3.603   0.739   9.085  0.9895 -0.4244  0.4142
 6844SOL    HW132168   3.620   0.689   9.005  2.2254  1.1187 -0.2788
 6844SOL    HW232169   3.673   0.803   9.074 -0.1414  0.5394 -1.0849
 6845SOL     OW32170   3.269   1.744   7.895  0.0320  0.2194 -0.3202
 6845SOL    HW132171   3.345   1.791   7.929 -1.8303  3.6110 -0.8945
 6845SOL    HW232172   3.250   1.684   7.967 -0.1153 -2.2723 -2.4223
 6846SOL     OW32173   0.534   0.997   7.106  0.0328 -0.0381  0.2495
 6846SOL    HW132174   0.542   1.076   7.054  0.2909  0.4538  1.0330
 6846SOL    HW232175   0.444   0.969   7.094 -0.0495  0.7650 -0.9642
 6847SOL     OW32176   1.386   3.467   7.938 -0.6203  0.3994 -0.1606
 6847SOL    HW132177   1.397   3.495   7.847  1.8249 -0.0146  0.0222
 6847SOL    HW232178   1.383   3.371   7.934  1.5682  0.4263 -2.9632
 6848SOL     OW32179   2.887   0.115   0.369 -0.0511 -0.0703  0.0969
 6848SOL    HW132180   2.912   0.075   0.286  0.4632  2.9412 -1.1730
 6848SOL    HW232181   2.830   0.049   0.408  0.8525 -0.1579  1.2879
 6849SOL     OW32182   0.985   2.330   4.304 -0.5502  0.4492  0.8478
 6849SOL    HW132183   0.907   2.282   4.277  0.6138 -1.6374  1.1757
 6849SOL    HW232184   0.949   2.403   4.354  1.2133  2.1299 -0.2799
 6850SOL     OW32185   0.790   3.679   6.962 -0.1054 -0.6373 -0.5575
 6850SOL    HW132186   0.745   3.749   6.915  0.1999  0.7988  1.2821
 6850SOL    HW232187   0.783   3.703   7.054 -0.5513 -1.4014 -0.3992
 6851SOL     OW32188   4.038   3.744   2.174 -0.3141  0.2555  0.1064
 6851SOL    HW132189   4.049   3.832   2.137  1.9515  0.2618  0.8234
 6851SOL    HW232190   3.999   3.698   2.099 -0.5309  0.6038  0.0059
 6852SOL     OW32191   1.785   1.956  16.404  0.6000  0.0005 -0.2989
 6852SOL    HW132192   1.759   1.945  16.313 -0.0531  1.9017 -0.3296
 6852SOL    HW232193   1.843   2.032  16.397  1.9485 -0.8858  1.0795
 6853SOL     OW32194   1.296   2.225   3.134  0.0159  0.1182 -0.2672
 6853SOL    HW132195   1.217   2.180   3.164 -0.8583  1.2466 -0.8872
 6853SOL    HW232196   1.302   2.196   3.043 -1.5027  1.1584 -0.7003
 6854SOL     OW32197   0.862   1.670   3.680  0.1589  0.3655  0.1681
 6854SOL    HW132198   0.867   1.683   3.585 -1.0572  0.0691  0.0619
 6854SOL    HW232199   0.816   1.749   3.709 -0.9319 -0.5690  0.9964
 6855SOL     OW32200   3.219   2.710   3.954 -0.1807  0.3208 -0.3683
 6855SOL    HW132201   3.241   2.797   3.920  0.8599 -0.6277 -2.1437
 6855SOL    HW232202   3.133   2.695   3.915  0.1946 -1.0158 -0.6886
 6856SOL     OW32203   1.464   4.026  15.539 -0.2034 -0.4660 -0.2463
 6856SOL    HW132204   1.383   3.987  15.571  0.5728 -0.0742  2.1495
 6856SOL    HW232205   1.430   4.095  15.481  0.0268  0.8387  1.1575
 6857SOL     OW32206   2.564   4.036   3.271 -0.9019 -0.1098 -0.1755
 6857SOL    HW132207   2.649   4.047   3.315 -1.9998  0.2181  1.8539
 6857SOL    HW232208   2.530   3.969   3.329 -0.3193 -0.0758  0.2095
 6858SOL     OW32209   0.690   3.740   5.200 -0.0396  0.0613 -0.4423
 6858SOL    HW132210   0.646   3.655   5.209  0.5418 -0.2365 -0.4549
 6858SOL    HW232211   0.719   3.751   5.291 -1.0525 -0.9632  0.0038
 6859SOL     OW32212   0.638   1.825   8.163 -0.1666  0.1931 -0.1818
 6859SOL    HW132213   0.609   1.735   8.172  0.2714  0.0746  0.0348
 6859SOL    HW232214   0.569   1.857   8.105 -0.4269 -0.0659 -0.0140
 6860SOL     OW32215   1.824   2.615   1.495 -0.2105  0.4848  0.1861
 6860SOL    HW132216   1.862   2.695   1.458 -2.5344  0.7349 -1.6816
 6860SOL    HW232217   1.730   2.627   1.481 -0.4710 -3.0008 -1.1650
 6861SOL     OW32218   1.850   1.650   5.013 -0.1537 -0.0232 -0.2069
 6861SOL    HW132219   1.843   1.649   4.917 -0.7250 -0.3279 -0.1577
 6861SOL    HW232220   1.761   1.654   5.047  0.2417  1.7242  0.5841
 6862SOL     OW32221   1.347   1.632   1.936  0.0064  0.0059  0.0898
 6862SOL    HW132222   1.434   1.654   1.903 -0.4697  0.8297 -0.6286
 6862SOL    HW232223   1.371   1.572   2.007  0.3147 -1.1374 -0.9826
 6863SOL     OW32224   3.329   3.124   4.471 -0.0522  0.5049  0.4798
 6863SOL    HW132225   3.253   3.112   4.414 -1.0730  2.8586  1.3765
 6863SOL    HW232226   3.393   3.159   4.410 -2.2401 -0.7746 -2.5849
 6864SOL     OW32227   2.872   0.891  13.097  0.0808 -0.4582  0.4171
 6864SOL    HW132228   2.881   0.799  13.121 -0.9313 -0.0796  2.2814
 6864SOL    HW232229   2.960   0.905  13.064  0.3015 -0.5943  0.9460
 6865SOL     OW32230   2.828   4.153   7.798  0.1651 -0.0708  0.0506
 6865SOL    HW132231   2.806   4.137   7.890  0.4236  0.0638  0.1370
 6865SOL    HW232232   2.893   4.084   7.787  0.4812 -0.1581  2.4154
 6866SOL     OW32233   4.396   3.629  17.242  0.8014  0.0581  0.0817
 6866SOL    HW132234   4.485   3.639  17.207  1.6488 -0.4137  2.1002
 6866SOL    HW232235   4.351   3.567  17.185  0.4889  0.0679  0.3139
 6867SOL     OW32236   2.647   4.322  11.597 -0.0099 -0.3955 -0.1686
 6867SOL    HW132237   2.737   4.322  11.629  0.2630  0.0551 -0.9232
 6867SOL    HW232238   2.601   4.299  11.678 -0.1096 -1.5126 -0.5494
 6868SOL     OW32239   1.917   2.249  10.949 -0.3481 -0.0743 -0.5531
 6868SOL    HW132240   1.832   2.244  10.993 -0.8279  0.1610 -1.4594
 6868SOL    HW232241   1.937   2.155  10.946 -1.6863 -0.3026 -2.3977
 6869SOL     OW32242   1.140   0.595   4.335 -0.5342  0.3039 -0.0524
 6869SOL    HW132243   1.084   0.672   4.328 -2.4230 -0.8552  2.5292
 6869SOL    HW232244   1.108   0.564   4.419  2.4483 -0.3631  0.8574
 6870SOL     OW32245   3.479   2.163   4.329 -0.2934 -0.8054  0.0394
 6870SOL    HW132246   3.520   2.151   4.244  0.4292  2.0281 -0.0086
 6870SOL    HW232247   3.390   2.130   4.314 -0.0387 -0.2168 -2.8144
 6871SOL     OW32248   0.137   2.623   4.447  0.6448 -0.1247 -0.1718
 6871SOL    HW132249   0.106   2.658   4.364 -0.9690 -0.4600  0.2772
 6871SOL    HW232250   0.222   2.585   4.427  0.6550 -0.3192  0.2211
 6872SOL     OW32251   1.522   3.359   6.400  0.5053  0.1453  0.1430
 6872SOL    HW132252   1.524   3.455   6.400  1.6877  0.0940 -1.9938
 6872SOL    HW232253   1.613   3.335   6.388  0.7923  1.2749  0.0265
 6873SOL     OW32254   1.575   4.165   6.969 -1.2933  0.3194  0.3134
 6873SOL    HW132255   1.557   4.128   6.882  1.4777 -2.8506  1.0889
 6873SOL    HW232256   1.568   4.093   7.032  1.8277  1.9984  2.5586
 6874SOL     OW32257   0.683   4.445   3.157 -0.1080 -0.0208 -0.2148
 6874SOL    HW132258   0.611   4.508   3.165  0.3456  0.2018  2.2474
 6874SOL    HW232259   0.761   4.497   3.173  0.0881 -0.7769  1.3510
 6875SOL     OW32260   0.502   4.123   9.056  0.0456  0.1771  0.0951
 6875SOL    HW132261   0.490   4.052   8.992 -0.2983 -0.4109  0.8125
 6875SOL    HW232262   0.430   4.108   9.116 -0.0939  0.8987  0.1017
 6876SOL     OW32263   1.072   0.854   5.486  0.2347 -0.2308 -0.2717
 6876SOL    HW132264   1.143   0.790   5.489  0.5217  0.0466 -0.9812
 6876SOL    HW232265   1.114   0.940   5.490  1.5322 -0.9673  1.8646
 6877SOL     OW32266   2.266   3.174  10.297  0.1482 -0.1122 -0.1770
 6877SOL    HW132267   2.249   3.080  10.284 -0.7135  0.0036  0.1303
 6877SOL    HW232268   2.248   3.186  10.390  0.7754 -2.3641  0.2539
 6878SOL     OW32269   2.151   1.980   2.119 -0.0752  0.4384  0.2904
 6878SOL    HW132270   2.234   1.971   2.166  0.5961 -0.7753 -1.1457
 6878SOL    HW232271   2.154   2.069   2.082  0.5333 -0.7614 -2.5397
 6879SOL     OW32272   3.688   0.943   8.421  0.2879 -0.0238 -0.2867
 6879SOL    HW132273   3.650   1.016   8.372 -0.7863  0.8751  1.8579
 6879SOL    HW232274   3.776   0.981   8.425  0.6126 -1.0025  1.9739
 6880SOL     OW32275   3.488   1.422   9.213 -0.4299 -0.6606 -0.2664
 6880SOL    HW132276   3.413   1.413   9.272 -0.1049 -2.4985 -0.1437
 6880SOL    HW232277   3.456   1.501   9.170 -2.6922 -2.3699 -1.6393
 6881SOL     OW32278   4.308   2.438   6.378 -0.1569 -0.3473 -0.6070
 6881SOL    HW132279   4.322   2.352   6.417 -2.2533  0.4827  1.9551
 6881SOL    HW232280   4.250   2.476   6.445  0.1884 -2.0898  0.6719
 6882SOL     OW32281   1.910   1.063   5.181 -0.4903 -0.3175  0.3273
 6882SOL    HW132282   1.903   1.046   5.275  0.4325  0.4962  0.5392
 6882SOL    HW232283   1.877   0.983   5.141 -1.1811  0.0649  0.1194
 6883SOL     OW32284   2.722   1.573  17.685 -0.3647 -0.3451 -0.3544
 6883SOL    HW132285   2.809   1.569  17.725 -0.8867 -1.0761  0.6865
 6883SOL    HW232286   2.723   1.491  17.636  0.1645  0.0296 -0.9700
 6884SOL     OW32287   0.718   2.402   5.724 -0.5312  0.1345 -0.1427
 6884SOL    HW132288   0.781   2.469   5.697 -1.1842  1.1016  0.7211
 6884SOL    HW232289   0.727   2.413   5.819  0.8652  1.3853 -0.4220
 6885SOL     OW32290   3.279   1.036   4.551  0.8276 -1.0148  0.0525
 6885SOL    HW132291   3.222   1.107   4.582  0.7423 -0.5469 -1.1521
 6885SOL    HW232292   3.365   1.053   4.590  0.5076 -1.3151  0.8892
 6886SOL     OW32293   0.926   3.293   1.452  0.3939  0.2214 -0.3778
 6886SOL    HW132294   1.011   3.254   1.471  0.9682  1.1967 -0.8924
 6886SOL    HW232295   0.865   3.223   1.430  1.5661 -0.7950 -0.3516
 6887SOL     OW32296   4.168   0.926   4.589 -0.2090  0.0498 -0.0258
 6887SOL    HW132297   4.122   0.972   4.659  1.3559 -0.0494  1.0809
 6887SOL    HW232298   4.182   0.840   4.627  2.0598 -0.9806 -3.1319
 6888SOL     OW32299   1.770   4.596  16.142  0.7116 -0.3852 -0.8099
 6888SOL    HW132300   1.744   4.510  16.108  2.3169 -0.7091 -1.2542
 6888SOL    HW232301   1.862   4.590  16.116  0.3851  1.9288 -2.4404
 6889SOL     OW32302   2.685   3.621   6.829 -0.1701  0.1854  0.2345
 6889SOL    HW132303   2.736   3.545   6.857 -0.2161  0.8285  2.0777
 6889SOL    HW232304   2.701   3.622   6.735 -1.5105 -0.2939 -0.0021
 6890SOL     OW32305   1.234   1.334   7.044 -0.1903 -0.3058  0.1406
 6890SOL    HW132306   1.235   1.283   7.125 -1.3765 -0.3326  0.1487
 6890SOL    HW232307   1.247   1.423   7.074  0.5020 -0.5090  0.4355
 6891SOL     OW32308   0.744   1.087   3.264  0.0534 -0.0694 -0.8215
 6891SOL    HW132309   0.706   1.169   3.230 -2.9693 -0.9402  0.4887
 6891SOL    HW232310   0.800   1.124   3.332 -0.2638 -3.0244  1.0182
 6892SOL     OW32311   1.522   3.412  14.363 -0.2110  0.5578  0.2615
 6892SOL    HW132312   1.583   3.441  14.430  0.8477 -1.8314  0.3279
 6892SOL    HW232313   1.468   3.490  14.351 -0.3334  0.0317 -2.5292
 6893SOL     OW32314   1.962   0.888  17.445 -0.0885  0.1331  0.2827
 6893SOL    HW132315   1.953   0.813  17.386 -1.2396 -0.9597  1.8384
 6893SOL    HW232316   1.947   0.957  17.380 -0.1516 -0.7789 -0.6823
 6894SOL     OW32317   3.945   3.876   6.028 -0.6108 -0.0705  0.1145
 6894SOL    HW132318   3.989   3.801   5.988  2.6013  1.9348 -0.0873
 6894SOL    HW232319   3.953   3.929   5.949 -2.8805 -3.7213 -2.5286
 6895SOL     OW32320   4.563   4.054   2.703 -0.6377 -0.2914 -0.4215
 6895SOL    HW132321   4.579   4.140   2.665  0.7143 -0.3801 -0.0443
 6895SOL    HW232322   4.490   4.027   2.647  0.3699 -1.1263 -1.3130
 6896SOL     OW32323   3.729   3.703   4.650  0.1166  0.0925  0.2487
 6896SOL    HW132324   3.806   3.667   4.693 -0.6560 -0.1522  1.4425
 6896SOL    HW232325   3.759   3.776   4.596 -1.1474  0.4774  0.0714
 6897SOL     OW32326   1.966   0.369  15.187 -0.1806  0.0644 -0.3134
 6897SOL    HW132327   1.982   0.295  15.130  0.5554 -1.0681  1.3799
 6897SOL    HW232328   1.983   0.343  15.277  1.8381  0.1102 -0.6968
 6898SOL     OW32329   1.821   3.561   6.135 -0.0409 -0.0921 -0.0997
 6898SOL    HW132330   1.781   3.646   6.152  2.7054  0.5198  3.3126
 6898SOL    HW232331   1.748   3.526   6.084 -1.8246  0.8547  1.7456
 6899SOL     OW32332   0.352   3.631  10.039 -0.1675  0.4866  0.1387
 6899SOL    HW132333   0.274   3.644  10.092 -1.4948  0.2185 -1.7614
 6899SOL    HW232334   0.428   3.653  10.094 -0.3637  0.0763  0.5768
 6900SOL     OW32335   1.790   1.612   6.210  0.0274  0.0407  0.3165
 6900SOL    HW132336   1.714   1.620   6.266  0.7303 -0.6924  1.3825
 6900SOL    HW232337   1.775   1.519   6.193  1.9904 -0.2448  0.1139
 6901SOL     OW32338   0.250   1.975   4.085  0.6267  0.2586  0.0296
 6901SOL    HW132339   0.182   1.944   4.145  0.1369  0.8376 -0.2306
 6901SOL    HW232340   0.200   2.008   4.011  0.0881  1.5701  0.9671
 6902SOL     OW32341   0.241   0.653  11.377 -0.6444  0.2328  0.2385
 6902SOL    HW132342   0.250   0.577  11.434  0.6005  0.6132  0.5640
 6902SOL    HW232343   0.152   0.640  11.346  1.1631  1.8223 -5.7478
 6903SOL     OW32344   4.568   0.350   2.963 -0.3763  0.2282  0.3055
 6903SOL    HW132345   4.522   0.432   2.980  1.2864  1.7412 -2.6646
 6903SOL    HW232346   4.659   0.379   2.956 -0.3182 -0.2022 -0.6882
 6904SOL     OW32347   0.446   4.547   6.206  0.0461 -0.8779  0.1211
 6904SOL    HW132348   0.536   4.571   6.183  0.6288 -2.6307  0.6283
 6904SOL    HW232349   0.410   4.479   6.150 -1.1695  1.1198 -1.5400
 6905SOL     OW32350   1.033   0.016   4.240  0.3695 -0.1951 -0.1342
 6905SOL    HW132351   1.007   4.674   4.281 -1.2011 -0.2511 -1.2737
 6905SOL    HW232352   1.075   0.057   4.316  1.3552 -0.7399 -0.3910
 6906SOL     OW32353   3.935   3.595  14.672 -0.0780  0.3767 -0.3183
 6906SOL    HW132354   3.911   3.582  14.764  1.5066 -1.6945 -0.2122
 6906SOL    HW232355   3.851   3.585  14.626 -0.6775  3.8928  0.0068
 6907SOL     OW32356   0.590   0.847   8.945  0.2006  0.8027  0.4272
 6907SOL    HW132357   0.566   0.760   8.913  1.4792  0.6504 -0.1351
 6907SOL    HW232358   0.654   0.882   8.882 -0.6835  0.8156 -0.4677
 6908SOL     OW32359   0.374   1.156   9.498  0.5834 -0.0905 -0.0233
 6908SOL    HW132360   0.353   1.238   9.544  0.9890 -0.8529  1.5426
 6908SOL    HW232361   0.448   1.137   9.556  2.0156  0.4899 -1.6633
 6909SOL     OW32362   2.013   1.461   0.993 -0.1420 -0.1069  0.0886
 6909SOL    HW132363   1.925   1.497   0.995 -0.6501 -1.4066  1.2996
 6909SOL    HW232364   2.014   1.365   0.987 -3.3174 -0.1914  1.2069
 6910SOL     OW32365   1.241   3.003   7.889  0.1000 -0.0861 -0.3935
 6910SOL    HW132366   1.158   3.042   7.917  0.3589  0.9120 -0.9985
 6910SOL    HW232367   1.269   2.954   7.966  0.2092  1.4481  0.5517
 6911SOL     OW32368   4.005   1.758   1.367  0.2344  0.2991  0.1839
 6911SOL    HW132369   3.998   1.850   1.391 -0.7906  0.5681 -1.1126
 6911SOL    HW232370   3.951   1.743   1.290 -0.6012  3.5372  0.1590
 6912SOL     OW32371   4.569   1.125  12.146 -0.0455  0.5062  0.7593
 6912SOL    HW132372   4.483   1.092  12.122  0.5362 -0.2278 -0.3324
 6912SOL    HW232373   4.612   1.050  12.187  1.2018  0.5027 -0.5730
 6913SOL     OW32374   0.829   1.025   3.903 -0.3676 -0.2706 -0.7331
 6913SOL    HW132375   0.782   0.954   3.946 -1.1372  1.2813  0.9839
 6913SOL    HW232376   0.882   1.051   3.978  0.1970 -3.1937 -0.1160
 6914SOL     OW32377   0.744   3.076   3.405 -0.0855  0.6427  0.1614
 6914SOL    HW132378   0.801   3.023   3.349 -1.6727  0.7646 -1.5419
 6914SOL    HW232379   0.662   3.031   3.386  0.1838 -0.4399  1.5530
 6915SOL     OW32380   0.233   0.023   1.769 -0.2115  0.3748 -0.0765
 6915SOL    HW132381   0.219   0.098   1.827  1.5915  1.4343 -1.0041
 6915SOL    HW232382   0.305   0.048   1.711 -0.6113  2.8628  0.5236
 6916SOL     OW32383   4.224   2.961  10.868  0.1098 -0.2609  0.1822
 6916SOL    HW132384   4.163   3.011  10.814 -0.8673 -0.2035  1.3521
 6916SOL    HW232385   4.298   3.021  10.872  0.2852 -0.7326  3.8645
 6917SOL     OW32386   3.981   3.803   2.879  0.0709 -0.2740  0.5936
 6917SOL    HW132387   4.027   3.724   2.851  0.5336  0.7881 -1.6446
 6917SOL    HW232388   4.029   3.819   2.960  0.0677  0.4506  0.4509
 6918SOL     OW32389   1.553   3.767   0.246  0.4383 -0.3422  0.2024
 6918SOL    HW132390   1.508   3.710   0.184  1.4173 -1.4454  0.5077
 6918SOL    HW232391   1.629   3.717   0.276  1.1448  0.4576 -0.2567
 6919SOL     OW32392   3.028   3.026   5.118 -0.1478 -0.3622  0.2500
 6919SOL    HW132393   3.038   2.939   5.158  1.1232 -0.7698 -0.9680
 6919SOL    HW232394   3.111   3.063   5.150 -0.3866  0.2343  0.1683
 6920SOL     OW32395   2.305   1.790   2.708  0.4888 -0.0369 -0.6520
 6920SOL    HW132396   2.381   1.842   2.685  2.9447 -2.3520  2.3556
 6920SOL    HW232397   2.339   1.736   2.779 -1.5912 -1.3374 -0.6406
 6921SOL     OW32398   4.564   1.132   9.480 -0.0534 -0.1179  0.3018
 6921SOL    HW132399   4.633   1.133   9.547  0.9128 -1.1890 -0.6679
 6921SOL    HW232400   4.596   1.066   9.418 -0.1421  0.8103 -0.7234
 6922SOL     OW32401   4.420   0.519  16.035  0.0676 -0.7529 -0.4019
 6922SOL    HW132402   4.510   0.532  16.003 -0.1528 -0.2891 -0.8357
 6922SOL    HW232403   4.447   0.451  16.097 -0.3993  0.7367  1.4157
 6923SOL     OW32404   3.292   1.879   5.413 -0.3828 -0.0963  0.0758
 6923SOL    HW132405   3.289   1.964   5.457  2.0671 -1.3470  2.6241
 6923SOL    HW232406   3.212   1.841   5.449 -0.7156  0.5986  0.0736
 6924SOL     OW32407   2.577   4.009   9.436 -0.4929  0.2157  0.6441
 6924SOL    HW132408   2.582   4.103   9.448 -0.1291  0.0446  1.8477
 6924SOL    HW232409   2.623   4.001   9.352 -1.2793  2.8996 -0.0326
 6925SOL     OW32410   1.561   1.258   5.409  0.4472  0.2111 -0.0354
 6925SOL    HW132411   1.504   1.278   5.483 -1.4606 -0.7232 -1.2412
 6925SOL    HW232412   1.646   1.235   5.448  0.2432  1.4680  1.1150
 6926SOL     OW32413   1.721   2.667  12.155 -0.2804  0.4859  0.0155
 6926SOL    HW132414   1.744   2.704  12.241  0.7025  3.8059 -1.6708
 6926SOL    HW232415   1.748   2.734  12.092 -0.3330  0.7822  0.3089
 6927SOL     OW32416   1.017   1.490  11.090 -0.1221  0.2574  0.0102
 6927SOL    HW132417   1.065   1.480  11.007 -1.2438  1.6381 -0.8043
 6927SOL    HW232418   0.951   1.557  11.075  0.6783  0.4476 -2.7001
 6928SOL     OW32419   2.594   2.184   1.629 -0.2498  0.0217 -0.2075
 6928SOL    HW132420   2.633   2.258   1.676 -0.9983 -0.1771  0.7449
 6928SOL    HW232421   2.512   2.217   1.593 -0.1155 -0.2068 -0.7253
 6929SOL     OW32422   1.774   0.290  12.914  0.0850 -0.0381 -0.2248
 6929SOL    HW132423   1.798   0.198  12.925  0.5744 -0.0773 -1.6729
 6929SOL    HW232424   1.727   0.286  12.831 -1.7045  1.2198  0.7034
 6930SOL     OW32425   0.978   3.992   4.970  0.7001 -0.4515  0.1839
 6930SOL    HW132426   1.001   3.974   4.879  1.7224  0.5406  0.2449
 6930SOL    HW232427   0.973   3.905   5.009  0.7200  0.8741  3.1383
 6931SOL     OW32428   1.238   2.952   5.744 -0.4889 -0.6019  0.0966
 6931SOL    HW132429   1.319   2.906   5.720  0.1379  0.3420  0.3765
 6931SOL    HW232430   1.244   2.957   5.839  2.0951  2.2123 -0.1978
 6932SOL     OW32431   2.637   2.105  12.767 -0.3539  0.1553  0.1371
 6932SOL    HW132432   2.727   2.134  12.783 -0.4171 -0.8032  2.2856
 6932SOL    HW232433   2.642   2.019  12.810  0.0823 -0.1234 -0.4617
 6933SOL     OW32434   3.584   2.480   2.635  0.0624  0.7687 -0.2685
 6933SOL    HW132435   3.677   2.494   2.653  0.8138 -0.5584 -3.2748
 6933SOL    HW232436   3.555   2.416   2.699  1.2462 -0.1272 -0.6340
 6934SOL     OW32437   3.569   0.930   0.571 -0.0768  0.1065 -0.9616
 6934SOL    HW132438   3.615   1.012   0.550 -1.9147  1.2346 -0.5374
 6934SOL    HW232439   3.492   0.977   0.603  0.6725  1.1728 -0.7080
 6935SOL     OW32440   0.805   0.244   6.471 -0.2089  0.0522  0.0200
 6935SOL    HW132441   0.734   0.296   6.433 -1.6066 -0.1350  2.3927
 6935SOL    HW232442   0.866   0.317   6.475 -0.1197 -0.0173 -0.0565
 6936SOL     OW32443   0.517   4.316  13.444  0.3243  0.0457  0.4282
 6936SOL    HW132444   0.422   4.307  13.447  0.1401  1.4446 -0.7816
 6936SOL    HW232445   0.555   4.238  13.484 -0.8404 -0.5967  0.2668
 6937SOL     OW32446   1.208   1.944   7.989 -0.3202  0.3707 -0.2730
 6937SOL    HW132447   1.156   1.929   7.909  2.3186 -2.3072 -1.4842
 6937SOL    HW232448   1.153   1.899   8.053  0.4036 -2.8442 -1.8686
 6938SOL     OW32449   2.560   2.551   0.781  0.1612  0.2594  0.0182
 6938SOL    HW132450   2.478   2.507   0.804 -0.0891  0.3163 -0.7550
 6938SOL    HW232451   2.624   2.480   0.775 -0.8960 -0.7226  0.3908
 6939SOL     OW32452   2.291   1.904   5.151 -0.3994  0.4095 -0.5552
 6939SOL    HW132453   2.203   1.926   5.181 -0.4183 -1.4864  0.7369
 6939SOL    HW232454   2.274   1.886   5.058  2.5648  0.0074 -1.0255
 6940SOL     OW32455   0.637   0.865   2.318 -0.0027  0.5978  0.1099
 6940SOL    HW132456   0.589   0.832   2.242  0.0180  1.7822 -0.4230
 6940SOL    HW232457   0.606   0.803   2.384  0.5327  0.2213  0.0112
 6941SOL     OW32458   0.135   0.907   3.815  0.0684 -0.6348 -0.1696
 6941SOL    HW132459   0.054   0.876   3.775 -0.7371 -1.1496  1.8424
 6941SOL    HW232460   0.165   0.965   3.746 -2.2001 -0.1259 -0.7460
 6942SOL     OW32461   1.159   0.873   6.172 -0.4902 -0.1430  0.1950
 6942SOL    HW132462   1.078   0.869   6.223 -1.6943  0.3929 -1.6584
 6942SOL    HW232463   1.197   0.789   6.195  0.7313  0.6414  0.9909
 6943SOL     OW32464   3.509   4.134   4.871 -0.1210 -0.1377  0.1213
 6943SOL    HW132465   3.502   4.196   4.798  4.0972  1.7881  1.3903
 6943SOL    HW232466   3.416   4.111   4.880 -0.6372  1.3195 -1.4308
 6944SOL     OW32467   1.600   0.348  15.409 -0.2026 -0.2685 -0.4425
 6944SOL    HW132468   1.515   0.306  15.422 -1.1169  0.9818 -2.4888
 6944SOL    HW232469   1.656   0.322  15.483  0.0314 -0.8045 -0.8062
 6945SOL     OW32470   4.576   3.587  14.352  0.2790 -0.3276 -0.1711
 6945SOL    HW132471   4.667   3.612  14.368 -0.2425  3.6939 -3.4929
 6945SOL    HW232472   4.585   3.494  14.372 -0.0440  0.1276  2.1618
 6946SOL     OW32473   1.863   3.954   9.604  0.2575  0.5680 -0.5003
 6946SOL    HW132474   1.904   3.926   9.686 -3.6758  1.1718  1.6857
 6946SOL    HW232475   1.939   3.936   9.548 -0.8060 -2.8102 -0.8414
 6947SOL     OW32476   2.348   2.351   7.350  0.0122  0.3865 -0.1962
 6947SOL    HW132477   2.364   2.430   7.299  0.4106  1.6738  1.9321
 6947SOL    HW232478   2.361   2.284   7.283  1.9376 -1.9240  2.5241
 6948SOL     OW32479   2.498   3.892  15.844 -0.0112  0.2363 -0.0898
 6948SOL    HW132480   2.505   3.947  15.766  3.3952  0.9694  0.7476
 6948SOL    HW232481   2.404   3.900  15.861  0.0895 -0.3230  0.7417
 6949SOL     OW32482   2.162   2.778   7.035 -0.5173 -0.3115 -0.3072
 6949SOL    HW132483   2.115   2.861   7.031 -1.4105 -0.9281 -2.6977
 6949SOL    HW232484   2.101   2.720   6.989 -0.8300 -0.9816  0.9496
 6950SOL     OW32485   0.103   0.635   8.574  0.1083  0.2918  0.4075
 6950SOL    HW132486   0.051   0.703   8.618 -1.0154  0.5058 -1.2269
 6950SOL    HW232487   0.176   0.689   8.542  1.1754 -2.3596 -1.6232
 6951SOL     OW32488   2.968   4.396   7.469  0.0820  0.1787  0.3617
 6951SOL    HW132489   3.045   4.386   7.525  1.8009  1.0598 -1.8339
 6951SOL    HW232490   2.903   4.347   7.519 -0.1464 -1.4831 -1.5489
 6952SOL     OW32491   1.786   3.869   3.317 -0.0682 -0.7100 -0.8500
 6952SOL    HW132492   1.735   3.858   3.397  0.4769 -2.3779 -0.7435
 6952SOL    HW232493   1.728   3.920   3.260 -1.3678 -0.1986  0.9385
 6953SOL     OW32494   1.777   3.165   5.332 -0.3348 -0.2762 -0.0162
 6953SOL    HW132495   1.855   3.113   5.347 -1.1880 -1.1449  1.4597
 6953SOL    HW232496   1.740   3.167   5.420  2.4124 -1.2961  1.1559
 6954SOL     OW32497   0.197   0.293   4.772  0.3315 -0.5291  0.1338
 6954SOL    HW132498   0.234   0.230   4.710 -1.7355 -1.6583  0.0801
 6954SOL    HW232499   0.103   0.285   4.759  0.2205 -0.6648  1.0311
 6955SOL     OW32500   4.162   3.166  15.225 -0.0180  0.1723 -0.4572
 6955SOL    HW132501   4.127   3.246  15.186  0.9307  1.5001  1.4028
 6955SOL    HW232502   4.256   3.182  15.213 -0.0815  1.7234  1.2083
 6956SOL     OW32503   4.737   0.071   6.553 -0.2487  0.1705 -0.0531
 6956SOL    HW132504   4.652   0.037   6.583  0.5573 -2.9655 -1.4147
 6956SOL    HW232505   4.711   0.117   6.473 -0.8104  0.5801  0.3615
 6957SOL     OW32506   0.828   2.920  12.663  0.8679 -0.2813 -0.1247
 6957SOL    HW132507   0.742   2.955  12.688  0.8060  1.7707 -3.2474
 6957SOL    HW232508   0.823   2.837  12.710  1.4738  0.1816  0.7434
 6958SOL     OW32509   4.328   2.820   1.900 -0.7822  0.6083 -0.1499
 6958SOL    HW132510   4.333   2.871   1.981  2.2729  0.4264 -0.2360
 6958SOL    HW232511   4.349   2.731   1.931  3.5739  1.9524  0.6698
 6959SOL     OW32512   1.182   0.869   5.165 -0.0645 -0.5732 -0.1087
 6959SOL    HW132513   1.206   0.940   5.224 -0.2657  0.9413 -1.8765
 6959SOL    HW232514   1.267   0.848   5.125  0.5774  2.7439 -0.4264
 6960SOL     OW32515   1.871   1.870  13.105 -0.3336  0.0730 -0.3534
 6960SOL    HW132516   1.913   1.790  13.075  2.5031  1.5289 -0.2050
 6960SOL    HW232517   1.782   1.855  13.073  0.2241  0.2369 -1.9600
 6961SOL     OW32518   2.305   4.605   3.904  0.2887 -0.0145  0.2649
 6961SOL    HW132519   2.241   4.535   3.919 -1.5603  1.0722 -2.3085
 6961SOL    HW232520   2.275   4.637   3.818  0.9858 -0.3454 -0.1039
 6962SOL     OW32521   3.479   4.729  11.919  0.1687 -0.0498 -0.4505
 6962SOL    HW132522   3.532   4.686  11.852 -0.0014  0.6665 -1.0512
 6962SOL    HW232523   3.399   4.677  11.918  0.8542 -1.1338  2.2330
 6963SOL     OW32524   2.997   4.403   5.751 -0.1253  0.0429 -0.2989
 6963SOL    HW132525   2.958   4.462   5.815 -0.1703 -0.5491  0.2152
 6963SOL    HW232526   3.017   4.325   5.802  0.8273 -0.1002 -0.8900
 6964SOL     OW32527   4.539   1.412   8.422  0.2170 -0.3263  0.9555
 6964SOL    HW132528   4.628   1.396   8.391 -0.2329 -3.3746  1.1640
 6964SOL    HW232529   4.557   1.500   8.455 -0.3291 -0.5803  1.9528
 6965SOL     OW32530   1.283   0.657   5.495 -0.2364  0.6707 -0.1668
 6965SOL    HW132531   1.331   0.735   5.523  1.6340  0.0318 -1.5664
 6965SOL    HW232532   1.344   0.608   5.440 -0.0087  0.8015 -0.0328
 6966SOL     OW32533   1.517   0.506   5.088  0.1197  0.5004  0.1808
 6966SOL    HW132534   1.577   0.450   5.139  1.1394  0.1767 -1.3693
 6966SOL    HW232535   1.448   0.443   5.070  0.0717  1.6749 -3.6583
 6967SOL     OW32536   2.593   1.513  14.060 -0.2758 -0.3103  0.3514
 6967SOL    HW132537   2.560   1.590  14.013  0.9892 -0.1778 -0.3172
 6967SOL    HW232538   2.677   1.503  14.015 -0.5714 -1.7023  0.1056
 6968SOL     OW32539   1.912   2.328   6.137 -0.1419  0.4933  0.0217
 6968SOL    HW132540   1.860   2.322   6.057 -0.5784  2.0605  0.1868
 6968SOL    HW232541   1.837   2.317   6.195  0.2333  1.4344  0.6708
 6969SOL     OW32542   3.528   2.959   1.283  0.6333 -0.1777 -0.1377
 6969SOL    HW132543   3.622   2.951   1.296  0.5686  0.7596  0.9076
 6969SOL    HW232544   3.498   2.999   1.365 -0.8233  0.3243 -0.8982
 6970SOL     OW32545   0.505   0.677   2.498  0.4045  0.3495  0.3084
 6970SOL    HW132546   0.522   0.582   2.503  2.9074  0.8017  0.5347
 6970SOL    HW232547   0.532   0.714   2.582  0.2595  0.0558  0.4880
 6971SOL     OW32548   3.129   1.883   3.928  0.7164  0.5284  0.3827
 6971SOL    HW132549   3.157   1.874   4.019  2.6310  0.3670 -0.2265
 6971SOL    HW232550   3.049   1.936   3.927  1.3695  1.5259  1.5064
 6972SOL     OW32551   1.332   1.549  15.515 -0.1347  0.1885 -0.6106
 6972SOL    HW132552   1.406   1.489  15.523 -0.3078  0.1017  0.4417
 6972SOL    HW232553   1.334   1.568  15.422 -0.2926  0.0816 -0.6357
 6973SOL     OW32554   3.341   2.107   1.181  0.4774  0.3865 -0.4159
 6973SOL    HW132555   3.385   2.025   1.160 -1.1112 -0.7976  0.9007
 6973SOL    HW232556   3.407   2.170   1.152  1.7979 -0.2137  1.3098
 6974SOL     OW32557   4.444   0.564   4.506 -0.2142 -0.2297 -0.1909
 6974SOL    HW132558   4.449   0.627   4.434 -2.6574  1.2380  0.9239
 6974SOL    HW232559   4.382   0.606   4.566  0.0809 -0.5489  0.3297
 6975SOL     OW32560   1.588   2.428   1.384 -0.2233 -0.0823  0.6832
 6975SOL    HW132561   1.547   2.475   1.457  1.2374  1.9982  0.1761
 6975SOL    HW232562   1.534   2.349   1.380  0.5384 -0.5961  0.6865
 6976SOL     OW32563   4.733   3.884   3.444  0.4175  0.0971  0.0552
 6976SOL    HW132564   4.728   3.975   3.413  0.8068  0.9272  2.4352
 6976SOL    HW232565   0.077   3.892   3.488 -0.3759 -3.6688  2.2234
 6977SOL     OW32566   0.036   4.328  15.397  0.0112 -0.1147  0.2977
 6977SOL    HW132567   0.108   4.354  15.340 -0.8112  0.8787 -0.2691
 6977SOL    HW232568   0.020   4.410  15.445 -0.7866  0.6700 -1.3226
 6978SOL     OW32569   2.938   3.126   8.643 -0.1000 -0.1793  0.5575
 6978SOL    HW132570   2.890   3.162   8.568 -0.9981  2.1896  2.2598
 6978SOL    HW232571   2.881   3.148   8.717  0.4055 -0.3468  0.9943
 6979SOL     OW32572   0.024   3.329   5.095 -0.1908 -0.2053  0.2447
 6979SOL    HW132573   0.061   3.258   5.043  2.7323 -0.5174  2.7741
 6979SOL    HW232574   4.671   3.327   5.076 -0.4096 -0.1583  1.3296
 6980SOL     OW32575   1.648   0.805   1.326 -0.1043 -0.3306 -0.1596
 6980SOL    HW132576   1.680   0.734   1.270  0.5632  0.2715 -0.5423
 6980SOL    HW232577   1.719   0.844   1.377  0.7392 -0.2979 -1.3530
 6981SOL     OW32578   2.914   1.146   5.130 -0.2504 -0.4109  0.0361
 6981SOL    HW132579   2.947   1.224   5.175  0.1333  0.1523 -1.2121
 6981SOL    HW232580   2.937   1.083   5.198  0.9682 -2.1742 -1.9971
 6982SOL     OW32581   1.296   3.865   3.052  0.1784 -0.4271  0.9082
 6982SOL    HW132582   1.316   3.857   3.145  1.3104  0.9125  0.7720
 6982SOL    HW232583   1.207   3.828   3.053  0.7762 -1.8667 -0.9730
 6983SOL     OW32584   1.794   1.958   7.833 -0.3584  0.4545  0.6862
 6983SOL    HW132585   1.768   2.046   7.857 -0.2388  0.1396  1.9914
 6983SOL    HW232586   1.715   1.906   7.848 -1.1329  1.6494  0.6955
 6984SOL     OW32587   1.913   0.997   5.454 -0.3040  0.6125  0.2285
 6984SOL    HW132588   1.900   0.903   5.441 -0.0366  0.6990 -0.7227
 6984SOL    HW232589   2.002   1.018   5.426 -1.3166  2.6886 -1.4167
 6985SOL     OW32590   3.859   2.747   5.486  0.4535 -0.2037  0.4618
 6985SOL    HW132591   3.936   2.767   5.433  0.8049 -0.3880  0.8964
 6985SOL    HW232592   3.831   2.666   5.443 -2.7862  0.7253  0.8394
 6986SOL     OW32593   3.744   2.365   3.468  0.3257 -0.2918  0.2660
 6986SOL    HW132594   3.786   2.280   3.484 -2.5000 -1.8964 -0.8391
 6986SOL    HW232595   3.662   2.358   3.517  1.4106 -2.6373  1.7684
 6987SOL     OW32596   1.647   0.403  14.203 -0.4772 -0.6536  0.0806
 6987SOL    HW132597   1.634   0.336  14.136  1.3503 -1.5211  0.5715
 6987SOL    HW232598   1.591   0.391  14.279 -1.5796 -2.1526 -0.9602
 6988SOL     OW32599   3.947   0.921   1.833 -0.4321  0.1061  0.5221
 6988SOL    HW132600   3.889   0.845   1.841  0.1755 -0.4053  0.0963
 6988SOL    HW232601   3.892   0.986   1.877 -1.6938  0.2567 -1.2651
 6989SOL     OW32602   4.527   0.335   9.182  0.0678  0.1221  0.5659
 6989SOL    HW132603   4.580   0.375   9.251 -1.2165  3.4780 -0.3533
 6989SOL    HW232604   4.589   0.290   9.126 -0.4173  0.1281  0.0219
 6990SOL     OW32605   2.871   1.119   6.020  0.1343 -0.0486 -0.1802
 6990SOL    HW132606   2.956   1.086   6.049 -1.8574 -1.4599  4.0325
 6990SOL    HW232607   2.818   1.111   6.100 -0.4457 -1.0489 -0.6578
 6991SOL     OW32608   0.100   1.260   6.513 -0.0393  0.6454  0.2978
 6991SOL    HW132609   0.175   1.223   6.466 -0.5564 -0.0937  0.0546
 6991SOL    HW232610   0.114   1.223   6.600 -0.3450  0.8423  0.4314
 6992SOL     OW32611   2.932   1.206   5.650  0.2179  0.1583  0.0621
 6992SOL    HW132612   2.842   1.226   5.624 -0.0747  0.3506  1.2331
 6992SOL    HW232613   2.918   1.136   5.714 -0.8768 -0.8618 -1.2987
 6993SOL     OW32614   1.253   3.597  10.634  0.0759  0.0375 -0.0732
 6993SOL    HW132615   1.325   3.570  10.578 -0.3917  0.6958 -0.9935
 6993SOL    HW232616   1.244   3.530  10.702  0.3698 -1.0017 -1.0811
 6994SOL     OW32617   1.086   2.705   5.921  0.7327 -0.0709 -0.3676
 6994SOL    HW132618   1.135   2.783   5.947 -0.2653  0.8008 -1.0873
 6994SOL    HW232619   1.001   2.746   5.904  1.0676  0.8171  0.0762
 6995SOL     OW32620   2.869   0.247   0.628  0.0427  0.4201  0.0124
 6995SOL    HW132621   2.903   0.160   0.648  2.4507  0.9903 -1.6984
 6995SOL    HW232622   2.884   0.252   0.534 -0.8898 -0.1481 -0.1687
 6996SOL     OW32623   0.322   2.924   7.538 -0.1907  0.4383 -0.7012
 6996SOL    HW132624   0.332   2.864   7.464 -3.3598  0.5851 -1.2208
 6996SOL    HW232625   0.366   2.999   7.498  1.4972 -0.0534  0.2238
 6997SOL     OW32626   0.265   3.992   5.072 -0.6566  0.2438 -0.3447
 6997SOL    HW132627   0.186   4.037   5.102 -0.2543  1.7306 -1.4733
 6997SOL    HW232628   0.267   3.938   5.151  1.4956 -2.0494 -1.9339
 6998SOL     OW32629   2.415   2.717   5.566 -0.1913 -0.5951  0.5274
 6998SOL    HW132630   2.423   2.774   5.643 -0.4668  1.4601 -0.9822
 6998SOL    HW232631   2.357   2.777   5.520  3.7723  3.1859  0.4315
 6999SOL     OW32632   2.784   4.356   1.122 -0.0295 -0.4609 -0.1005
 6999SOL    HW132633   2.711   4.303   1.154  0.8078 -0.4851  1.7712
 6999SOL    HW232634   2.802   4.415   1.196  1.9911 -0.3119 -0.7136
 7000SOL     OW32635   3.263   4.269   7.954  0.5194  0.0355 -0.1947
 7000SOL    HW132636   3.223   4.276   7.867 -1.4013  1.1465  0.7874
 7000SOL    HW232637   3.333   4.204   7.943 -1.4137 -1.8288 -1.5891
 7001SOL     OW32638   4.428   0.785   1.765  0.0028  0.5793 -0.0643
 7001SOL    HW132639   4.380   0.858   1.803 -1.0255 -0.6777  1.0594
 7001SOL    HW232640   4.395   0.707   1.810 -0.0693 -0.0500 -1.2122
 7002SOL     OW32641   4.090   1.660   4.810  0.4055  0.0933 -0.0222
 7002SOL    HW132642   4.139   1.727   4.762 -0.7259  0.0588 -1.2334
 7002SOL    HW232643   3.999   1.664   4.781 -0.1748 -0.7218  1.7097
 7003SOL     OW32644   2.904   0.950   3.285  0.3005 -0.0813  0.1820
 7003SOL    HW132645   2.870   0.861   3.280 -2.3940  0.9350  0.5051
 7003SOL    HW232646   2.935   0.962   3.195 -1.1265  0.6389 -0.2157
 7004SOL     OW32647   3.112   3.827   1.336 -0.3180  0.1028 -0.2219
 7004SOL    HW132648   3.136   3.830   1.429 -0.9141  0.5925 -0.0844
 7004SOL    HW232649   3.142   3.909   1.295  1.5100 -0.1452  0.5959
 7005SOL     OW32650   1.444   3.840   2.798  0.5342 -0.1885 -0.3660
 7005SOL    HW132651   1.372   3.796   2.752 -1.0771  1.7019  0.3188
 7005SOL    HW232652   1.403   3.875   2.877 -1.1348 -0.8562 -0.9334
 7006SOL     OW32653   1.492   0.745   7.924  0.2317  0.0688  0.1424
 7006SOL    HW132654   1.410   0.736   7.874 -0.0297 -1.1887  0.8006
 7006SOL    HW232655   1.485   0.834   7.958 -1.4996  0.1439 -0.4195
 7007SOL     OW32656   2.244   1.242   4.053 -0.0162 -0.4742 -0.2683
 7007SOL    HW132657   2.315   1.221   4.113  0.3463 -0.5307 -0.7159
 7007SOL    HW232658   2.286   1.200   3.978 -1.2688 -1.2404 -0.5392
 7008SOL     OW32659   1.761   4.563   4.440  0.3330  0.2179  0.3500
 7008SOL    HW132660   1.778   4.495   4.375 -0.6575 -1.6731  2.0592
 7008SOL    HW232661   1.666   4.567   4.449  0.3294  1.1563 -0.1533
 7009SOL     OW32662   2.250   1.253   8.559 -0.0731 -0.4452 -0.3829
 7009SOL    HW132663   2.207   1.333   8.529  2.2934 -0.0538 -2.7167
 7009SOL    HW232664   2.286   1.213   8.480  1.0406 -0.7550  0.2793
 7010SOL     OW32665   0.057   1.397   2.328  0.5832  0.1323  0.2187
 7010SOL    HW132666   0.045   1.492   2.326  0.9321  0.2224  2.8957
 7010SOL    HW232667   0.089   1.385   2.417  1.4866 -1.3498 -0.3086
 7011SOL     OW32668   4.737   2.987   3.799  1.0357  0.4609  0.2598
 7011SOL    HW132669   4.646   3.001   3.770  1.1298  1.3097  0.3700
 7011SOL    HW232670   0.047   2.964   3.721  1.0266 -1.2107  0.7418
 7012SOL     OW32671   4.175   2.663   1.474  0.5939  0.1781  0.1554
 7012SOL    HW132672   4.084   2.639   1.456  0.3892  1.6340 -0.7895
 7012SOL    HW232673   4.163   2.722   1.549 -0.1614  1.7173 -1.1706
 7013SOL     OW32674   4.535   2.559   4.600 -0.0925 -0.4718 -0.2963
 7013SOL    HW132675   4.504   2.519   4.681  0.0775  0.9769  0.4670
 7013SOL    HW232676   4.459   2.616   4.591  0.8357  1.1706  2.2205
 7014SOL     OW32677   0.495   0.015   7.562  0.5828  0.7141  0.2633
 7014SOL    HW132678   0.461   4.679   7.608  1.2436  1.5677  2.1576
 7014SOL    HW232679   0.482   0.086   7.625 -0.8409 -0.1350  0.9174
 7015SOL     OW32680   2.913   3.600   2.125  0.7428  0.2198  0.0387
 7015SOL    HW132681   2.958   3.535   2.072 -1.1247 -1.3310  0.3508
 7015SOL    HW232682   2.931   3.572   2.214  2.0872 -0.9716 -0.6098
 7016SOL     OW32683   0.356   1.696   4.326 -0.5401  0.3098  0.2758
 7016SOL    HW132684   0.294   1.736   4.387 -1.1675  0.2654 -0.3395
 7016SOL    HW232685   0.406   1.639   4.386  0.0956 -1.7215 -2.1973
 7017SOL     OW32686   2.686   2.080   4.028 -0.3218  0.5400 -0.4230
 7017SOL    HW132687   2.662   2.160   3.979  0.8118  1.1026 -0.0429
 7017SOL    HW232688   2.631   2.014   3.986 -0.9286  0.6303  0.2303
 7018SOL     OW32689   2.352   0.817   9.753  0.8244  0.2135 -0.1668
 7018SOL    HW132690   2.257   0.827   9.760  0.9117  1.5196 -0.7511
 7018SOL    HW232691   2.382   0.871   9.826 -1.6793  1.6986 -0.2313
 7019SOL     OW32692   3.354   0.313   5.508  0.6976  0.2562 -0.0345
 7019SOL    HW132693   3.294   0.326   5.582 -1.9482  0.8235 -2.2874
 7019SOL    HW232694   3.422   0.262   5.551  1.1512 -0.3687 -1.5137
 7020SOL     OW32695   3.229   4.601  11.193  0.0746 -0.1632 -0.5273
 7020SOL    HW132696   3.322   4.578  11.188  0.3977  1.4702 -2.1296
 7020SOL    HW232697   3.210   4.614  11.100 -1.3798  0.6222 -0.1230
 7021SOL     OW32698   0.560   1.896   3.420  0.5482 -0.1714 -0.1133
 7021SOL    HW132699   0.496   1.839   3.462  1.9979 -1.6157  0.1448
 7021SOL    HW232700   0.511   1.925   3.343 -0.5214 -2.6495 -0.3896
 7022SOL     OW32701   1.497   4.038   6.732 -0.7025 -0.2210 -0.6196
 7022SOL    HW132702   1.543   4.110   6.688 -0.2090  0.5000  1.0519
 7022SOL    HW232703   1.428   4.032   6.666  0.7531 -1.7124 -1.9892
 7023SOL     OW32704   4.157   3.992  15.862 -0.0716 -0.7068 -0.6237
 7023SOL    HW132705   4.087   4.025  15.806  0.0639  0.8868  0.1339
 7023SOL    HW232706   4.221   3.964  15.796  1.7056  0.4166  0.6358
 7024SOL     OW32707   1.243   4.502   6.301  0.8374  0.2735  0.0488
 7024SOL    HW132708   1.197   4.435   6.351  2.0139 -1.8706 -1.7260
 7024SOL    HW232709   1.247   4.456   6.217  2.1185 -2.7457  1.7575
 7025SOL     OW32710   0.843   2.420   7.316  0.2969  0.4914 -0.2165
 7025SOL    HW132711   0.765   2.366   7.325 -0.5234  1.7417  0.0798
 7025SOL    HW232712   0.807   2.508   7.304  1.7407  1.2048  0.7237
 7026SOL     OW32713   0.490   3.153   7.844 -0.4950  0.2881  0.0161
 7026SOL    HW132714   0.544   3.085   7.884  0.9520  0.5564 -1.4538
 7026SOL    HW232715   0.402   3.138   7.879 -0.0586  1.9941  1.8048
 7027SOL     OW32716   4.580   4.231   8.163 -0.1934 -0.2460 -0.1610
 7027SOL    HW132717   4.660   4.223   8.111 -1.3623  2.0540 -2.2812
 7027SOL    HW232718   4.591   4.312   8.213  3.5020  0.0842 -1.4903
 7028SOL     OW32719   1.366   2.266  16.223  0.2377 -0.8421 -0.2086
 7028SOL    HW132720   1.281   2.308  16.233  0.7939 -0.0683  1.3724
 7028SOL    HW232721   1.382   2.305  16.137 -1.0717 -1.5074 -0.7484
 7029SOL     OW32722   2.038   4.584   3.431  0.0558 -0.0164  0.0515
 7029SOL    HW132723   1.976   4.631   3.376  1.4286  2.5366  0.7172
 7029SOL    HW232724   2.108   4.558   3.370  0.3689 -0.5788  0.6453
 7030SOL     OW32725   2.273   3.138   9.342 -0.1297  0.2181 -0.6928
 7030SOL    HW132726   2.353   3.140   9.395 -2.6108  2.0375  2.9734
 7030SOL    HW232727   2.284   3.059   9.289 -1.8097 -2.4716  3.0061
 7031SOL     OW32728   3.563   0.994   4.346 -0.8559  0.0791  0.4603
 7031SOL    HW132729   3.517   1.066   4.303 -0.6276 -0.2985 -0.4210
 7031SOL    HW232730   3.593   1.040   4.425  3.1129 -2.6339  0.5525
 7032SOL     OW32731   3.036   0.111   4.439 -0.4122  0.3346  0.5518
 7032SOL    HW132732   3.020   0.075   4.352  0.4227  0.0055  0.5426
 7032SOL    HW232733   2.955   0.109   4.492 -1.6503  0.0008 -1.3634
 7033SOL     OW32734   1.533   4.526   0.317  0.4476 -0.1181 -0.5552
 7033SOL    HW132735   1.515   4.477   0.237 -0.4630  0.6140 -0.7965
 7033SOL    HW232736   1.576   4.600   0.274 -0.8330  0.0689 -1.5072
 7034SOL     OW32737   0.465   1.264   3.494 -0.3275  0.1539  0.2581
 7034SOL    HW132738   0.433   1.193   3.439 -1.3620 -0.4605  1.6623
 7034SOL    HW232739   0.493   1.226   3.577 -4.7212  1.1566  2.1639
 7035SOL     OW32740   1.153   0.924   2.524  0.2015 -0.0317  0.2112
 7035SOL    HW132741   1.072   0.927   2.575 -0.0864 -0.3825 -0.2239
 7035SOL    HW232742   1.160   0.842   2.475  2.3513  1.2565 -1.6782
 7036SOL     OW32743   0.911   1.829   8.304 -0.0546  0.2397  0.0865
 7036SOL    HW132744   0.841   1.884   8.269  1.2960  2.7337  1.2081
 7036SOL    HW232745   0.963   1.802   8.228  1.5921 -0.3531  1.4219
 7037SOL     OW32746   2.132   0.168   6.999  0.0370 -0.2764 -0.6048
 7037SOL    HW132747   2.052   0.151   7.049  1.4689 -3.3024  0.6803
 7037SOL    HW232748   2.142   0.086   6.951 -0.6193 -0.9717  0.4490
 7038SOL     OW32749   3.950   3.008   4.622 -0.4574 -0.3021 -0.2329
 7038SOL    HW132750   3.889   2.934   4.627  1.2568 -1.6062  1.3114
 7038SOL    HW232751   3.959   3.041   4.711  0.0284 -0.2923 -0.2900
 7039SOL     OW32752   0.637   3.959   7.959  0.0210  0.3502  0.0275
 7039SOL    HW132753   0.548   3.925   7.969 -1.0914  2.4909 -2.7504
 7039SOL    HW232754   0.671   3.923   8.042  1.1941  2.9020  0.6516
 7040SOL     OW32755   3.382   1.378   2.277  0.4656 -0.7966 -0.0268
 7040SOL    HW132756   3.384   1.472   2.290 -0.2178 -0.3737 -2.9327
 7040SOL    HW232757   3.442   1.339   2.341  1.4572 -0.6979 -0.9002
 7041SOL     OW32758   2.857   4.131   8.081 -0.2949  0.1675  0.1815
 7041SOL    HW132759   2.876   4.043   8.113 -2.7430 -0.0804  0.9800
 7041SOL    HW232760   2.930   4.183   8.116  0.2454  1.2399 -2.5187
 7042SOL     OW32761   3.622   3.349  13.041 -0.8842 -0.2014 -0.2574
 7042SOL    HW132762   3.613   3.278  12.977  0.5357 -0.4169 -0.2112
 7042SOL    HW232763   3.614   3.295  13.120 -3.8108  0.1288 -0.3439
 7043SOL     OW32764   4.212   4.429   1.057 -0.8518  0.5505 -0.2133
 7043SOL    HW132765   4.147   4.474   1.111  1.8883  0.3430  3.1904
 7043SOL    HW232766   4.289   4.425   1.113  0.0184  1.4690 -1.3384
 7044SOL     OW32767   1.768   2.562  10.951 -0.9452  0.2078 -0.0933
 7044SOL    HW132768   1.797   2.512  10.875  1.0331  2.5539 -0.8800
 7044SOL    HW232769   1.842   2.619  10.972 -2.3404  2.2942 -0.8520
 7045SOL     OW32770   3.781   1.559  15.837  0.1933 -0.2475 -0.3419
 7045SOL    HW132771   3.717   1.553  15.767  0.5998 -1.2985 -0.6267
 7045SOL    HW232772   3.819   1.472  15.830  1.3319  0.0439  2.1211
 7046SOL     OW32773   3.365   3.921   8.735 -0.6478  0.2164  0.0398
 7046SOL    HW132774   3.295   3.860   8.759 -0.3966 -0.8847 -2.0111
 7046SOL    HW232775   3.314   3.973   8.673 -0.9897 -0.3086 -0.1200
 7047SOL     OW32776   4.463   2.312   8.411 -0.0522 -0.2357  0.2257
 7047SOL    HW132777   4.536   2.303   8.472 -0.7046 -1.4540  0.8326
 7047SOL    HW232778   4.388   2.288   8.466  1.9723  0.6638  3.3603
 7048SOL     OW32779   3.942   4.281  15.518  0.4482 -0.4501 -0.2535
 7048SOL    HW132780   4.007   4.277  15.589  2.5259 -0.4503 -2.1559
 7048SOL    HW232781   3.944   4.369  15.482  0.4597 -0.3283  0.0501
 7049SOL     OW32782   0.180   3.249  13.475  0.0621  0.0576  0.2780
 7049SOL    HW132783   0.188   3.158  13.503 -1.2348 -0.0215  0.3949
 7049SOL    HW232784   0.096   3.273  13.512  0.1179  1.2263 -0.3538
 7050SOL     OW32785   2.303   1.638   4.984  0.0890 -0.4481 -0.2503
 7050SOL    HW132786   2.289   1.708   4.921  0.2876  1.3897  1.7432
 7050SOL    HW232787   2.217   1.596   4.986  0.2850 -0.9211 -1.3735
 7051SOL     OW32788   1.647   3.846   2.142  0.1224 -0.1544  0.1401
 7051SOL    HW132789   1.598   3.926   2.125  0.5042  0.1327  0.3902
 7051SOL    HW232790   1.631   3.799   2.060 -2.0930  0.0036  0.4808
 7052SOL     OW32791   2.314   2.214  13.445  0.6846  0.1117  0.0248
 7052SOL    HW132792   2.296   2.209  13.352 -1.3909 -1.4728  0.5055
 7052SOL    HW232793   2.409   2.206  13.438  0.7718 -0.2969  1.6167
 7053SOL     OW32794   3.554   4.396   5.331 -0.3022 -0.4275  0.0767
 7053SOL    HW132795   3.628   4.452   5.355 -0.4838 -0.8590  1.6074
 7053SOL    HW232796   3.478   4.447   5.358  1.0626  1.6712 -0.0500
 7054SOL     OW32797   0.892   3.654   3.665 -0.4831 -0.4033  0.1896
 7054SOL    HW132798   0.944   3.575   3.649 -0.2747 -0.1301 -0.5006
 7054SOL    HW232799   0.829   3.650   3.593  0.6152 -0.8306 -0.7460
 7055SOL     OW32800   4.015   2.559   7.772  0.8915  0.3755 -0.0394
 7055SOL    HW132801   4.109   2.540   7.772  0.7471 -0.3463 -2.7964
 7055SOL    HW232802   4.003   2.469   7.800 -1.3642  0.6597 -0.1441
 7056SOL     OW32803   4.079   3.353  14.295 -0.1086 -0.5023  0.6835
 7056SOL    HW132804   4.119   3.362  14.382  1.5180  2.2518 -0.3462
 7056SOL    HW232805   4.146   3.302  14.249 -0.4643 -0.3446 -0.0080
 7057SOL     OW32806   0.055   1.173   8.852 -0.2869  0.4676  0.6148
 7057SOL    HW132807   0.135   1.171   8.903  0.6739  2.7074 -0.7803
 7057SOL    HW232808   0.034   1.266   8.847 -1.0629  0.3072  0.8869
 7058SOL     OW32809   0.734   2.081   8.535 -0.2206  0.2558  0.3357
 7058SOL    HW132810   0.696   2.156   8.488  0.4122  1.3344  1.5576
 7058SOL    HW232811   0.717   2.109   8.625  0.1099 -0.6283  0.6780
 7059SOL     OW32812   3.744   0.264   3.768 -0.1505  0.5561  0.7476
 7059SOL    HW132813   3.677   0.201   3.741 -1.4646  1.5379  1.7414
 7059SOL    HW232814   3.806   0.242   3.698 -0.1053  1.1407  0.6043
 7060SOL     OW32815   3.080   2.248   4.383 -0.1005  0.2167 -0.2693
 7060SOL    HW132816   3.169   2.235   4.415 -0.0789 -0.8731 -0.8079
 7060SOL    HW232817   3.044   2.320   4.436 -1.8658 -0.4277 -0.5784
 7061SOL     OW32818   2.522   1.609   8.397 -0.3254  0.4830  0.0446
 7061SOL    HW132819   2.565   1.531   8.364 -2.1980 -0.0637 -1.0808
 7061SOL    HW232820   2.482   1.585   8.481  0.5195 -0.6578  0.1127
 7062SOL     OW32821   2.753   1.232   1.664 -0.4422  0.1120  0.5229
 7062SOL    HW132822   2.679   1.280   1.700 -0.9706 -1.8650  2.0604
 7062SOL    HW232823   2.716   1.147   1.642 -0.7540  0.8031 -1.6886
 7063SOL     OW32824   0.389   1.237  16.829  0.0908  0.0230  0.4744
 7063SOL    HW132825   0.319   1.241  16.764 -2.5862  2.4170  3.4422
 7063SOL    HW232826   0.398   1.329  16.853  0.3332 -0.2745  1.5256
 7064SOL     OW32827   2.784   1.957   8.517 -0.5360 -0.9451  0.6885
 7064SOL    HW132828   2.869   1.975   8.557  0.1211 -0.6097 -0.8457
 7064SOL    HW232829   2.808   1.940   8.426 -0.7338 -2.4925  0.9311
 7065SOL     OW32830   1.568   4.346   0.089 -0.5046 -0.7001 -0.1383
 7065SOL    HW132831   1.615   4.266   0.065 -0.7431 -0.8357 -0.1488
 7065SOL    HW232832   1.607   4.407   0.026 -1.0466 -1.9740 -1.7174
 7066SOL     OW32833   0.286   1.235   8.129  0.3991  0.0623  0.5614
 7066SOL    HW132834   0.256   1.315   8.174 -2.0987 -0.5146 -0.0697
 7066SOL    HW232835   0.266   1.255   8.038 -1.0724 -2.1003  0.4228
 7067SOL     OW32836   4.426   4.499   6.082 -0.5403 -0.2387  0.4433
 7067SOL    HW132837   4.352   4.474   6.138  0.9021  0.5844  2.7150
 7067SOL    HW232838   4.394   4.449   6.007 -1.6543  0.7371  0.2758
 7068SOL     OW32839   0.894   1.867   8.556  0.2384  0.3876 -0.5143
 7068SOL    HW132840   0.817   1.923   8.551 -0.7469 -1.0515 -1.3403
 7068SOL    HW232841   0.919   1.864   8.464 -1.6257  1.6374 -1.0730
 7069SOL     OW32842   2.079   1.716  14.745  0.1279  0.1678  0.3514
 7069SOL    HW132843   2.165   1.750  14.719 -0.7081  2.0738  0.1113
 7069SOL    HW232844   2.020   1.743  14.675 -0.0501 -0.0300  0.4254
 7070SOL     OW32845   3.662   4.663   7.512  0.1317  0.0273 -0.0870
 7070SOL    HW132846   3.615   4.587   7.546 -1.3834  1.3113  0.6596
 7070SOL    HW232847   3.591   4.721   7.486 -1.1900 -1.3673  0.4703
 7071SOL     OW32848   4.627   4.716   3.781  0.8295  0.1575  0.1113
 7071SOL    HW132849   4.572   4.704   3.859  0.8711 -0.9096 -0.0189
 7071SOL    HW232850   4.652   0.066   3.793  0.7450  0.3281 -1.0267
 7072SOL     OW32851   4.234   3.221  17.287  0.5165  0.3217 -0.4308
 7072SOL    HW132852   4.323   3.212  17.251  0.6110  1.4901 -0.4739
 7072SOL    HW232853   4.235   3.310  17.323 -1.4805  0.7519 -1.4756
 7073SOL     OW32854   2.276   0.063   0.004 -0.2469  0.6574  0.3537
 7073SOL    HW132855   2.212   0.123   0.042  1.0016  1.2526  1.5443
 7073SOL    HW232856   2.332   0.048   0.080 -0.8172  0.9911  0.8370
 7074SOL     OW32857   1.318   4.007   5.032  0.6442 -0.1220  0.1283
 7074SOL    HW132858   1.398   3.954   5.037 -0.4645 -2.0409 -2.2950
 7074SOL    HW232859   1.275   3.961   5.104  0.5229  0.0085  0.1391
 7075SOL     OW32860   2.773   3.628   7.998 -0.0517 -0.0296 -0.0779
 7075SOL    HW132861   2.810   3.580   7.924  1.9956  2.6793 -0.8060
 7075SOL    HW232862   2.768   3.554   8.058  3.2047  0.0171  0.2487
 7076SOL     OW32863   2.008   2.301  12.930  0.0309  0.3491 -0.4577
 7076SOL    HW132864   1.952   2.305  13.007  0.2394 -0.2310 -0.2770
 7076SOL    HW232865   2.065   2.377  12.936  0.1191  0.0874  1.7762
 7077SOL     OW32866   0.823   1.032   6.854  0.0689  0.4692  0.1241
 7077SOL    HW132867   0.782   0.946   6.846 -0.0848  0.6646 -1.1833
 7077SOL    HW232868   0.841   1.027   6.948  0.3295  2.6405  0.1847
 7078SOL     OW32869   0.669   3.997   7.684  0.4150 -0.2998  0.2396
 7078SOL    HW132870   0.717   4.064   7.732  0.0724  1.7753 -2.3794
 7078SOL    HW232871   0.674   3.932   7.755 -2.3943 -0.0586  0.6447
 7079SOL     OW32872   3.839   0.081   8.239  0.4005  0.5004  0.5224
 7079SOL    HW132873   3.757   0.046   8.275  1.2225 -0.0431  1.8355
 7079SOL    HW232874   3.889   0.083   8.320  1.8792 -1.2773 -0.3317
 7080SOL     OW32875   4.534   1.146   2.990 -0.5668  0.4694  0.2884
 7080SOL    HW132876   4.466   1.191   3.039 -0.9660 -1.8853  1.8895
 7080SOL    HW232877   4.527   1.193   2.906 -1.1719 -1.2448 -0.6143
 7081SOL     OW32878   2.366   2.122   7.720 -0.2982  0.0355  0.0558
 7081SOL    HW132879   2.395   2.111   7.630 -1.2235 -0.5927 -0.1754
 7081SOL    HW232880   2.446   2.142   7.769  1.3189  1.5059 -3.2390
 7082SOL     OW32881   1.170   3.612   6.633 -0.1981  0.0959 -0.4120
 7082SOL    HW132882   1.131   3.573   6.711 -1.7407  2.0580 -0.2026
 7082SOL    HW232883   1.256   3.636   6.668 -1.3193  0.0020  2.4032
 7083SOL     OW32884   3.256   0.046   8.385 -0.2141 -0.1952 -0.2813
 7083SOL    HW132885   3.252   0.115   8.319 -3.1453 -1.5503 -1.5274
 7083SOL    HW232886   3.307   0.088   8.454 -0.7978 -1.7273  1.0769
 7084SOL     OW32887   4.038   1.432   8.114 -0.2044  0.3071  0.1192
 7084SOL    HW132888   4.123   1.430   8.070  0.1437 -0.3323  0.8071
 7084SOL    HW232889   4.029   1.527   8.123  2.8229  0.6523 -0.4729
 7085SOL     OW32890   2.745   0.845   1.253 -0.1735 -0.9415 -0.0564
 7085SOL    HW132891   2.742   0.806   1.166 -0.4254  0.8586 -0.8609
 7085SOL    HW232892   2.795   0.782   1.305  0.3852  0.3047  0.9331
 7086SOL     OW32893   0.889   4.617   2.349 -0.2318 -0.3599 -0.1886
 7086SOL    HW132894   0.843   4.553   2.403  0.3135  1.7492  2.7655
 7086SOL    HW232895   0.965   4.640   2.403  0.1755 -1.2843 -0.3743
 7087SOL     OW32896   1.895   2.843   7.654  0.1612 -0.2989 -0.6138
 7087SOL    HW132897   1.976   2.892   7.641  0.0864  0.4575  1.8151
 7087SOL    HW232898   1.838   2.917   7.635  0.3441 -0.0621 -0.2403
 7088SOL     OW32899   1.773   2.003  13.758  0.0957  0.1866  0.5617
 7088SOL    HW132900   1.691   1.956  13.752  0.4832 -0.2031 -1.5437
 7088SOL    HW232901   1.817   1.978  13.677 -0.9162  0.2988 -0.0091
 7089SOL     OW32902   2.400   2.591   1.674 -0.1537  0.0875  0.6932
 7089SOL    HW132903   2.313   2.629   1.682 -0.7539 -1.1017 -0.1792
 7089SOL    HW232904   2.440   2.649   1.610  0.8508 -0.8743  0.4390
 7090SOL     OW32905   3.101   3.708  11.386  0.1133  0.5628 -0.2729
 7090SOL    HW132906   3.178   3.743  11.430 -0.2993 -0.9005  1.6230
 7090SOL    HW232907   3.124   3.615  11.389 -0.9083  0.3947  2.6933
 7091SOL     OW32908   4.729   0.095  11.986  0.5352 -0.6365  0.0647
 7091SOL    HW132909   0.004   0.113  11.893 -0.6596  1.6528  0.3015
 7091SOL    HW232910   4.634   0.110  11.979  0.6373 -0.1732 -0.3294
 7092SOL     OW32911   2.431   2.546   4.144 -0.1256 -0.0256 -0.2667
 7092SOL    HW132912   2.445   2.567   4.051 -3.0832 -2.4203 -1.2523
 7092SOL    HW232913   2.505   2.596   4.180  0.1844  0.6095 -1.7418
 7093SOL     OW32914   2.130   1.924  10.230 -0.3482  0.1516  0.5277
 7093SOL    HW132915   2.112   1.939  10.137 -1.8383  0.6679  0.8854
 7093SOL    HW232916   2.054   1.890  10.278  0.1011  0.2510  1.3062
 7094SOL     OW32917   3.607   4.530  13.988  0.3117  0.2198 -0.1796
 7094SOL    HW132918   3.673   4.527  13.919 -1.4346 -1.1675 -1.8009
 7094SOL    HW232919   3.668   4.547  14.060 -0.8763  0.0447  0.8772
 7095SOL     OW32920   4.312   0.516   8.288  0.2257  0.0695  0.0939
 7095SOL    HW132921   4.229   0.472   8.302  0.6464 -0.3014  1.3792
 7095SOL    HW232922   4.318   0.581   8.358  0.8660  0.7377 -0.5761
 7096SOL     OW32923   3.085   2.610   7.182 -0.0920  0.0229 -0.5315
 7096SOL    HW132924   3.178   2.585   7.180 -0.3395 -0.9303 -0.2883
 7096SOL    HW232925   3.037   2.530   7.204 -0.1759  0.6050  1.4396
 7097SOL     OW32926   1.294   0.043  15.140 -0.2937  0.5649  0.4655
 7097SOL    HW132927   1.370   0.020  15.193  2.1448  1.5737 -2.5422
 7097SOL    HW232928   1.237   0.082  15.206 -0.7154  0.2072  0.3106
 7098SOL     OW32929   1.594   3.309  14.711 -0.4694  0.1083 -0.1322
 7098SOL    HW132930   1.631   3.266  14.788  1.8029 -0.1113 -1.3400
 7098SOL    HW232931   1.586   3.241  14.645 -2.4703 -2.5980  2.9027
 7099SOL     OW32932   1.491   4.546  15.708 -0.2133  0.1955  0.2756
 7099SOL    HW132933   1.554   4.482  15.739  0.0948 -0.3216 -1.4042
 7099SOL    HW232934   1.517   4.619  15.763  0.5595  1.1458 -1.3473
 7100SOL     OW32935   2.027   4.027   6.816  0.5053  0.0023 -0.0990
 7100SOL    HW132936   2.050   4.062   6.903  0.3781  0.0092 -0.0683
 7100SOL    HW232937   2.028   3.935   6.840 -0.7534  0.6014  2.3419
 7101SOL     OW32938   0.259   2.047   8.210 -0.0565  0.0512 -0.2530
 7101SOL    HW132939   0.228   2.115   8.270 -1.7807 -0.1883 -0.8577
 7101SOL    HW232940   0.277   1.979   8.274 -0.2390 -0.8997 -1.2046
 7102SOL     OW32941   4.501   4.346   8.954  0.0795  0.5247  0.3099
 7102SOL    HW132942   4.460   4.339   9.040 -0.5021 -2.1124 -0.1982
 7102SOL    HW232943   4.580   4.294   8.964 -0.8063 -0.6429  1.1136
 7103SOL     OW32944   0.007   1.987   5.794 -0.3398  0.0248  0.0718
 7103SOL    HW132945   4.657   2.008   5.817 -0.2785 -0.0895  0.4190
 7103SOL    HW232946   0.003   1.981   5.698 -0.1062  3.6342 -0.1511
 7104SOL     OW32947   2.216   3.738   3.564  0.3792  0.2305  0.0627
 7104SOL    HW132948   2.149   3.743   3.496 -1.0428 -0.7630  1.3869
 7104SOL    HW232949   2.175   3.793   3.632 -0.5500  0.7159 -0.8813
 7105SOL     OW32950   3.930   4.605  16.452  0.1224  0.0949 -0.4371
 7105SOL    HW132951   3.890   4.619  16.537 -0.7962  1.2538 -1.0560
 7105SOL    HW232952   3.855   4.571  16.403  0.3779  1.6240 -1.8647
 7106SOL     OW32953   2.016   3.794   9.185  0.4145  0.3252  0.7665
 7106SOL    HW132954   1.979   3.879   9.161  0.0632  0.9297  3.4225
 7106SOL    HW232955   1.969   3.784   9.268 -0.7874 -0.1147  0.0452
 7107SOL     OW32956   0.175   0.425   6.982 -0.2104 -0.1138  0.2514
 7107SOL    HW132957   0.082   0.402   6.973 -0.2517  0.9806 -1.9339
 7107SOL    HW232958   0.220   0.375   6.915  1.3211  1.5563  0.0366
 7108SOL     OW32959   0.064   3.076   2.411 -0.6060  0.1904 -0.6006
 7108SOL    HW132960   0.116   3.050   2.486 -0.6198 -0.1400 -0.7050
 7108SOL    HW232961   0.099   3.161   2.382  1.6277 -0.0605  1.3741
 7109SOL     OW32962   3.736   1.991   6.503  0.9144 -0.5745  0.3571
 7109SOL    HW132963   3.689   2.031   6.576 -3.0271 -0.2541 -2.3295
 7109SOL    HW232964   3.676   1.919   6.483  1.9879 -1.7927  1.6002
 7110SOL     OW32965   3.417   0.697   7.298 -0.0659 -0.1159  0.3623
 7110SOL    HW132966   3.343   0.756   7.281  1.2759  1.1880 -1.0347
 7110SOL    HW232967   3.394   0.659   7.383 -1.9450  0.5942  0.1704
 7111SOL     OW32968   1.088   4.364  16.428 -0.2370  0.1967  0.1417
 7111SOL    HW132969   1.074   4.408  16.512 -1.6979  0.0981 -0.0485
 7111SOL    HW232970   1.182   4.345  16.432  0.0633  1.4274 -1.0409
 7112SOL     OW32971   4.522   2.893   8.535 -0.0246  0.1344  0.3318
 7112SOL    HW132972   4.481   2.941   8.463 -2.6214 -0.7411  1.2316
 7112SOL    HW232973   4.455   2.896   8.604 -1.3984  0.7736 -1.0290
 7113SOL     OW32974   1.098   1.745   8.139 -0.3890  0.3780  0.6297
 7113SOL    HW132975   1.120   1.716   8.051 -2.6298  0.2324  0.1060
 7113SOL    HW232976   1.133   1.670   8.186 -0.2280  0.4735  0.6640
 7114SOL     OW32977   4.481   2.881   5.509  0.1714  0.6632  0.2182
 7114SOL    HW132978   4.451   2.792   5.492 -0.4575  0.7595  0.8225
 7114SOL    HW232979   4.562   2.890   5.459 -1.2880  2.3749 -1.8439
 7115SOL     OW32980   4.029   2.014   6.501  0.6049 -0.5472 -0.6428
 7115SOL    HW132981   3.939   1.986   6.484  0.2774  1.7255 -2.5835
 7115SOL    HW232982   4.041   2.099   6.459  0.1398  1.4115  3.1358
 7116SOL     OW32983   3.039   1.035  10.917 -0.0973 -0.0503 -0.9622
 7116SOL    HW132984   3.028   0.948  10.956  1.5093  0.2973  0.3291
 7116SOL    HW232985   3.034   1.089  10.996  0.7445  0.0231 -0.9501
 7117SOL     OW32986   3.851   0.833   5.320  0.2319 -0.5414 -0.0556
 7117SOL    HW132987   3.844   0.927   5.336  1.5866 -0.4522  0.0222
 7117SOL    HW232988   3.821   0.825   5.229 -0.6548  2.1481 -0.0007
 7118SOL     OW32989   0.003   1.598   9.457  0.0028  0.0996 -0.1552
 7118SOL    HW132990   4.726   1.601   9.551  1.9626  0.4779  0.2078
 7118SOL    HW232991   4.728   1.691   9.442  0.4144 -0.0179 -1.3039
 7119SOL     OW32992   3.084   4.432   7.220  0.3569 -0.2440 -0.1734
 7119SOL    HW132993   3.088   4.339   7.198 -1.0277 -0.5508  0.8981
 7119SOL    HW232994   3.040   4.422   7.304  2.0846 -0.0864  0.7497
 7120SOL     OW32995   1.192   3.770  15.818  0.3044  0.3301 -0.1612
 7120SOL    HW132996   1.219   3.755  15.727  2.2797  2.2033  0.1231
 7120SOL    HW232997   1.135   3.847  15.814  0.3678  0.4566  1.5934
 7121SOL     OW32998   0.898   2.667   0.510 -0.5036  0.1348  0.4466
 7121SOL    HW132999   0.893   2.763   0.503  0.4495 -0.0070 -2.1885
 7121SOL    HW233000   0.915   2.651   0.417  0.9202 -0.3813  0.8052
 7122SOL     OW33001   1.133   3.217  10.015  0.9001 -0.5378 -0.3486
 7122SOL    HW133002   1.212   3.175   9.982  0.9670  0.0818 -0.9674
 7122SOL    HW233003   1.073   3.143  10.026 -0.9595  1.1667  0.9521
 7123SOL     OW33004   2.344   2.013   3.161 -0.4393  0.1904  0.3230
 7123SOL    HW133005   2.373   2.033   3.072 -2.3242  1.0546 -0.0905
 7123SOL    HW233006   2.412   1.953   3.191 -2.8546 -3.6169 -1.8676
 7124SOL     OW33007   4.085   4.166   0.332 -0.0891 -0.0820  0.0321
 7124SOL    HW133008   4.175   4.195   0.317 -0.6878  2.1040  0.6256
 7124SOL    HW233009   4.033   4.229   0.282 -1.0555 -0.5227  0.4779
 7125SOL     OW33010   1.434   3.227   0.352 -0.1354 -0.6128  0.0096
 7125SOL    HW133011   1.363   3.282   0.319  0.5637  1.0935  1.3430
 7125SOL    HW233012   1.474   3.196   0.271  0.7977 -0.0286  0.2350
 7126SOL     OW33013   0.311   4.505   3.863  0.2299 -0.3008  0.3662
 7126SOL    HW133014   0.228   4.466   3.891 -1.0071  1.9991 -0.0345
 7126SOL    HW233015   0.337   4.447   3.792 -1.9754 -0.7845 -0.0611
 7127SOL     OW33016   2.932   0.273   7.911 -0.4629 -0.0231  0.4684
 7127SOL    HW133017   2.909   0.228   7.992 -1.4115  1.0285  0.7838
 7127SOL    HW233018   3.025   0.271   7.934 -0.5923  1.0406  1.1227
 7128SOL     OW33019   3.195   1.831   2.613  0.3452  0.5348  0.0298
 7128SOL    HW133020   3.246   1.769   2.560  0.8806  0.1792  0.9608
 7128SOL    HW233021   3.113   1.788   2.637  1.9521 -3.1682 -1.0918
 7129SOL     OW33022   0.490   0.697   8.077 -0.1858  0.4400 -0.3246
 7129SOL    HW133023   0.583   0.694   8.102 -0.9842  0.1267  2.6443
 7129SOL    HW233024   0.472   0.609   8.112  1.1662  0.4008  0.3198
 7130SOL     OW33025   0.441   2.640   3.519 -0.3064  0.1116  0.1821
 7130SOL    HW133026   0.455   2.622   3.612 -1.3552 -0.5286  0.2120
 7130SOL    HW233027   0.477   2.559   3.483  2.4082  1.0877  0.7108
 7131SOL     OW33028   2.898   1.766  10.523  0.0340 -0.2515 -0.0465
 7131SOL    HW133029   2.949   1.840  10.556  0.6605 -0.7187  0.0205
 7131SOL    HW233030   2.808   1.778  10.554 -0.3475 -0.8036 -0.9254
 7132SOL     OW33031   0.836   1.754  16.768 -0.1464  0.1765  0.3019
 7132SOL    HW133032   0.802   1.699  16.839 -0.9449 -0.3955 -0.5352
 7132SOL    HW233033   0.851   1.842  16.805  1.1960  0.3612 -0.6831
 7133SOL     OW33034   1.497   4.470   6.028 -0.1852 -0.3566 -0.1977
 7133SOL    HW133035   1.553   4.508   5.960  1.1830 -3.1662 -0.6215
 7133SOL    HW233036   1.560   4.462   6.100  0.7754  1.0691 -0.8678
 7134SOL     OW33037   4.472   0.565  10.007 -0.2364  0.0714 -0.1436
 7134SOL    HW133038   4.534   0.585   9.937 -0.9183 -2.0122 -1.3486
 7134SOL    HW233039   4.391   0.600   9.970 -0.5411  0.3935  0.8382
 7135SOL     OW33040   4.137   3.728   6.492  0.2191  0.3314  0.3658
 7135SOL    HW133041   4.093   3.699   6.572  0.4394  0.0527  0.3860
 7135SOL    HW233042   4.063   3.746   6.435 -0.5990  0.0213  1.3257
 7136SOL     OW33043   0.729   0.445   6.025 -0.0543 -0.0943 -0.2841
 7136SOL    HW133044   0.659   0.500   5.989 -0.8817  0.1434  1.7066
 7136SOL    HW233045   0.796   0.468   5.960  1.8672 -0.2677  1.6468
 7137SOL     OW33046   1.273   1.201   7.275 -0.2103 -0.5863 -0.2297
 7137SOL    HW133047   1.356   1.209   7.323 -0.0800  0.7476 -0.6828
 7137SOL    HW233048   1.274   1.107   7.257 -1.2994 -0.4679 -0.8220
 7138SOL     OW33049   2.330   3.319  14.957 -0.0476 -0.0758  0.2865
 7138SOL    HW133050   2.379   3.319  14.875 -0.0350 -1.9155  0.2943
 7138SOL    HW233051   2.276   3.240  14.956  0.0110 -0.1353  1.4872
 7139SOL     OW33052   2.646   4.435  17.234  0.5578  0.2093 -0.3662
 7139SOL    HW133053   2.611   4.520  17.209  0.6969 -0.0784 -1.5286
 7139SOL    HW233054   2.721   4.439  17.174  0.8478 -1.7251 -0.1396
 7140SOL     OW33055   2.144   1.002   7.078 -0.7422  0.5342  0.1529
 7140SOL    HW133056   2.148   1.094   7.050  0.7582  0.4910  0.2258
 7140SOL    HW233057   2.145   1.012   7.173  0.9899  0.8430  0.1064
 7141SOL     OW33058   3.577   3.801  11.923  0.1094 -0.1201  0.6140
 7141SOL    HW133059   3.592   3.840  12.009 -0.7942  2.1136 -0.2294
 7141SOL    HW233060   3.668   3.794  11.892  0.7140 -0.1865  2.4358
 7142SOL     OW33061   4.157   1.636   1.540 -0.1840 -0.0296 -0.1380
 7142SOL    HW133062   4.209   1.715   1.554  1.9090 -1.5027  0.4221
 7142SOL    HW233063   4.104   1.665   1.466  0.8421 -1.3554 -1.4074
 7143SOL     OW33064   4.517   1.649   6.132 -0.2081  0.0302 -0.0215
 7143SOL    HW133065   4.501   1.569   6.081 -1.7977  0.0013  0.4972
 7143SOL    HW233066   4.584   1.697   6.085  0.3130  0.6454  1.3578
 7144SOL     OW33067   0.054   3.724   6.385  0.7169  0.5650  0.0795
 7144SOL    HW133068   0.004   3.805   6.378 -0.7303 -0.2551  0.8873
 7144SOL    HW233069   0.107   3.736   6.306  1.0119  2.1022  0.5121
 7145SOL     OW33070   3.827   3.298   8.599  0.0059  0.5338 -0.2002
 7145SOL    HW133071   3.757   3.347   8.553 -1.9777 -0.0177  2.2499
 7145SOL    HW233072   3.814   3.206   8.578  2.1866  0.3275 -0.6101
 7146SOL     OW33073   1.039   1.406   5.456 -0.4485  0.5640 -0.3751
 7146SOL    HW133074   1.106   1.472   5.477  3.3972 -2.9086 -1.8035
 7146SOL    HW233075   0.993   1.463   5.394 -1.3600  0.8430  0.5593
 7147SOL     OW33076   4.517   1.927   8.689  0.7640  0.4828 -0.3346
 7147SOL    HW133077   4.579   1.911   8.760  1.0885 -0.6538 -0.8701
 7147SOL    HW233078   4.572   1.956   8.616  3.3089  0.1972  1.4921
 7148SOL     OW33079   1.587   3.301   3.544 -0.7562 -0.4230  0.4330
 7148SOL    HW133080   1.607   3.349   3.463 -0.7260 -0.1435  0.6043
 7148SOL    HW233081   1.518   3.240   3.520  1.3847 -2.0138 -1.6674
 7149SOL     OW33082   2.983   4.023  15.380 -0.2946  0.0511 -0.8952
 7149SOL    HW133083   3.033   4.030  15.461  2.5219 -0.4293 -2.6003
 7149SOL    HW233084   2.996   4.105  15.332  2.9836  1.0483  1.7240
 7150SOL     OW33085   3.488   3.419   7.797 -0.5162 -0.9435  0.1144
 7150SOL    HW133086   3.579   3.410   7.770  0.0656  3.2039  0.6300
 7150SOL    HW233087   3.491   3.515   7.804 -0.9524 -1.0407  1.6368
 7151SOL     OW33088   1.445   2.373   8.024 -0.0854  0.4928 -0.0906
 7151SOL    HW133089   1.483   2.372   7.936  2.6863  1.2836  1.1025
 7151SOL    HW233090   1.352   2.378   7.999  0.4359 -1.8460 -2.4740
 7152SOL     OW33091   1.039   4.164   2.254 -0.0786  0.4186  0.1510
 7152SOL    HW133092   1.122   4.202   2.283  1.5034 -0.4435 -3.2718
 7152SOL    HW233093   0.988   4.237   2.219 -0.7124  0.5539  1.3526
 7153SOL     OW33094   2.549   2.970   4.244 -0.0422  0.1234 -0.3926
 7153SOL    HW133095   2.513   2.884   4.267 -1.0913  0.1297 -2.0452
 7153SOL    HW233096   2.636   2.951   4.210 -0.0201  2.1617 -1.4997
 7154SOL     OW33097   1.111   2.799   2.305  0.0944  0.3035 -0.4977
 7154SOL    HW133098   1.158   2.716   2.315 -1.4514 -0.8743 -3.2714
 7154SOL    HW233099   1.174   2.857   2.349  1.8186 -1.3540 -0.7778
 7155SOL     OW33100   1.180   0.121   7.685 -0.3016 -0.1985 -0.1420
 7155SOL    HW133101   1.125   0.199   7.676  0.1207 -0.0022 -1.0134
 7155SOL    HW233102   1.247   0.119   7.617  0.1890 -3.6779  0.4490
 7156SOL     OW33103   1.094   0.773  15.752 -0.5572  0.2381  0.0069
 7156SOL    HW133104   1.154   0.743  15.820  0.7961  1.5998 -0.5788
 7156SOL    HW233105   1.146   0.767  15.672  0.6045  2.3370  0.6060
 7157SOL     OW33106   1.152   3.402   7.666  0.3267  0.4434  0.2114
 7157SOL    HW133107   1.203   3.326   7.638 -0.8318 -0.1169 -0.3340
 7157SOL    HW233108   1.221   3.469   7.674 -0.8807  1.6486  0.5580
 7158SOL     OW33109   0.772   1.716   4.730  0.5533  0.5364 -0.0382
 7158SOL    HW133110   0.825   1.642   4.759 -1.0251 -0.7625 -0.4716
 7158SOL    HW233111   0.754   1.691   4.639 -1.2604  0.2693  0.4111
 7159SOL     OW33112   2.546   2.083   9.278  0.2140  0.6358  0.5280
 7159SOL    HW133113   2.607   2.155   9.291  0.4240  0.5413  0.0773
 7159SOL    HW233114   2.598   2.017   9.233 -2.1693 -1.6234  1.0544
 7160SOL     OW33115   1.401   2.935   7.588  0.0174 -0.6049 -0.1753
 7160SOL    HW133116   1.446   2.875   7.647 -1.2184 -1.3970 -0.0368
 7160SOL    HW233117   1.428   2.907   7.500 -0.6679  1.1010 -0.9171
 7161SOL     OW33118   1.946   2.312   3.156 -0.0022 -0.4153 -0.1492
 7161SOL    HW133119   1.946   2.275   3.244  1.1842  3.6733  1.5825
 7161SOL    HW233120   1.981   2.235   3.111 -0.1088  0.6739 -2.0960
 7162SOL     OW33121   1.387   0.683   8.660  0.0965 -0.4381  0.0667
 7162SOL    HW133122   1.433   0.609   8.621 -1.2447 -1.2369  0.0305
 7162SOL    HW233123   1.312   0.693   8.602 -1.0222 -0.5251  1.5137
 7163SOL     OW33124   0.249   3.082   7.933  0.0946  0.2639  0.3059
 7163SOL    HW133125   0.174   3.137   7.955  0.0540 -0.4149  1.8476
 7163SOL    HW233126   0.229   3.053   7.843 -1.6712 -0.7229  1.0247
 7164SOL     OW33127   4.245   2.046  10.496  0.0692 -0.4446  0.4714
 7164SOL    HW133128   4.186   2.076  10.565 -0.6419 -1.8648  0.4644
 7164SOL    HW233129   4.231   2.105  10.421 -1.4813 -3.7045 -1.7984
 7165SOL     OW33130   0.037   4.007   5.471  0.0902  0.0773 -0.0121
 7165SOL    HW133131   0.056   3.996   5.564 -1.9721 -1.1835  0.2567
 7165SOL    HW233132   0.024   3.916   5.445 -0.3987  0.8869 -2.5976
 7166SOL     OW33133   4.418   1.358   9.874 -0.4121  0.3488 -0.3878
 7166SOL    HW133134   4.505   1.337   9.840  0.2720  2.0174  0.3426
 7166SOL    HW233135   4.380   1.381   9.789 -2.2562  0.3003  0.4171
 7167SOL     OW33136   3.863   0.378   0.837  0.8120 -0.1368  0.6306
 7167SOL    HW133137   3.803   0.433   0.888 -0.8384  0.4616 -1.9100
 7167SOL    HW233138   3.814   0.302   0.805 -0.4898  0.6926  0.6338
 7168SOL     OW33139   2.157   0.505   9.229 -0.5159  0.2372  0.5113
 7168SOL    HW133140   2.123   0.465   9.150  1.1215 -0.2399  0.0470
 7168SOL    HW233141   2.187   0.422   9.268 -0.2623 -0.7610 -1.8373
 7169SOL     OW33142   0.217   2.378   9.256  0.0187 -0.2828 -0.2346
 7169SOL    HW133143   0.206   2.390   9.350  3.8297 -0.0410  0.1899
 7169SOL    HW233144   0.311   2.363   9.256 -0.1850 -1.5388  1.4237
 7170SOL     OW33145   0.636   0.228  15.139 -0.4998  0.2616  0.0859
 7170SOL    HW133146   0.643   0.318  15.171 -0.6460  0.8612 -1.5533
 7170SOL    HW233147   0.687   0.193  15.212 -2.5646 -0.6786  1.0672
 7171SOL     OW33148   0.606   2.889   8.005 -0.0815  0.2911  0.3330
 7171SOL    HW133149   0.607   2.841   7.923 -2.4854 -1.0934  1.1375
 7171SOL    HW233150   0.701   2.897   8.019  0.2073  0.3327 -1.6763
 7172SOL     OW33151   1.374   0.130  14.901  0.3070 -0.1362  0.0219
 7172SOL    HW133152   1.322   0.152  14.979 -1.2262  0.8965 -1.3017
 7172SOL    HW233153   1.416   0.210  14.870 -0.7977  1.1699  1.8165
 7173SOL     OW33154   1.522   3.945  10.410 -0.7446  0.1091 -0.0143
 7173SOL    HW133155   1.557   3.906  10.489  2.2943  2.5001 -0.2000
 7173SOL    HW233156   1.431   3.913  10.415 -1.8326  3.1742 -0.1722
 7174SOL     OW33157   2.732   3.384  15.309 -0.0357 -0.3052 -0.1538
 7174SOL    HW133158   2.760   3.416  15.223 -0.8309  2.1191  0.5105
 7174SOL    HW233159   2.637   3.387  15.297  0.1512 -0.5273 -1.7403
 7175SOL     OW33160   3.377   1.265   5.491 -0.5550 -0.1676  0.1256
 7175SOL    HW133161   3.414   1.261   5.402 -0.0930  0.1713  0.3019
 7175SOL    HW233162   3.450   1.305   5.538 -0.1063 -1.4188  0.5042
 7176SOL     OW33163   1.309   3.880   2.050  0.4735  0.2554 -0.1895
 7176SOL    HW133164   1.222   3.915   2.064  0.9245  0.5614  1.9756
 7176SOL    HW233165   1.311   3.798   2.101 -0.6672  0.4807  0.2184
 7177SOL     OW33166   2.069   1.548   3.058  0.3080 -0.1297  0.0551
 7177SOL    HW133167   2.029   1.626   3.019  0.9011 -0.6244 -1.5743
 7177SOL    HW233168   2.102   1.502   2.981  2.0642 -1.7680  1.8005
 7178SOL     OW33169   0.855   0.731   5.609 -0.0122 -0.2939  0.3366
 7178SOL    HW133170   0.935   0.782   5.600  0.6826 -0.8892  3.2553
 7178SOL    HW233171   0.788   0.797   5.591  0.4404 -0.3926 -1.8235
 7179SOL     OW33172   3.904   1.885  13.089  0.0566  0.4870 -0.4745
 7179SOL    HW133173   3.988   1.843  13.071  0.8253  2.3413 -1.1910
 7179SOL    HW233174   3.889   1.912  12.999 -0.3516  0.1223 -0.5150
 7180SOL     OW33175   1.850   3.352   7.749  0.4468 -0.0130 -0.0325
 7180SOL    HW133176   1.779   3.353   7.814  0.8218  2.0560  0.3553
 7180SOL    HW233177   1.922   3.379   7.806  0.1988  0.7522 -0.0722
 7181SOL     OW33178   3.799   0.244   5.688  0.2967 -0.1630 -0.2451
 7181SOL    HW133179   3.706   0.224   5.700 -0.1067  1.3820 -0.8497
 7181SOL    HW233180   3.796   0.292   5.606  0.8457 -0.7795 -0.6315
 7182SOL     OW33181   1.387   1.909   2.008 -0.2046 -0.0801  0.0265
 7182SOL    HW133182   1.422   1.931   1.921  1.0223 -1.6999  0.1219
 7182SOL    HW233183   1.317   1.975   2.013 -1.7203 -1.5778 -1.5093
 7183SOL     OW33184   0.746   1.795   5.221 -0.1017  0.0261  0.0636
 7183SOL    HW133185   0.709   1.709   5.202  1.0446 -0.3262 -0.5843
 7183SOL    HW233186   0.725   1.816   5.312  0.0383 -1.4204  0.4203
 7184SOL     OW33187   3.372   3.051   6.889 -0.4316 -0.7757  0.1597
 7184SOL    HW133188   3.358   2.975   6.945  1.9772 -0.5029  1.1290
 7184SOL    HW233189   3.292   3.102   6.901  1.2549  1.2409  2.9430
 7185SOL     OW33190   4.097   3.837   4.895 -0.4016  0.1330  0.1058
 7185SOL    HW133191   4.184   3.863   4.926  0.5281 -0.9224 -1.6173
 7185SOL    HW233192   4.076   3.897   4.823  0.6142  0.8534  0.4189
 7186SOL     OW33193   1.998   1.895  17.569  0.1020 -0.1041 -0.9298
 7186SOL    HW133194   1.910   1.860  17.557 -0.0444  0.2337 -0.8537
 7186SOL    HW233195   2.045   1.837  17.510  0.4308 -0.7555 -0.0331
 7187SOL     OW33196   1.828   0.298   5.600 -0.3899 -0.4650  0.2588
 7187SOL    HW133197   1.870   0.356   5.663 -1.4262  0.6745 -0.0771
 7187SOL    HW233198   1.880   0.218   5.601  0.0727 -0.1397  1.3907
 7188SOL     OW33199   1.143   2.756   6.371 -0.0015  0.4214  0.8220
 7188SOL    HW133200   1.127   2.666   6.400 -1.1705  0.0306 -1.0813
 7188SOL    HW233201   1.159   2.809   6.449 -0.9798  0.9673  0.6497
 7189SOL     OW33202   4.499   3.821   7.095 -0.1089  0.0431 -0.3016
 7189SOL    HW133203   4.580   3.870   7.112 -0.6271  1.6912 -2.6510
 7189SOL    HW233204   4.498   3.791   7.005  0.7771  0.6621 -0.5122
 7190SOL     OW33205   3.114   0.785   5.519 -0.4923  0.5193 -0.4283
 7190SOL    HW133206   3.205   0.758   5.531 -0.5395 -0.2637 -1.8895
 7190SOL    HW233207   3.090   0.787   5.612  1.1912  0.8113  0.0052
 7191SOL     OW33208   2.524   2.678   4.368 -0.2115 -0.3708 -0.2398
 7191SOL    HW133209   2.589   2.609   4.376 -0.7275 -0.8934 -0.5608
 7191SOL    HW233210   2.548   2.727   4.446  0.4570  0.4672 -0.9756
 7192SOL     OW33211   1.350   0.221  15.433  0.2109 -0.4220  0.2674
 7192SOL    HW133212   1.321   0.179  15.515 -1.1470  2.4133  1.2560
 7192SOL    HW233213   1.301   0.303  15.434 -1.0344 -1.1773  1.6868
 7193SOL     OW33214   4.441   2.295   9.400 -0.2060  0.8472 -0.0354
 7193SOL    HW133215   4.461   2.317   9.491  0.3943 -0.6576  0.1921
 7193SOL    HW233216   4.446   2.384   9.365  0.2876  0.0276 -2.0257
 7194SOL     OW33217   3.972   1.670   0.794 -0.4334  0.0713  0.0658
 7194SOL    HW133218   3.955   1.679   0.700 -2.4066  1.0816  0.5113
 7194SOL    HW233219   3.942   1.752   0.834  1.9588  1.7618 -1.6470
 7195SOL     OW33220   1.560   2.894  15.256  0.2673  0.2361  0.0989
 7195SOL    HW133221   1.646   2.911  15.295  1.2030  0.5541 -2.1371
 7195SOL    HW233222   1.535   2.806  15.284 -1.9457  0.5023 -1.0812
 7196SOL     OW33223   3.116   1.508   5.376 -0.0611  0.2994 -0.3587
 7196SOL    HW133224   3.146   1.544   5.292  2.6896 -1.0223  0.0516
 7196SOL    HW233225   3.044   1.455   5.342  0.9260 -0.5671 -1.1458
 7197SOL     OW33226   3.268   2.351   3.815  0.1743 -0.1531 -0.1101
 7197SOL    HW133227   3.197   2.338   3.752 -0.3901  0.4778  0.4055
 7197SOL    HW233228   3.220   2.371   3.894 -2.1361 -1.5135 -1.1728
 7198SOL     OW33229   0.351   2.306   6.785  0.0406  0.4687  0.0757
 7198SOL    HW133230   0.337   2.251   6.708  0.9015 -0.0915  0.3164
 7198SOL    HW233231   0.282   2.267   6.837 -0.3819 -2.8413 -2.9790
 7199SOL     OW33232   1.225   3.737  15.540 -0.2538 -0.1897  0.5602
 7199SOL    HW133233   1.252   3.648  15.561 -0.1555  0.2694  2.3814
 7199SOL    HW233234   1.263   3.752  15.454  1.3273  0.0760  1.3126
 7200SOL     OW33235   2.192   2.912  10.905  0.6022  0.1869  0.4546
 7200SOL    HW133236   2.209   2.854  10.831 -0.9078 -0.0257  0.2636
 7200SOL    HW233237   2.170   2.986  10.849  0.3606  0.9634  1.5816
 7201SOL     OW33238   1.381   0.779   1.445 -0.3588 -0.2923 -0.0569
 7201SOL    HW133239   1.415   0.715   1.382  0.9695  0.6266 -0.2779
 7201SOL    HW233240   1.428   0.855   1.411  0.7750 -1.7060 -1.6020
 7202SOL     OW33241   4.093   1.395   3.181  0.0013 -0.2581  0.2457
 7202SOL    HW133242   4.054   1.316   3.219 -0.5203 -0.4955 -0.7769
 7202SOL    HW233243   4.072   1.385   3.088  0.1568 -1.2674  0.3214
 7203SOL     OW33244   3.173   1.395   6.199  1.0168 -0.2923  0.3050
 7203SOL    HW133245   3.212   1.478   6.170 -0.2184  0.0827 -0.3168
 7203SOL    HW233246   3.249   1.338   6.200  2.6150  1.8794  2.5494
 7204SOL     OW33247   1.711   3.514  11.213  0.2967  0.4457  0.0692
 7204SOL    HW133248   1.694   3.607  11.228  1.4779  0.8030 -0.8008
 7204SOL    HW233249   1.643   3.468  11.263 -1.2650  1.5974 -0.9938
 7205SOL     OW33250   0.640   2.622   6.554  0.0561  0.4523  0.2448
 7205SOL    HW133251   0.554   2.656   6.580 -0.2118 -0.8468  1.0509
 7205SOL    HW233252   0.642   2.628   6.459  0.8238 -0.2023  0.2204
 7206SOL     OW33253   3.795   3.691  16.630  1.0548  0.1109 -1.0420
 7206SOL    HW133254   3.790   3.678  16.725  0.3093  0.1571 -1.0744
 7206SOL    HW233255   3.718   3.638  16.611  0.5041  0.2073  0.9438
 7207SOL     OW33256   0.551   0.040   1.685  0.4048 -0.5269  0.6560
 7207SOL    HW133257   0.546   4.713   1.752 -2.0005 -0.8655  0.1497
 7207SOL    HW233258   0.646   0.041   1.675  0.5058 -2.1707  1.5423
 7208SOL     OW33259   3.054   3.932   7.176 -0.3069 -0.2381 -0.1633
 7208SOL    HW133260   3.012   3.935   7.090 -1.5732 -4.2868  0.3106
 7208SOL    HW233261   2.994   3.876   7.227 -1.6457  1.2250 -0.1152
 7209SOL     OW33262   0.561   4.637   3.856  0.0459  1.3941 -0.7259
 7209SOL    HW133263   0.581   4.650   3.763  4.8342  2.5132  0.4428
 7209SOL    HW233264   0.471   4.605   3.863  0.2701  1.1094  0.8719
 7210SOL     OW33265   3.124   0.005  12.165 -0.2725  0.4804 -0.1229
 7210SOL    HW133266   3.181   4.694  12.223  1.2421  0.8900 -1.2545
 7210SOL    HW233267   3.095   0.073  12.225  0.2926  0.0008  0.7025
 7211SOL     OW33268   1.246   4.686  15.572 -0.6518  0.2793  0.1356
 7211SOL    HW133269   1.275   4.736  15.648 -0.9327 -0.5673  0.7865
 7211SOL    HW233270   1.252   4.597  15.605 -0.0537  0.2158 -0.1398
 7212SOL     OW33271   0.459   1.146   5.296  0.4285  0.1174  0.6846
 7212SOL    HW133272   0.487   1.056   5.280 -1.2748 -0.1092 -1.0409
 7212SOL    HW233273   0.367   1.118   5.300  0.4673 -0.3956 -2.4925
 7213SOL     OW33274   2.825   0.070   1.358  0.1971  0.0164  0.6940
 7213SOL    HW133275   2.884   0.101   1.427  1.9986  0.1349 -0.9097
 7213SOL    HW233276   2.897   0.064   1.295 -0.6342 -4.9662  0.1838
 7214SOL     OW33277   0.656   1.234   4.938  0.6205  0.6959  0.2991
 7214SOL    HW133278   0.680   1.235   5.031 -3.3795  0.3914  1.3334
 7214SOL    HW233279   0.730   1.196   4.893 -0.5864 -0.1672 -0.9381
 7215SOL     OW33280   1.643   3.247   9.876 -0.4662  0.1510 -0.1803
 7215SOL    HW133281   1.636   3.196   9.795  0.1250 -2.2264  1.2750
 7215SOL    HW233282   1.616   3.334   9.848 -0.3089  0.1819 -0.2356
 7216SOL     OW33283   1.884   2.896   6.627  0.2108  0.8489  0.9590
 7216SOL    HW133284   1.814   2.922   6.688  1.9929  0.5631  3.1110
 7216SOL    HW233285   1.932   2.841   6.687  2.0794 -1.1079 -2.3383
 7217SOL     OW33286   2.266   1.958   5.948  0.4337  0.1945  0.3803
 7217SOL    HW133287   2.232   2.035   5.993 -1.9944  1.4157 -3.5992
 7217SOL    HW233288   2.238   1.898   6.017  1.8501 -0.7598  0.1379
 7218SOL     OW33289   3.031   4.250   9.462 -0.4991 -0.0912  0.0654
 7218SOL    HW133290   2.956   4.216   9.413  0.0988  1.2784 -1.7877
 7218SOL    HW233291   2.994   4.327   9.504 -1.2277  1.0723 -2.6972
 7219SOL     OW33292   2.621   1.889   7.512  0.0353  0.3508  0.0739
 7219SOL    HW133293   2.677   1.927   7.580  1.5362 -0.9127 -0.4516
 7219SOL    HW233294   2.561   1.961   7.493 -1.1489 -0.1622  1.8891
 7220SOL     OW33295   0.309   0.497  17.467 -0.1935 -0.4020 -0.1223
 7220SOL    HW133296   0.395   0.505  17.507  0.9210  3.0586 -3.2693
 7220SOL    HW233297   0.250   0.552  17.520  0.6148  0.7183 -0.3779
 7221SOL     OW33298   4.549   1.958   2.466  0.2564  0.2793  0.3699
 7221SOL    HW133299   4.631   1.970   2.418  1.3877 -1.4036  1.8745
 7221SOL    HW233300   4.577   1.919   2.550  0.6229  0.6679  0.4290
 7222SOL     OW33301   1.417   0.232   3.729  0.3535  0.0021 -0.0864
 7222SOL    HW133302   1.469   0.250   3.807  0.5765  2.4319 -0.7889
 7222SOL    HW233303   1.363   0.311   3.722 -0.2819 -0.5190 -1.0106
 7223SOL     OW33304   1.707   4.160  15.572  0.6615  0.6174  0.5021
 7223SOL    HW133305   1.754   4.078  15.563 -1.8842 -0.8283  0.5024
 7223SOL    HW233306   1.626   4.114  15.552  1.6163 -1.1790  0.7836
 7224SOL     OW33307   0.518   1.925   8.423  0.6406 -0.0815  0.3016
 7224SOL    HW133308   0.569   1.951   8.500 -1.7093  0.1706  1.7695
 7224SOL    HW233309   0.592   1.891   8.371 -0.8342 -0.7428 -1.3538
 7225SOL     OW33310   0.151   0.610   3.594 -0.3717 -0.6688  0.5173
 7225SOL    HW133311   0.074   0.644   3.639 -0.1203 -0.6392  0.9195
 7225SOL    HW233312   0.211   0.604   3.668  0.3767 -0.7013 -0.0880
 7226SOL     OW33313   4.634   2.227   9.077  0.3378  0.0620  0.6228
 7226SOL    HW133314   4.674   2.163   9.137  0.7789  0.9507  1.2766
 7226SOL    HW233315   4.545   2.211   9.107 -0.1477  1.9917  0.1720
 7227SOL     OW33316   1.281   3.807   8.469 -0.0316 -0.7862 -0.5279
 7227SOL    HW133317   1.243   3.719   8.475  0.0221 -0.8085 -0.5189
 7227SOL    HW233318   1.322   3.816   8.555  2.1691 -1.6717 -1.4916
 7228SOL     OW33319   3.164   4.132   1.521 -0.1110 -0.7515 -0.3204
 7228SOL    HW133320   3.236   4.139   1.458  0.5874  0.3484  0.6071
 7228SOL    HW233321   3.089   4.128   1.462  1.5963  0.2011 -2.5361
 7229SOL     OW33322   1.641   3.421   3.809  0.5389  0.1302 -0.6131
 7229SOL    HW133323   1.720   3.471   3.790  1.7376 -1.5880 -0.0590
 7229SOL    HW233324   1.643   3.362   3.734  0.7081 -0.5733 -0.0510
 7230SOL     OW33325   4.660   2.155   0.809  0.5805 -0.6997 -0.4581
 7230SOL    HW133326   4.631   2.242   0.838  0.5921 -1.8045  2.8381
 7230SOL    HW233327   4.651   2.159   0.714 -0.7036  1.8982 -0.2289
 7231SOL     OW33328   1.186   2.966   8.565 -0.1437 -0.3091  0.1868
 7231SOL    HW133329   1.111   3.025   8.563  0.1695  0.1241  1.9082
 7231SOL    HW233330   1.236   3.003   8.637  0.2633  0.4341 -0.4820
 7232SOL     OW33331   2.721   2.364   9.301  0.0466 -0.0243  0.0941
 7232SOL    HW133332   2.642   2.380   9.250 -0.9686 -0.3334  1.5951
 7232SOL    HW233333   2.778   2.439   9.282  1.3827 -0.9125  0.6531
 7233SOL     OW33334   0.100   0.991   8.030  0.7613  0.3300 -0.0301
 7233SOL    HW133335   0.168   1.059   8.035  1.5628 -0.5017  0.5099
 7233SOL    HW233336   0.131   0.932   8.098 -0.7206 -1.9234 -1.3341
 7234SOL     OW33337   3.699   1.113   7.994 -0.3289  0.7991 -0.8923
 7234SOL    HW133338   3.774   1.069   8.036  0.0098  1.5982 -0.6629
 7234SOL    HW233339   3.650   1.034   7.972 -3.5771  3.6055 -3.6565
 7235SOL     OW33340   1.846   3.032   2.510 -0.1208 -0.8754 -0.6549
 7235SOL    HW133341   1.766   3.058   2.464 -1.0397  2.0009  2.5725
 7235SOL    HW233342   1.842   3.096   2.580  0.8731 -1.9324  0.3643
 7236SOL     OW33343   1.664   2.550   4.351 -0.1270 -0.2779 -0.3006
 7236SOL    HW133344   1.650   2.628   4.404 -1.1944 -0.7790  0.1595
 7236SOL    HW233345   1.754   2.567   4.323 -0.0584  0.8784  0.6357
 7237SOL     OW33346   0.519   2.234   3.194 -0.6819  0.4486  0.2892
 7237SOL    HW133347   0.515   2.303   3.261 -2.2087  1.6781 -1.0784
 7237SOL    HW233348   0.602   2.260   3.156  0.7262 -1.5561  1.9951
 7238SOL     OW33349   1.852   1.262   5.004  0.2789  0.5036  0.1016
 7238SOL    HW133350   1.866   1.192   5.069  0.7227 -0.1349 -0.6790
 7238SOL    HW233351   1.795   1.316   5.059 -1.9102  0.0763 -1.7540
 7239SOL     OW33352   4.270   3.489  16.358 -0.4169  0.2510  0.0666
 7239SOL    HW133353   4.265   3.584  16.352  3.0811  0.4747  0.8635
 7239SOL    HW233354   4.342   3.457  16.304  0.1200  0.4414  0.6774
 7240SOL     OW33355   2.952   3.844   4.512  0.0742  0.3505  0.0153
 7240SOL    HW133356   2.924   3.801   4.431 -1.9239  3.6231 -1.0424
 7240SOL    HW233357   2.973   3.766   4.563 -0.2957 -0.1877 -0.6497
 7241SOL     OW33358   2.770   1.775  13.423 -0.6127  0.1036 -0.3129
 7241SOL    HW133359   2.788   1.729  13.341 -1.1237  1.6105 -1.2565
 7241SOL    HW233360   2.735   1.852  13.379 -0.7722 -0.7089 -1.5939
 7242SOL     OW33361   0.993   4.526   4.374  0.6805  0.2818 -0.9728
 7242SOL    HW133362   0.991   4.458   4.441 -1.1257  2.0036  0.7413
 7242SOL    HW233363   0.907   4.506   4.336  0.8997 -1.8155 -0.3248
 7243SOL     OW33364   2.000   1.915   8.037 -0.5226 -0.3303  0.0245
 7243SOL    HW133365   1.952   1.927   7.955 -1.6849  0.6124  0.8434
 7243SOL    HW233366   2.050   1.837   8.013 -0.5942 -1.5229  3.6306
 7244SOL     OW33367   2.482   2.684   3.914 -0.1738  0.0571  0.0230
 7244SOL    HW133368   2.572   2.717   3.915  0.4722 -1.7259  2.0760
 7244SOL    HW233369   2.441   2.753   3.863  0.3827 -0.2213 -0.8141
 7245SOL     OW33370   4.168   0.030  15.967  0.3813  0.1628  0.3090
 7245SOL    HW133371   4.208   0.092  16.029 -0.3620  0.1286  0.8173
 7245SOL    HW233372   4.081   0.028  16.007 -0.5824  0.4231 -1.8143
 7246SOL     OW33373   3.350   0.069   2.106  0.3618  0.2864  0.0458
 7246SOL    HW133374   3.367   4.731   2.054 -2.2646  1.0171 -1.8761
 7246SOL    HW233375   3.288   0.039   2.173 -0.6657 -0.8573 -1.4192
 7247SOL     OW33376   2.193   0.466   1.409  0.7878 -0.0736  0.1284
 7247SOL    HW133377   2.234   0.392   1.454 -1.5983 -0.3583  1.8137
 7247SOL    HW233378   2.188   0.437   1.318  0.7685  1.4069 -0.3322
 7248SOL     OW33379   0.733   2.109   3.406  0.4822 -0.2323  0.3952
 7248SOL    HW133380   0.676   2.034   3.424  0.2025 -0.1586 -0.1630
 7248SOL    HW233381   0.687   2.177   3.455 -0.6446  0.1290 -1.1444
 7249SOL     OW33382   1.453   0.837   4.638  0.0524 -0.6717  0.6324
 7249SOL    HW133383   1.417   0.901   4.699  1.1363  1.6972 -1.2043
 7249SOL    HW233384   1.464   0.758   4.691  1.6554 -1.9098 -1.5479
 7250SOL     OW33385   1.247   1.699  15.705 -0.3244 -0.0989  0.2182
 7250SOL    HW133386   1.284   1.640  15.638  0.1653  1.9790 -1.3305
 7250SOL    HW233387   1.162   1.722  15.668 -1.0453 -1.1042  1.2711
 7251SOL     OW33388   1.465   3.594  16.277 -0.1224  0.0618 -0.7253
 7251SOL    HW133389   1.534   3.546  16.232 -0.9151 -1.5647 -0.2276
 7251SOL    HW233390   1.406   3.614  16.204 -0.7315  2.7526  0.5003
 7252SOL     OW33391   4.658   3.233   3.913  0.0950 -0.2127  0.0752
 7252SOL    HW133392   4.711   3.161   3.878  0.1556  0.6425 -1.5687
 7252SOL    HW233393   4.629   3.281   3.836 -2.2909 -1.3539  0.2688
 7253SOL     OW33394   4.585   0.591  11.685  0.4138  0.0428 -0.0459
 7253SOL    HW133395   4.534   0.635  11.618 -0.4598 -0.9901 -0.0578
 7253SOL    HW233396   4.527   0.563  11.756 -0.7173  1.0979 -0.5652
 7254SOL     OW33397   3.643   0.821  11.069 -0.2197 -0.0602 -0.1819
 7254SOL    HW133398   3.600   0.906  11.056  0.6467  0.0822 -2.0420
 7254SOL    HW233399   3.717   0.849  11.123  0.1876  2.2510 -1.9443
 7255SOL     OW33400   0.194   1.441  14.612 -0.4547  0.5293  0.2569
 7255SOL    HW133401   0.233   1.374  14.555  2.7882  0.8341  2.1011
 7255SOL    HW233402   0.277   1.473  14.646  0.1594  1.0611 -1.7539
 7256SOL     OW33403   2.817   1.151   7.303 -0.3682 -0.0611  0.1894
 7256SOL    HW133404   2.733   1.193   7.320 -0.0905  0.9102 -0.8271
 7256SOL    HW233405   2.797   1.104   7.222  0.7912  1.1786 -0.8119
 7257SOL     OW33406   3.540   3.913   1.233 -0.2028  0.2500 -0.2571
 7257SOL    HW133407   3.525   4.004   1.207  3.4209  1.1170  0.7596
 7257SOL    HW233408   3.447   3.889   1.238 -0.4985  1.2408 -1.0243
 7258SOL     OW33409   3.877   0.024   7.975  0.2568 -0.3126 -0.1502
 7258SOL    HW133410   3.896   0.073   8.056 -0.9085  1.2022 -0.7779
 7258SOL    HW233411   3.874   4.675   8.007 -1.9105 -0.1475  0.1140
 7259SOL     OW33412   0.373   4.605   6.466 -0.2946 -0.5081  0.0603
 7259SOL    HW133413   0.302   4.541   6.462 -2.6232  2.2138 -1.6640
 7259SOL    HW233414   0.426   4.601   6.386  0.1970 -2.0712  0.4681
 7260SOL     OW33415   1.061   2.256  12.681 -0.3240  0.0484  0.1740
 7260SOL    HW133416   0.971   2.233  12.655 -0.8974  2.6832 -0.1424
 7260SOL    HW233417   1.093   2.314  12.612 -0.8279  0.9283  0.6832
 7261SOL     OW33418   4.439   0.834  11.138  0.2151  0.8381 -0.0292
 7261SOL    HW133419   4.388   0.914  11.155 -0.0095  0.7673 -0.3735
 7261SOL    HW233420   4.476   0.823  11.225 -0.3423  1.0367  0.2349
 7262SOL     OW33421   0.941   0.583  12.852 -0.9854 -0.4975  0.2700
 7262SOL    HW133422   0.882   0.508  12.864 -1.0171 -0.5765 -0.3826
 7262SOL    HW233423   1.017   0.530  12.829  1.4552  3.8059 -1.5691
 7263SOL     OW33424   4.057   2.715  13.887 -0.6074  0.1625  0.5211
 7263SOL    HW133425   4.074   2.708  13.980 -0.4598  0.3788  0.5103
 7263SOL    HW233426   3.964   2.738  13.888 -0.6302  0.0530  0.9538
 7264SOL     OW33427   3.488   1.881  10.586  0.1609 -0.1843 -0.2391
 7264SOL    HW133428   3.475   1.934  10.507 -1.3330 -0.7898 -0.3911
 7264SOL    HW233429   3.422   1.812  10.581 -0.9172  0.8461 -0.1333
 7265SOL     OW33430   4.471   2.496   3.590  0.1802  0.1963  0.2465
 7265SOL    HW133431   4.449   2.450   3.671  0.2496  0.1101  0.2163
 7265SOL    HW233432   4.556   2.456   3.574 -1.1149 -1.7292 -1.7443
 7266SOL     OW33433   0.781   0.008   5.575  0.0972  0.2633 -0.3467
 7266SOL    HW133434   0.832   4.728   5.497 -0.2229  0.5558 -0.6362
 7266SOL    HW233435   0.826   0.084   5.611 -0.7377 -0.4490  2.2109
 7267SOL     OW33436   4.346   0.180  10.550 -0.0544  0.1647  0.4669
 7267SOL    HW133437   4.359   0.196  10.643  0.6712  0.5796  0.2940
 7267SOL    HW233438   4.434   0.202  10.519 -0.1730  1.7569  1.3268
 7268SOL     OW33439   1.842   0.601   1.983  0.5127  0.2037 -0.6580
 7268SOL    HW133440   1.759   0.607   1.935 -1.0095 -1.2057  1.7842
 7268SOL    HW233441   1.901   0.638   1.918 -0.8991 -1.0421 -2.6245
 7269SOL     OW33442   4.140   3.081   6.424 -0.2594  0.5219  0.2215
 7269SOL    HW133443   4.057   3.123   6.400 -0.2735 -0.6219 -1.7818
 7269SOL    HW233444   4.204   3.135   6.378  0.4439 -1.6346 -1.3310
 7270SOL     OW33445   3.212   4.718   4.748 -0.2128 -0.1705  0.4171
 7270SOL    HW133446   3.188   4.629   4.772 -1.3602 -0.2197 -0.8623
 7270SOL    HW233447   3.261   0.003   4.826  0.9422  1.7693 -0.9528
 7271SOL     OW33448   3.741   2.987   5.653  0.3443  0.0547 -0.9310
 7271SOL    HW133449   3.788   3.070   5.663 -1.6807  1.2259 -1.0372
 7271SOL    HW233450   3.816   2.929   5.644 -0.4905 -1.0943 -0.4652
 7272SOL     OW33451   4.613   1.607  15.408  0.7588 -0.2374 -0.4868
 7272SOL    HW133452   4.544   1.540  15.413  0.7711 -0.2028  0.2673
 7272SOL    HW233453   4.662   1.594  15.490  0.4543  1.8132  0.0256
 7273SOL     OW33454   4.528   4.719   7.357  0.1938  0.5812 -0.1782
 7273SOL    HW133455   4.567   4.674   7.281 -0.3474  0.7725 -0.5697
 7273SOL    HW233456   4.438   4.686   7.356 -0.3709  2.0140  4.1805
 7274SOL     OW33457   4.352   2.506   1.335 -0.4093 -0.1894  0.5539
 7274SOL    HW133458   4.285   2.560   1.377 -1.3119 -1.2488  0.4641
 7274SOL    HW233459   4.327   2.415   1.348  0.3671 -0.6296 -1.0080
 7275SOL     OW33460   0.374   2.584   6.027  0.4763  0.6521  0.2417
 7275SOL    HW133461   0.360   2.490   6.040  0.4430  0.1848 -3.1690
 7275SOL    HW233462   0.297   2.604   5.973  0.0681 -2.9842 -0.5401
 7276SOL     OW33463   4.090   2.735   1.723 -0.1990 -0.3070 -0.0189
 7276SOL    HW133464   4.000   2.702   1.729 -0.0779 -0.8170 -0.8960
 7276SOL    HW233465   4.114   2.757   1.813 -1.5152  1.9535 -0.2084
 7277SOL     OW33466   2.413   1.124   4.756  0.1047 -0.2556  1.0191
 7277SOL    HW133467   2.487   1.170   4.717 -2.0742 -0.0477 -2.9182
 7277SOL    HW233468   2.340   1.183   4.737  0.6196  0.9988  2.9673
 7278SOL     OW33469   2.561   2.874   7.642  0.3106  0.2955 -0.2483
 7278SOL    HW133470   2.538   2.824   7.720 -1.0998  0.0753 -0.8003
 7278SOL    HW233471   2.523   2.809   7.583  1.7983 -1.3604  0.5873
 7279SOL     OW33472   1.817   4.047   0.858 -0.0769  0.0427  0.2916
 7279SOL    HW133473   1.740   4.006   0.818 -0.4503  0.3269  0.7219
 7279SOL    HW233474   1.787   4.137   0.850  1.0787  0.2034 -2.1703
 7280SOL     OW33475   1.032   3.761   3.165 -0.1276  0.1100  0.0667
 7280SOL    HW133476   0.994   3.738   3.080 -2.4811  1.4820  0.7591
 7280SOL    HW233477   1.040   3.679   3.213  2.1482 -0.4420 -1.2596
 7281SOL     OW33478   4.506   1.921   3.328 -0.0817 -0.0982 -0.0909
 7281SOL    HW133479   4.527   1.847   3.272 -0.5403  0.5994 -1.1742
 7281SOL    HW233480   4.412   1.935   3.315 -0.6807 -1.5935  2.5192
 7282SOL     OW33481   0.554   2.028   2.482  0.1660 -0.0435 -0.1302
 7282SOL    HW133482   0.581   2.106   2.530 -0.2149 -0.9874  1.6092
 7282SOL    HW233483   0.610   1.966   2.529  0.2208  0.4151  0.4068
 7283SOL     OW33484   2.287   2.204   7.111 -0.5795  0.2775 -0.0528
 7283SOL    HW133485   2.293   2.141   7.040  0.3092 -0.6994  0.8954
 7283SOL    HW233486   2.203   2.240   7.083 -0.5062 -1.0364 -1.8796
 7284SOL     OW33487   2.800   1.851   4.836 -0.1548 -0.2035  0.0702
 7284SOL    HW133488   2.710   1.840   4.806  0.1965  1.6481 -1.6961
 7284SOL    HW233489   2.792   1.846   4.931  0.6306 -1.1547  0.0896
 7285SOL     OW33490   1.111   0.823  17.216  0.0522 -0.0563 -0.0578
 7285SOL    HW133491   1.120   0.730  17.194  0.8823  0.2322 -0.9623
 7285SOL    HW233492   1.206   0.838  17.216 -0.0260  0.4506 -0.8696
 7286SOL     OW33493   0.866   4.297   2.866 -0.5208 -0.0279  0.5609
 7286SOL    HW133494   0.950   4.314   2.910 -0.8913  1.0078  0.8699
 7286SOL    HW233495   0.811   4.360   2.912  3.1584  3.3332  0.4198
 7287SOL     OW33496   3.334   2.574   0.408 -0.3629 -0.0525  0.2423
 7287SOL    HW133497   3.288   2.491   0.392 -0.8437  0.1415  0.6236
 7287SOL    HW233498   3.266   2.635   0.435  1.6059  1.4834  1.7350
 7288SOL     OW33499   0.035   2.147   9.659 -0.5043  0.9183  0.2306
 7288SOL    HW133500   0.108   2.095   9.692 -0.3283  0.3365 -1.0667
 7288SOL    HW233501   0.045   2.230   9.705  0.6061  0.7341  0.3321
 7289SOL     OW33502   1.104   1.430  15.622 -0.4882 -0.0813  0.1023
 7289SOL    HW133503   1.185   1.459  15.578 -1.5099 -0.0586 -1.7661
 7289SOL    HW233504   1.045   1.503  15.605  0.0921  1.1976  3.5465
 7290SOL     OW33505   1.388   3.992   0.159  0.0490  0.5313 -0.4689
 7290SOL    HW133506   1.410   3.902   0.183  2.5657  1.1894 -0.3609
 7290SOL    HW233507   1.329   3.978   0.085 -0.5127 -0.0648  0.0793
 7291SOL     OW33508   1.919   1.161   6.147 -0.3303 -0.8403  0.7779
 7291SOL    HW133509   1.948   1.109   6.222  1.3759  0.8687  1.2938
 7291SOL    HW233510   2.003   1.200   6.121 -1.0334  0.5707  0.6379
 7292SOL     OW33511   0.509   0.239  10.415 -0.1118 -0.2180  0.3988
 7292SOL    HW133512   0.416   0.220  10.431 -0.5353  0.3412 -1.3730
 7292SOL    HW233513   0.528   0.197  10.331 -1.7058  0.2999 -0.2361
 7293SOL     OW33514   0.394   2.664   9.363 -0.0855 -0.1177  0.6427
 7293SOL    HW133515   0.312   2.649   9.408 -1.1404  0.4470 -1.0854
 7293SOL    HW233516   0.444   2.582   9.362 -0.5536 -0.4064  1.8993
 7294SOL     OW33517   0.374   2.457   5.231  0.4524  0.3073  0.0464
 7294SOL    HW133518   0.422   2.379   5.204  1.7040  1.1077 -0.0541
 7294SOL    HW233519   0.439   2.487   5.294  0.4399 -0.2953  0.3399
 7295SOL     OW33520   4.253   3.591   0.848  0.4563 -0.3355  0.3973
 7295SOL    HW133521   4.306   3.567   0.923  0.2233 -0.4242  0.5340
 7295SOL    HW233522   4.297   3.665   0.806 -0.8440 -0.8280 -1.8669
 7296SOL     OW33523   2.803   2.992   4.744  0.0812 -0.0570  0.1314
 7296SOL    HW133524   2.860   2.916   4.758  0.6894  0.4069  0.1749
 7296SOL    HW233525   2.792   3.022   4.834  1.7743  2.2462 -0.4360
 7297SOL     OW33526   3.846   3.423   6.711  0.1508  0.6179 -0.5485
 7297SOL    HW133527   3.771   3.386   6.665  0.3583 -1.3290  0.6686
 7297SOL    HW233528   3.919   3.410   6.650  1.2679 -0.1366  0.9468
 7298SOL     OW33529   3.931   2.963   6.703 -0.2791 -0.2786  0.2261
 7298SOL    HW133530   4.008   3.019   6.713  1.3769 -2.2890 -1.1568
 7298SOL    HW233531   3.973   2.890   6.657 -0.1128 -1.6765  2.6193
 7299SOL     OW33532   2.482   2.675  15.882 -0.0294 -0.0829 -0.3699
 7299SOL    HW133533   2.523   2.748  15.834  2.9114 -0.7769  1.1057
 7299SOL    HW233534   2.556   2.623  15.913  1.3246  1.2823 -1.2765
 7300SOL     OW33535   1.166   2.612  14.450 -0.6370  0.3220  0.0097
 7300SOL    HW133536   1.167   2.534  14.394 -1.3723  1.0016 -0.9340
 7300SOL    HW233537   1.113   2.670  14.395 -2.3526 -2.7532 -1.5853
 7301SOL     OW33538   1.759   2.744   3.889  1.2090  0.1294 -0.1233
 7301SOL    HW133539   1.797   2.824   3.852 -1.0600  0.7355 -1.0888
 7301SOL    HW233540   1.833   2.683   3.884  0.6310 -0.6459  0.7937
 7302SOL     OW33541   2.158   1.232   5.998 -0.1780 -0.0509 -0.1555
 7302SOL    HW133542   2.196   1.220   5.911  0.1937 -1.9205  0.2658
 7302SOL    HW233543   2.156   1.140   6.024 -1.2811  0.4436  1.5407
 7303SOL     OW33544   4.296   4.639   1.430  0.5623  0.0298  0.1721
 7303SOL    HW133545   4.339   4.706   1.377  0.9062  0.6015  1.1611
 7303SOL    HW233546   4.323   4.559   1.385  1.7187  0.3465  0.2849
 7304SOL     OW33547   1.119   0.967   1.743  0.5661 -0.4802 -0.2149
 7304SOL    HW133548   1.088   0.947   1.831  0.5999  0.5591  0.0303
 7304SOL    HW233549   1.172   1.043   1.765 -0.0047 -0.3709  0.7815
 7305SOL     OW33550   1.531   0.674  15.504 -0.5404 -0.3988  0.3113
 7305SOL    HW133551   1.571   0.753  15.470  1.0011 -2.7321 -3.3380
 7305SOL    HW233552   1.536   0.615  15.429 -0.9811  1.0949 -0.8885
 7306SOL     OW33553   1.327   0.552   1.917 -0.3375  0.0690  0.0738
 7306SOL    HW133554   1.252   0.605   1.946  0.1002  0.5390  0.3414
 7306SOL    HW233555   1.321   0.555   1.822  1.4654  0.0417 -0.0305
 7307SOL     OW33556   4.505   4.565   5.530  0.3837  0.6312 -0.8352
 7307SOL    HW133557   4.450   4.640   5.554 -1.3793 -0.7555 -0.6398
 7307SOL    HW233558   4.591   4.591   5.563  0.7613 -0.3163 -1.0939
 7308SOL     OW33559   4.310   4.416   6.551  0.5104 -0.3230  0.2673
 7308SOL    HW133560   4.350   4.484   6.496 -0.6285  1.0634  1.1700
 7308SOL    HW233561   4.379   4.381   6.607  1.4183  0.3860 -0.4210
 7309SOL     OW33562   2.472   1.328  11.985  0.4388 -0.0940 -0.1208
 7309SOL    HW133563   2.523   1.357  12.061  1.0110  1.1925 -0.9832
 7309SOL    HW233564   2.414   1.403  11.974  1.1967  0.5152  0.0008
 7310SOL     OW33565   2.156   4.075   4.648 -0.0130 -0.7246  1.0867
 7310SOL    HW133566   2.062   4.055   4.642 -0.3157  0.9066  0.4384
 7310SOL    HW233567   2.155   4.141   4.717 -0.7630  0.3194  0.0685
 7311SOL     OW33568   2.856   0.129   6.516  0.0599  0.4100  0.3779
 7311SOL    HW133569   2.901   0.095   6.439 -3.6278  0.6399 -1.8671
 7311SOL    HW233570   2.908   0.099   6.591  1.0570  1.6444  0.1900
 7312SOL     OW33571   3.538   1.442   4.265  0.2124  0.2732 -0.1457
 7312SOL    HW133572   3.452   1.473   4.292 -0.5021 -1.4716 -0.3796
 7312SOL    HW233573   3.558   1.496   4.189  3.0185 -1.0329 -0.3665
 7313SOL     OW33574   3.994   1.274   6.564  0.0533 -0.2894 -0.0959
 7313SOL    HW133575   4.029   1.301   6.648  1.4808 -0.2370 -0.7140
 7313SOL    HW233576   3.966   1.349   6.511  2.0384  0.6336  0.1541
 7314SOL     OW33577   2.835   2.678  13.476  0.7080 -0.0743  0.2906
 7314SOL    HW133578   2.767   2.739  13.506 -0.7236 -1.6965  0.3146
 7314SOL    HW233579   2.913   2.734  13.473  1.5686 -1.2668  0.5884
 7315SOL     OW33580   0.494   1.027  16.702  0.9000  0.2444 -0.5690
 7315SOL    HW133581   0.445   1.086  16.759  3.1210 -0.0684  1.6542
 7315SOL    HW233582   0.490   1.071  16.617 -0.1228 -0.6086 -0.9618
 7316SOL     OW33583   1.851   1.691   9.202 -0.0399  0.0109 -0.0917
 7316SOL    HW133584   1.829   1.784   9.215  0.7493  0.4400 -1.8496
 7316SOL    HW233585   1.939   1.694   9.238 -0.0361  0.7984 -0.1633
 7317SOL     OW33586   4.222   4.095   6.445 -0.0546 -0.1698  0.6913
 7317SOL    HW133587   4.172   4.064   6.369  0.6493  0.8753 -0.2080
 7317SOL    HW233588   4.149   4.122   6.500 -0.0583  0.2738  0.4712
 7318SOL     OW33589   4.669   0.274   6.362 -0.4318  0.3911  0.6041
 7318SOL    HW133590   4.577   0.276   6.332 -0.9584  1.6619  2.3198
 7318SOL    HW233591   4.687   0.368   6.360 -1.5688  0.5658 -2.7393
 7319SOL     OW33592   0.587   4.692  11.456  0.3575 -0.7629  0.2612
 7319SOL    HW133593   0.573   0.009  11.531  3.1744 -1.1188  1.0653
 7319SOL    HW233594   0.641   4.622  11.493  0.9768  0.4079  1.5484
 7320SOL     OW33595   0.868   2.915   3.664  0.3225 -0.4850 -0.0482
 7320SOL    HW133596   0.820   2.923   3.747  3.2642  1.6044  1.4264
 7320SOL    HW233597   0.802   2.941   3.600  0.2518  0.2010  0.3013
 7321SOL     OW33598   0.275   0.734   9.206 -0.2061  0.7878 -0.3412
 7321SOL    HW133599   0.320   0.816   9.187 -1.1091  1.2487 -0.4876
 7321SOL    HW233600   0.350   0.676   9.192 -0.3852  0.3642  0.4798
 7322SOL     OW33601   4.161   0.971   9.431 -0.1155 -1.1015  0.2773
 7322SOL    HW133602   4.187   0.879   9.416 -1.9662 -1.1885 -2.3937
 7322SOL    HW233603   4.200   0.996   9.515  0.5491 -0.2874 -0.2743
 7323SOL     OW33604   2.184   3.440  16.213 -0.2751  0.7687 -0.1727
 7323SOL    HW133605   2.268   3.484  16.226 -1.1229  2.2129  0.5007
 7323SOL    HW233606   2.165   3.441  16.119 -0.0214 -0.0647 -0.2330
 7324SOL     OW33607   2.735   2.825   7.927 -0.2664 -0.2815  0.4857
 7324SOL    HW133608   2.820   2.832   7.970 -1.5983  0.1606  3.0588
 7324SOL    HW233609   2.756   2.771   7.851 -1.6936 -1.7610  1.1293
 7325SOL     OW33610   1.843   2.348   2.577 -0.0285 -0.0157 -0.2988
 7325SOL    HW133611   1.842   2.297   2.657  0.7933 -0.7292 -0.7473
 7325SOL    HW233612   1.766   2.405   2.584  0.7636  1.1346 -0.9315
 7326SOL     OW33613   3.021   3.684  15.978 -0.5261  0.7889 -0.0433
 7326SOL    HW133614   2.975   3.601  15.990  0.9296 -0.1081 -0.5856
 7326SOL    HW233615   3.058   3.700  16.065  2.4349 -1.3539 -0.8868
 7327SOL     OW33616   2.597   2.372  14.171  0.3922  0.2587 -0.1800
 7327SOL    HW133617   2.517   2.324  14.193 -0.0544  0.8748 -0.4510
 7327SOL    HW233618   2.570   2.463  14.158 -1.7793 -0.3508  0.1359
 7328SOL     OW33619   3.930   3.647  11.449 -0.2961 -0.1538 -0.4704
 7328SOL    HW133620   3.868   3.715  11.423  0.6739 -0.1457 -2.7639
 7328SOL    HW233621   3.995   3.653  11.379  1.9410 -2.1880  1.4635
 7329SOL     OW33622   1.743   3.825   2.538 -0.3421  0.2048  0.3782
 7329SOL    HW133623   1.785   3.890   2.595 -2.9345  1.8706  0.4136
 7329SOL    HW233624   1.703   3.893   2.484 -4.6243 -1.5820  1.2798
 7330SOL     OW33625   2.845   1.994   7.705 -0.2055 -0.1483  0.4294
 7330SOL    HW133626   2.791   1.945   7.767 -0.2426 -0.0814  0.4504
 7330SOL    HW233627   2.862   2.064   7.769 -0.2267  0.1488  0.1119
 7331SOL     OW33628   3.163   0.425   4.042  0.1992 -0.3086 -0.4004
 7331SOL    HW133629   3.154   0.444   4.136 -0.3853  0.5680 -0.6339
 7331SOL    HW233630   3.080   0.376   4.040  0.7242 -1.1562 -1.0093
 7332SOL     OW33631   3.684   1.584   0.544 -0.0569  0.0165  0.3053
 7332SOL    HW133632   3.766   1.542   0.517 -0.2656  0.5705 -1.1901
 7332SOL    HW233633   3.704   1.675   0.523 -0.0208 -0.0833 -0.1042
 7333SOL     OW33634   4.501   2.923   4.164  0.3852 -0.2178 -0.0859
 7333SOL    HW133635   4.525   2.883   4.080 -0.3223  0.1387 -0.4524
 7333SOL    HW233636   4.566   2.994   4.169 -0.7165  0.7117  0.8754
 7334SOL     OW33637   0.659   1.335   3.218  0.0145  0.3513 -0.0578
 7334SOL    HW133638   0.579   1.324   3.168 -0.7411  0.3900  1.1419
 7334SOL    HW233639   0.646   1.397   3.290  3.3063 -0.4112  1.1945
 7335SOL     OW33640   1.532   3.188   3.113  0.1774 -0.0839  0.4901
 7335SOL    HW133641   1.561   3.099   3.132 -0.2674  0.0607  1.8091
 7335SOL    HW233642   1.611   3.214   3.065  1.8151 -1.5342  2.4011
 7336SOL     OW33643   2.749   4.384  13.888  0.1990 -0.1951 -0.6149
 7336SOL    HW133644   2.828   4.438  13.878  0.0312 -0.1400 -1.6250
 7336SOL    HW233645   2.727   4.372  13.795  2.9312  1.2532 -1.4632
 7337SOL     OW33646   0.658   2.300  12.937  0.0098 -0.5045 -0.2528
 7337SOL    HW133647   0.751   2.319  12.933 -0.1052  0.3444  1.1354
 7337SOL    HW233648   0.632   2.372  12.994  0.7784 -1.9107  1.8613
 7338SOL     OW33649   3.488   0.309   8.831  0.1834  0.6413 -0.4434
 7338SOL    HW133650   3.398   0.285   8.809  0.9250 -0.8340 -1.9001
 7338SOL    HW233651   3.476   0.398   8.863 -0.5336  0.0812  0.8099
 7339SOL     OW33652   4.430   1.380   4.977  0.3009 -0.1870 -0.1477
 7339SOL    HW133653   4.362   1.325   4.938 -1.0170  0.7089  0.8568
 7339SOL    HW233654   4.482   1.316   5.025  0.1428  1.2700  1.9785
 7340SOL     OW33655   0.479   3.798   4.671  0.0072 -0.1741 -0.2392
 7340SOL    HW133656   0.455   3.753   4.752  0.2575  2.4291  1.3067
 7340SOL    HW233657   0.561   3.844   4.689  0.9417 -0.4913 -3.6839
 7341SOL     OW33658   2.981   1.533   5.777  0.1156 -0.5720  0.6515
 7341SOL    HW133659   3.029   1.450   5.771 -0.3415 -0.8333  0.5698
 7341SOL    HW233660   2.895   1.491   5.786  0.3514 -1.3528 -0.6785
 7342SOL     OW33661   3.292   4.637   6.159  0.1490  0.3201 -0.3774
 7342SOL    HW133662   3.290   4.542   6.151 -0.7781  0.3645 -0.6871
 7342SOL    HW233663   3.227   4.668   6.096  0.0153  1.5634  0.3763
 7343SOL     OW33664   0.343   0.221   2.148 -0.3758  0.3594 -0.2887
 7343SOL    HW133665   0.410   0.240   2.083  0.6156 -0.2471  0.5507
 7343SOL    HW233666   0.382   0.142   2.187 -3.2573 -0.4910  0.8795
 7344SOL     OW33667   2.298   0.960  12.854  0.1671 -0.2307 -0.0786
 7344SOL    HW133668   2.340   1.044  12.832  1.1827  0.1053  3.2353
 7344SOL    HW233669   2.342   0.899  12.794 -0.0122 -0.4292 -0.0048
 7345SOL     OW33670   4.512   1.999  17.337  0.5011  0.2095 -0.6134
 7345SOL    HW133671   4.453   2.073  17.348 -0.6475 -0.2826 -3.5307
 7345SOL    HW233672   4.540   2.020  17.248 -2.0371  1.3185 -1.1459
 7346SOL     OW33673   3.321   0.108   2.642 -0.2589 -0.4192  0.2592
 7346SOL    HW133674   3.412   0.105   2.611 -0.1744  1.9400  0.2670
 7346SOL    HW233675   3.312   0.193   2.684 -3.1690 -0.5323 -0.1804
 7347SOL     OW33676   4.478   0.116   0.805 -0.2491  0.4884 -0.0002
 7347SOL    HW133677   4.467   0.021   0.807  0.5197  0.3815 -0.8915
 7347SOL    HW233678   4.533   0.121   0.727  1.6389 -0.6272  1.2567
 7348SOL     OW33679   1.686   4.337  15.780  0.0515 -0.3891 -0.1371
 7348SOL    HW133680   1.730   4.282  15.715 -0.9344 -0.6917 -0.5573
 7348SOL    HW233681   1.757   4.394  15.807  0.2945 -0.0618 -1.4755
 7349SOL     OW33682   2.973   3.330   8.939  0.2071  0.3426  0.3774
 7349SOL    HW133683   3.007   3.254   8.985  0.3649  0.3612  0.2921
 7349SOL    HW233684   2.905   3.353   9.002  0.4186 -0.1810  0.7874
 7350SOL     OW33685   3.788   3.877   3.561  0.1659 -0.3851  0.7374
 7350SOL    HW133686   3.732   3.907   3.489 -1.7480  1.1350  2.8582
 7350SOL    HW233687   3.809   3.789   3.531 -2.0669 -0.9843  0.9714
 7351SOL     OW33688   2.703   0.624   1.547  0.0162 -0.2450 -0.0765
 7351SOL    HW133689   2.621   0.616   1.499  0.9483  0.5096 -1.7942
 7351SOL    HW233690   2.777   0.637   1.488  0.6857 -1.5849  0.4752
 7352SOL     OW33691   3.083   1.001   7.155 -0.0507  0.2580 -0.3745
 7352SOL    HW133692   3.054   0.910   7.160 -0.5525  0.3830 -1.0222
 7352SOL    HW233693   3.141   1.000   7.231 -0.7893 -1.5780  0.1669
 7353SOL     OW33694   3.732   4.662  16.057 -0.4778 -0.3402 -0.6960
 7353SOL    HW133695   3.696   4.741  16.015  0.4339 -0.3918 -1.5758
 7353SOL    HW233696   3.659   4.607  16.030 -0.5217  0.3801 -2.0504
 7354SOL     OW33697   2.264   1.051   2.587  0.4245 -0.3910 -0.1346
 7354SOL    HW133698   2.282   0.970   2.539 -3.0224 -0.7298 -0.9003
 7354SOL    HW233699   2.305   1.115   2.529  0.8994 -0.8272 -0.2828
 7355SOL     OW33700   4.575   3.587   4.672 -0.6437 -0.0857 -0.4867
 7355SOL    HW133701   4.527   3.516   4.714 -0.5909 -0.4999 -1.1236
 7355SOL    HW233702   4.651   3.536   4.642  1.1187  1.7396  0.9647
 7356SOL     OW33703   0.210   2.192  10.927  0.1515  0.1125 -0.5036
 7356SOL    HW133704   0.294   2.232  10.906  0.2327  0.6688  0.8528
 7356SOL    HW233705   0.236   2.108  10.964  2.6070  1.1409  0.1300
 7357SOL     OW33706   0.879   4.602  13.660  0.6733  0.4426  0.5047
 7357SOL    HW133707   0.927   4.551  13.595 -0.5158 -0.9818  0.7375
 7357SOL    HW233708   0.796   4.615  13.613 -0.4007 -2.7094  1.5332
 7358SOL     OW33709   1.434   3.212   2.792 -0.6896  0.3585 -0.4924
 7358SOL    HW133710   1.495   3.144   2.823 -2.0713 -0.8865 -0.5086
 7358SOL    HW233711   1.481   3.292   2.816  0.5946 -0.4982 -0.1300
 7359SOL     OW33712   3.248   0.725   1.735  0.1837  0.1120 -0.4036
 7359SOL    HW133713   3.313   0.662   1.704 -1.7091 -2.3081  0.5690
 7359SOL    HW233714   3.240   0.714   1.830  1.2174  0.3667 -0.2890
 7360SOL     OW33715   4.716   2.540   3.914 -0.2049 -0.0408  0.6866
 7360SOL    HW133716   0.060   2.568   3.948  0.6615 -0.4946 -1.1114
 7360SOL    HW233717   0.007   2.454   3.885  0.8547  0.2901  0.8723
 7361SOL     OW33718   3.400   4.255  10.274  0.2223 -0.3789 -0.2958
 7361SOL    HW133719   3.321   4.204  10.292  0.8977 -1.0654  0.7106
 7361SOL    HW233720   3.444   4.261  10.359 -1.4887  1.6794  0.4367
 7362SOL     OW33721   3.405   1.563   2.516  0.2727 -0.3340  0.3694
 7362SOL    HW133722   3.408   1.574   2.611 -0.3972  2.5252  0.0371
 7362SOL    HW233723   3.469   1.491   2.518  1.1327  0.4057 -0.4706
 7363SOL     OW33724   1.137   4.516   1.525  0.4212 -0.0722  0.3917
 7363SOL    HW133725   1.184   4.598   1.509  2.2699 -0.1387  5.2250
 7363SOL    HW233726   1.154   4.488   1.615 -0.3009 -1.0590  0.2217
 7364SOL     OW33727   2.636   3.843  16.695 -0.3788  0.2222 -0.0397
 7364SOL    HW133728   2.579   3.772  16.665  0.8133 -0.7045 -0.1095
 7364SOL    HW233729   2.695   3.847  16.620  1.0284  1.4695  1.1487
 7365SOL     OW33730   3.379   3.829   5.240 -0.0088  0.5577 -0.0996
 7365SOL    HW133731   3.405   3.766   5.173 -0.0848  0.1615  0.2432
 7365SOL    HW233732   3.360   3.772   5.314 -0.8749 -1.2366 -1.7166
 7366SOL     OW33733   2.960   3.963   6.004 -0.0248  0.2032  0.5269
 7366SOL    HW133734   2.923   3.910   5.933  2.7719  1.7711 -2.1017
 7366SOL    HW233735   2.984   3.903   6.074  1.4957 -0.5302 -0.6228
 7367SOL     OW33736   0.704   0.897   3.472 -0.0289  0.1276  0.4224
 7367SOL    HW133737   0.697   0.930   3.382 -1.8836  0.0139  0.5297
 7367SOL    HW233738   0.791   0.923   3.501 -0.1413 -0.1796  1.0179
 7368SOL     OW33739   1.510   1.980  11.976  0.2246 -0.0498 -0.4275
 7368SOL    HW133740   1.584   2.038  11.992  1.4415 -2.1076  1.5478
 7368SOL    HW233741   1.481   2.031  11.901 -2.1816  1.9045  1.8547
 7369SOL     OW33742   1.251   2.167   3.846 -0.6735 -0.0633 -0.0722
 7369SOL    HW133743   1.291   2.081   3.861 -0.4217 -0.2780 -1.9472
 7369SOL    HW233744   1.315   2.219   3.894 -1.0819 -0.5308  0.9824
 7370SOL     OW33745   3.486   2.752  17.573  0.9605  0.1908  0.3763
 7370SOL    HW133746   3.400   2.751  17.615 -0.2762  2.8740 -2.0782
 7370SOL    HW233747   3.550   2.755  17.644 -0.7454  1.9127  1.8246
 7371SOL     OW33748   2.844   2.445   7.677  0.7248  0.1157 -0.4562
 7371SOL    HW133749   2.773   2.429   7.615 -2.2800 -0.2505  3.1130
 7371SOL    HW233750   2.918   2.402   7.633  0.1259 -0.0939 -1.2593
 7372SOL     OW33751   2.739   0.725   6.637 -0.1874  0.8601  0.1005
 7372SOL    HW133752   2.660   0.777   6.617 -0.7287  1.2174  3.2085
 7372SOL    HW233753   2.798   0.785   6.682 -1.6263  2.2915  0.1269
 7373SOL     OW33754   2.998   1.878   6.835 -0.3457  0.0070 -0.0418
 7373SOL    HW133755   3.036   1.804   6.882  0.6889  2.4416  2.9285
 7373SOL    HW233756   2.950   1.924   6.904 -0.8014 -1.8120  0.8479
 7374SOL     OW33757   0.051   4.040   7.436  0.2736 -0.2332 -0.0661
 7374SOL    HW133758   0.052   4.135   7.426 -1.2220 -0.1759  0.2042
 7374SOL    HW233759   0.138   4.012   7.410  0.6681  0.0566  0.9395
 7375SOL     OW33760   3.193   0.766   7.679  0.2193  0.5215  0.3036
 7375SOL    HW133761   3.277   0.769   7.635  0.8517  0.6415  1.5091
 7375SOL    HW233762   3.123   0.740   7.619  2.2342 -1.0831 -1.3340
 7376SOL     OW33763   4.233   2.628  14.475 -0.1225  0.2232 -0.0385
 7376SOL    HW133764   4.309   2.636  14.417 -1.1391  2.6442 -1.0656
 7376SOL    HW233765   4.252   2.551  14.528  0.8777  0.0576 -0.6393
 7377SOL     OW33766   2.567   2.630   7.006 -0.1759 -0.0505  0.4698
 7377SOL    HW133767   2.592   2.551   7.055 -0.6351  0.2666  1.2200
 7377SOL    HW233768   2.648   2.642   6.958 -0.0568 -0.3059  0.6070
 7378SOL     OW33769   1.710   0.563   6.310 -0.1430 -0.1582  0.0175
 7378SOL    HW133770   1.779   0.572   6.376 -0.7768 -0.5394  0.7388
 7378SOL    HW233771   1.660   0.643   6.321  1.5282  1.1970 -2.2879
 7379SOL     OW33772   4.260   0.801  12.124 -0.3096  0.5585  0.6596
 7379SOL    HW133773   4.350   0.804  12.090 -0.2234 -1.4376  0.7099
 7379SOL    HW233774   4.239   0.888  12.092 -0.3213 -0.5545 -2.3851
 7380SOL     OW33775   0.518   4.722   4.131 -0.0460 -0.5245 -0.4554
 7380SOL    HW133776   0.531   4.678   4.047  0.0092 -3.1637  0.9604
 7380SOL    HW233777   0.483   4.649   4.182 -0.3823 -0.9919 -1.3452
 7381SOL     OW33778   2.912   3.906  15.100 -0.2825  0.1101 -0.1180
 7381SOL    HW133779   2.930   3.973  15.034  0.2632 -0.3998 -0.4862
 7381SOL    HW233780   2.912   3.957  15.180 -3.7155 -0.4133  0.2188
 7382SOL     OW33781   3.672   1.859   1.397 -0.3912  0.5865 -0.0651
 7382SOL    HW133782   3.609   1.889   1.463 -1.4329  2.5644 -1.9579
 7382SOL    HW233783   3.757   1.883   1.436  0.5391 -0.0377 -1.7497
 7383SOL     OW33784   3.723   0.271   7.456  0.3125  0.6372 -0.3264
 7383SOL    HW133785   3.799   0.287   7.399  2.9414 -2.5630  2.2443
 7383SOL    HW233786   3.761   0.215   7.524  0.1279  0.0640 -0.6960
 7384SOL     OW33787   2.845   2.946   9.797  0.1936  0.8022  0.7691
 7384SOL    HW133788   2.842   3.014   9.864  1.0910  1.6101 -0.0190
 7384SOL    HW233789   2.846   2.862   9.843 -3.1811  1.3086  1.7849
 7385SOL     OW33790   3.913   2.936   0.334  0.1579 -0.0413 -0.2139
 7385SOL    HW133791   3.871   2.940   0.248 -3.3890  0.2726  1.5471
 7385SOL    HW233792   3.870   3.014   0.369  0.0688 -0.4391  0.5495
 7386SOL     OW33793   3.343   3.914   0.582  0.0120 -1.2350  0.1429
 7386SOL    HW133794   3.254   3.948   0.580  1.1523  2.0321  5.3343
 7386SOL    HW233795   3.352   3.868   0.498  2.1536 -0.3366 -0.1261
 7387SOL     OW33796   1.310   0.490   3.041 -0.0211 -0.3068  0.0552
 7387SOL    HW133797   1.247   0.562   3.046 -0.2526 -0.5987  1.4146
 7387SOL    HW233798   1.249   0.416   3.040  0.7555 -0.9399 -0.2642
 7388SOL     OW33799   2.673   2.457  13.340 -0.5048 -0.5280  0.2908
 7388SOL    HW133800   2.721   2.524  13.390 -1.1239 -0.3440  0.6372
 7388SOL    HW233801   2.589   2.486  13.375 -0.9120 -0.0714 -1.0766
 7389SOL     OW33802   2.954   2.232   7.525 -0.1368 -0.2629 -0.3089
 7389SOL    HW133803   2.913   2.147   7.508 -0.1880 -0.3891  0.4752
 7389SOL    HW233804   3.045   2.212   7.548 -0.0704  1.3065  0.7771
 7390SOL     OW33805   4.654   4.701   8.375 -0.1527  0.4832  0.2668
 7390SOL    HW133806   4.574   0.012   8.385 -1.3546 -0.8973 -1.9491
 7390SOL    HW233807   4.703   0.041   8.385 -1.4950  1.3847 -0.3084
 7391SOL     OW33808   0.412   1.397   6.421  0.6146  0.4999 -0.4057
 7391SOL    HW133809   0.458   1.457   6.362  2.7549 -1.3248 -0.6055
 7391SOL    HW233810   0.331   1.447   6.432  0.7076 -0.0458  2.7527
 7392SOL     OW33811   3.661   3.263   6.507  0.1980  0.4427 -0.3275
 7392SOL    HW133812   3.674   3.171   6.531 -2.0588  0.1274 -0.3129
 7392SOL    HW233813   3.709   3.263   6.424 -2.8607  0.9168 -2.0941
 7393SOL     OW33814   0.404   1.878   2.677 -0.2994  0.1557 -0.3566
 7393SOL    HW133815   0.367   1.966   2.685 -0.0594  0.1666  0.5841
 7393SOL    HW233816   0.483   1.899   2.727 -1.0308  0.2722  0.7582
 7394SOL     OW33817   0.806   2.028  13.925 -0.1075  0.4210  0.4056
 7394SOL    HW133818   0.832   2.096  13.863 -1.8895  0.4037 -0.3482
 7394SOL    HW233819   0.784   2.084  13.999 -1.7218 -0.3142  0.4768
 7395SOL     OW33820   0.729   3.762   6.529 -0.4463  0.0791  0.1731
 7395SOL    HW133821   0.743   3.671   6.553  2.1653  1.0212  2.2147
 7395SOL    HW233822   0.814   3.788   6.493  0.1698 -0.5228  1.2189
 7396SOL     OW33823   1.677   4.427   6.256  0.0136  0.6069 -0.5238
 7396SOL    HW133824   1.667   4.503   6.314 -1.3735 -0.7506  1.0127
 7396SOL    HW233825   1.741   4.373   6.302 -1.7364  0.4179  1.6975
 7397SOL     OW33826   2.569   3.041   8.661  0.6133  0.7244  0.1121
 7397SOL    HW133827   2.529   2.959   8.689  0.2855  0.8698  0.0677
 7397SOL    HW233828   2.612   3.058   8.745  0.0145 -0.5810  0.6842
 7398SOL     OW33829   0.440   1.538   8.072  0.4847 -0.2945  0.5946
 7398SOL    HW133830   0.504   1.470   8.095  0.5927  0.0776  1.4022
 7398SOL    HW233831   0.364   1.503   8.119 -1.5655  3.5310  0.1071
 7399SOL     OW33832   2.737   1.908   5.089  0.0609 -0.0248  0.3883
 7399SOL    HW133833   2.655   1.922   5.135 -0.5984  0.6319 -0.9799
 7399SOL    HW233834   2.761   1.998   5.066  0.8706 -0.6386 -1.1613
 7400SOL     OW33835   3.155   3.841   1.615  0.1930  0.0021 -0.3574
 7400SOL    HW133836   3.090   3.885   1.671  3.5851  0.2264  3.4228
 7400SOL    HW233837   3.235   3.888   1.637  0.4807 -0.1558 -1.0763
 7401SOL     OW33838   2.123   2.076   8.202 -0.4571 -0.8843 -0.4024
 7401SOL    HW133839   2.072   2.021   8.143 -1.6870  1.1322 -1.2261
 7401SOL    HW233840   2.198   2.084   8.143 -1.3322 -0.6758 -1.4872
 7402SOL     OW33841   4.247   4.621  14.715  0.1271 -0.5837  0.3467
 7402SOL    HW133842   4.278   4.570  14.789  1.7698 -0.2040 -0.0917
 7402SOL    HW233843   4.221   4.555  14.651  2.6551 -0.7667 -0.4788
 7403SOL     OW33844   2.329   2.190   8.043  0.2210 -0.4137  1.0134
 7403SOL    HW133845   2.413   2.220   8.079 -0.5029  0.3915  2.0450
 7403SOL    HW233846   2.324   2.258   7.976 -2.1958 -2.3494 -0.7294
 7404SOL     OW33847   0.972   2.544   8.185  0.6047  0.4653 -0.1672
 7404SOL    HW133848   0.975   2.455   8.221  3.8261  1.4659  2.0638
 7404SOL    HW233849   0.909   2.593   8.239 -1.0015 -1.0579 -0.6412
 7405SOL     OW33850   3.808   3.985  11.111 -0.0184  0.2114 -0.2397
 7405SOL    HW133851   3.812   3.943  11.025 -2.4876  1.0004 -0.7279
 7405SOL    HW233852   3.837   4.075  11.093  1.2878 -0.1001  0.2756
 7406SOL     OW33853   4.684   0.474  15.030 -0.0011 -0.0762 -0.1909
 7406SOL    HW133854   0.017   0.535  15.034 -0.6341  0.6687 -0.0011
 7406SOL    HW233855   4.741   0.398  15.044 -2.6751 -2.1153 -0.6119
 7407SOL     OW33856   2.077   3.045   6.520 -0.1617 -0.3341 -0.0148
 7407SOL    HW133857   1.987   3.022   6.543 -0.7072  0.1810 -1.6677
 7407SOL    HW233858   2.131   3.002   6.587  1.1051 -1.9888 -2.0974
 7408SOL     OW33859   0.911   1.366   7.000 -0.0591  0.6727  0.1125
 7408SOL    HW133860   0.898   1.461   7.007 -0.8808  0.6480 -0.9604
 7408SOL    HW233861   1.003   1.354   7.023 -0.0006  0.9266  0.0114
 7409SOL     OW33862   0.182   2.250   5.483 -0.3571 -0.7660  0.2613
 7409SOL    HW133863   0.121   2.266   5.411 -0.9936  3.4396  1.7103
 7409SOL    HW233864   0.252   2.193   5.451  0.1847  0.9709 -1.6931
 7410SOL     OW33865   0.401   4.318   4.411  0.5842 -0.1508 -0.2282
 7410SOL    HW133866   0.412   4.409   4.436 -4.4159  0.3013  0.3824
 7410SOL    HW233867   0.358   4.262   4.476  0.7868  1.5895  1.4165
 7411SOL     OW33868   3.886   2.011   1.114  0.4132  0.5582  0.2760
 7411SOL    HW133869   3.871   1.951   1.040 -0.8266  0.0029  0.9795
 7411SOL    HW233870   3.799   2.026   1.152  0.6963  0.7187  0.8587
 7412SOL     OW33871   2.929   3.322  11.279  0.1460  0.1218  0.1588
 7412SOL    HW133872   2.917   3.230  11.300 -3.1446  0.4071 -0.4703
 7412SOL    HW233873   2.839   3.352  11.264 -1.4131 -3.1093  3.2360
 7413SOL     OW33874   2.061   2.200   4.504 -0.6217 -0.1214  0.1365
 7413SOL    HW133875   2.063   2.278   4.449 -2.2234 -0.5028 -0.4465
 7413SOL    HW233876   2.025   2.136   4.443  0.5329 -1.3356  0.7363
 7414SOL     OW33877   3.554   2.802   1.690  0.2043 -0.0185 -0.0015
 7414SOL    HW133878   3.492   2.812   1.763 -1.8762 -0.9227 -1.6346
 7414SOL    HW233879   3.524   2.877   1.638  1.7745  0.9508  0.5083
 7415SOL     OW33880   3.357   1.555   9.885  0.1777 -0.5174  0.3500
 7415SOL    HW133881   3.451   1.551   9.900  0.6959 -0.3272 -2.6843
 7415SOL    HW233882   3.356   1.493   9.812 -0.4351  0.1650 -0.2335
 7416SOL     OW33883   0.072   2.918   1.643 -0.2039  0.1460 -0.0119
 7416SOL    HW133884   0.022   2.860   1.701  1.0058 -2.1158 -1.2772
 7416SOL    HW233885   0.020   2.999   1.640  0.9225  0.9092  1.0883
 7417SOL     OW33886   2.890   2.622  13.184 -0.5147  0.5215  0.9601
 7417SOL    HW133887   2.881   2.717  13.179  1.4244  0.5604 -1.5662
 7417SOL    HW233888   2.865   2.601  13.274  1.1668  0.5306  1.4151
 7418SOL     OW33889   4.246   0.380   6.096 -0.4439  0.0609  0.0313
 7418SOL    HW133890   4.155   0.398   6.118  0.1306  3.0241  0.0236
 7418SOL    HW233891   4.228   0.351   6.007 -1.1659 -1.0176  0.5273
 7419SOL     OW33892   1.084   2.341   3.962 -0.2373 -0.5746  0.6776
 7419SOL    HW133893   1.112   2.333   4.053 -0.9004 -0.5130  0.8870
 7419SOL    HW233894   1.143   2.276   3.924  0.4791  1.3195 -1.4722
 7420SOL     OW33895   2.839   3.166   7.988 -0.4099  0.7321  0.6413
 7420SOL    HW133896   2.791   3.138   7.910 -0.8588 -2.1577  1.9658
 7420SOL    HW233897   2.927   3.139   7.963 -0.2638  0.0839  1.8062
 7421SOL     OW33898   2.985   2.752   8.048 -0.2648 -0.2985  0.1590
 7421SOL    HW133899   3.067   2.784   8.009 -0.4497 -1.1685 -0.9468
 7421SOL    HW233900   3.007   2.676   8.101  0.5501  1.2208  1.9991
 7422SOL     OW33901   2.725   0.270   2.170  0.5877  0.5826  0.4390
 7422SOL    HW133902   2.636   0.257   2.203 -0.7007  1.4931 -2.6474
 7422SOL    HW233903   2.753   0.181   2.149  0.1224 -0.1971  3.1106
 7423SOL     OW33904   2.652   4.003   7.376 -0.1630  0.4691  0.0743
 7423SOL    HW133905   2.590   4.076   7.374  1.3090  1.7564  0.5832
 7423SOL    HW233906   2.625   3.967   7.460  0.7105  1.8952  0.9747
 7424SOL     OW33907   2.115   2.890   6.269 -0.2123  0.0470  0.4099
 7424SOL    HW133908   2.091   2.939   6.347  1.5905 -0.4367  1.2596
 7424SOL    HW233909   2.121   2.801   6.303  0.5320 -0.6928 -1.6683
 7425SOL     OW33910   2.899   4.511   9.613 -0.1415 -0.1900  0.3155
 7425SOL    HW133911   2.825   4.572   9.619  0.8040  0.8905  0.7932
 7425SOL    HW233912   2.938   4.546   9.533  1.3749 -1.0044  0.7033
 7426SOL     OW33913   1.954   3.186   4.369  0.5109 -0.5742 -0.0156
 7426SOL    HW133914   1.961   3.240   4.290  0.1582 -1.8540 -0.9151
 7426SOL    HW233915   1.964   3.099   4.331  0.1248 -1.3139  1.6064
 7427SOL     OW33916   3.862   2.635   5.954  0.2338  0.1976  0.3492
 7427SOL    HW133917   3.839   2.571   5.886  1.0300 -1.6595  1.8385
 7427SOL    HW233918   3.809   2.604   6.028 -0.5551 -0.2564 -0.3989
 7428SOL     OW33919   0.700   1.530   5.533 -0.3954  0.0248 -0.0087
 7428SOL    HW133920   0.616   1.561   5.501  0.7311 -0.6597 -3.6467
 7428SOL    HW233921   0.671   1.496   5.618 -0.2507  0.5893  0.2671
 7429SOL     OW33922   0.352   0.383  11.094 -0.4014 -0.2413 -0.1709
 7429SOL    HW133923   0.338   0.289  11.101  2.7865 -0.7853 -0.8776
 7429SOL    HW233924   0.393   0.411  11.176 -0.7091 -0.0989 -0.0651
 7430SOL     OW33925   4.359   1.809  10.438 -0.1933 -0.0552 -0.1235
 7430SOL    HW133926   4.415   1.844  10.507 -0.4034 -1.8706  0.9483
 7430SOL    HW233927   4.295   1.880  10.435 -1.2868 -1.0083  0.7668
 7431SOL     OW33928   3.066   3.663   4.712  0.4889  0.0549 -0.6825
 7431SOL    HW133929   2.984   3.634   4.752  2.1291 -2.5429  0.8343
 7431SOL    HW233930   3.092   3.745   4.754  2.9228 -0.4356 -1.1842
 7432SOL     OW33931   3.669   4.278  14.184 -0.1441  0.1576 -0.3665
 7432SOL    HW133932   3.738   4.239  14.238 -0.3983  1.2844  0.7776
 7432SOL    HW233933   3.655   4.350  14.245 -0.1189  0.4039 -0.6539
 7433SOL     OW33934   3.057   0.665  14.183 -0.0291 -0.7040  0.3026
 7433SOL    HW133935   3.078   0.691  14.272 -1.5305  0.6558  0.2652
 7433SOL    HW233936   3.049   0.570  14.189 -0.6201 -0.5146  2.4516
 7434SOL     OW33937   3.072   4.584   3.542 -0.1522 -0.4799 -0.0111
 7434SOL    HW133938   3.082   4.511   3.604  1.6897 -0.0291  0.2261
 7434SOL    HW233939   2.979   4.581   3.521 -0.4310  3.1679  0.7767
 7435SOL     OW33940   4.309   3.975   7.190 -0.1124 -0.2720 -0.0264
 7435SOL    HW133941   4.344   3.967   7.279 -0.7038  1.2434  0.3440
 7435SOL    HW233942   4.379   3.924   7.149 -1.3733 -1.8378 -0.2357
 7436SOL     OW33943   0.329   3.929   7.926  0.2660  0.6583  0.0102
 7436SOL    HW133944   0.346   3.838   7.949 -1.1509  1.0963  2.7197
 7436SOL    HW233945   0.359   3.930   7.835 -1.2677  5.2639 -0.4182
 7437SOL     OW33946   3.850   0.484   9.936  0.3778  0.2906  0.3554
 7437SOL    HW133947   3.933   0.515   9.973  0.9063  0.0206 -0.6171
 7437SOL    HW233948   3.878   0.459   9.848 -0.8056  0.4933 -0.0881
 7438SOL     OW33949   3.890   0.803   3.829 -0.0129  0.2833  0.0807
 7438SOL    HW133950   3.959   0.764   3.884  1.0701  1.8981 -0.1355
 7438SOL    HW233951   3.819   0.797   3.892 -2.5162  0.1029 -2.7601
 7439SOL     OW33952   3.506   2.842  16.302 -0.1575  0.3850  0.0296
 7439SOL    HW133953   3.426   2.848  16.356 -0.8057  2.4867 -1.1469
 7439SOL    HW233954   3.514   2.927  16.259  0.4644 -0.2897 -1.1676
 7440SOL     OW33955   2.769   3.760  16.158 -0.0492 -0.3680  0.3107
 7440SOL    HW133956   2.792   3.675  16.121 -1.2897  1.3068 -4.4011
 7440SOL    HW233957   2.796   3.825  16.093  0.2818  0.9048  1.7152
 7441SOL     OW33958   2.870   1.657  16.779  0.2156 -0.2765  0.2917
 7441SOL    HW133959   2.886   1.720  16.709  2.4105  0.5442  1.5343
 7441SOL    HW233960   2.945   1.599  16.768  2.9564  3.1496  0.8399
 7442SOL     OW33961   4.077   0.040   7.517  0.3403 -0.2863  0.0342
 7442SOL    HW133962   4.142   0.109   7.509 -0.0682 -0.1576 -2.2763
 7442SOL    HW233963   4.011   0.086   7.570 -0.7502 -2.5269  0.6230
 7443SOL     OW33964   3.564   3.853   3.393 -0.7629 -0.6441  0.3821
 7443SOL    HW133965   3.488   3.908   3.374 -0.5556 -0.5595 -0.1990
 7443SOL    HW233966   3.522   3.783   3.443  0.3538 -0.1577  2.0151
 7444SOL     OW33967   2.576   4.261   8.067  0.4596  0.0035  0.2314
 7444SOL    HW133968   2.670   4.244   8.057  0.5471 -1.1822  3.0266
 7444SOL    HW233969   2.559   4.227   8.155 -0.4255 -1.5063 -0.5376
 7445SOL     OW33970   0.581   3.966   5.977  0.5375  0.1784 -0.7923
 7445SOL    HW133971   0.512   3.902   5.992  0.7269 -0.0301 -0.8186
 7445SOL    HW233972   0.643   3.936   6.044 -0.3062  1.7023  0.6871
 7446SOL     OW33973   0.526   0.213   6.002  0.0047  0.0822 -0.0233
 7446SOL    HW133974   0.563   0.187   5.918  0.6216 -0.6357  0.4763
 7446SOL    HW233975   0.574   0.296   6.015  1.3422 -0.8218  0.7977
 7447SOL     OW33976   2.705   2.955   2.831 -0.6723 -0.1343 -0.7756
 7447SOL    HW133977   2.630   2.982   2.885  1.3437  0.7934  1.5711
 7447SOL    HW233978   2.655   2.927   2.754 -2.0122  0.5606 -0.1608
 7448SOL     OW33979   4.723   0.941  12.304  0.3055 -0.3230 -0.4724
 7448SOL    HW133980   0.023   1.027  12.293 -1.5426  0.2816 -2.5987
 7448SOL    HW233981   0.059   0.884  12.312 -0.4174 -1.1832  0.2266
 7449SOL     OW33982   3.949   2.664   4.352  0.4814  0.1940  0.1465
 7449SOL    HW133983   4.031   2.657   4.402  0.5705  1.3408  0.1587
 7449SOL    HW233984   3.880   2.695   4.411  1.8361  1.2787  1.1731
 7450SOL     OW33985   3.448   2.728   4.936 -0.3643 -0.0884  0.0419
 7450SOL    HW133986   3.518   2.793   4.946 -1.2260  1.0487 -1.1898
 7450SOL    HW233987   3.438   2.713   4.842  1.3962  1.4074 -0.3822
 7451SOL     OW33988   0.638   0.986   9.974  0.5524  0.0999 -0.1420
 7451SOL    HW133989   0.665   0.977  10.065 -1.5162 -1.4303  0.3163
 7451SOL    HW233990   0.718   0.950   9.934  0.0605  0.4069 -1.3936
 7452SOL     OW33991   2.014   2.141   3.389  0.1480  0.3464  0.0286
 7452SOL    HW133992   2.050   2.081   3.324 -1.6324 -0.5136 -0.1602
 7452SOL    HW233993   1.936   2.101   3.427 -0.1045 -0.6844 -1.5724
 7453SOL     OW33994   3.735   3.721   9.069  0.1335  0.1311 -0.5331
 7453SOL    HW133995   3.672   3.775   9.022 -2.1579 -0.0626  2.3300
 7453SOL    HW233996   3.690   3.638   9.089  2.6003 -1.6515 -2.3169
 7454SOL     OW33997   1.549   2.228   1.974  0.6226  0.4684  0.1487
 7454SOL    HW133998   1.553   2.235   1.879  0.6859 -1.3150  0.0245
 7454SOL    HW233999   1.502   2.145   1.984 -2.3041  2.2826  1.3022
 7455SOL     OW34000   3.365   0.271   3.040  0.0985 -0.3791 -0.0627
 7455SOL    HW134001   3.299   0.271   3.109  2.2907  0.7692  2.0456
 7455SOL    HW234002   3.417   0.191   3.048  1.0841  0.1039 -1.7084
 7456SOL     OW34003   3.146   3.410   7.898 -0.0520 -0.6559 -0.2204
 7456SOL    HW134004   3.173   3.488   7.947 -0.5547 -0.7260  0.1755
 7456SOL    HW234005   3.230   3.389   7.858  0.0423 -1.6473  0.5010
 7457SOL     OW34006   0.451   2.075  16.977 -0.5676 -0.8032 -0.1292
 7457SOL    HW134007   0.410   2.150  16.935  3.5407  1.8393  0.6538
 7457SOL    HW234008   0.377   2.041  17.028 -0.9409  1.8779  1.1190
 7458SOL     OW34009   3.790   3.516   2.015 -0.0524 -0.0681 -0.5484
 7458SOL    HW134010   3.870   3.480   1.976  0.5409 -0.6577  1.2230
 7458SOL    HW234011   3.766   3.452   2.082  2.3341  0.5617  0.9268
 7459SOL     OW34012   3.955   0.614   6.722  0.1971  0.3561  0.4418
 7459SOL    HW134013   4.014   0.688   6.711  0.5907  0.1139  0.9545
 7459SOL    HW234014   4.009   0.536   6.707  0.2843  0.6741 -0.9336
 7460SOL     OW34015   4.715   2.951   6.956  0.6573  0.3576  0.2807
 7460SOL    HW134016   0.052   2.938   7.011  1.9972  1.8316 -1.2305
 7460SOL    HW234017   4.659   3.006   7.011  0.6765  1.9033 -1.2219
 7461SOL     OW34018   1.130   0.895   3.273  0.2586  0.1293 -0.1758
 7461SOL    HW134019   1.193   0.869   3.340 -0.8056 -1.1654  0.3379
 7461SOL    HW234020   1.056   0.835   3.280 -0.7190  1.2271 -1.1898
 7462SOL     OW34021   0.541   1.047   7.956 -0.6873 -0.0504  0.6493
 7462SOL    HW134022   0.498   1.041   7.870  0.4458  0.0232  0.0736
 7462SOL    HW234023   0.470   1.035   8.019 -1.5477  1.6116  0.0069
 7463SOL     OW34024   3.667   4.023   7.426 -0.0517 -0.4000  0.1183
 7463SOL    HW134025   3.649   4.099   7.481  2.8317  1.3371 -1.3067
 7463SOL    HW234026   3.752   3.991   7.456  0.4499 -0.8965 -1.8391
 7464SOL     OW34027   0.198   3.474   6.363 -0.6308 -0.2418 -0.7461
 7464SOL    HW134028   0.261   3.476   6.435 -1.4643  2.1182 -0.0953
 7464SOL    HW234029   0.135   3.538   6.395 -0.1902 -1.2395  2.1430
 7465SOL     OW34030   2.631   1.796  12.726 -0.1868 -0.0938 -0.3719
 7465SOL    HW134031   2.544   1.758  12.712  0.6219 -1.7259 -0.9336
 7465SOL    HW234032   2.672   1.756  12.650  2.0875  2.0194 -0.2283
 7466SOL     OW34033   0.735   1.530   8.735  0.4177  0.2180  0.2420
 7466SOL    HW134034   0.783   1.499   8.812 -0.6047  2.0348  1.6114
 7466SOL    HW234035   0.692   1.606   8.773  2.0425  2.0877 -1.6957
 7467SOL     OW34036   4.616   3.024   9.043 -0.3615  0.1982  0.0518
 7467SOL    HW134037   4.655   3.067   8.967  4.1773 -0.8163  1.7956
 7467SOL    HW234038   4.544   3.082   9.067 -1.1580 -0.4610 -0.7378
 7468SOL     OW34039   3.517   1.459   7.945 -0.0730  0.2615  0.2494
 7468SOL    HW134040   3.447   1.495   7.999  0.2271  1.3389 -0.0786
 7468SOL    HW234041   3.577   1.428   8.013 -0.3769  0.7960  0.7590
 7469SOL     OW34042   3.287   3.186  12.780  0.7913 -0.5702  0.6703
 7469SOL    HW134043   3.284   3.282  12.778  0.5640 -0.6418 -1.7285
 7469SOL    HW234044   3.326   3.181  12.693 -1.8743 -1.2705 -0.4475
 7470SOL     OW34045   1.007   1.614   1.681 -0.9490  0.2891 -0.6730
 7470SOL    HW134046   1.071   1.656   1.739 -0.3808 -2.0989  0.4115
 7470SOL    HW234047   1.046   1.527   1.676  1.6786  1.4037  0.4704
 7471SOL     OW34048   1.015   3.561   1.383 -0.2394 -0.2554  0.5126
 7471SOL    HW134049   0.985   3.472   1.403 -0.6582 -0.3598 -0.5800
 7471SOL    HW234050   0.932   3.603   1.359 -0.3854 -1.4432 -1.0130
 7472SOL     OW34051   2.073   1.511   5.947  0.7147  0.3633  0.3301
 7472SOL    HW134052   1.980   1.524   5.962  0.4002  0.8239 -2.0533
 7472SOL    HW234053   2.084   1.420   5.973  0.9028  0.5015  0.7483
 7473SOL     OW34054   3.100   0.179  11.918 -0.1717  0.0576 -0.2872
 7473SOL    HW134055   3.106   0.119  11.993 -2.9912  0.8947  0.5780
 7473SOL    HW234056   3.191   0.189  11.889 -0.4254  0.7107 -0.8339
 7474SOL     OW34057   0.486   2.396   9.300  0.0258 -0.0939  0.7684
 7474SOL    HW134058   0.535   2.351   9.369 -4.4863 -0.9604  3.4245
 7474SOL    HW234059   0.553   2.401   9.231 -0.7768  3.1348  0.2024
 7475SOL     OW34060   0.387   3.277   3.999 -0.0124  0.6380 -0.0995
 7475SOL    HW134061   0.316   3.214   3.986  2.5265 -2.4284  0.7311
 7475SOL    HW234062   0.450   3.243   3.935  0.0344 -1.6047  1.0942
 7476SOL     OW34063   1.635   4.467   3.257 -0.4776  0.1941 -0.0251
 7476SOL    HW134064   1.582   4.498   3.331  1.4960 -0.2996  1.5938
 7476SOL    HW234065   1.695   4.408   3.302 -0.2864  0.5996  0.2566
 7477SOL     OW34066   2.364   4.620   7.778 -0.0834 -0.1992  0.2416
 7477SOL    HW134067   2.382   4.696   7.833 -4.0158  2.6566 -2.4555
 7477SOL    HW234068   2.353   4.655   7.689 -0.7488 -0.8106  0.0848
 7478SOL     OW34069   4.125   2.913   3.723 -0.2354 -0.4443 -0.0180
 7478SOL    HW134070   4.216   2.932   3.747 -0.8067  3.3923 -0.8089
 7478SOL    HW234071   4.138   2.853   3.650  0.9548 -1.2449  0.8482
 7479SOL     OW34072   2.678   3.944  12.636 -0.2724  0.4333 -0.2017
 7479SOL    HW134073   2.758   3.988  12.666 -1.4328  1.2079  1.8095
 7479SOL    HW234074   2.662   3.880  12.705  0.3318  0.3965 -0.0979
 7480SOL     OW34075   2.839   3.523   4.813  0.6908  0.0367 -0.3571
 7480SOL    HW134076   2.851   3.447   4.870 -0.4067  1.9831  2.4553
 7480SOL    HW234077   2.793   3.582   4.871  1.0630  0.7819 -0.8137
 7481SOL     OW34078   1.906   0.370   4.743 -0.3883  0.1532  0.1896
 7481SOL    HW134079   1.946   0.443   4.790  1.0214 -0.1785 -0.5024
 7481SOL    HW234080   1.974   0.303   4.748 -1.0369 -0.5232  0.0343
 7482SOL     OW34081   0.741   4.525   8.242  0.2103 -0.2553  0.4590
 7482SOL    HW134082   0.804   4.490   8.178  1.0137  1.9956 -0.0037
 7482SOL    HW234083   0.775   4.470   8.312 -1.2331 -0.9859  0.5814
 7483SOL     OW34084   1.978   2.976   7.056  0.0015  0.0525  0.2394
 7483SOL    HW134085   1.970   3.050   6.996 -0.0937 -0.1502  0.0030
 7483SOL    HW234086   2.023   3.015   7.131  0.3649  0.1959 -0.0515
 7484SOL     OW34087   2.292   0.277  15.581  0.4621  0.4498 -0.4689
 7484SOL    HW134088   2.344   0.292  15.502  0.8876  2.9695  0.2932
 7484SOL    HW234089   2.205   0.298  15.548  0.0437 -2.1846 -1.0573
 7485SOL     OW34090   0.344   3.158   1.906 -0.3303  0.1930 -0.3150
 7485SOL    HW134091   0.414   3.129   1.848 -1.3707 -0.7742 -1.0897
 7485SOL    HW234092   0.291   3.079   1.893  2.1144 -1.6057  0.6157
 7486SOL     OW34093   2.396   1.272  10.254  0.0086  0.3963  0.1658
 7486SOL    HW134094   2.324   1.332  10.274 -1.9759 -1.7283 -0.6447
 7486SOL    HW234095   2.476   1.325  10.252 -0.1946  0.7021  0.2264
 7487SOL     OW34096   4.379   2.116   0.624 -0.7127  0.1060 -0.4779
 7487SOL    HW134097   4.339   2.203   0.629 -0.9131 -0.0970  1.4097
 7487SOL    HW234098   4.464   2.147   0.594 -0.5631 -1.1134 -1.3269
 7488SOL     OW34099   3.764   4.170   3.446 -0.3609  0.1302  0.0700
 7488SOL    HW134100   3.789   4.079   3.461 -1.6266 -0.4992 -1.6728
 7488SOL    HW234101   3.710   4.186   3.523 -0.4841 -1.1460  0.2471
 7489SOL     OW34102   1.984   4.247   1.762 -0.1029  0.1470  0.0699
 7489SOL    HW134103   1.999   4.222   1.854 -4.2941 -1.7701  0.2307
 7489SOL    HW234104   1.947   4.165   1.728 -0.3832  0.5893 -0.6823
 7490SOL     OW34105   2.686   3.602   2.806  0.2975 -0.4945 -0.0634
 7490SOL    HW134106   2.663   3.643   2.722 -1.3821  2.6715  1.9313
 7490SOL    HW234107   2.597   3.578   2.831  0.1583  0.0154 -0.0655
 7491SOL     OW34108   1.171   4.591   2.032 -0.1314  0.3829 -0.6999
 7491SOL    HW134109   1.192   4.641   2.111 -2.6077 -0.4419  0.4868
 7491SOL    HW234110   1.109   4.535   2.079 -1.5506  1.7505 -0.9569
 7492SOL     OW34111   0.720   1.194   9.111  0.1430  0.1749  0.3483
 7492SOL    HW134112   0.786   1.251   9.151  2.2358 -1.4872 -0.7608
 7492SOL    HW234113   0.658   1.194   9.184 -0.4695  1.2581 -0.1694
 7493SOL     OW34114   1.969   3.373  17.645 -0.2991  0.0582 -0.0255
 7493SOL    HW134115   2.057   3.383  17.610 -1.0437  0.6974 -1.7459
 7493SOL    HW234116   1.952   3.456  17.689 -0.0246 -0.6186  1.3608
 7494SOL     OW34117   1.998   3.348   4.129 -0.3699 -0.3337  0.0560
 7494SOL    HW134118   2.016   3.417   4.066  0.6396 -1.2810 -0.6959
 7494SOL    HW234119   1.927   3.300   4.086  0.8385  1.1608 -3.5772
 7495SOL     OW34120   1.624   2.565   3.005 -0.6350  0.2653 -0.4718
 7495SOL    HW134121   1.711   2.577   3.042 -0.7312  0.1522 -0.2073
 7495SOL    HW234122   1.603   2.472   3.002  0.8495 -0.1194  1.0499
 7496SOL     OW34123   2.167   4.703  15.099 -0.1064  0.1977 -0.0651
 7496SOL    HW134124   2.195   0.049  15.129  0.5118 -0.5466  1.5031
 7496SOL    HW234125   2.181   4.705  15.005  1.5684 -1.4863  0.1338
 7497SOL     OW34126   0.572   3.148   2.183  0.1700  0.1044 -0.3422
 7497SOL    HW134127   0.642   3.084   2.196 -0.6457 -0.7432 -0.0429
 7497SOL    HW234128   0.500   3.098   2.223 -0.2225  1.9335  1.1999
 7498SOL     OW34129   0.829   2.910   5.363 -0.1415  0.3522  0.2217
 7498SOL    HW134130   0.898   2.874   5.418  0.9473  1.8701 -0.1855
 7498SOL    HW234131   0.763   2.919   5.431 -0.1975  0.9205  0.0882
 7499SOL     OW34132   4.667   1.092   1.787 -0.4021  0.4205 -0.1335
 7499SOL    HW134133   4.719   1.173   1.791  0.2175 -0.0418  1.3553
 7499SOL    HW234134   4.697   1.053   1.705  0.3112  0.8152 -0.0635
 7500SOL     OW34135   1.213   3.192  14.907  0.1896 -0.5784  0.3576
 7500SOL    HW134136   1.165   3.212  14.987 -1.0520  0.7340 -0.7230
 7500SOL    HW234137   1.179   3.264  14.854  0.6910 -0.6571 -0.0773
 7501SOL     OW34138   4.378   2.353  16.943 -0.3350  0.5285  0.0534
 7501SOL    HW134139   4.298   2.309  16.973  0.5485 -0.8985  0.3675
 7501SOL    HW234140   4.445   2.297  16.982 -1.8779 -0.4732  1.3043
 7502SOL     OW34141   4.442   0.660   9.615  0.1739 -0.1328 -0.3675
 7502SOL    HW134142   4.378   0.607   9.662  0.3383 -1.9696 -2.2229
 7502SOL    HW234143   4.394   0.672   9.533  1.0711 -1.2617 -1.0645
 7503SOL     OW34144   3.717   1.414   6.552  0.0135 -0.1632  0.0537
 7503SOL    HW134145   3.743   1.323   6.536 -1.6140 -1.0378  2.4979
 7503SOL    HW234146   3.780   1.432   6.622 -0.3735  4.0797 -0.6967
 7504SOL     OW34147   1.811   0.608   4.096  0.2362  0.2211  0.2266
 7504SOL    HW134148   1.833   0.618   4.003 -3.2814 -1.2025 -0.7473
 7504SOL    HW234149   1.745   0.676   4.109 -0.5039 -0.1624 -1.5329
 7505SOL     OW34150   4.739   2.728   4.243 -0.1433  0.0559  0.0612
 7505SOL    HW134151   4.725   2.754   4.152  0.7630 -0.4914 -0.2333
 7505SOL    HW234152   4.655   2.739   4.286 -1.3107 -2.4328 -1.5966
 7506SOL     OW34153   0.670   2.228   9.750 -0.3479  0.1673  0.3538
 7506SOL    HW134154   0.628   2.281   9.818  3.9198  1.5608  1.9151
 7506SOL    HW234155   0.618   2.148   9.745  1.2070 -0.7013 -1.8412
 7507SOL     OW34156   2.615   4.582   4.700  0.0582 -0.1617 -0.3937
 7507SOL    HW134157   2.599   4.623   4.785 -0.8426  0.8021 -1.0340
 7507SOL    HW234158   2.708   4.599   4.682  0.3944 -2.1509 -0.5546
 7508SOL     OW34159   1.935   2.972   7.947 -0.0597  0.3979 -0.4081
 7508SOL    HW134160   2.023   3.004   7.929  0.2678  1.1462  2.6137
 7508SOL    HW234161   1.914   2.934   7.861  0.6296 -0.4264 -0.2003
 7509SOL     OW34162   3.276   3.913  16.372  0.7487  0.1907  0.4687
 7509SOL    HW134163   3.242   4.002  16.357 -1.9158 -0.2575  3.8510
 7509SOL    HW234164   3.351   3.917  16.430  2.9532 -2.6156 -2.2183
 7510SOL     OW34165   2.329   1.297   7.455  0.7649  0.7611  0.0892
 7510SOL    HW134166   2.357   1.378   7.499  1.6154 -0.1131  1.1554
 7510SOL    HW234167   2.292   1.247   7.527 -0.5896  2.2186  0.4016
 7511SOL     OW34168   3.595   3.601   8.678 -0.9467  0.0809 -0.1308
 7511SOL    HW134169   3.511   3.591   8.721  0.1069 -1.3677  1.5965
 7511SOL    HW234170   3.603   3.528   8.617  2.2361 -1.7740  2.5194
 7512SOL     OW34171   4.291   2.805  16.478 -0.5678  0.1996 -0.7331
 7512SOL    HW134172   4.228   2.753  16.528 -2.3926  1.4249 -1.7709
 7512SOL    HW234173   4.331   2.863  16.542 -0.0166 -1.6373  0.5868
 7513SOL     OW34174   1.349   2.471  14.620 -0.0957  0.3253  0.2983
 7513SOL    HW134175   1.308   2.526  14.554 -0.4443  0.5916  0.7361
 7513SOL    HW234176   1.442   2.482  14.599 -0.0318 -0.4768  0.1649
 7514SOL     OW34177   1.136   3.454   2.285  0.2153 -0.1116  0.5157
 7514SOL    HW134178   1.084   3.434   2.363  0.3481 -2.5755 -0.0459
 7514SOL    HW234179   1.125   3.373   2.235  0.7785  0.5659 -0.7299
 7515SOL     OW34180   2.208   2.951   8.590 -0.0828  0.4191  0.2426
 7515SOL    HW134181   2.245   2.896   8.521 -1.2612 -0.0529 -0.0244
 7515SOL    HW234182   2.260   3.031   8.593 -0.1795  0.5242 -1.0290
 7516SOL     OW34183   3.895   3.367   4.220 -0.8988  0.0190 -0.3483
 7516SOL    HW134184   3.856   3.387   4.135 -0.2786 -0.1592 -0.6751
 7516SOL    HW234185   3.865   3.278   4.234  1.1522 -0.2580  2.2925
 7517SOL     OW34186   4.495   3.984   2.204 -0.1459 -0.4672 -0.0503
 7517SOL    HW134187   4.431   3.998   2.134  0.1699  0.8111 -0.0706
 7517SOL    HW234188   4.442   4.007   2.280  1.0276  0.5473  0.4459
 7518SOL     OW34189   2.930   0.736   8.966 -0.1384  0.4357  0.4559
 7518SOL    HW134190   2.916   0.788   8.886 -1.6914 -1.5546 -0.5551
 7518SOL    HW234191   2.837   0.734   8.989 -0.6663  0.0139 -1.7191
 7519SOL     OW34192   3.800   3.870  10.458  0.1346  0.2896  0.1635
 7519SOL    HW134193   3.746   3.881  10.537  0.1834 -0.2347  0.2684
 7519SOL    HW234194   3.738   3.888  10.387  0.0964  1.1814  0.4231
 7520SOL     OW34195   1.547   4.454   7.640  0.0300 -0.7236 -0.5037
 7520SOL    HW134196   1.571   4.531   7.588  2.1848 -0.0634  1.4456
 7520SOL    HW234197   1.520   4.391   7.573  0.4506 -0.3345 -1.0374
 7521SOL     OW34198   1.671   0.114  16.107  0.3318 -0.2284  0.2127
 7521SOL    HW134199   1.758   0.155  16.111  1.1122 -1.6948 -1.6359
 7521SOL    HW234200   1.688   0.025  16.139  0.3602 -0.2167  0.2304
 7522SOL     OW34201   1.121   4.565   9.899 -0.7555  0.1983 -0.0574
 7522SOL    HW134202   1.042   4.548   9.950 -1.0594  0.1296 -0.5414
 7522SOL    HW234203   1.138   4.658   9.916 -0.5672  0.6948 -2.9496
 7523SOL     OW34204   1.807   4.519  11.716  0.4002  0.1633 -0.8051
 7523SOL    HW134205   1.862   4.594  11.694  0.4199  0.0684 -1.0763
 7523SOL    HW234206   1.737   4.557  11.769  0.5948 -1.8345  0.8791
 7524SOL     OW34207   4.617   2.026   8.206  0.4616 -0.2530  0.0286
 7524SOL    HW134208   4.632   2.119   8.187 -0.6281 -0.3477 -1.3358
 7524SOL    HW234209   4.602   2.001   8.115  1.5424  1.2046 -0.5377
 7525SOL     OW34210   1.416   1.940   5.932  0.0333 -0.1461  0.2839
 7525SOL    HW134211   1.475   1.916   6.003  0.1307 -1.8586 -0.3681
 7525SOL    HW234212   1.474   1.956   5.857 -0.3743 -1.6302 -0.3527
 7526SOL     OW34213   4.473   0.419   5.878 -0.4316 -0.5553  0.1110
 7526SOL    HW134214   4.509   0.427   5.790 -0.0424 -1.2486  0.2049
 7526SOL    HW234215   4.381   0.395   5.864  0.0036 -0.8883 -2.1260
 7527SOL     OW34216   4.576   2.812   2.688  0.1263 -0.0537  0.1288
 7527SOL    HW134217   4.581   2.834   2.595 -0.7326 -2.4014 -0.4640
 7527SOL    HW234218   4.580   2.897   2.733 -1.3711  0.9363 -1.5799
 7528SOL     OW34219   3.738   0.150   0.747  0.4458  0.2142 -0.5791
 7528SOL    HW134220   3.661   0.129   0.694  0.0439  0.2646 -0.0182
 7528SOL    HW234221   3.802   0.105   0.692 -1.0544 -0.8661 -1.4765
 7529SOL     OW34222   2.814   2.669  12.817 -0.0204  0.5555  0.8261
 7529SOL    HW134223   2.750   2.701  12.881 -0.1313  0.5539  0.7160
 7529SOL    HW234224   2.868   2.602  12.859  0.2898  1.0472  1.1999
 7530SOL     OW34225   0.807   2.730   8.312  0.2498 -0.2136 -0.0653
 7530SOL    HW134226   0.839   2.676   8.384  0.2447  1.6057  1.3008
 7530SOL    HW234227   0.744   2.783   8.360  0.7288  1.9092 -1.7500
 7531SOL     OW34228   2.640   3.799   9.595  0.1683 -0.0160 -0.3050
 7531SOL    HW134229   2.600   3.728   9.544 -1.0124 -1.0790  2.1128
 7531SOL    HW234230   2.604   3.874   9.548  0.9774  1.8735  2.1505
 7532SOL     OW34231   3.855   4.644   7.288 -0.4410 -0.4202 -0.1878
 7532SOL    HW134232   3.770   4.637   7.331 -0.7665  0.8080 -0.6241
 7532SOL    HW234233   3.900   4.716   7.332 -0.9678 -0.4517  0.3913
 7533SOL     OW34234   2.388   1.424   5.135  0.2798 -0.6167  0.5888
 7533SOL    HW134235   2.382   1.514   5.104  0.7628 -1.3110 -1.5089
 7533SOL    HW234236   2.305   1.409   5.180 -0.5240  0.3437 -0.5737
 7534SOL     OW34237   2.337   0.910   4.310  0.0816  0.0591 -0.1349
 7534SOL    HW134238   2.386   0.833   4.339  1.1201  1.6428  2.3181
 7534SOL    HW234239   2.290   0.863   4.241  0.8711 -0.0732 -0.5785
 7535SOL     OW34240   4.713   1.067   1.508  0.1317 -0.8758  0.3882
 7535SOL    HW134241   4.688   1.022   1.428 -1.2754  0.2807  0.1728
 7535SOL    HW234242   4.682   1.157   1.503 -0.3787 -0.9705  1.8863
 7536SOL     OW34243   1.296   3.834   7.521 -0.1400  0.1434  0.1383
 7536SOL    HW134244   1.245   3.907   7.555 -2.4420 -1.0288 -0.8004
 7536SOL    HW234245   1.263   3.828   7.431 -1.8735 -2.0540  0.9339
 7537SOL     OW34246   1.162   3.351   8.652 -0.1991 -0.4388  0.1513
 7537SOL    HW134247   1.176   3.407   8.576  0.1028 -1.1303 -0.2994
 7537SOL    HW234248   1.180   3.408   8.727 -2.1532 -1.2134  1.2073
 7538SOL     OW34249   2.435   3.057  13.538 -0.1373  0.5472 -0.3962
 7538SOL    HW134250   2.423   3.144  13.501  0.1927  0.7198 -0.0987
 7538SOL    HW234251   2.376   3.063  13.613  0.9460  0.3780  0.4612
 7539SOL     OW34252   1.770   1.364   2.665  0.2205 -0.9868 -0.0717
 7539SOL    HW134253   1.783   1.284   2.716  1.5756  0.1451  1.3614
 7539SOL    HW234254   1.699   1.333   2.609 -1.5702  1.6764  0.7490
 7540SOL     OW34255   3.122   1.521   6.924 -0.4315 -0.5058  0.2150
 7540SOL    HW134256   3.211   1.557   6.924 -0.5834 -0.1371  0.6616
 7540SOL    HW234257   3.108   1.502   7.017 -0.0270  3.1480  1.0247
 7541SOL     OW34258   3.423   2.459   2.433 -0.1586  0.1285 -0.4734
 7541SOL    HW134259   3.476   2.436   2.357  0.5476 -0.1113  0.0959
 7541SOL    HW234260   3.491   2.460   2.501  0.9620 -1.0688 -1.5849
 7542SOL     OW34261   2.326   2.910   5.999  0.0947  0.1016 -0.6185
 7542SOL    HW134262   2.274   2.972   6.049 -1.7407  1.0398 -3.6649
 7542SOL    HW234263   2.275   2.829   5.998 -1.4032  1.0478 -0.3323
 7543SOL     OW34264   3.985   0.332   0.600  0.1256 -0.2807  0.2382
 7543SOL    HW134265   3.938   0.348   0.682  2.1166 -1.2285  1.5887
 7543SOL    HW234266   4.067   0.376   0.622  0.3494 -0.3092 -0.5304
 7544SOL     OW34267   3.809   1.397   0.361  0.6934  0.0084 -0.1740
 7544SOL    HW134268   3.758   1.422   0.284  3.0701 -3.2777 -2.7292
 7544SOL    HW234269   3.893   1.436   0.338  1.4933 -0.5039  1.8737
 7545SOL     OW34270   1.139   0.964   4.498 -0.7064  0.1976 -0.0627
 7545SOL    HW134271   1.190   1.012   4.433 -1.1715 -2.6050 -2.4961
 7545SOL    HW234272   1.065   0.937   4.443 -0.5822  0.5379 -0.3943
 7546SOL     OW34273   1.862   3.806   2.854  0.0275 -0.5448  0.5471
 7546SOL    HW134274   1.933   3.796   2.790  0.2448 -1.1951  0.8836
 7546SOL    HW234275   1.794   3.752   2.812 -1.1573  1.9917 -0.7931
 7547SOL     OW34276   0.862   0.404  17.702  0.3437  0.4206  0.0707
 7547SOL    HW134277   0.899   0.488  17.731 -2.0530  1.6311 -0.4095
 7547SOL    HW234278   0.824   0.436  17.620 -0.3367 -0.4580  0.0479
 7548SOL     OW34279   0.436   4.377   2.902  0.0305 -0.7621 -0.3059
 7548SOL    HW134280   0.448   4.289   2.866 -0.2232 -0.9320  0.0245
 7548SOL    HW234281   0.342   4.382   2.920 -0.3801 -0.4984 -2.5153
 7549SOL     OW34282   2.196   2.935   3.965  0.2180  0.1494  0.1218
 7549SOL    HW134283   2.101   2.938   3.965  0.2039 -0.0340  1.1395
 7549SOL    HW234284   2.205   2.849   4.007 -0.7341  0.0613  0.1404
 7550SOL     OW34285   1.332   3.321   9.476  0.4194  0.3714 -0.3389
 7550SOL    HW134286   1.383   3.323   9.395 -0.1392  1.3384 -0.6593
 7550SOL    HW234287   1.279   3.400   9.474  0.4096  0.3861  0.4421
 7551SOL     OW34288   1.760   4.673   7.292 -0.0208  0.0636 -0.3644
 7551SOL    HW134289   1.855   4.675   7.277 -0.2709 -0.8133 -2.0755
 7551SOL    HW234290   1.768   4.599   7.351 -0.1998 -0.6865 -1.2770
 7552SOL     OW34291   2.766   0.092  15.541  0.0662 -0.0488  0.3069
 7552SOL    HW134292   2.736   0.038  15.614  2.1397 -1.6310 -0.0069
 7552SOL    HW234293   2.705   0.072  15.470 -0.5061  0.2853  0.6992
 7553SOL     OW34294   0.914   1.548   7.587  0.0685  0.2089 -0.1509
 7553SOL    HW134295   0.910   1.643   7.575 -0.5268 -0.0658 -2.0816
 7553SOL    HW234296   0.926   1.546   7.682  0.4782  0.3717 -0.1975
 7554SOL     OW34297   0.468   3.139   4.747 -0.0104 -0.2095 -0.0333
 7554SOL    HW134298   0.479   3.080   4.672 -1.0774  0.3090 -0.5857
 7554SOL    HW234299   0.560   3.167   4.749 -0.5724  1.5916 -0.1898
 7555SOL     OW34300   1.111   4.348   3.320  0.4463 -0.8824  0.3179
 7555SOL    HW134301   1.163   4.390   3.252 -1.5986  0.6564 -0.3118
 7555SOL    HW234302   1.077   4.269   3.278 -2.4919  0.9565 -0.8069
 7556SOL     OW34303   1.528   4.069   2.680  0.4376 -0.1594 -0.0652
 7556SOL    HW134304   1.595   4.051   2.614  2.3903  0.5386  1.7214
 7556SOL    HW234305   1.488   3.982   2.684  0.9638 -0.3636  0.5270
 7557SOL     OW34306   2.069   1.808   7.588 -0.2655 -0.5476  0.7124
 7557SOL    HW134307   1.975   1.789   7.587 -0.5050  0.7187 -1.7868
 7557SOL    HW234308   2.080   1.902   7.605  1.2425 -0.2713 -1.7224
 7558SOL     OW34309   0.877   1.908   5.907  0.0417  0.0849 -0.2644
 7558SOL    HW134310   0.962   1.868   5.889  0.4727  0.6688  0.4881
 7558SOL    HW234311   0.895   2.000   5.890  0.0864 -0.4234 -2.9584
 7559SOL     OW34312   3.703   3.750   2.830 -0.0781  0.2863  0.6874
 7559SOL    HW134313   3.682   3.666   2.871 -1.8520  1.0200  1.2999
 7559SOL    HW234314   3.792   3.757   2.864 -0.0511 -0.6220  0.8127
 7560SOL     OW34315   4.000   3.831   4.448 -0.6840  0.5543 -0.3724
 7560SOL    HW134316   4.043   3.853   4.365  1.2569  0.8661  0.7164
 7560SOL    HW234317   3.979   3.740   4.430  2.0680 -0.1319 -0.2001
 7561SOL     OW34318   0.252   1.818   5.356 -0.1197  0.1291 -0.1181
 7561SOL    HW134319   0.231   1.806   5.264 -0.3168  0.4785 -0.1200
 7561SOL    HW234320   0.170   1.857   5.389 -1.1652 -1.1962 -1.1692
 7562SOL     OW34321   3.959   1.698   0.518  0.0139  0.3865  0.2365
 7562SOL    HW134322   3.972   1.672   0.427 -1.5156 -0.9481  0.4011
 7562SOL    HW234323   3.915   1.782   0.502  3.2532  2.0474 -0.1079
 7563SOL     OW34324   3.190   2.045   8.341 -0.1701 -0.2016 -0.2437
 7563SOL    HW134325   3.273   2.091   8.332  0.1108 -1.4754 -4.1494
 7563SOL    HW234326   3.147   2.121   8.379 -2.4152 -1.2515 -0.7014
 7564SOL     OW34327   3.575   2.885   6.795 -0.4298 -0.6663 -0.1635
 7564SOL    HW134328   3.491   2.925   6.815 -0.5877 -0.6540 -0.8769
 7564SOL    HW234329   3.597   2.852   6.882 -2.3124 -3.9083 -0.9323
 7565SOL     OW34330   4.566   0.829   5.943  0.1854 -0.4052  0.3332
 7565SOL    HW134331   4.602   0.741   5.953  0.2523 -0.2010  1.8636
 7565SOL    HW234332   4.605   0.861   5.861  0.5091 -0.8244  0.3208
 7566SOL     OW34333   1.652   0.079   2.857  0.5522 -0.4920 -0.1653
 7566SOL    HW134334   1.684   0.145   2.919 -1.4723  2.7507 -2.5694
 7566SOL    HW234335   1.678   0.125   2.777  3.0301 -0.7294  0.4841
 7567SOL     OW34336   0.700   0.264  11.242  0.0734 -0.1177 -0.1598
 7567SOL    HW134337   0.646   0.332  11.281 -2.8777 -2.6597  0.2205
 7567SOL    HW234338   0.785   0.306  11.234  0.4788 -0.4840  2.3352
 7568SOL     OW34339   2.812   0.247   7.378 -0.6945 -0.3308 -0.1825
 7568SOL    HW134340   2.732   0.253   7.430 -0.2794 -1.6622  0.6021
 7568SOL    HW234341   2.852   0.333   7.369 -0.9349 -0.2383 -0.3709
 7569SOL     OW34342   2.381   4.516   2.951  0.5356 -0.8508 -0.5039
 7569SOL    HW134343   2.432   4.540   3.029 -0.9464  1.0813 -0.1545
 7569SOL    HW234344   2.305   4.572   2.967  2.0095  1.1943 -0.6683
 7570SOL     OW34345   0.004   4.416   7.674 -0.1651  0.0929 -0.0721
 7570SOL    HW134346   4.650   4.423   7.671 -0.0615  1.7345  0.7935
 7570SOL    HW234347   0.017   4.444   7.583  2.6509 -1.3222 -0.1138
 7571SOL     OW34348   2.031   2.406  13.798  0.8947 -0.0990  0.0293
 7571SOL    HW134349   1.943   2.371  13.810  0.9396 -0.6313 -1.1906
 7571SOL    HW234350   2.058   2.334  13.740 -0.0938  0.1532 -0.7449
 7572SOL     OW34351   3.676   3.204   4.525 -0.2780 -0.2835  0.5812
 7572SOL    HW134352   3.756   3.228   4.478 -0.7786 -1.1334 -0.6657
 7572SOL    HW234353   3.620   3.273   4.489  0.0899 -0.1146  0.3389
 7573SOL     OW34354   1.597   2.631   3.442  0.0867 -0.2828 -0.1568
 7573SOL    HW134355   1.578   2.643   3.535  0.0088  1.0800 -0.3575
 7573SOL    HW234356   1.510   2.608   3.409  0.0927 -1.2879  0.5145
 7574SOL     OW34357   1.199   1.442   1.815  0.0927 -0.1903 -0.1805
 7574SOL    HW134358   1.259   1.507   1.851 -0.7441 -0.2709  1.3702
 7574SOL    HW234359   1.227   1.433   1.724  1.2854  1.6647  0.0184
 7575SOL     OW34360   0.690   2.530   7.991 -0.5386 -0.2570 -0.0302
 7575SOL    HW134361   0.637   2.537   7.912 -1.6094 -0.4245  0.6744
 7575SOL    HW234362   0.737   2.613   7.991 -1.0814  0.0344 -2.5480
 7576SOL     OW34363   1.779   4.232   9.773  0.0248  0.3279  0.5213
 7576SOL    HW134364   1.752   4.180   9.697  1.1598  0.9751 -0.3228
 7576SOL    HW234365   1.808   4.168   9.838  1.2895 -0.8478 -1.1979
 7577SOL     OW34366   0.358   0.424   3.057 -0.0580 -0.1047 -0.4470
 7577SOL    HW134367   0.339   0.430   3.150  0.9400 -0.5114 -0.2132
 7577SOL    HW234368   0.407   0.341   3.053  0.5609  0.1289  3.0833
 7578SOL     OW34369   1.337   1.070   8.474  0.0135  0.4886 -0.4164
 7578SOL    HW134370   1.332   0.994   8.530 -1.5952  1.6375  0.9984
 7578SOL    HW234371   1.265   1.054   8.412 -0.1808 -0.9306  0.1800
 7579SOL     OW34372   1.183   3.749   4.264 -0.1566 -0.0088  0.3854
 7579SOL    HW134373   1.213   3.839   4.251  1.5852 -1.0932 -2.9657
 7579SOL    HW234374   1.088   3.759   4.263 -0.2106 -0.4722  0.6864
 7580SOL     OW34375   3.149   3.435   3.474 -0.8889  0.1756 -0.5478
 7580SOL    HW134376   3.172   3.349   3.509 -0.3479  0.7643  0.5507
 7580SOL    HW234377   3.203   3.493   3.528  0.6043  0.6649 -2.5722
 7581SOL     OW34378   2.847   0.180   4.141  0.8456 -0.0220  0.8038
 7581SOL    HW134379   2.863   0.273   4.157 -1.6099  0.3092  1.3645
 7581SOL    HW234380   2.794   0.180   4.061  0.7200  1.2310  0.8829
 7582SOL     OW34381   0.551   0.518   4.153  0.3159  0.2266 -0.2951
 7582SOL    HW134382   0.554   0.547   4.061  0.7846 -2.2205 -1.0507
 7582SOL    HW234383   0.644   0.494   4.157  0.0096 -0.9017 -0.0897
 7583SOL     OW34384   2.076   0.434  16.210  0.4140 -0.1615 -0.0327
 7583SOL    HW134385   2.014   0.361  16.202 -1.2145  1.2559 -0.5873
 7583SOL    HW234386   2.020   0.509  16.188 -0.1705 -0.7190 -0.4730
 7584SOL     OW34387   1.954   1.139   1.849  0.1315 -0.5735 -0.2889
 7584SOL    HW134388   1.987   1.057   1.888 -2.1594 -1.1139  0.5407
 7584SOL    HW234389   1.995   1.206   1.903 -0.9111 -1.1457  1.2397
 7585SOL     OW34390   0.645   3.904   3.027 -0.1400 -0.5785 -0.1986
 7585SOL    HW134391   0.604   3.837   3.083  0.4824  1.2510  2.4437
 7585SOL    HW234392   0.581   3.975   3.023  1.8639  1.2140 -0.2772
 7586SOL     OW34393   4.561   0.001   1.471  0.4378  0.1164 -0.5290
 7586SOL    HW134394   4.477   0.034   1.503  1.1851 -0.1109  1.6437
 7586SOL    HW234395   4.553   0.036   1.382 -0.0063  1.7615  0.1610
 7587SOL     OW34396   3.310   0.035   5.671  0.7691 -0.4446  0.4590
 7587SOL    HW134397   3.243   0.103   5.670 -0.7366 -1.9453 -0.8106
 7587SOL    HW234398   3.251   4.718   5.623 -0.2561  0.9202  0.0552
 7588SOL     OW34399   2.532   2.468   4.770 -0.4835  0.1686 -0.0350
 7588SOL    HW134400   2.560   2.394   4.824 -0.8343 -0.7410 -1.0935
 7588SOL    HW234401   2.598   2.529   4.801 -1.4143  1.2893 -0.2757
 7589SOL     OW34402   3.758   1.607   4.408  0.0805 -0.2774  0.0567
 7589SOL    HW134403   3.711   1.543   4.354  2.2760 -0.8134 -1.2206
 7589SOL    HW234404   3.696   1.675   4.434  1.4458  1.0396 -0.1182
 7590SOL     OW34405   3.827   0.622   7.722  0.1956 -0.0687  0.3764
 7590SOL    HW134406   3.805   0.529   7.716 -2.6557  0.6675 -0.8583
 7590SOL    HW234407   3.763   0.648   7.655  0.9733  1.2954  0.1667
 7591SOL     OW34408   1.658   1.565   3.957 -0.4426  0.1643 -0.0688
 7591SOL    HW134409   1.691   1.584   3.869  1.1655 -1.1287  0.2625
 7591SOL    HW234410   1.746   1.568   3.995 -0.3129  0.6586 -0.4059
 7592SOL     OW34411   3.183   4.297  11.672  0.5766 -0.5300  0.4589
 7592SOL    HW134412   3.242   4.371  11.659  0.7937 -1.0546 -1.5595
 7592SOL    HW234413   3.147   4.293  11.584  1.2945  0.3297  0.1237
 7593SOL     OW34414   0.131   1.322   1.812 -0.1005  0.6473 -0.3212
 7593SOL    HW134415   0.145   1.401   1.760  2.4450 -0.8050 -1.8440
 7593SOL    HW234416   0.206   1.266   1.791 -1.1791 -1.9937  2.8978
 7594SOL     OW34417   2.231   0.365   5.553 -0.1048  0.6589 -0.6379
 7594SOL    HW134418   2.154   0.406   5.515 -1.2205  0.5313  1.5443
 7594SOL    HW234419   2.199   0.349   5.641 -0.0623 -0.3283 -0.8025
 7595SOL     OW34420   4.390   1.166   1.799  0.7343  0.1479 -0.3933
 7595SOL    HW134421   4.340   1.094   1.838  0.7451 -0.2811 -1.1911
 7595SOL    HW234422   4.482   1.139   1.794  0.3740 -0.8702 -1.5596
 7596SOL     OW34423   4.373   2.989  14.389  0.2598  0.1397 -0.6496
 7596SOL    HW134424   4.425   2.964  14.313 -0.5702 -0.2418 -1.0856
 7596SOL    HW234425   4.395   2.909  14.437  0.4040  0.1594 -0.6813
 7597SOL     OW34426   2.084   3.427   7.928  0.3506 -0.1789  0.6733
 7597SOL    HW134427   2.153   3.479   7.970  0.3861 -0.3300  0.8024
 7597SOL    HW234428   2.013   3.446   7.989 -0.8316 -4.0266  0.5167
 7598SOL     OW34429   1.085   4.391   5.028 -0.0488  0.1702 -0.3266
 7598SOL    HW134430   1.177   4.417   5.018  0.6518 -2.7302 -1.4069
 7598SOL    HW234431   1.096   4.339   5.107 -1.2933 -1.0411 -0.9621
 7599SOL     OW34432   2.615   1.046   4.457 -0.7567  0.3108 -0.6563
 7599SOL    HW134433   2.690   1.055   4.516 -0.3507 -2.3377 -0.7589
 7599SOL    HW234434   2.647   1.082   4.375 -0.8891  0.0097 -0.8381
 7600SOL     OW34435   4.002   3.429   1.844 -0.2201 -0.3665  0.1767
 7600SOL    HW134436   3.999   3.523   1.828  1.3725 -0.4294 -0.5258
 7600SOL    HW234437   3.960   3.398   1.763 -0.6646  0.2380  0.1750
 7601SOL     OW34438   4.240   0.392   2.129 -0.2073  0.2011 -0.0724
 7601SOL    HW134439   4.328   0.427   2.113  0.6489 -1.4407  1.0735
 7601SOL    HW234440   4.239   0.321   2.065  0.1030 -0.9037  1.1667
 7602SOL     OW34441   1.985   1.804  11.103 -0.2988 -0.2520 -0.0850
 7602SOL    HW134442   1.953   1.715  11.122  0.0238 -0.1257  1.0533
 7602SOL    HW234443   2.067   1.811  11.151 -0.8897  1.4505  0.6585
 7603SOL     OW34444   0.236   3.023  13.168  0.6892  0.2079 -0.2197
 7603SOL    HW134445   0.214   2.965  13.095 -0.3745  1.6345 -1.0380
 7603SOL    HW234446   0.168   3.006  13.233 -0.5814  1.6927 -1.1674
 7604SOL     OW34447   4.102   0.770   4.032  0.3088  0.3106  0.3780
 7604SOL    HW134448   4.122   0.787   4.124 -0.7691  1.8088  0.3337
 7604SOL    HW234449   4.191   0.757   4.001  0.4054  1.6203  0.0963
 7605SOL     OW34450   3.891   4.442  11.705 -0.2065  0.1665  0.3918
 7605SOL    HW134451   3.974   4.400  11.730  0.6834  0.2366 -2.4021
 7605SOL    HW234452   3.898   4.433  11.610 -0.1469  4.0661  0.0127
 7606SOL     OW34453   2.476   4.571   2.064  0.1249 -0.2103  0.5131
 7606SOL    HW134454   2.457   4.662   2.040 -5.3344 -1.5434 -0.1610
 7606SOL    HW234455   2.492   4.534   1.977  3.5649  1.9706  0.1804
 7607SOL     OW34456   0.362   1.902   6.942 -0.4453 -0.0411 -0.4627
 7607SOL    HW134457   0.329   1.980   6.986 -1.3219 -0.4879 -0.3365
 7607SOL    HW234458   0.314   1.898   6.859 -2.7447  2.4856  0.7570
 7608SOL     OW34459   1.547   3.660   4.834  0.5529 -0.4231 -0.3202
 7608SOL    HW134460   1.584   3.574   4.812  2.2527 -0.1945  1.6472
 7608SOL    HW234461   1.521   3.692   4.747 -1.2849 -0.4044  0.2328
 7609SOL     OW34462   2.565   3.219   5.967 -0.3837  0.0900  0.3546
 7609SOL    HW134463   2.550   3.290   5.905  0.8289 -1.4509 -1.6690
 7609SOL    HW234464   2.490   3.226   6.027 -0.8189 -2.5194  0.1287
 7610SOL     OW34465   2.666   1.884   5.395 -0.3453 -0.2264 -0.6076
 7610SOL    HW134466   2.660   1.888   5.490 -2.0250  1.7492 -0.7907
 7610SOL    HW234467   2.639   1.795   5.375 -1.2016 -0.3351  1.0206
 7611SOL     OW34468   1.502   2.684   7.646 -0.0764  0.3140 -0.0862
 7611SOL    HW134469   1.577   2.674   7.588  0.6595 -2.8697  1.3783
 7611SOL    HW234470   1.439   2.635   7.593 -0.2858  1.0053 -0.4768
 7612SOL     OW34471   1.745   1.842   6.681  0.0999 -0.3730 -0.1493
 7612SOL    HW134472   1.799   1.883   6.749  0.4582  0.9969 -1.2686
 7612SOL    HW234473   1.733   1.757   6.722 -0.4220 -1.6349 -2.9259
 7613SOL     OW34474   0.030   3.555   8.478 -0.0492  0.0885  0.1585
 7613SOL    HW134475   0.118   3.591   8.466  0.2587 -0.5274  0.5974
 7613SOL    HW234476   0.005   3.596   8.560  0.4394 -0.4588  0.5823
 7614SOL     OW34477   0.445   1.094   2.216 -0.3868  0.2884  0.1208
 7614SOL    HW134478   0.445   1.114   2.122  2.3285  1.6459  0.4242
 7614SOL    HW234479   0.353   1.070   2.229 -0.8309  0.8179 -1.9330
 7615SOL     OW34480   1.149   0.793  17.612 -0.4884 -0.5399 -0.1305
 7615SOL    HW134481   1.092   0.849  17.559  0.6977  0.5604 -0.2517
 7615SOL    HW234482   1.201   0.853  17.666 -0.4052 -0.0489 -0.7458
 7616SOL     OW34483   3.401   0.108   3.423  0.4813  0.3736  0.1548
 7616SOL    HW134484   3.316   0.119   3.467 -0.6510  0.0720 -1.9311
 7616SOL    HW234485   3.385   0.030   3.369 -0.3308 -1.4171  2.9785
 7617SOL     OW34486   0.107   0.313   2.280  0.6224  0.1145 -0.3459
 7617SOL    HW134487   0.176   0.254   2.249  0.5596 -1.2500  2.1121
 7617SOL    HW234488   0.027   0.261   2.282  0.9603 -0.3747  0.2751
 7618SOL     OW34489   0.019   0.358   4.341 -0.3535  0.3701  0.0751
 7618SOL    HW134490   4.664   0.350   4.348 -0.3259  0.1067  0.1351
 7618SOL    HW234491   0.036   0.282   4.286  0.2884  0.2285  0.4780
 7619SOL     OW34492   1.645   3.304   5.828 -0.1525  0.5302  0.0940
 7619SOL    HW134493   1.626   3.221   5.872  0.0435  0.3558 -0.1499
 7619SOL    HW234494   1.630   3.374   5.891 -1.5542  0.4044 -0.1020
 7620SOL     OW34495   3.157   2.867  10.028  0.0514  0.3202  0.0274
 7620SOL    HW134496   3.193   2.924  10.096 -2.1445 -0.9745  2.2687
 7620SOL    HW234497   3.174   2.780  10.064  1.4346  1.7609  2.8039
 7621SOL     OW34498   0.190   0.799  12.387  0.4259  0.4594  0.1062
 7621SOL    HW134499   0.152   0.738  12.449 -1.2892  0.7337 -0.6786
 7621SOL    HW234500   0.274   0.824  12.425  0.0503  0.4411  0.9497
 7622SOL     OW34501   3.273   1.723  10.662 -0.1772 -0.2622  0.6285
 7622SOL    HW134502   3.239   1.765  10.742  1.8867 -2.0918  2.4718
 7622SOL    HW234503   3.328   1.657  10.704 -1.6174 -1.8582  0.0201
 7623SOL     OW34504   2.626   2.191   8.943  0.4289 -0.1827  0.0003
 7623SOL    HW134505   2.557   2.126   8.929 -0.0651 -0.1839  2.4985
 7623SOL    HW234506   2.611   2.253   8.871 -1.9535 -2.5190 -1.5139
 7624SOL     OW34507   3.691   3.726  12.382 -0.4821  0.3181  0.0132
 7624SOL    HW134508   3.612   3.680  12.355 -1.1545  0.6615  1.3825
 7624SOL    HW234509   3.754   3.701  12.314 -2.1217  0.9466 -1.7259
 7625SOL     OW34510   4.662   3.023  11.060 -0.6291 -0.6001  0.1243
 7625SOL    HW134511   4.649   3.080  10.983 -0.2088  0.8352  1.1092
 7625SOL    HW234512   4.741   3.057  11.101 -0.8756  1.0653 -0.7542
 7626SOL     OW34513   4.056   0.235  11.036 -0.2062 -0.3354 -0.5360
 7626SOL    HW134514   4.040   0.285  11.116 -0.4745 -1.1897 -0.0653
 7626SOL    HW234515   4.052   0.311  10.978  1.7639 -1.4202 -2.1130
 7627SOL     OW34516   2.788   2.519   4.866 -0.3798  0.2931 -0.4385
 7627SOL    HW134517   2.779   2.484   4.954 -1.3130 -1.6675 -1.3216
 7627SOL    HW234518   2.844   2.593   4.891 -0.4621  0.2275 -0.0588
 7628SOL     OW34519   2.012   3.278  12.827  0.4976  0.1742  0.6789
 7628SOL    HW134520   2.028   3.372  12.820 -2.0688  0.5657  0.0143
 7628SOL    HW234521   2.001   3.272  12.922  0.3592 -0.5140  0.6198
 7629SOL     OW34522   2.237   3.442  17.598 -0.0849 -0.0141 -0.3833
 7629SOL    HW134523   2.310   3.504  17.600 -1.4510  1.6104 -1.3575
 7629SOL    HW234524   2.252   3.410  17.509  2.5562  1.4546 -0.4755
 7630SOL     OW34525   0.953   1.064  17.678 -0.1579 -0.3896  0.5765
 7630SOL    HW134526   0.966   1.025  17.591 -0.1114  2.4778 -0.7072
 7630SOL    HW234527   1.017   1.136  17.677  0.8508 -1.3146 -1.6685
 7631SOL     OW34528   0.197   1.476   7.539  0.5000 -0.4076 -0.5814
 7631SOL    HW134529   0.126   1.431   7.492  0.4161 -0.2078 -0.6470
 7631SOL    HW234530   0.278   1.438   7.506  0.8914  0.8342 -1.0586
 7632SOL     OW34531   2.480   0.938   3.459 -0.4388  0.2987 -0.8251
 7632SOL    HW134532   2.409   0.882   3.428 -1.0523 -0.4949  2.0692
 7632SOL    HW234533   2.447   1.023   3.429 -1.7211 -0.2631 -0.9927
 7633SOL     OW34534   2.493   0.075   3.729  0.1094  0.1521  0.2234
 7633SOL    HW134535   2.402   0.061   3.702 -0.5941  3.2524  0.9949
 7633SOL    HW234536   2.533   0.120   3.655  1.2922  1.3815  1.6128
 7634SOL     OW34537   3.985   1.500   9.339  0.3768 -0.5540 -0.3501
 7634SOL    HW134538   3.898   1.536   9.350  0.1264 -1.3285  0.2251
 7634SOL    HW234539   3.991   1.438   9.412 -0.4793  1.0081  1.0315
 7635SOL     OW34540   4.508   0.019   6.996 -0.7393  0.1008  0.0819
 7635SOL    HW134541   4.462   4.676   6.990 -0.7518  0.1102  0.0444
 7635SOL    HW234542   4.589   4.723   7.031 -1.2313 -0.6084  0.4617
 7636SOL     OW34543   3.317   3.455  12.807  0.0428  0.8037 -0.3164
 7636SOL    HW134544   3.412   3.457  12.803  0.0747 -1.5439 -0.7814
 7636SOL    HW234545   3.306   3.499  12.891  0.2698  0.1746  0.0384
 7637SOL     OW34546   1.512   3.204  13.407 -0.2047 -0.6085  0.3117
 7637SOL    HW134547   1.565   3.231  13.482  1.4623 -0.7991 -0.8114
 7637SOL    HW234548   1.587   3.208  13.348 -0.4184 -0.4457  0.0482
 7638SOL     OW34549   2.944   1.895   5.318  0.7739  0.1642  0.2404
 7638SOL    HW134550   2.849   1.889   5.307  0.6293  0.2762  1.4508
 7638SOL    HW234551   2.972   1.959   5.253 -3.1470  1.7496  0.1622
 7639SOL     OW34552   0.150   3.815   6.141 -0.2229  0.0978  0.4384
 7639SOL    HW134553   0.226   3.759   6.124 -0.6010 -0.5981  1.0537
 7639SOL    HW234554   0.083   3.787   6.078 -0.7263 -0.2350  1.1220
 7640SOL     OW34555   4.433   3.099   7.947  0.6264  0.5871  0.0157
 7640SOL    HW134556   4.499   3.034   7.924 -0.0987 -0.6261  1.4008
 7640SOL    HW234557   4.356   3.062   7.904 -0.0299  3.4296 -1.2579
 7641SOL     OW34558   3.311   1.673   5.061  0.2456 -0.7139  0.8547
 7641SOL    HW134559   3.229   1.685   5.108  0.6732  1.6184  1.0152
 7641SOL    HW234560   3.329   1.767   5.057  0.6244 -0.8499 -0.8074
 7642SOL     OW34561   2.007   2.982   5.899  0.2364 -0.2302 -0.3368
 7642SOL    HW134562   2.026   2.895   5.935 -0.4611 -0.7445 -1.2078
 7642SOL    HW234563   2.083   2.988   5.841  1.7001 -1.4914  1.4390
 7643SOL     OW34564   3.123   4.123   2.210  0.0295  0.1043  0.4661
 7643SOL    HW134565   3.136   4.030   2.190  0.5576  0.1781  0.4666
 7643SOL    HW234566   3.194   4.140   2.272  1.9941 -1.2049 -1.3979
 7644SOL     OW34567   3.051   3.745   7.621  0.0795 -0.5656 -0.3261
 7644SOL    HW134568   2.962   3.738   7.585 -0.9036 -0.6238  2.0576
 7644SOL    HW234569   3.033   3.691   7.699 -0.3757  0.0954  0.0230
 7645SOL     OW34570   3.253   0.268  14.912  0.1721  0.0597 -0.0274
 7645SOL    HW134571   3.244   0.255  15.006 -1.5361  2.5426  0.1618
 7645SOL    HW234572   3.195   0.339  14.885  0.3494 -0.1266 -0.8982
 7646SOL     OW34573   2.223   1.097   6.680  0.7278 -0.2891  0.3951
 7646SOL    HW134574   2.147   1.049   6.713 -0.1738  0.1869 -0.9652
 7646SOL    HW234575   2.231   1.168   6.743 -1.6024 -0.3830  0.8292
 7647SOL     OW34576   4.122   2.106   6.890  0.8188 -0.2578  0.0811
 7647SOL    HW134577   4.204   2.058   6.882  0.8132  0.0460 -1.8105
 7647SOL    HW234578   4.105   2.131   6.800 -2.0312  0.1279  0.7249
 7648SOL     OW34579   4.121   1.388  14.815  0.3812 -0.5066 -0.0385
 7648SOL    HW134580   4.080   1.454  14.870 -0.1351 -2.2354  1.6511
 7648SOL    HW234581   4.065   1.408  14.739 -2.3414 -0.8020  1.9101
 7649SOL     OW34582   3.518   0.661   6.895 -0.2411 -0.7066 -0.6211
 7649SOL    HW134583   3.434   0.677   6.851  1.6658 -0.2852 -4.1802
 7649SOL    HW234584   3.576   0.628   6.826 -0.9412 -0.4313 -1.3505
 7650SOL     OW34585   1.978   1.379  12.031 -0.6493 -0.0705 -0.4791
 7650SOL    HW134586   1.917   1.318  12.072 -0.5984 -0.9441 -1.6961
 7650SOL    HW234587   2.014   1.416  12.111 -0.3994  0.8005 -0.9907
 7651SOL     OW34588   4.080   0.175  10.126 -0.0010 -0.7521 -0.4724
 7651SOL    HW134589   4.011   0.230  10.164  0.2785  0.8131 -2.2796
 7651SOL    HW234590   4.044   0.086  10.129 -1.4675 -0.1093  1.1752
 7652SOL     OW34591   3.564   1.385   5.666 -0.5550 -0.2085 -0.0538
 7652SOL    HW134592   3.618   1.456   5.630 -0.5191  0.1971  0.7930
 7652SOL    HW234593   3.513   1.435   5.730 -2.5086 -0.1120 -1.7171
 7653SOL     OW34594   1.848   3.302   0.506 -0.0122 -0.4884 -0.0376
 7653SOL    HW134595   1.759   3.267   0.510 -0.6667  1.3463  1.5989
 7653SOL    HW234596   1.838   3.352   0.425  1.5954 -0.8681 -0.4623
 7654SOL     OW34597   1.739   4.262  12.253 -0.1915 -0.9551  0.1835
 7654SOL    HW134598   1.719   4.276  12.345  0.7009  1.0261  0.0829
 7654SOL    HW234599   1.833   4.281  12.259 -0.4420 -0.6100  2.6185
 7655SOL     OW34600   2.368   3.173   6.536  0.3711  0.4501 -0.4282
 7655SOL    HW134601   2.447   3.123   6.555  0.1332  0.8285  1.5702
 7655SOL    HW234602   2.309   3.109   6.495 -1.5453  2.3824 -0.7040
 7656SOL     OW34603   4.002   3.683   6.729 -0.0842 -0.1371  0.5891
 7656SOL    HW134604   4.022   3.678   6.822 -0.4550  2.3098  0.7903
 7656SOL    HW234605   3.930   3.621   6.717 -2.0167  1.9077  1.6729
 7657SOL     OW34606   2.680   1.074   4.169 -0.3810 -0.3635 -0.6704
 7657SOL    HW134607   2.726   1.153   4.142 -1.5244  0.4925 -0.0921
 7657SOL    HW234608   2.746   1.005   4.160  0.2544 -0.1486  2.2694
 7658SOL     OW34609   1.455   0.675   6.943  0.2088  0.1425 -0.0233
 7658SOL    HW134610   1.476   0.706   7.031  0.9338 -1.5718  0.4028
 7658SOL    HW234611   1.365   0.708   6.943  0.3263  0.4298 -2.6555
 7659SOL     OW34612   4.067   4.120  11.254 -0.6063 -0.2410  0.5635
 7659SOL    HW134613   4.095   4.047  11.199 -0.3944  0.5914 -0.4207
 7659SOL    HW234614   4.021   4.169  11.186 -0.0913  0.3572  0.6499
 7660SOL     OW34615   1.491   4.342   8.378 -0.0941  0.8476 -0.3661
 7660SOL    HW134616   1.505   4.436   8.370 -1.1744  1.0549  0.1381
 7660SOL    HW234617   1.408   4.340   8.426  1.0299  0.1772  1.5981
 7661SOL     OW34618   2.300   2.469   6.920 -0.4641  0.3428  0.5310
 7661SOL    HW134619   2.270   2.527   6.850  0.6296  0.2570 -0.0233
 7661SOL    HW234620   2.390   2.502   6.925 -0.3286 -0.3638  2.7085
 7662SOL     OW34621   1.825   0.634  14.152  0.1663 -0.5695  0.4720
 7662SOL    HW134622   1.786   0.663  14.069 -0.3365  2.2121  1.6684
 7662SOL    HW234623   1.780   0.551  14.165 -0.5592  0.1013  2.1992
 7663SOL     OW34624   1.104   2.419  15.500  0.2995 -0.1149 -0.6259
 7663SOL    HW134625   1.108   2.331  15.537 -0.4798 -0.2827 -0.9331
 7663SOL    HW234626   1.194   2.432  15.470  0.0145  1.7302 -0.6948
 7664SOL     OW34627   4.447   4.394   7.630 -0.9588 -0.2257  0.5136
 7664SOL    HW134628   4.445   4.311   7.679 -0.7800 -0.6367 -0.1733
 7664SOL    HW234629   4.439   4.362   7.541  0.8336 -0.6144  0.5002
 7665SOL     OW34630   4.224   3.237   7.171 -0.5263  0.6611 -0.0953
 7665SOL    HW134631   4.276   3.251   7.092  1.7975 -1.5901  1.0350
 7665SOL    HW234632   4.258   3.312   7.220  0.3322 -0.7438  1.4450
 7666SOL     OW34633   1.269   1.837   7.529 -0.2474  0.8999 -0.1877
 7666SOL    HW134634   1.220   1.866   7.453 -0.6377  0.1573 -0.2236
 7666SOL    HW234635   1.228   1.752   7.547  3.6530 -0.9681 -0.1444
 7667SOL     OW34636   2.716   4.466   4.387  0.5372 -0.5140  0.3845
 7667SOL    HW134637   2.707   4.557   4.417 -0.0359 -0.5183  0.2389
 7667SOL    HW234638   2.782   4.475   4.318  0.1859  2.8953  0.5070
 7668SOL     OW34639   1.958   4.628  16.677 -0.1665 -0.3802  0.3968
 7668SOL    HW134640   1.878   4.680  16.671 -0.3670 -0.3316  3.2794
 7668SOL    HW234641   1.923   4.546  16.643  0.7516 -1.3925  1.8605
 7669SOL     OW34642   3.699   3.504   5.240 -0.8657 -0.0179  0.0588
 7669SOL    HW134643   3.615   3.542   5.216 -0.7370 -0.6872 -1.4449
 7669SOL    HW234644   3.750   3.567   5.190  0.4085 -2.7098 -2.0135
 7670SOL     OW34645   3.218   4.731   8.754 -0.2933  0.4817  0.5907
 7670SOL    HW134646   3.162   4.657   8.778 -0.2007 -0.2728 -1.5378
 7670SOL    HW234647   3.282   4.682   8.704 -1.0198  0.6256 -0.4908
 7671SOL     OW34648   3.303   4.137  16.080 -0.5189  0.2297 -0.2024
 7671SOL    HW134649   3.228   4.196  16.081  0.2871  1.2801 -1.5722
 7671SOL    HW234650   3.297   4.091  15.996 -2.0865 -0.1754  0.1262
 7672SOL     OW34651   1.054   1.168   7.502  0.0850  0.2692 -0.9470
 7672SOL    HW134652   1.111   1.215   7.441  0.2640  1.5508  0.2135
 7672SOL    HW234653   1.038   1.084   7.458 -0.0760 -1.9245  3.3188
 7673SOL     OW34654   0.489   4.627   8.686 -0.3456 -0.3920  0.0496
 7673SOL    HW134655   0.433   4.704   8.693  1.5491  0.8828  1.1944
 7673SOL    HW234656   0.530   4.636   8.600  1.3140  1.4616  1.0253
 7674SOL     OW34657   1.549   4.328  16.547 -0.0738  0.1105 -0.5995
 7674SOL    HW134658   1.500   4.286  16.617  0.4939  1.0253  0.3393
 7674SOL    HW234659   1.479   4.352  16.486  0.2925  3.0930  0.1611
 7675SOL     OW34660   2.390   3.485   2.709 -0.3785 -0.0771  0.1863
 7675SOL    HW134661   2.388   3.433   2.629 -0.9408  0.8602 -0.4092
 7675SOL    HW234662   2.426   3.416   2.765  0.2442  1.3631  1.5756
 7676SOL     OW34663   4.699   3.762   5.419 -0.1953  0.3985  0.5955
 7676SOL    HW134664   4.604   3.753   5.405 -0.0528  1.2426 -0.9442
 7676SOL    HW234665   4.720   3.669   5.422 -1.3890  0.2236  3.9029
 7677SOL     OW34666   1.730   0.223  15.671  0.0654  0.2835  0.1568
 7677SOL    HW134667   1.817   0.260  15.657  0.2742 -0.3632 -0.2553
 7677SOL    HW234668   1.687   0.296  15.716 -1.6090  0.2371 -1.3950
 7678SOL     OW34669   1.080   0.671   6.413 -0.4371  0.1415 -0.4486
 7678SOL    HW134670   1.025   0.743   6.382 -0.2683 -0.0198 -1.1196
 7678SOL    HW234671   1.056   0.612   6.341 -0.0238 -0.7916  0.1808
 7679SOL     OW34672   3.495   2.384   6.858  0.0943 -0.0842  0.4132
 7679SOL    HW134673   3.451   2.463   6.826  0.0738 -0.7021 -1.0673
 7679SOL    HW234674   3.437   2.350   6.925  1.3339  0.2503  1.6633
 7680SOL     OW34675   2.118   4.206   8.021  0.3040  0.0855  0.2885
 7680SOL    HW134676   2.079   4.241   7.940  0.9505  2.3747  0.9627
 7680SOL    HW234677   2.203   4.181   7.983  0.9532  0.5932  1.4134
 7681SOL     OW34678   3.178   4.564   1.719 -0.4784  0.2993 -0.3381
 7681SOL    HW134679   3.267   4.536   1.701 -0.7238 -0.8581  0.2541
 7681SOL    HW234680   3.141   4.476   1.724  0.5651 -0.0544  1.1628
 7682SOL     OW34681   0.477   4.438   4.720  0.1032  0.2142  0.1947
 7682SOL    HW134682   0.449   4.521   4.759 -1.8589  0.9815 -2.7837
 7682SOL    HW234683   0.513   4.390   4.794  1.7653  2.0838  0.6047
 7683SOL     OW34684   4.202   2.120  16.649  0.8376  0.3164 -0.3810
 7683SOL    HW134685   4.126   2.086  16.696  0.2824 -1.1192 -2.2930
 7683SOL    HW234686   4.160   2.188  16.596  0.6360  0.0596 -0.5506
 7684SOL     OW34687   0.043   3.522  12.812 -0.4160  0.0457 -0.5844
 7684SOL    HW134688   4.699   3.546  12.774 -0.3219  1.3090  0.0031
 7684SOL    HW234689   0.102   3.528  12.736 -0.6094  2.2817 -0.5703
 7685SOL     OW34690   3.306   4.594  12.308 -0.2063  0.3841  0.8766
 7685SOL    HW134691   3.310   4.656  12.380  1.0313  0.5365  0.6810
 7685SOL    HW234692   3.396   4.562  12.313 -0.6993 -1.0226  0.7357
 7686SOL     OW34693   2.457   1.400   0.855  0.4341 -0.4584  0.5179
 7686SOL    HW134694   2.424   1.326   0.907 -0.2298  0.2294  1.0787
 7686SOL    HW234695   2.521   1.365   0.793  1.7817  0.5428  1.3475
 7687SOL     OW34696   2.124   3.454   3.338 -0.1252  0.2010 -0.0494
 7687SOL    HW134697   2.109   3.366   3.302  1.0986  0.6405 -1.6262
 7687SOL    HW234698   2.136   3.518   3.268 -0.6738  1.3401  0.9140
 7688SOL     OW34699   3.061   2.945   4.140 -0.1577  0.2154 -0.4513
 7688SOL    HW134700   2.982   2.997   4.155 -0.5605 -1.0963  1.9726
 7688SOL    HW234701   3.115   3.001   4.084 -0.8957  1.1957 -0.1903
 7689SOL     OW34702   4.578   0.027   5.906 -0.4832 -0.4483 -0.2220
 7689SOL    HW134703   4.639   4.713   5.857 -0.1055  0.5912 -0.8960
 7689SOL    HW234704   4.571   4.715   5.986 -0.7427 -2.3131 -1.4831
 7690SOL     OW34705   3.411   1.926   7.645 -0.4654  0.2628  0.5204
 7690SOL    HW134706   3.496   1.884   7.658 -0.6752  0.2878  1.9296
 7690SOL    HW234707   3.359   1.851   7.617  2.2392 -0.8141 -1.5999
 7691SOL     OW34708   3.541   3.275   3.511 -0.5157 -0.8019  0.5179
 7691SOL    HW134709   3.622   3.228   3.490 -0.5077 -0.2465 -0.6974
 7691SOL    HW234710   3.503   3.286   3.424  1.1481 -1.6689 -0.3183
 7692SOL     OW34711   2.240   3.763   9.416  0.1588 -0.0184  0.3074
 7692SOL    HW134712   2.150   3.781   9.444  0.9550 -0.0873  2.8473
 7692SOL    HW234713   2.286   3.808   9.486  0.1323  1.0422 -0.3589
 7693SOL     OW34714   0.176   3.628   1.810 -0.4922  0.0432 -0.0415
 7693SOL    HW134715   0.141   3.575   1.881  0.9459 -0.1470  0.5374
 7693SOL    HW234716   0.263   3.589   1.802 -0.1705  0.9111 -0.7668
 7694SOL     OW34717   1.409   3.316   0.613 -0.4893  0.2157 -0.4987
 7694SOL    HW134718   1.429   3.274   0.529  0.7800 -0.1059 -0.0413
 7694SOL    HW234719   1.315   3.314   0.597 -0.7073  0.5932  0.7551
 7695SOL     OW34720   4.062   2.361   4.897 -0.1702 -0.4229  0.1434
 7695SOL    HW134721   4.010   2.394   4.823  0.1392  2.2425  1.1009
 7695SOL    HW234722   4.005   2.287   4.919  0.7285 -1.2051 -0.1881
 7696SOL     OW34723   1.841   4.027   2.683  0.0633  0.0200 -0.0044
 7696SOL    HW134724   1.824   4.043   2.776 -0.3657 -0.3223 -0.0227
 7696SOL    HW234725   1.907   4.095   2.672  0.7057 -0.3682  1.4034
 7697SOL     OW34726   4.085   2.811   5.328  0.0708 -0.5918  0.2467
 7697SOL    HW134727   4.161   2.857   5.363  1.1577 -2.8842  0.8653
 7697SOL    HW234728   4.087   2.842   5.238 -1.0288  2.1453  1.1458
 7698SOL     OW34729   1.470   0.891   4.366 -0.1049  0.1483  0.5745
 7698SOL    HW134730   1.447   0.879   4.458 -0.4638 -1.5129  0.2674
 7698SOL    HW234731   1.546   0.945   4.387 -0.9012  0.9238  1.4709
 7699SOL     OW34732   3.585   0.032   2.600  0.3382  0.0950 -0.6111
 7699SOL    HW134733   3.562   4.693   2.552 -0.7470 -1.4373  2.4629
 7699SOL    HW234734   3.671   0.020   2.640 -0.1266  1.4978  0.7741
 7700SOL     OW34735   2.701   3.593  17.305 -0.0781 -0.0382  0.7559
 7700SOL    HW134736   2.654   3.548  17.235 -1.7491  0.5648  1.4898
 7700SOL    HW234737   2.774   3.623  17.250 -0.0089  1.2789  1.5679
 7701SOL     OW34738   0.610   1.817   6.607 -0.1905  0.5818 -0.1822
 7701SOL    HW134739   0.595   1.832   6.514 -0.9891  0.8619 -0.0076
 7701SOL    HW234740   0.618   1.907   6.639 -1.6413  0.1731  1.3203
 7702SOL     OW34741   1.418   2.207   6.716  0.0209  0.1300  0.0635
 7702SOL    HW134742   1.504   2.245   6.734 -0.1853  1.5622 -1.9513
 7702SOL    HW234743   1.440   2.124   6.757  2.4975  0.4546 -0.5931
 7703SOL     OW34744   0.513   3.521   8.336 -0.5414 -0.2272 -0.2338
 7703SOL    HW134745   0.528   3.497   8.245 -0.1919 -0.0115 -0.2339
 7703SOL    HW234746   0.471   3.444   8.375 -1.2704 -1.2828 -3.1328
 7704SOL     OW34747   4.164   2.995   2.710 -0.1300 -0.1173  0.0674
 7704SOL    HW134748   4.162   3.069   2.649 -0.3934 -0.3473 -0.2059
 7704SOL    HW234749   4.101   3.015   2.780 -1.1481 -0.0920 -0.8500
 7705SOL     OW34750   1.998   0.039  16.341  0.2172 -0.3737  0.7349
 7705SOL    HW134751   2.020   0.051  16.249 -0.1155 -0.5149  0.6377
 7705SOL    HW234752   2.073   0.078  16.386 -0.8775 -0.5154  2.6828
 7706SOL     OW34753   0.498   0.117   7.862  0.4762 -0.1289  0.0053
 7706SOL    HW134754   0.410   0.110   7.899  1.0243  1.5053  1.6563
 7706SOL    HW234755   0.542   0.042   7.902  2.2799 -0.2479 -2.2051
 7707SOL     OW34756   2.423   0.849   2.486  0.3967  0.1870  0.1812
 7707SOL    HW134757   2.373   0.767   2.490  2.4245 -0.9874  1.1297
 7707SOL    HW234758   2.468   0.840   2.402  0.6536  0.4510  0.2922
 7708SOL     OW34759   2.231   0.843   1.394 -0.9232  0.5268 -0.4432
 7708SOL    HW134760   2.223   0.915   1.456 -0.9376 -0.6714  0.9490
 7708SOL    HW234761   2.298   0.875   1.333  4.1474 -2.1260  3.7006
 7709SOL     OW34762   3.018   0.723   7.235 -0.5905  0.2505 -0.3660
 7709SOL    HW134763   2.969   0.679   7.165 -1.4379  1.6266 -0.6372
 7709SOL    HW234764   3.107   0.714   7.200 -0.4526  2.6903 -0.6675
 7710SOL     OW34765   3.786   0.273  14.189  0.2801  0.3384 -0.2662
 7710SOL    HW134766   3.838   0.278  14.269  2.1932  2.2385 -1.6404
 7710SOL    HW234767   3.815   0.350  14.141  1.2286 -0.7092 -1.3693
 7711SOL     OW34768   0.637   0.518   4.548  0.4534  0.3081  0.0828
 7711SOL    HW134769   0.659   0.499   4.456  0.9181 -1.6900  0.6050
 7711SOL    HW234770   0.713   0.475   4.588  1.3840  0.3967 -1.5449
 7712SOL     OW34771   3.456   3.263   8.701 -0.2539  0.3609 -0.1411
 7712SOL    HW134772   3.368   3.231   8.722  0.1323 -1.8216 -1.7864
 7712SOL    HW234773   3.512   3.187   8.717  0.8784  0.9533 -1.3047
 7713SOL     OW34774   1.411   1.593   6.399  0.8438  0.1789  0.1941
 7713SOL    HW134775   1.384   1.503   6.384 -2.1875  1.0786  0.2011
 7713SOL    HW234776   1.501   1.582   6.430  0.2952 -0.3803  1.6220
 7714SOL     OW34777   2.595   1.410   5.319 -0.0466 -0.0045  0.0773
 7714SOL    HW134778   2.558   1.467   5.387 -1.2186 -0.4249 -0.2112
 7714SOL    HW234779   2.525   1.423   5.256  0.8635 -0.0309 -0.9352
 7715SOL     OW34780   0.063   0.994   5.679  0.3477 -0.0811 -0.2857
 7715SOL    HW134781   0.063   0.910   5.725  1.0708  0.2167  0.2525
 7715SOL    HW234782   0.083   0.977   5.586 -1.0771 -0.9438 -0.4339
 7716SOL     OW34783   2.577   2.620   5.061 -0.0823  0.1599  0.3472
 7716SOL    HW134784   2.533   2.657   4.985 -0.3813 -0.1954  0.3506
 7716SOL    HW234785   2.510   2.569   5.106 -0.2608  0.7964  0.8068
 7717SOL     OW34786   0.664   4.328   2.592 -0.5375 -0.2217 -0.0205
 7717SOL    HW134787   0.744   4.301   2.546  0.6603 -1.0470  2.5296
 7717SOL    HW234788   0.676   4.269   2.666  0.3085  1.7381  1.4187
 7718SOL     OW34789   1.066   1.876   0.219 -0.0075  0.0648  0.1194
 7718SOL    HW134790   1.078   1.966   0.190 -0.4496  0.0657 -0.0727
 7718SOL    HW234791   1.004   1.878   0.292 -1.3059  0.2709 -0.9841
 7719SOL     OW34792   0.167   0.656   7.464  0.1426 -0.3928  0.0869
 7719SOL    HW134793   0.209   0.588   7.411 -1.2222 -1.6181  0.5732
 7719SOL    HW234794   0.239   0.692   7.515 -1.2850  0.9854  1.1145
 7720SOL     OW34795   3.099   1.472  10.871  0.4415 -0.1721 -0.2711
 7720SOL    HW134796   3.161   1.532  10.913 -0.5403  1.2701 -0.8802
 7720SOL    HW234797   3.101   1.402  10.936  0.3886  0.2020  0.1335
 7721SOL     OW34798   4.621   3.418  12.999  0.7408  0.0306 -0.1769
 7721SOL    HW134799   4.679   3.470  12.944 -0.9467  1.1170 -0.9347
 7721SOL    HW234800   4.681   3.356  13.040  0.2447 -0.9106 -0.8727
 7722SOL     OW34801   3.484   4.053   2.964 -0.1569  0.4598  0.2562
 7722SOL    HW134802   3.562   4.049   3.020 -0.5574  0.1175  0.7781
 7722SOL    HW234803   3.524   4.009   2.889 -2.4672  1.6173 -1.6849
 7723SOL     OW34804   4.456   2.836   9.242  0.0536  0.1440  0.2890
 7723SOL    HW134805   4.488   2.897   9.175 -0.2689  1.3601  1.2205
 7723SOL    HW234806   4.364   2.858   9.256 -0.4459 -1.5664 -0.3630
 7724SOL     OW34807   1.284   0.942   6.902 -0.0427  0.5359  0.2622
 7724SOL    HW134808   1.333   0.948   6.984 -2.4255  2.0648  1.5636
 7724SOL    HW234809   1.360   0.935   6.843 -0.0799  1.0978  0.1484
 7725SOL     OW34810   0.969   2.165   2.811  0.5839  0.1279  0.2456
 7725SOL    HW134811   0.932   2.250   2.836 -0.0987  0.5791 -2.2806
 7725SOL    HW234812   1.061   2.173   2.836  0.3744  4.1983 -0.1791
 7726SOL     OW34813   1.896   4.397   4.266 -0.0980  0.2298  0.6014
 7726SOL    HW134814   1.962   4.384   4.334 -0.3595  0.7262  0.9447
 7726SOL    HW234815   1.937   4.470   4.221  1.5548 -0.7840  0.4656
 7727SOL     OW34816   1.010   0.613   1.747  0.2004 -0.5105 -0.0205
 7727SOL    HW134817   1.015   0.631   1.840  2.4979  0.3913 -0.3183
 7727SOL    HW234818   1.101   0.609   1.718 -0.1746  1.3718 -1.4663
 7728SOL     OW34819   0.554   3.697  10.216  0.1667  0.0060  0.4955
 7728SOL    HW134820   0.637   3.736  10.242  0.3300  0.4040 -0.6183
 7728SOL    HW234821   0.563   3.604  10.237  0.8692 -0.1043 -0.3176
 7729SOL     OW34822   3.613   1.834  10.821  0.0472  0.1232 -0.4590
 7729SOL    HW134823   3.677   1.905  10.815  1.4359 -0.7623  3.7805
 7729SOL    HW234824   3.554   1.854  10.748 -0.8528  0.5636  0.3928
 7730SOL     OW34825   1.399   2.698   6.896  0.0693  0.9705  0.0441
 7730SOL    HW134826   1.380   2.788   6.922 -0.5923  1.1953 -1.2164
 7730SOL    HW234827   1.311   2.663   6.908  0.1139  0.9742  0.4016
 7731SOL     OW34828   3.706   4.203  16.452 -0.4919 -0.0445  0.5576
 7731SOL    HW134829   3.771   4.142  16.486  0.1583 -0.6301 -1.7267
 7731SOL    HW234830   3.759   4.280  16.428  2.5051 -1.4753  2.5463
 7732SOL     OW34831   0.525   1.392  16.592  0.1619 -0.2487  0.0167
 7732SOL    HW134832   0.597   1.333  16.616 -1.4117 -0.9357  3.0759
 7732SOL    HW234833   0.573   1.471  16.617 -0.4935 -0.8271  3.1204
 7733SOL     OW34834   2.593   2.594   8.080  0.6866  0.0304 -0.2553
 7733SOL    HW134835   2.683   2.576   8.055  0.4068 -2.5944  0.6089
 7733SOL    HW234836   2.599   2.672   8.135 -1.1315  0.9736 -1.3740
 7734SOL     OW34837   3.270   3.619   6.055 -0.7125 -0.4617  1.2007
 7734SOL    HW134838   3.362   3.644   6.052 -1.2649  1.1328 -2.5039
 7734SOL    HW234839   3.279   3.538   6.005  1.0760 -0.3267  1.3161
 7735SOL     OW34840   2.158   4.390   7.054 -0.7489 -0.0483  0.0104
 7735SOL    HW134841   2.185   4.394   6.962  1.8535  0.6964  0.8069
 7735SOL    HW234842   2.132   4.298   7.058  1.9373 -0.8174 -0.6248
 7736SOL     OW34843   2.107   3.986  12.500  0.0451 -0.4123  0.3479
 7736SOL    HW134844   2.153   3.912  12.461 -0.9938 -0.3382 -1.0044
 7736SOL    HW234845   2.113   4.049  12.429  4.5482  0.5124  1.5084
 7737SOL     OW34846   3.398   1.307   6.530 -0.4824 -0.3289 -0.2962
 7737SOL    HW134847   3.466   1.261   6.479 -0.4146 -2.7002  1.8918
 7737SOL    HW234848   3.328   1.242   6.523 -1.0479  0.4469 -1.5994
 7738SOL     OW34849   4.655   2.856  13.920  0.6524 -0.5134 -0.0364
 7738SOL    HW134850   4.598   2.807  13.860  1.7759 -2.6452  0.6321
 7738SOL    HW234851   4.670   2.780  13.977  1.4342 -0.2668  0.0911
 7739SOL     OW34852   0.838   4.256   7.194 -0.0557 -0.5796  0.5211
 7739SOL    HW134853   0.774   4.295   7.253  2.1078 -0.9885  3.1187
 7739SOL    HW234854   0.838   4.165   7.223 -1.9068 -0.8806 -0.4181
 7740SOL     OW34855   1.787   2.000   1.848  0.7797  0.5811  0.0956
 7740SOL    HW134856   1.808   2.089   1.876  0.7890  0.3244  0.9249
 7740SOL    HW234857   1.697   2.013   1.818  1.1198  1.8094 -0.3949
 7741SOL     OW34858   4.235   2.232   7.157 -0.5817  0.2063 -0.3079
 7741SOL    HW134859   4.253   2.140   7.138  1.3765  0.0468  2.4130
 7741SOL    HW234860   4.192   2.259   7.076  1.6729  0.3065 -1.4939
 7742SOL     OW34861   3.777   0.462   4.203 -0.0392 -0.0412  0.2108
 7742SOL    HW134862   3.706   0.461   4.267 -0.0642  0.2118  0.1861
 7742SOL    HW234863   3.760   0.373   4.173  0.5378  0.2444 -0.9619
 7743SOL     OW34864   2.557   4.722  16.449  0.6789  0.9450  0.4924
 7743SOL    HW134865   2.541   4.696  16.358 -1.7235  3.3225  0.2328
 7743SOL    HW234866   2.569   0.076  16.440  0.2604  0.9678  0.1678
 7744SOL     OW34867   1.359   2.045   8.312  0.5737 -0.3034 -0.6018
 7744SOL    HW134868   1.310   2.090   8.244 -1.7572 -1.6803  0.1639
 7744SOL    HW234869   1.339   2.106   8.383 -0.1555 -0.5998 -0.5423
 7745SOL     OW34870   3.415   0.552  12.121 -0.3536 -0.2014 -0.5629
 7745SOL    HW134871   3.331   0.507  12.122 -0.7289  0.5636  1.7635
 7745SOL    HW234872   3.419   0.588  12.210  0.1347 -0.7643 -0.3561
 7746SOL     OW34873   2.174   3.442   4.596 -0.0628  0.0978 -0.0458
 7746SOL    HW134874   2.242   3.472   4.656  0.2007 -0.2145 -0.1948
 7746SOL    HW234875   2.200   3.479   4.512 -0.2846  0.9002  0.2417
 7747SOL     OW34876   4.466   1.967   6.371 -0.2307  0.2298  0.1512
 7747SOL    HW134877   4.409   2.012   6.434 -0.4772  1.1732 -0.7309
 7747SOL    HW234878   4.429   2.008   6.292  0.1806 -0.1144 -0.2234
 7748SOL     OW34879   0.935   2.556   3.842  0.0383  0.6268  0.1887
 7748SOL    HW134880   1.016   2.515   3.874 -0.0165  0.2004 -0.2163
 7748SOL    HW234881   0.962   2.635   3.795  0.9498 -1.5192 -2.9188
 7749SOL     OW34882   2.272   0.218   9.177  0.4870  0.2129 -0.1415
 7749SOL    HW134883   2.287   0.127   9.152 -0.1322  0.2825 -0.7714
 7749SOL    HW234884   2.349   0.246   9.227  0.2511 -1.3069  1.0405
 7750SOL     OW34885   0.509   4.344   6.558  0.2762 -0.7582  0.2728
 7750SOL    HW134886   0.472   4.295   6.485 -1.7555  2.5059 -0.8818
 7750SOL    HW234887   0.473   4.433   6.553  2.0228 -0.1034 -0.6645
 7751SOL     OW34888   4.150   4.099   0.697 -0.1141  0.1272  0.3445
 7751SOL    HW134889   4.151   4.180   0.748 -1.0210  0.8219 -0.7489
 7751SOL    HW234890   4.057   4.074   0.704  0.5211 -2.4442 -0.3919
 7752SOL     OW34891   0.742   3.013   7.666  0.4325 -0.3300 -0.1987
 7752SOL    HW134892   0.735   3.052   7.753 -0.8450 -2.9713  0.8765
 7752SOL    HW234893   0.725   2.925   7.698 -1.9907  0.0426 -0.3958
 7753SOL     OW34894   3.363   2.440   4.663 -0.2027  0.4746  0.1420
 7753SOL    HW134895   3.389   2.524   4.703  1.1815  0.3258 -0.4242
 7753SOL    HW234896   3.283   2.465   4.617 -1.2568  0.2169  1.8688
 7754SOL     OW34897   0.924   1.552   2.571 -0.3168 -0.1461  0.6980
 7754SOL    HW134898   1.018   1.546   2.585 -0.0017  2.3602 -0.2357
 7754SOL    HW234899   0.909   1.458   2.562 -2.5491  0.2220  0.5727
 7755SOL     OW34900   1.064   2.550   3.026 -0.1522 -0.6863  0.0199
 7755SOL    HW134901   1.126   2.606   2.978 -1.5144  0.9881  0.1969
 7755SOL    HW234902   1.095   2.465   2.994  1.2565 -0.1172 -0.1479
 7756SOL     OW34903   4.119   0.805   7.849 -0.1197 -0.2355  0.4578
 7756SOL    HW134904   4.148   0.768   7.932 -1.4542  1.3860  1.6377
 7756SOL    HW234905   4.024   0.795   7.858 -0.1488 -0.5516 -0.1431
 7757SOL     OW34906   1.991   1.924   5.170 -0.2569 -0.8305 -0.1681
 7757SOL    HW134907   1.980   2.019   5.168 -1.1380 -0.9072  0.9664
 7757SOL    HW234908   1.958   1.901   5.083  1.9498  1.9391 -1.7266
 7758SOL     OW34909   0.016   4.013   3.876  0.3948  0.2816 -0.0891
 7758SOL    HW134910   4.683   4.060   3.837  0.3439  0.6483  0.4474
 7758SOL    HW234911   0.051   3.957   3.806 -2.7941  0.6869 -2.0360
 7759SOL     OW34912   2.088   0.912  17.051 -0.0143  0.1576  0.0342
 7759SOL    HW134913   2.098   1.004  17.025 -0.3494  0.6074  1.4932
 7759SOL    HW234914   2.142   0.879  16.980  2.3997  0.5377  1.6993
 7760SOL     OW34915   2.264   4.285  11.642  0.1408 -0.2127  0.6762
 7760SOL    HW134916   2.282   4.253  11.554  0.3176 -0.7757  0.9165
 7760SOL    HW234917   2.352   4.279  11.677  0.6165  1.9258 -0.1347
 7761SOL     OW34918   2.518   2.075   8.613 -0.3778  0.0512  0.7601
 7761SOL    HW134919   2.530   2.075   8.518 -0.1452  0.1551  0.7886
 7761SOL    HW234920   2.608   2.049   8.631  0.6044  2.0067 -1.4030
 7762SOL     OW34921   3.206   3.110   7.535 -0.2800  0.2530  0.6193
 7762SOL    HW134922   3.154   3.171   7.483 -2.0075 -0.4600  1.5128
 7762SOL    HW234923   3.283   3.119   7.479 -0.6229 -0.2060  0.0713
 7763SOL     OW34924   2.266   1.449   8.839  0.7198  0.0758  0.9184
 7763SOL    HW134925   2.225   1.523   8.793 -1.6808 -1.4708  0.5575
 7763SOL    HW234926   2.272   1.482   8.929 -0.0989 -1.1004  1.3985
 7764SOL     OW34927   4.638   4.106   4.642 -0.6226  0.5398  0.7476
 7764SOL    HW134928   4.715   4.146   4.682 -0.3296 -1.1067  1.8432
 7764SOL    HW234929   4.674   4.035   4.589 -2.1049  1.5884 -1.6473
 7765SOL     OW34930   1.053   0.928  16.822 -0.6213  0.2514 -0.0842
 7765SOL    HW134931   0.990   0.864  16.789  0.3147 -0.2337 -0.8943
 7765SOL    HW234932   0.999   0.966  16.892  1.0123  2.4337 -0.0160
 7766SOL     OW34933   2.253   0.671   3.740 -0.4824  0.3924  0.4962
 7766SOL    HW134934   2.247   0.648   3.647 -0.1794 -1.3064  0.9037
 7766SOL    HW234935   2.304   0.752   3.735  0.0144 -0.0468 -1.6659
 7767SOL     OW34936   2.204   3.880   6.416 -0.6881 -0.9517 -0.4510
 7767SOL    HW134937   2.248   3.815   6.362 -0.4300 -1.5268  0.4434
 7767SOL    HW234938   2.217   3.841   6.503 -0.0225  0.5336  0.1181
 7768SOL     OW34939   3.611   1.026   5.868 -0.2438 -0.1766  0.1265
 7768SOL    HW134940   3.661   0.983   5.798  0.3304  0.3519  0.2078
 7768SOL    HW234941   3.557   0.956   5.903 -0.4454 -0.1915 -0.2185
 7769SOL     OW34942   1.366   1.084   9.241 -0.4763 -0.1352  0.0084
 7769SOL    HW134943   1.273   1.104   9.251 -0.9747 -1.9277 -1.1043
 7769SOL    HW234944   1.368   1.040   9.156 -0.0357 -1.4427  0.7039
 7770SOL     OW34945   0.152   3.450   6.942  0.3376 -0.4080  0.0573
 7770SOL    HW134946   0.164   3.524   7.002  1.1360 -1.6175  1.3947
 7770SOL    HW234947   0.071   3.476   6.897 -0.9745  0.6971  3.0698
 7771SOL     OW34948   1.652   3.448   7.266  0.3161  0.7330  0.2381
 7771SOL    HW134949   1.651   3.504   7.343  1.7201 -0.0308  0.8044
 7771SOL    HW234950   1.644   3.514   7.196  0.0174  0.2430 -0.1914
 7772SOL     OW34951   1.892   2.827   9.412 -0.2873 -0.0126  0.6430
 7772SOL    HW134952   1.798   2.807   9.414 -0.0119 -1.5008 -1.4225
 7772SOL    HW234953   1.918   2.813   9.503 -0.2038 -0.9117  0.4819
 7773SOL     OW34954   1.579   0.665   6.044 -0.0145  0.2890  0.5918
 7773SOL    HW134955   1.552   0.744   5.997  1.5405  0.6077  0.2476
 7773SOL    HW234956   1.552   0.690   6.133  1.0522 -1.0147  1.2996
 7774SOL     OW34957   1.128   4.700   4.728 -0.1580  0.3705 -0.1769
 7774SOL    HW134958   1.210   4.651   4.733 -0.4772 -0.0428  0.9820
 7774SOL    HW234959   1.060   4.634   4.720 -0.7387  0.8533  0.7574
 7775SOL     OW34960   2.285   0.770  13.025  0.0362  0.0183  0.0107
 7775SOL    HW134961   2.206   0.824  13.023 -0.7621 -1.1186  0.5772
 7775SOL    HW234962   2.347   0.842  13.018 -1.0357  1.0257  0.8971
 7776SOL     OW34963   0.232   2.585   3.974  0.9453 -0.1315 -0.0558
 7776SOL    HW134964   0.236   2.495   4.007  0.2662  0.4395  1.6173
 7776SOL    HW234965   0.246   2.632   4.056  1.8529 -1.7971  0.7387
 7777SOL     OW34966   0.256   4.339   5.417  0.0767 -0.1265  0.1682
 7777SOL    HW134967   0.248   4.425   5.458  0.6242 -0.1878  0.3980
 7777SOL    HW234968   0.256   4.270   5.484  0.5581 -0.4360 -0.1536
 7778SOL     OW34969   2.398   3.039   7.201 -0.2091  0.0546 -0.3520
 7778SOL    HW134970   2.414   2.952   7.166  0.0636 -0.2901  0.6194
 7778SOL    HW234971   2.445   3.041   7.285 -2.6929  0.5645  1.0408
 7779SOL     OW34972   3.749   1.901   0.836  0.4450  0.0172  0.1445
 7779SOL    HW134973   3.705   1.877   0.755 -0.7139  0.4887  0.6390
 7779SOL    HW234974   3.688   1.858   0.896  0.6319 -0.3403  0.0803
 7780SOL     OW34975   2.930   1.000   7.496  0.4924  0.1615  0.1480
 7780SOL    HW134976   3.008   0.968   7.452 -0.0133  0.3653 -0.9024
 7780SOL    HW234977   2.875   1.029   7.423  0.5145  1.5164  0.6633
 7781SOL     OW34978   2.137   1.973   2.809  0.2202  0.2885  0.2566
 7781SOL    HW134979   2.199   2.030   2.764 -0.0925 -0.6084 -1.3111
 7781SOL    HW234980   2.176   1.889   2.783 -0.5733 -0.0536  0.1557
 7782SOL     OW34981   0.780   2.195   8.806 -0.0889  0.0394  0.2702
 7782SOL    HW134982   0.835   2.146   8.867  1.3134 -0.0006 -1.0634
 7782SOL    HW234983   0.719   2.231   8.871 -1.4444 -0.1957 -0.8765
 7783SOL     OW34984   0.080   2.558   7.388  0.0888  0.4745 -0.4306
 7783SOL    HW134985   0.121   2.593   7.309 -0.9457 -1.9356 -2.0476
 7783SOL    HW234986   0.033   2.633   7.424 -1.8436 -0.8967 -0.0288
 7784SOL     OW34987   1.281   4.031   8.138 -0.5433  0.4822  0.0204
 7784SOL    HW134988   1.285   3.989   8.052  1.0559 -0.1599  0.4122
 7784SOL    HW234989   1.219   4.103   8.124 -1.5128 -0.2752  0.3802
 7785SOL     OW34990   2.260   1.882  17.329  0.4531 -0.2485  0.3071
 7785SOL    HW134991   2.286   1.894  17.420 -0.5596 -0.5720  0.6432
 7785SOL    HW234992   2.190   1.819  17.344  2.6416 -2.1186  2.5293
 7786SOL     OW34993   3.231   1.795   9.255 -0.5045 -0.1639  0.2531
 7786SOL    HW134994   3.287   1.811   9.330 -0.2211  1.1446 -0.2378
 7786SOL    HW234995   3.274   1.713   9.233  1.2033  1.4477 -2.5435
 7787SOL     OW34996   0.909   3.224   4.110 -0.0784 -0.8058 -0.4833
 7787SOL    HW134997   0.817   3.207   4.132  0.9420 -1.4751  3.2820
 7787SOL    HW234998   0.928   3.151   4.050  2.3303 -0.6833  0.1229
 7788SOL     OW34999   4.652   0.614   7.924  0.1977  0.5715  0.5046
 7788SOL    HW135000   4.727   0.619   7.864 -1.9296 -0.9004 -2.2716
 7788SOL    HW235001   4.690   0.636   8.010  1.0419 -0.4215  0.3787
 7789SOL     OW35002   4.268   0.911   4.243 -0.1766  0.5884 -0.2576
 7789SOL    HW135003   4.358   0.909   4.276  0.2484 -0.6236 -1.5144
 7789SOL    HW235004   4.274   0.963   4.163  0.2017  2.3204  0.8847
 7790SOL     OW35005   2.165   1.764   3.611  0.0113 -0.2006  0.0116
 7790SOL    HW135006   2.234   1.730   3.555 -0.0825 -0.0727 -0.1839
 7790SOL    HW235007   2.180   1.858   3.608  0.8858 -0.3520 -0.5331
 7791SOL     OW35008   3.434   3.001   3.160  0.5150  0.0280 -0.0279
 7791SOL    HW135009   3.347   2.967   3.180  0.3172 -0.2759 -1.3966
 7791SOL    HW235010   3.445   2.958   3.075 -0.4192  0.6090 -0.4433
 7792SOL     OW35011   2.889   1.424   7.112 -0.5831 -0.1348 -0.1320
 7792SOL    HW135012   2.920   1.334   7.108  0.1105  0.0414  1.0004
 7792SOL    HW235013   2.798   1.407   7.136 -0.5517  1.2531  0.9782
 7793SOL     OW35014   2.913   0.392  17.139  0.0397 -0.4532 -0.1629
 7793SOL    HW135015   2.842   0.358  17.194  0.1962  1.7742  1.3993
 7793SOL    HW235016   2.956   0.306  17.129 -3.0949 -2.0228 -0.2092
 7794SOL     OW35017   3.223   1.236   9.162  0.1082  0.0408  0.5262
 7794SOL    HW135018   3.166   1.215   9.237 -0.1930  0.5068  0.4344
 7794SOL    HW235019   3.251   1.324   9.190  0.8301  0.4172 -1.4044
 7795SOL     OW35020   0.058   4.491   4.900  0.0564  0.1578 -0.5597
 7795SOL    HW135021   0.121   4.419   4.907  3.2414  2.8182 -1.8721
 7795SOL    HW235022   0.082   4.531   4.817 -0.8827 -1.5576 -1.6605
 7796SOL     OW35023   4.709   3.626   3.348  0.1940  0.0934 -0.3685
 7796SOL    HW135024   4.647   3.633   3.276  0.4609  0.4873 -0.5615
 7796SOL    HW235025   4.732   3.716   3.375 -1.5232  0.3287  0.3391
 7797SOL     OW35026   3.249   1.308   4.985 -0.4603  0.2347  0.9571
 7797SOL    HW135027   3.191   1.252   4.933  0.1377  0.8747 -0.4080
 7797SOL    HW235028   3.244   1.393   4.941 -3.6964  0.6297  2.1468
 7798SOL     OW35029   0.899   2.400  16.961 -0.3027 -0.5962  0.1606
 7798SOL    HW135030   0.976   2.383  16.906 -0.1826  1.3487 -0.2656
 7798SOL    HW235031   0.900   2.494  16.979 -2.5556  0.1718 -3.5647
 7799SOL     OW35032   1.919   2.000  13.512  0.0145  0.5005  0.3296
 7799SOL    HW135033   1.892   2.003  13.421 -1.2969 -1.9926  0.6222
 7799SOL    HW235034   1.972   1.920  13.514  0.9440  1.1406  1.3818
 7800SOL     OW35035   0.750   2.360   3.106  0.0389 -0.9231  0.1520
 7800SOL    HW135036   0.771   2.410   3.027 -0.1378 -1.5596 -0.2976
 7800SOL    HW235037   0.756   2.433   3.168  1.3192 -0.3820 -0.6120
 7801SOL     OW35038   4.133   2.555   8.939  0.2792  0.3396  0.1134
 7801SOL    HW135039   4.127   2.637   8.987  1.2263 -0.3851  1.4859
 7801SOL    HW235040   4.047   2.515   8.952 -1.2577  3.3303 -0.8687
 7802SOL     OW35041   0.797   3.554   7.597  0.0148 -0.6656 -0.7659
 7802SOL    HW135042   0.815   3.474   7.548  0.5836 -0.6408 -0.5884
 7802SOL    HW235043   0.823   3.632   7.547 -0.7088  0.3385  0.4332
 7803SOL     OW35044   4.253   1.701   7.226 -0.3519 -0.3774  0.2986
 7803SOL    HW135045   4.246   1.636   7.296  0.8925 -0.7236  0.1050
 7803SOL    HW235046   4.178   1.673   7.173 -0.1769 -0.0801 -0.1024
 7804SOL     OW35047   4.514   4.574   3.576  0.3925 -0.0596 -0.0948
 7804SOL    HW135048   4.442   4.536   3.628  0.7162 -2.2538 -1.2608
 7804SOL    HW235049   4.557   4.625   3.645 -0.0088  3.5713 -2.5571
 7805SOL     OW35050   3.330   4.502  16.576 -0.8521  0.6176 -0.5394
 7805SOL    HW135051   3.419   4.466  16.578 -1.1919 -0.2095 -0.1058
 7805SOL    HW235052   3.292   4.473  16.494 -0.3010  1.4163 -1.0725
 7806SOL     OW35053   2.911   0.087   8.102 -0.5086 -0.5619 -0.3981
 7806SOL    HW135054   2.891   0.113   8.192 -0.1109 -1.6925  0.0172
 7806SOL    HW235055   2.927   4.735   8.119  0.8470 -0.4062 -0.8311
 7807SOL     OW35056   0.114   2.303   3.763 -0.4543  0.3921  0.4549
 7807SOL    HW135057   0.189   2.297   3.704 -2.1750 -2.7619 -1.4040
 7807SOL    HW235058   0.119   2.218   3.807 -1.8396  0.1908  0.2425
 7808SOL     OW35059   4.631   2.390   9.894 -0.3390 -0.1348 -0.0724
 7808SOL    HW135060   4.616   2.472   9.847  0.4793  0.3330  0.4764
 7808SOL    HW235061   4.615   2.411   9.986 -0.5336  0.1190 -0.1621
 7809SOL     OW35062   0.554   2.217   8.966  0.5770 -0.5286  0.0622
 7809SOL    HW135063   0.551   2.274   9.043  2.0130 -0.0636 -0.2250
 7809SOL    HW235064   0.476   2.248   8.920  0.3090 -0.0651  0.8331
 7810SOL     OW35065   3.840   2.528   2.719 -0.1533 -0.1297 -0.3028
 7810SOL    HW135066   3.900   2.601   2.708 -0.0954 -0.1500 -0.1341
 7810SOL    HW235067   3.888   2.467   2.776 -1.9767  1.7199  3.2431
 7811SOL     OW35068   1.056   2.173  15.959  0.1098 -0.7260  0.0101
 7811SOL    HW135069   1.035   2.249  16.014 -2.6576 -1.8421  0.4866
 7811SOL    HW235070   1.005   2.183  15.879 -0.4944 -1.3220  0.3219
 7812SOL     OW35071   3.216   2.719   6.570  0.3080 -0.5227  0.4502
 7812SOL    HW135072   3.185   2.787   6.630  0.7455  1.6148 -1.7004
 7812SOL    HW235073   3.153   2.649   6.582 -1.3468  0.9369  0.3081
 7813SOL     OW35074   0.209   2.160   0.195  0.3229 -0.1706  0.0625
 7813SOL    HW135075   0.248   2.072   0.187  3.4386  1.3038 -0.8704
 7813SOL    HW235076   0.118   2.153   0.166 -0.1338 -1.8876  1.8836
 7814SOL     OW35077   4.433   1.479   6.346  0.0402  0.3695 -0.1511
 7814SOL    HW135078   4.483   1.549   6.305  2.2817 -0.8679  0.4796
 7814SOL    HW235079   4.493   1.468   6.420  1.2584 -0.1849 -1.2165
 7815SOL     OW35080   0.048   1.605   1.517  0.2528  0.3230  0.2070
 7815SOL    HW135081   0.017   1.523   1.479  1.0681  1.0099 -1.9101
 7815SOL    HW235082   0.135   1.579   1.548  0.4698 -0.7508 -1.3153
 7816SOL     OW35083   4.452   4.294   6.822  0.2967 -0.2795  1.6207
 7816SOL    HW135084   4.393   4.219   6.827 -0.5840  0.4410  1.8760
 7816SOL    HW235085   4.500   4.269   6.743 -1.6713 -2.3161  1.0765
 7817SOL     OW35086   3.288   3.271   1.958 -0.4557  0.1910 -0.0450
 7817SOL    HW135087   3.193   3.284   1.959 -0.7853 -2.1359 -0.8453
 7817SOL    HW235088   3.319   3.349   2.005 -0.1638 -0.8771  1.5142
 7818SOL     OW35089   0.135   1.356  13.187 -0.1813 -0.0653  0.2330
 7818SOL    HW135090   0.089   1.275  13.208  0.2750 -0.6598 -1.0824
 7818SOL    HW235091   0.111   1.418  13.256 -0.3691  1.7050 -1.4200
 7819SOL     OW35092   3.570   1.779   5.868 -0.1278  0.0591 -0.5167
 7819SOL    HW135093   3.491   1.827   5.895 -1.7989 -2.5570 -0.7570
 7819SOL    HW235094   3.643   1.832   5.899 -1.9708  2.2069  0.1498
 7820SOL     OW35095   4.542   4.436   4.810  0.1926 -0.0160 -0.2456
 7820SOL    HW135096   4.574   4.373   4.875  1.0532  1.2504  0.5465
 7820SOL    HW235097   4.623   4.481   4.787  0.3096 -1.2556 -2.2438
 7821SOL     OW35098   1.053   4.311  14.300 -0.0204  0.1426 -0.3920
 7821SOL    HW135099   0.991   4.256  14.252  1.1367  1.4645 -3.3822
 7821SOL    HW235100   1.127   4.328  14.241 -0.0052  1.2663 -0.0520
 7822SOL     OW35101   3.407   2.187   7.106  0.0840 -0.3313 -1.0251
 7822SOL    HW135102   3.375   2.105   7.068 -1.0516 -2.0093  3.5726
 7822SOL    HW235103   3.497   2.159   7.095  0.5505  1.7090 -2.3775
 7823SOL     OW35104   3.169   3.684   9.983 -0.2709  0.8639 -0.1612
 7823SOL    HW135105   3.074   3.689   9.994 -0.2277  2.9776 -0.8100
 7823SOL    HW235106   3.199   3.774   9.996  0.2429  0.6393  0.1888
 7824SOL     OW35107   3.427   0.977   3.174 -0.0752 -0.9445  0.6360
 7824SOL    HW135108   3.503   0.941   3.128  0.5883  0.5814  0.5319
 7824SOL    HW235109   3.373   1.013   3.103  1.3372  1.2605  0.6639
 7825SOL     OW35110   3.434   3.923   6.859 -0.8150  0.2487 -0.2690
 7825SOL    HW135111   3.404   4.008   6.888 -2.5331 -0.9304  1.3965
 7825SOL    HW235112   3.381   3.872   6.921 -1.1082  3.3939  2.0438
 7826SOL     OW35113   1.435   4.607  17.758 -0.1168 -0.4187 -0.1365
 7826SOL    HW135114   1.482   4.559  17.690 -3.1392 -1.5142 -1.4454
 7826SOL    HW235115   1.387   4.666  17.700  1.7707  0.1424 -1.1156
 7827SOL     OW35116   4.552   4.378   3.381 -0.2825  0.7275  0.0760
 7827SOL    HW135117   4.544   4.441   3.453  0.5792  0.8244  0.0960
 7827SOL    HW235118   4.516   4.296   3.416 -0.8727  0.5127 -1.0594
 7828SOL     OW35119   3.781   1.962   5.926 -0.0403 -0.1749  0.7593
 7828SOL    HW135120   3.836   2.007   5.991  0.8784 -1.0476  0.5841
 7828SOL    HW235121   3.848   1.947   5.860  0.5398  1.4362  0.9677
 7829SOL     OW35122   2.516   3.452   5.825  0.6659  0.4018 -0.0781
 7829SOL    HW135123   2.582   3.454   5.755  1.6670  1.0270  0.8982
 7829SOL    HW235124   2.457   3.526   5.815 -0.1069 -0.2796 -0.5591
 7830SOL     OW35125   0.090   4.703  17.603  0.0472 -0.3995  0.0287
 7830SOL    HW135126   0.124   4.733  17.519 -1.5790 -2.6189 -1.4282
 7830SOL    HW235127   0.169   4.664  17.641  0.6348  0.4358 -0.3388
 7831SOL     OW35128   3.004   0.927   2.566 -0.2312 -0.2193 -0.0704
 7831SOL    HW135129   3.045   0.933   2.479  1.9291  0.3084  0.9868
 7831SOL    HW235130   2.922   0.976   2.557  0.5967  0.8306 -1.8986
 7832SOL     OW35131   4.649   1.007  15.867  0.0707 -0.2332  0.2419
 7832SOL    HW135132   4.581   0.976  15.807 -0.4973  1.7274 -0.1274
 7832SOL    HW235133   4.652   1.103  15.858 -0.4566 -0.3764 -1.5059
 7833SOL     OW35134   1.538   0.438  17.585  0.2692 -0.0147  0.0348
 7833SOL    HW135135   1.522   0.373  17.516 -0.0059  1.1474 -1.0061
 7833SOL    HW235136   1.489   0.405  17.660  1.8404 -1.4904  0.4076
 7834SOL     OW35137   2.555   2.120   5.376 -0.5322 -0.3376  0.2284
 7834SOL    HW135138   2.592   2.031   5.373  2.3774  0.9009  0.0147
 7834SOL    HW235139   2.583   2.145   5.464  0.9932 -0.0792 -0.3305
 7835SOL     OW35140   4.576   1.433  12.558 -0.5054 -0.6369 -0.4189
 7835SOL    HW135141   4.652   1.389  12.596 -0.6645 -0.6928 -0.1622
 7835SOL    HW235142   4.504   1.381  12.593 -1.2721 -0.5961 -1.9503
 7836SOL     OW35143   0.344   1.961  12.502 -0.0207  0.3887  0.3038
 7836SOL    HW135144   0.416   2.023  12.500  0.6785 -0.4702 -2.0757
 7836SOL    HW235145   0.352   1.921  12.588  0.1136  0.6305  0.4011
 7837SOL     OW35146   3.771   3.751   7.081  0.0186 -0.0376 -0.0782
 7837SOL    HW135147   3.755   3.716   7.169 -1.6074  3.0896  0.8699
 7837SOL    HW235148   3.712   3.693   7.032  1.4356 -1.4492 -0.1173
 7838SOL     OW35149   0.604   1.834   2.245 -0.4079 -0.1638 -0.3863
 7838SOL    HW135150   0.590   1.854   2.338  1.3283  3.6945 -0.9461
 7838SOL    HW235151   0.538   1.890   2.203 -0.1875  1.2477  1.1377
 7839SOL     OW35152   2.801   0.160   7.700 -0.1702  0.0168  0.3315
 7839SOL    HW135153   2.829   0.199   7.783  1.8691 -1.4907  0.3212
 7839SOL    HW235154   2.858   0.084   7.694 -0.7580 -0.3435 -0.5802
 7840SOL     OW35155   2.472   1.088  12.645 -0.3987  0.4831  0.0140
 7840SOL    HW135156   2.513   1.152  12.587  0.7787  0.4744  0.8333
 7840SOL    HW235157   2.491   1.007  12.599 -1.4249  0.5778 -0.5747
 7841SOL     OW35158   3.147   3.834   3.366 -0.6555 -0.3664 -0.0196
 7841SOL    HW135159   3.086   3.778   3.319 -1.3612  1.7948 -1.7072
 7841SOL    HW235160   3.150   3.781   3.446 -1.9052 -2.7482 -1.5725
 7842SOL     OW35161   3.316   1.408   8.557 -0.4769 -0.0117  0.0299
 7842SOL    HW135162   3.261   1.335   8.586  1.1191 -0.8674  0.8934
 7842SOL    HW235163   3.403   1.368   8.556  0.2332  1.5676 -1.4381
 7843SOL     OW35164   3.526   4.672   2.320  0.5067  0.2787 -0.1173
 7843SOL    HW135165   3.456   4.737   2.327  0.7289  0.3591  1.4400
 7843SOL    HW235166   3.590   4.719   2.267 -0.3277  1.2346 -0.2673
 7844SOL     OW35167   3.305   0.723   2.965 -0.3574  0.0257 -0.0068
 7844SOL    HW135168   3.329   0.791   2.902  0.8617 -0.3252  0.0916
 7844SOL    HW235169   3.337   0.644   2.922  1.1514  0.8992 -0.4644
 7845SOL     OW35170   2.374   1.507   5.955  0.4782  0.4333 -0.2726
 7845SOL    HW135171   2.396   1.446   6.026 -1.5421 -0.8442 -0.7405
 7845SOL    HW235172   2.284   1.475   5.947  0.0416  1.6534 -0.2013
 7846SOL     OW35173   0.869   2.575   6.684 -0.1487  0.3169  0.3602
 7846SOL    HW135174   0.784   2.573   6.639 -0.6408 -1.8987  1.4059
 7846SOL    HW235175   0.924   2.580   6.605 -1.4217 -0.4070 -0.5676
 7847SOL     OW35176   1.659   4.126   3.828  0.2595  0.1068  0.3133
 7847SOL    HW135177   1.676   4.168   3.912  0.9447 -0.0973  0.2755
 7847SOL    HW235178   1.579   4.076   3.845  0.6714 -0.5437  0.3423
 7848SOL     OW35179   1.723   4.628   4.786 -0.1070 -0.4168  0.5338
 7848SOL    HW135180   1.777   4.556   4.751 -3.8957 -2.9073 -0.1480
 7848SOL    HW235181   1.785   4.699   4.801 -0.8447  0.0117  1.4933
 7849SOL     OW35182   4.718   1.730   4.801 -0.0666 -0.1698  0.2796
 7849SOL    HW135183   4.661   1.806   4.810 -2.0546 -1.3168 -2.3856
 7849SOL    HW235184   4.712   1.717   4.706 -0.2798 -0.9233  0.4009
 7850SOL     OW35185   0.999   4.675   5.396  0.1474  0.0670  0.6621
 7850SOL    HW135186   1.063   4.700   5.329  0.3747 -0.0909  0.8204
 7850SOL    HW235187   0.930   4.643   5.337  1.1843  0.4155 -0.7340
 7851SOL     OW35188   1.847   0.069   6.996  0.1875 -0.4556 -0.0637
 7851SOL    HW135189   1.865   4.716   6.998  1.5045 -0.2415 -1.8665
 7851SOL    HW235190   1.807   0.076   7.083 -0.6916 -0.5264 -0.4651
 7852SOL     OW35191   0.876   2.716  14.051  0.4233  0.2412 -0.9057
 7852SOL    HW135192   0.888   2.626  14.019  0.7419 -0.3351  0.8604
 7852SOL    HW235193   0.781   2.715  14.050  0.4448 -2.1515  0.8089
 7853SOL     OW35194   2.838   3.676   5.986  0.9606  0.2737 -0.0721
 7853SOL    HW135195   2.767   3.723   5.942  0.8072 -0.7186 -0.8986
 7853SOL    HW235196   2.830   3.584   5.961  2.2725 -0.3307  1.7006
 7854SOL     OW35197   2.884   4.646   2.432  0.2273  0.4705 -0.3913
 7854SOL    HW135198   2.937   4.699   2.491  3.2634 -1.9181 -0.9630
 7854SOL    HW235199   2.856   4.572   2.486  1.4016  0.5676  0.3460
 7855SOL     OW35200   1.941   2.457   7.051  0.0036  0.3185  0.4062
 7855SOL    HW135201   1.863   2.404   7.040  1.0310 -0.6695 -1.9420
 7855SOL    HW235202   1.903   2.516   7.116  1.5886  1.0704  0.6442
 7856SOL     OW35203   0.575   0.896   3.697  1.0190  0.4841 -0.0296
 7856SOL    HW135204   0.612   0.901   3.609 -0.5760  0.1341 -0.7242
 7856SOL    HW235205   0.651   0.859   3.741 -0.5858 -2.3601  0.3317
 7857SOL     OW35206   3.590   2.382   2.912  0.0240 -0.3326  0.1719
 7857SOL    HW135207   3.641   2.438   2.971  1.6281 -3.5526  1.8922
 7857SOL    HW235208   3.503   2.401   2.949 -0.2939  0.8135 -1.1857
 7858SOL     OW35209   4.244   1.231   5.720 -0.1161 -0.1342 -0.3795
 7858SOL    HW135210   4.229   1.221   5.626  3.0647  0.1566 -0.9084
 7858SOL    HW235211   4.179   1.301   5.731  0.9607  0.8529 -0.3321
 7859SOL     OW35212   2.691   1.951   9.095 -0.0839  0.0022  0.1153
 7859SOL    HW135213   2.761   1.894   9.064 -0.5997  0.7007 -2.3739
 7859SOL    HW235214   2.685   2.024   9.033  1.1897  0.3093  0.3424
 7860SOL     OW35215   2.357   1.110   5.131 -0.2766 -0.0304  0.2792
 7860SOL    HW135216   2.372   1.075   5.219  3.4129 -1.6851 -1.0116
 7860SOL    HW235217   2.435   1.164   5.118 -0.5656  0.4717  0.6116
 7861SOL     OW35218   3.979   1.026   4.758  0.0845  0.1428 -0.4402
 7861SOL    HW135219   4.016   0.973   4.828 -1.0393  0.5066  0.4202
 7861SOL    HW235220   3.885   1.022   4.774  0.2962  0.4748  0.8587
 7862SOL     OW35221   1.160   0.338   5.304  0.3153  0.1552 -0.0672
 7862SOL    HW135222   1.089   0.281   5.274  1.2702 -1.3475  0.4701
 7862SOL    HW235223   1.127   0.363   5.391 -1.8053  1.3098 -1.2075
 7863SOL     OW35224   2.997   0.759   0.622  0.1470  0.2215 -0.5362
 7863SOL    HW135225   2.987   0.837   0.676  2.4062  0.7037 -0.8142
 7863SOL    HW235226   3.067   0.725   0.678  0.8734  2.6239  0.0150
 7864SOL     OW35227   1.383   2.237   5.376 -0.1012  0.4114 -0.1800
 7864SOL    HW135228   1.401   2.309   5.437 -0.2782  1.5700 -1.4888
 7864SOL    HW235229   1.374   2.166   5.439  2.3196 -1.3456 -1.8037
 7865SOL     OW35230   3.486   2.235   9.116 -0.1586  0.1982  0.0827
 7865SOL    HW135231   3.554   2.257   9.053  1.6140 -3.3087  0.7626
 7865SOL    HW235232   3.409   2.218   9.062  1.0248 -2.4547 -0.7652
 7866SOL     OW35233   4.059   1.812   8.923  0.0715 -0.7310  0.4652
 7866SOL    HW135234   4.106   1.738   8.883 -1.1607 -0.7948 -0.8507
 7866SOL    HW235235   3.975   1.776   8.952 -0.4125  0.6711  0.8001
 7867SOL     OW35236   0.017   2.162  10.525 -0.2365  0.0857  0.2832
 7867SOL    HW135237   4.715   2.089  10.480  0.8457  1.0288 -2.2719
 7867SOL    HW235238   0.050   2.127  10.607  2.0716  0.3163 -0.5502
 7868SOL     OW35239   3.504   1.429   6.729 -0.3201 -0.6996  0.3910
 7868SOL    HW135240   3.440   1.384   6.674 -1.5981  2.7861 -1.0023
 7868SOL    HW235241   3.574   1.426   6.663 -0.9388 -1.5248 -0.2285
 7869SOL     OW35242   4.067   1.827   8.450  0.1184 -0.4747  0.1873
 7869SOL    HW135243   4.127   1.759   8.481  0.5632 -0.0460  0.2514
 7869SOL    HW235244   4.062   1.881   8.528 -1.1098  0.4920 -0.5547
 7870SOL     OW35245   4.363   1.750   4.046  0.0878 -0.1177 -0.2714
 7870SOL    HW135246   4.279   1.714   4.019  0.7235 -0.0870 -2.3325
 7870SOL    HW235247   4.427   1.693   4.002  1.6474  2.4009 -1.3070
 7871SOL     OW35248   1.780   1.177   2.144  0.0105 -0.2163 -0.3802
 7871SOL    HW135249   1.787   1.094   2.096 -2.1109 -0.7616  0.2715
 7871SOL    HW235250   1.857   1.226   2.113 -0.4857  0.7309 -0.1044
 7872SOL     OW35251   0.929   3.267   9.146  0.1518  0.2287  0.1363
 7872SOL    HW135252   0.915   3.344   9.201 -3.2533  0.9236 -1.7081
 7872SOL    HW235253   1.015   3.289   9.110  0.2788  0.1256  0.3777
 7873SOL     OW35254   0.669   3.982   5.635  0.1537 -0.8550 -0.4443
 7873SOL    HW135255   0.609   4.015   5.701  1.3614  2.2049 -0.8693
 7873SOL    HW235256   0.648   4.032   5.555 -0.5770  2.4768  1.8228
 7874SOL     OW35257   0.473   3.703  15.647  0.0279 -0.0919  0.0960
 7874SOL    HW135258   0.458   3.657  15.730  0.7373  1.3048  0.9904
 7874SOL    HW235259   0.451   3.795  15.659 -0.1398 -0.1267  0.0622
 7875SOL     OW35260   3.708   2.086   6.254  0.4825  0.4798 -0.3336
 7875SOL    HW135261   3.784   2.041   6.219  1.0004  0.9800  0.1507
 7875SOL    HW235262   3.723   2.059   6.344 -3.0773  3.5740  1.2061
 7876SOL     OW35263   1.051   1.570  15.898 -0.4683  0.2509  0.1750
 7876SOL    HW135264   1.136   1.609  15.875 -0.0898 -0.9593 -0.5229
 7876SOL    HW235265   1.074   1.525  15.979 -1.2933  1.5070  1.1021
 7877SOL     OW35266   3.818   2.375   3.794  0.7597 -0.4429 -0.1868
 7877SOL    HW135267   3.860   2.445   3.744 -0.1942  1.6082  1.9240
 7877SOL    HW235268   3.736   2.360   3.748 -1.0674 -0.6204  3.1246
 7878SOL     OW35269   3.587   3.665   7.872 -0.0809  0.2591 -0.3464
 7878SOL    HW135270   3.615   3.739   7.819  0.0810 -0.3811 -1.1521
 7878SOL    HW235271   3.665   3.655   7.926 -0.2436  1.0666  0.0530
 7879SOL     OW35272   0.832   4.406  10.619 -0.4960  0.2485 -0.1554
 7879SOL    HW135273   0.773   4.447  10.556 -0.8603 -0.9989 -0.6307
 7879SOL    HW235274   0.774   4.390  10.694 -0.7353 -1.3100 -0.6724
 7880SOL     OW35275   0.833   4.550   5.238  0.2078 -0.2372 -0.1632
 7880SOL    HW135276   0.881   4.471   5.259  0.1039 -0.1031  0.5719
 7880SOL    HW235277   0.737   4.545   5.240  0.0917  1.7222 -0.4637
 7881SOL     OW35278   1.499   4.609   4.595 -0.5382 -0.0279 -0.2424
 7881SOL    HW135279   1.448   4.561   4.660  0.3316 -2.8701 -1.6630
 7881SOL    HW235280   1.580   4.625   4.643 -0.3722 -1.2065 -0.1187
 7882SOL     OW35281   0.541   0.439  11.403 -0.7179  0.0776  0.4748
 7882SOL    HW135282   0.526   0.400  11.489  1.1344 -0.6910  0.4371
 7882SOL    HW235283   0.537   0.534  11.419 -0.7576  0.0137  0.8438
 7883SOL     OW35284   3.237   0.786   7.076  0.1899 -0.0060  0.0261
 7883SOL    HW135285   3.291   0.865   7.075 -2.3535  1.7003 -2.1495
 7883SOL    HW235286   3.212   0.765   6.986  0.3048  0.7784 -0.1840
 7884SOL     OW35287   2.944   1.753   8.093  0.1900 -0.0783  0.0800
 7884SOL    HW135288   2.981   1.753   8.005 -1.2373  2.0394 -0.5274
 7884SOL    HW235289   3.022   1.741   8.146  1.2776 -2.0340 -1.9315
 7885SOL     OW35290   2.772   0.308  14.786 -0.6647 -0.2181 -0.4374
 7885SOL    HW135291   2.796   0.370  14.716 -1.9715  0.4989 -0.2686
 7885SOL    HW235292   2.781   0.368  14.860  1.1773 -1.1295  0.0550
 7886SOL     OW35293   0.367   0.052   0.712  0.0264  0.0143  0.5696
 7886SOL    HW135294   0.390   0.128   0.658 -0.3142 -1.0202 -1.0470
 7886SOL    HW235295   0.427   0.055   0.786  0.8243  1.2141 -0.1287
 7887SOL     OW35296   0.778   3.143  15.845  0.5779 -0.2430  0.4328
 7887SOL    HW135297   0.732   3.183  15.772 -0.7049 -1.5387  0.5256
 7887SOL    HW235298   0.731   3.060  15.853  2.1837 -1.0055  2.2367
 7888SOL     OW35299   2.411   1.414   3.784  0.5064 -0.1690  0.1435
 7888SOL    HW135300   2.443   1.457   3.864 -0.0750 -1.8187  1.2577
 7888SOL    HW235301   2.416   1.322   3.809 -0.3668  0.0492  1.1281
 7889SOL     OW35302   4.576   1.579   2.500  0.5369 -0.2304  0.0504
 7889SOL    HW135303   4.530   1.533   2.429 -3.3920 -1.9516  3.6855
 7889SOL    HW235304   4.632   1.642   2.455 -0.3071 -1.0115 -2.0791
 7890SOL     OW35305   3.793   4.402   6.447 -0.6828 -0.1484 -0.0356
 7890SOL    HW135306   3.820   4.450   6.369  0.3000 -0.8531 -0.1331
 7890SOL    HW235307   3.704   4.436   6.453 -1.0105 -1.3098  1.8256
 7891SOL     OW35308   2.855   3.348   5.025  0.3375 -0.2874 -0.4370
 7891SOL    HW135309   2.902   3.395   5.094 -0.7858  1.3662 -0.7999
 7891SOL    HW235310   2.879   3.257   5.041  1.6237 -0.1926 -1.8552
 7892SOL     OW35311   4.238   0.687   4.737 -0.8042 -0.3334  0.3261
 7892SOL    HW135312   4.169   0.684   4.804 -1.7871 -2.1923 -0.7616
 7892SOL    HW235313   4.315   0.675   4.792  0.2769  1.0669 -0.8911
 7893SOL     OW35314   3.457   3.689   4.759  0.3896  0.2291 -0.1938
 7893SOL    HW135315   3.393   3.674   4.690  0.6496  2.6127 -0.9517
 7893SOL    HW235316   3.536   3.675   4.706 -0.3606 -2.0038 -0.7069
 7894SOL     OW35317   1.163   1.889   5.831  0.3395 -0.6885  0.3786
 7894SOL    HW135318   1.239   1.946   5.848 -1.3811  2.1262 -1.3342
 7894SOL    HW235319   1.198   1.800   5.841 -0.1859 -0.7562  1.5758
 7895SOL     OW35320   3.983   2.349   5.582  0.2872 -0.5258  0.1663
 7895SOL    HW135321   4.020   2.311   5.503 -2.1723  0.9047 -1.6789
 7895SOL    HW235322   4.026   2.434   5.573  0.4491 -0.5359  0.8340
 7896SOL     OW35323   3.167   2.278   6.247  0.7508  0.4196 -0.4469
 7896SOL    HW135324   3.178   2.230   6.329 -2.4907 -1.5315 -1.1599
 7896SOL    HW235325   3.096   2.237   6.198  0.4245 -0.8416  1.0852
 7897SOL     OW35326   3.378   3.570   3.249 -0.0514  0.2173  0.1090
 7897SOL    HW135327   3.321   3.500   3.219  1.0255 -0.2411 -0.8860
 7897SOL    HW235328   3.367   3.629   3.174 -0.9486  0.5448  0.4999
 7898SOL     OW35329   4.275   3.317  14.052  0.1169 -0.2983 -0.3647
 7898SOL    HW135330   4.220   3.394  14.066 -1.2956 -1.6951  1.9324
 7898SOL    HW235331   4.316   3.301  14.137 -0.8916 -1.2059 -0.0317
 7899SOL     OW35332   4.530   1.126   8.943  0.1259 -0.3333  0.4418
 7899SOL    HW135333   4.625   1.118   8.943  0.0319 -1.3892  3.7056
 7899SOL    HW235334   4.516   1.065   9.015  0.4009 -0.4700  0.3797
 7900SOL     OW35335   0.273   3.815   9.298 -0.2705  1.0392 -0.8204
 7900SOL    HW135336   0.296   3.744   9.239  0.3816 -0.7014  1.5277
 7900SOL    HW235337   0.296   3.772   9.381 -0.3774 -0.8106 -1.7552
 7901SOL     OW35338   2.023   2.369   3.695 -0.1495  0.1077 -0.3400
 7901SOL    HW135339   2.069   2.361   3.611 -2.6536 -0.5904 -1.6279
 7901SOL    HW235340   1.944   2.319   3.673 -0.5617  0.4200  0.4592
 7902SOL     OW35341   1.915   3.082  15.174  0.2371 -0.3921 -0.0975
 7902SOL    HW135342   1.997   3.114  15.211  1.0065 -0.5875 -1.6323
 7902SOL    HW235343   1.907   3.143  15.100  2.8192 -2.9230 -2.4530
 7903SOL     OW35344   3.460   4.284  11.000  0.2590 -0.4397 -0.1140
 7903SOL    HW135345   3.547   4.287  10.958 -0.0316 -0.4792 -0.7194
 7903SOL    HW235346   3.478   4.231  11.077 -1.3883  0.0453  0.5954
 7904SOL     OW35347   0.685   2.531   6.265 -0.2119  0.1115 -0.1674
 7904SOL    HW135348   0.609   2.474   6.281  0.6596 -0.5216  1.6993
 7904SOL    HW235349   0.758   2.470   6.279  0.1805  0.4773 -0.6568
 7905SOL     OW35350   4.189   3.242  11.017  0.4497  0.2243  0.0912
 7905SOL    HW135351   4.187   3.254  11.112 -1.3609 -1.0350  0.2206
 7905SOL    HW235352   4.275   3.202  11.014  0.7977  1.1048 -1.6577
 7906SOL     OW35353   0.030   4.386  12.078 -0.5882 -0.0566 -0.4822
 7906SOL    HW135354   0.124   4.372  12.067 -0.8693 -2.9226  0.8153
 7906SOL    HW235355   0.020   4.472  12.036 -0.0114  1.8546  3.2089
 7907SOL     OW35356   2.521   0.275  15.111  0.2264  0.5844 -0.6554
 7907SOL    HW135357   2.559   0.281  15.024  1.3424 -1.0538 -0.2820
 7907SOL    HW235358   2.583   0.215  15.153 -0.2688  0.6063  0.1115
 7908SOL     OW35359   1.706   4.441   3.912  0.3322  0.4360 -0.5471
 7908SOL    HW135360   1.682   4.533   3.918 -1.0428 -0.1452  2.8390
 7908SOL    HW235361   1.623   4.414   3.874  0.0376 -0.8321  1.0083
 7909SOL     OW35362   2.104   3.897   0.171  0.1439  0.5377  0.0677
 7909SOL    HW135363   2.029   3.950   0.195 -0.1132 -0.4985  1.5463
 7909SOL    HW235364   2.176   3.940   0.216  0.1036 -0.6533  1.2826
 7910SOL     OW35365   3.432   0.216   8.538 -0.2284 -0.0427 -0.0467
 7910SOL    HW135366   3.475   0.231   8.622 -0.1512  1.4287 -0.3420
 7910SOL    HW235367   3.400   0.304   8.514 -1.5348  0.0830  2.2152
 7911SOL     OW35368   0.842   1.511   7.884  0.2895  0.6702  0.7316
 7911SOL    HW135369   0.758   1.548   7.857  0.2069 -2.4169 -3.2412
 7911SOL    HW235370   0.814   1.436   7.937 -0.9468  0.9372  0.4565
 7912SOL     OW35371   3.439   2.109   3.429  0.4431 -0.5716  0.1832
 7912SOL    HW135372   3.364   2.165   3.407  0.6008 -0.4347 -0.0053
 7912SOL    HW235373   3.413   2.055   3.503 -1.1067  0.4647  0.3909
 7913SOL     OW35374   0.889   3.594   9.301 -0.5925  0.0486  0.4037
 7913SOL    HW135375   0.877   3.576   9.394 -0.3645 -0.8795  0.2605
 7913SOL    HW235376   0.976   3.635   9.301 -0.5969  0.0577  0.4093
 7914SOL     OW35377   1.303   0.524   8.883  0.0215  0.0555  0.1232
 7914SOL    HW135378   1.350   0.583   8.825 -2.1403  0.6144 -1.0525
 7914SOL    HW235379   1.327   0.570   8.964 -0.7489  0.4891  0.1084
 7915SOL     OW35380   2.497   2.554  15.479 -0.1005 -0.5107 -0.1436
 7915SOL    HW135381   2.461   2.494  15.415  1.7030  0.1051 -1.7147
 7915SOL    HW235382   2.580   2.515  15.506  0.4901  0.8539  0.0605
 7916SOL     OW35383   2.665   4.016   8.507 -0.4279 -0.0020 -0.0432
 7916SOL    HW135384   2.727   4.051   8.571  0.1193 -2.2345  0.6339
 7916SOL    HW235385   2.599   4.084   8.520 -1.6800 -1.0085 -1.2539
 7917SOL     OW35386   2.148   1.701  15.951  0.2704  0.0061 -0.4976
 7917SOL    HW135387   2.237   1.736  15.944  0.3748  0.5075  3.2720
 7917SOL    HW235388   2.092   1.773  15.922 -0.3778 -0.4723 -0.4260
 7918SOL     OW35389   2.618   0.634   3.439  0.1918 -0.7600  0.1565
 7918SOL    HW135390   2.566   0.563   3.477 -1.7177  0.1580 -0.7408
 7918SOL    HW235391   2.567   0.676   3.370  1.1450  0.0466 -0.0452
 7919SOL     OW35392   0.885   3.662  11.606 -0.0349 -0.4795  0.0466
 7919SOL    HW135393   0.977   3.688  11.612 -0.3241  0.5443  0.0941
 7919SOL    HW235394   0.893   3.572  11.574  1.1844 -0.5956  0.7024
 7920SOL     OW35395   0.389   0.224  14.952  0.0787  0.1153  0.2051
 7920SOL    HW135396   0.444   0.199  14.877  0.2921  1.1888  0.0070
 7920SOL    HW235397   0.416   0.149  15.005  1.6016 -0.3620 -1.2304
 7921SOL     OW35398   0.603   4.509  13.614 -0.8166 -0.1882  0.1034
 7921SOL    HW135399   0.608   4.446  13.686  0.7009 -0.5540 -0.3273
 7921SOL    HW235400   0.578   4.452  13.540 -3.4046  0.5417  0.4083
 7922SOL     OW35401   2.307   2.765  11.133 -0.0515  0.4198  0.4035
 7922SOL    HW135402   2.306   2.820  11.211  3.1844  3.0783 -1.4256
 7922SOL    HW235403   2.295   2.833  11.067 -1.7265  0.0230  0.2946
 7923SOL     OW35404   2.370   2.551   1.954 -0.0238  0.2036 -0.4294
 7923SOL    HW135405   2.340   2.553   1.863 -0.6180 -0.5176 -0.2494
 7923SOL    HW235406   2.418   2.468   1.953  0.0850  0.2672 -1.9734
 7924SOL     OW35407   0.004   1.236  11.284  0.6051 -0.2636 -0.0829
 7924SOL    HW135408   4.655   1.265  11.269  0.1697 -1.9472 -0.7381
 7924SOL    HW235409   0.059   1.294  11.231 -1.1019  1.2237 -0.2211
 7925SOL     OW35410   3.305   1.789  10.392  0.4895 -0.8931 -0.5174
 7925SOL    HW135411   3.228   1.798  10.336 -0.2991 -0.4964  0.6443
 7925SOL    HW235412   3.266   1.764  10.476  0.0833  2.1675  0.2213
 7926SOL     OW35413   3.483   3.747   2.080  0.2871  0.3628  0.0749
 7926SOL    HW135414   3.472   3.772   2.172  1.9962 -1.4733  0.7676
 7926SOL    HW235415   3.476   3.652   2.083  0.6421  0.2812 -1.9827
 7927SOL     OW35416   1.712   4.329   1.210 -0.3560 -0.2288  0.1308
 7927SOL    HW135417   1.791   4.286   1.178  1.6682  1.7256  2.4346
 7927SOL    HW235418   1.732   4.422   1.201  1.1024 -0.5079  0.4772
 7928SOL     OW35419   1.849   3.435  16.001 -0.3256  0.3265  0.0091
 7928SOL    HW135420   1.765   3.443  15.957 -0.0876 -3.3814 -1.1216
 7928SOL    HW235421   1.825   3.485  16.079  0.1034 -2.4226  1.9061
 7929SOL     OW35422   4.471   1.131  17.161 -0.7635 -0.3852 -0.5476
 7929SOL    HW135423   4.492   1.133  17.068  0.5959  1.4782 -0.1939
 7929SOL    HW235424   4.463   1.036  17.171 -1.3183 -0.0899  1.9831
 7930SOL     OW35425   2.762   4.511   1.361 -0.0213  0.3050 -0.1624
 7930SOL    HW135426   2.770   4.605   1.349 -0.8034  0.5636  1.3177
 7930SOL    HW235427   2.751   4.501   1.456 -2.2250 -1.0977 -0.5589
 7931SOL     OW35428   2.825   0.408  11.764  0.6653 -0.3855 -0.7106
 7931SOL    HW135429   2.848   0.451  11.846  0.2282 -4.5482  1.5627
 7931SOL    HW235430   2.844   0.483  11.707 -1.1649 -0.9196 -2.0145
 7932SOL     OW35431   2.012   2.330   7.767  0.2311  0.0585 -0.8656
 7932SOL    HW135432   2.087   2.344   7.709  0.0732  0.1412 -1.0516
 7932SOL    HW235433   1.958   2.396   7.723 -1.3099 -0.0799  0.7937
 7933SOL     OW35434   1.553   1.874   3.730  0.3550 -0.7145 -0.8408
 7933SOL    HW135435   1.499   1.883   3.808 -1.4486 -0.8749 -2.0697
 7933SOL    HW235436   1.484   1.902   3.670 -1.0738 -0.0206  1.1205
 7934SOL     OW35437   0.222   1.284   5.000 -0.4011 -0.1317  0.0476
 7934SOL    HW135438   0.150   1.328   4.954  0.2737 -0.4483 -1.3034
 7934SOL    HW235439   0.227   1.332   5.083  1.7558 -0.9600  0.3906
 7935SOL     OW35440   0.505   0.230   3.686 -0.5701  0.3205  0.4243
 7935SOL    HW135441   0.545   0.208   3.770  0.0031  0.2380  0.1297
 7935SOL    HW235442   0.411   0.222   3.699 -0.5452 -1.1526 -0.2683
 7936SOL     OW35443   3.938   3.691   5.558  0.4040  0.3110 -0.3850
 7936SOL    HW135444   4.024   3.651   5.566  0.3611  0.4456  0.8044
 7936SOL    HW235445   3.957   3.783   5.544  2.1898  0.2165  1.4366
 7937SOL     OW35446   3.272   4.209   5.710 -0.8097 -0.1225  0.1683
 7937SOL    HW135447   3.349   4.166   5.673 -1.7715  0.2010 -2.2226
 7937SOL    HW235448   3.297   4.301   5.700 -2.6497  0.3923  0.3964
 7938SOL     OW35449   4.617   1.032   3.201 -0.4562 -0.3988  0.1640
 7938SOL    HW135450   4.588   1.057   3.113 -0.8163 -1.3526  0.0101
 7938SOL    HW235451   4.708   1.061   3.207 -0.6397  0.3838 -0.8707
 7939SOL     OW35452   0.887   2.003   2.157  0.0092 -0.5414 -0.1953
 7939SOL    HW135453   0.815   1.980   2.098 -0.2729  0.3681 -0.2062
 7939SOL    HW235454   0.837   2.050   2.224 -1.4868 -2.1040 -0.2313
 7940SOL     OW35455   4.272   4.649   7.383  0.3316 -0.1038 -0.4064
 7940SOL    HW135456   4.236   4.562   7.365  0.2652 -0.0505 -0.5280
 7940SOL    HW235457   4.215   4.681   7.453  0.0642  0.6687 -0.9812
 7941SOL     OW35458   4.721   0.575   5.974  0.6032  0.4165 -0.4198
 7941SOL    HW135459   0.052   0.524   6.011 -0.4600 -0.5986  0.2578
 7941SOL    HW235460   4.646   0.516   5.971  0.7981  0.1960 -0.9430
 7942SOL     OW35461   4.328   1.460   8.223 -0.0156 -0.2366  0.1266
 7942SOL    HW135462   4.332   1.510   8.141 -0.4032 -2.6061 -1.3304
 7942SOL    HW235463   4.379   1.517   8.280  1.5872 -1.6252  0.0895
 7943SOL     OW35464   0.302   2.568  15.159 -0.4354  0.7077  0.1856
 7943SOL    HW135465   0.252   2.487  15.170  1.2955 -0.5312 -1.1935
 7943SOL    HW235466   0.251   2.628  15.213 -0.4946 -1.1711  2.2495
 7944SOL     OW35467   4.322   1.279   2.533 -0.4815  0.2661 -0.0548
 7944SOL    HW135468   4.408   1.237   2.542 -0.3032  0.5615 -0.3736
 7944SOL    HW235469   4.338   1.355   2.478 -0.3066  1.7146  2.0220
 7945SOL     OW35470   0.778   4.377   3.676 -0.3633  0.1335  0.5960
 7945SOL    HW135471   0.697   4.429   3.679  0.0333  0.5701  4.1954
 7945SOL    HW235472   0.822   4.397   3.594 -1.0972  1.2857  0.4844
 7946SOL     OW35473   2.741   4.165   5.722  0.1421 -0.3067 -0.0871
 7946SOL    HW135474   2.834   4.158   5.699 -0.1295  2.0878 -1.8334
 7946SOL    HW235475   2.701   4.125   5.645 -1.5806  1.0264  0.1332
 7947SOL     OW35476   0.149   1.149   3.241 -0.4462 -0.3696 -0.2031
 7947SOL    HW135477   0.155   1.224   3.181  0.0031  0.4577  0.8720
 7947SOL    HW235478   0.243   1.143   3.260 -0.1011  1.0000 -1.4633
 7948SOL     OW35479   2.504   2.877  12.037  0.2705 -0.0598 -0.3814
 7948SOL    HW135480   2.594   2.853  12.014  0.0220 -3.5253  2.3278
 7948SOL    HW235481   2.517   2.965  12.072  1.6774 -0.6948  0.6434
 7949SOL     OW35482   3.835   4.649   2.740  0.3241  0.4745 -0.0450
 7949SOL    HW135483   3.916   4.701   2.741  0.4587  0.3191 -3.0731
 7949SOL    HW235484   3.841   4.613   2.829  0.2179  0.6149  0.0184
 7950SOL     OW35485   2.237   3.657   9.158 -0.4040  0.0245 -0.1691
 7950SOL    HW135486   2.151   3.700   9.156 -0.7010 -0.4983  1.9533
 7950SOL    HW235487   2.259   3.700   9.240  0.3557  1.3542 -1.0753
 7951SOL     OW35488   0.219   2.642   8.005 -0.5179 -0.1710  0.0475
 7951SOL    HW135489   0.246   2.670   7.918 -0.9758  1.2219  0.3513
 7951SOL    HW235490   0.265   2.559   8.013  0.9779  0.7434  0.9525
 7952SOL     OW35491   1.174   4.583   2.325 -0.6257  0.1831  0.5517
 7952SOL    HW135492   1.150   4.519   2.391  2.5382 -1.0037  0.5515
 7952SOL    HW235493   1.263   4.604   2.352 -1.0005 -0.0977  1.9823
 7953SOL     OW35494   1.698   3.234  17.657 -0.1302 -0.5287  0.9070
 7953SOL    HW135495   1.628   3.277  17.609  0.4233 -1.7671 -1.0242
 7953SOL    HW235496   1.779   3.283  17.641 -0.2495 -0.7921 -0.4887
 7954SOL     OW35497   4.467   3.681   8.705  0.4341 -0.3681 -0.0168
 7954SOL    HW135498   4.436   3.767   8.678  1.7800 -0.0505 -0.5412
 7954SOL    HW235499   4.385   3.632   8.703  1.2244 -1.8837  3.6340
 7955SOL     OW35500   0.841   0.131  14.977 -0.1874 -0.5703  0.7429
 7955SOL    HW135501   0.821   0.166  14.890  0.2802  0.9998  1.2578
 7955SOL    HW235502   0.765   0.150  15.033 -1.8656 -1.3523 -1.2809
 7956SOL     OW35503   3.083   2.033  16.226 -0.1073  0.3509  0.1660
 7956SOL    HW135504   3.118   2.077  16.148 -2.0735  1.6476  0.0276
 7956SOL    HW235505   3.106   1.941  16.211 -2.8629 -0.1849 -0.9111
 7957SOL     OW35506   2.965   0.959   1.854 -0.2401 -0.0463 -0.5037
 7957SOL    HW135507   3.032   0.891   1.867 -1.3159 -0.6293  2.0752
 7957SOL    HW235508   2.889   0.904   1.835 -0.0752  0.5275 -2.8114
 7958SOL     OW35509   2.549   4.392   5.624  0.0924 -0.0977 -0.3725
 7958SOL    HW135510   2.600   4.311   5.621 -0.4982 -0.5166  1.2402
 7958SOL    HW235511   2.475   4.356   5.671  0.4350  0.9986  1.0164
 7959SOL     OW35512   0.171   2.151   4.391 -0.0688 -0.3090 -0.7558
 7959SOL    HW135513   0.102   2.090   4.366 -0.8681  0.6538 -0.9243
 7959SOL    HW235514   0.111   2.226   4.392  1.3895  0.8238  0.0188
 7960SOL     OW35515   2.183   0.413   3.898 -0.1180  0.1186 -0.0922
 7960SOL    HW135516   2.212   0.373   3.981  1.3895 -0.3103 -0.8191
 7960SOL    HW235517   2.264   0.429   3.849 -0.1790  0.5298 -0.0545
 7961SOL     OW35518   3.865   3.449  17.301 -0.6673  0.0012 -0.7931
 7961SOL    HW135519   3.813   3.449  17.381 -0.4425 -2.6146 -0.6222
 7961SOL    HW235520   3.826   3.364  17.280  0.8898 -1.4879  2.2146
 7962SOL     OW35521   4.091   3.369   6.624  0.7107  0.1177 -0.1998
 7962SOL    HW135522   4.095   3.281   6.659 -1.2075  1.0884  2.4089
 7962SOL    HW235523   4.160   3.413   6.674 -0.3865  1.5397  0.0633
 7963SOL     OW35524   0.509   2.316   6.387  0.3158 -0.5721 -0.5525
 7963SOL    HW135525   0.452   2.277   6.454  0.3344 -0.2361 -0.3400
 7963SOL    HW235526   0.570   2.244   6.375  1.9679  0.8271 -0.6041
 7964SOL     OW35527   2.817   0.544   7.435  0.3008 -0.1868 -0.2630
 7964SOL    HW135528   2.796   0.540   7.528 -0.8208 -1.1863 -0.5645
 7964SOL    HW235529   2.905   0.581   7.445 -0.5393  1.5636  0.6754
 7965SOL     OW35530   4.711   3.187   3.098 -0.1231  0.1030 -0.2841
 7965SOL    HW135531   4.722   3.095   3.074 -0.8000  0.1195 -0.6768
 7965SOL    HW235532   0.000   3.183   3.188 -2.0974 -1.6330  0.3044
 7966SOL     OW35533   2.853   1.672   7.013  0.4746  0.3479 -0.4457
 7966SOL    HW135534   2.865   1.584   7.049 -0.2072  0.3919 -0.0985
 7966SOL    HW235535   2.773   1.651   6.964  0.7084 -1.2835 -0.1331
 7967SOL     OW35536   4.405   0.055   8.485 -0.1689  0.5621  0.3536
 7967SOL    HW135537   4.344   0.124   8.509  0.7452  1.6797 -0.5035
 7967SOL    HW235538   4.345   4.722   8.490 -1.1606  1.2292 -1.8712
 7968SOL     OW35539   4.263   1.736  11.647 -0.0371  0.3798  0.2536
 7968SOL    HW135540   4.243   1.643  11.661 -1.3624  0.5006 -0.8400
 7968SOL    HW235541   4.297   1.739  11.558 -2.0232  0.2542 -0.5159
 7969SOL     OW35542   0.908   3.337   1.869 -0.2549 -0.2223 -0.0737
 7969SOL    HW135543   0.989   3.353   1.917 -0.8996 -0.8004  1.1927
 7969SOL    HW235544   0.868   3.269   1.923 -0.4926  0.4677  0.6028
 7970SOL     OW35545   4.555   0.196   2.287  0.5552 -0.6189 -0.4713
 7970SOL    HW135546   4.588   0.153   2.366 -0.5080  0.9453  0.8439
 7970SOL    HW235547   4.486   0.252   2.325  1.9625  0.0700  1.0558
 7971SOL     OW35548   3.777   2.902   5.928 -0.3521  0.0274  0.1801
 7971SOL    HW135549   3.691   2.895   5.887  0.8966 -0.3862 -2.3882
 7971SOL    HW235550   3.797   2.809   5.938 -0.0827 -0.1116 -1.6387
 7972SOL     OW35551   2.801   3.648  11.502  0.3117 -0.0823  0.3343
 7972SOL    HW135552   2.820   3.685  11.416  0.6022  0.8244  0.7765
 7972SOL    HW235553   2.888   3.649  11.543  0.3814 -0.9687  0.2009
 7973SOL     OW35554   4.453   3.764   4.021  0.7905  0.8023  0.2060
 7973SOL    HW135555   4.522   3.810   4.069 -0.4308  2.4384  0.3831
 7973SOL    HW235556   4.385   3.831   4.024 -0.2456 -0.3137  1.5939
 7974SOL     OW35557   3.455   2.421   5.160 -0.1825  0.5312 -0.1876
 7974SOL    HW135558   3.377   2.465   5.127 -1.3615  1.2079  3.4176
 7974SOL    HW235559   3.464   2.463   5.246 -2.0860  1.1908 -0.3207
 7975SOL     OW35560   2.151   3.132   7.201  0.6312 -0.0202  0.8482
 7975SOL    HW135561   2.227   3.074   7.205 -1.4923 -3.0245 -1.9539
 7975SOL    HW235562   2.192   3.214   7.174  2.9934 -1.4928  0.0181
 7976SOL     OW35563   1.517   4.130  10.773 -0.2140  0.0504 -0.2011
 7976SOL    HW135564   1.555   4.204  10.728  0.9550  0.4045  1.3513
 7976SOL    HW235565   1.542   4.140  10.865  1.1793 -0.2320 -0.5569
 7977SOL     OW35566   0.901   3.226   5.822 -0.1371 -0.1437 -0.2296
 7977SOL    HW135567   0.993   3.240   5.800  0.1865 -0.3701  0.9697
 7977SOL    HW235568   0.875   3.163   5.755 -2.0665  0.1456  0.2516
 7978SOL     OW35569   1.027   0.399   6.498 -0.1700  0.0111 -0.8741
 7978SOL    HW135570   0.999   0.413   6.588  0.6646 -1.2725 -0.4067
 7978SOL    HW235571   1.027   0.492   6.476  1.7009  0.0848 -0.5522
 7979SOL     OW35572   2.190   0.298   4.512  0.0425 -0.1700  0.1683
 7979SOL    HW135573   2.283   0.289   4.488 -0.4310  0.6099 -1.9434
 7979SOL    HW235574   2.156   0.211   4.493 -2.4365  0.8479 -0.0380
 7980SOL     OW35575   4.654   2.979  11.535 -0.4469  0.0724  0.2006
 7980SOL    HW135576   4.674   3.043  11.603  0.0326  0.6431 -0.4808
 7980SOL    HW235577   4.740   2.961  11.497 -0.0322  0.1189  1.1258
 7981SOL     OW35578   2.475   0.618   9.192 -0.0952 -0.3926 -0.4329
 7981SOL    HW135579   2.467   0.617   9.287 -1.2758 -0.9370 -0.5383
 7981SOL    HW235580   2.391   0.660   9.174  1.0837  1.3804 -1.7499
 7982SOL     OW35581   0.515   0.716  10.562  0.4653 -0.1507  0.1466
 7982SOL    HW135582   0.552   0.794  10.602 -1.2377  0.4361  0.5795
 7982SOL    HW235583   0.586   0.683  10.507  0.3975  0.5942 -0.3871
 7983SOL     OW35584   4.458   3.733   6.832  0.5250  0.1983 -0.2406
 7983SOL    HW135585   4.376   3.767   6.794  0.0637 -0.5413  0.0899
 7983SOL    HW235586   4.510   3.707   6.756  0.0566 -1.7506  0.1113
 7984SOL     OW35587   3.447   4.570   1.953  0.1397  0.6239 -0.8563
 7984SOL    HW135588   3.398   4.503   2.000 -0.1221  0.8595 -0.7935
 7984SOL    HW235589   3.415   4.549   1.865  0.0785 -1.0677 -0.4350
 7985SOL     OW35590   1.544   3.087   5.975 -0.1736 -0.1482 -0.9540
 7985SOL    HW135591   1.603   3.087   6.051 -0.7775 -0.0198 -0.4842
 7985SOL    HW235592   1.538   2.995   5.950  0.8367 -0.1164 -1.3093
 7986SOL     OW35593   2.549   1.564   3.967  0.0040  0.2226  0.3494
 7986SOL    HW135594   2.588   1.500   4.026  0.5528 -1.8421 -2.2566
 7986SOL    HW235595   2.626   1.614   3.941 -0.5796  1.2528  0.5942
 7987SOL     OW35596   1.256   0.697   1.669  0.5795 -0.6444  0.5197
 7987SOL    HW135597   1.233   0.789   1.686 -0.3464 -0.8761  0.5238
 7987SOL    HW235598   1.305   0.715   1.588 -0.3950 -0.5336 -0.0492
 7988SOL     OW35599   2.939   3.138   2.889 -0.1263 -0.8341 -0.2560
 7988SOL    HW135600   2.924   3.193   2.812 -2.0212 -1.3935 -0.3000
 7988SOL    HW235601   2.875   3.067   2.875 -1.2955  0.1417  0.1184
 7989SOL     OW35602   4.089   4.326   2.907  0.4225 -0.8411  0.8939
 7989SOL    HW135603   4.041   4.243   2.919 -0.9921  0.0630  1.4976
 7989SOL    HW235604   4.137   4.302   2.827 -0.3109 -0.7702  0.4311
 7990SOL     OW35605   2.736   3.693  10.859 -0.5946 -0.3102 -0.3092
 7990SOL    HW135606   2.776   3.701  10.946  1.0486 -1.5016 -0.9546
 7990SOL    HW235607   2.813   3.661  10.812 -0.0509 -0.3883  0.6220
 7991SOL     OW35608   4.110   0.574   2.454  0.4025  0.4837 -0.0404
 7991SOL    HW135609   4.070   0.507   2.509 -0.6291  0.7306 -0.4802
 7991SOL    HW235610   4.064   0.560   2.371  2.1052 -1.2443 -0.6838
 7992SOL     OW35611   1.488   0.303  17.355  0.2948 -0.1642 -0.6127
 7992SOL    HW135612   1.526   0.367  17.294  0.5197 -0.6637 -1.0041
 7992SOL    HW235613   1.492   0.225  17.300  0.3156  1.1133 -2.4408
 7993SOL     OW35614   1.416   0.283   0.026 -0.1681  0.1461  0.5159
 7993SOL    HW135615   1.345   0.271  17.724  0.9556 -1.6473 -0.4030
 7993SOL    HW235616   1.402   0.209   0.085 -0.5502 -0.7379 -0.7037
 7994SOL     OW35617   4.152   2.878  10.140 -0.5734 -0.4243  0.0445
 7994SOL    HW135618   4.198   2.795  10.141 -0.9444 -0.6254  0.6511
 7994SOL    HW235619   4.160   2.909  10.230 -0.1416 -0.3163 -0.0324
 7995SOL     OW35620   2.786   1.976   4.488  0.1321  0.0337 -0.1120
 7995SOL    HW135621   2.762   2.036   4.417 -2.9803 -1.1118 -0.0651
 7995SOL    HW235622   2.722   1.913   4.454 -1.3576  0.8826  1.1128
 7996SOL     OW35623   0.002   0.507   1.757 -0.0071  0.5380  0.6730
 7996SOL    HW135624   0.009   0.549   1.843 -1.2277  0.4554  0.8108
 7996SOL    HW235625   4.713   0.580   1.702 -0.2572  0.2412  0.4211
 7997SOL     OW35626   3.847   4.522   3.453 -0.2895  0.0267 -0.2009
 7997SOL    HW135627   3.932   4.486   3.474 -1.1248 -0.6242  2.0407
 7997SOL    HW235628   3.790   4.493   3.524  0.0131  1.9740  0.8604
 7998SOL     OW35629   1.455   1.441   2.131 -0.1495 -0.7012  0.0857
 7998SOL    HW135630   1.517   1.431   2.204  0.9187  0.0481 -0.7065
 7998SOL    HW235631   1.482   1.362   2.083 -1.8164 -0.7416 -0.7579
 7999SOL     OW35632   1.035   3.848  13.952 -0.0031  0.1105  0.3369
 7999SOL    HW135633   0.991   3.820  13.872 -0.9487  1.9419  0.2148
 7999SOL    HW235634   0.989   3.797  14.019 -0.4570 -0.7889 -0.6700
 8000SOL     OW35635   3.944   3.977   5.530 -0.3475 -0.1437 -0.7076
 8000SOL    HW135636   3.881   3.964   5.460 -0.4948  0.7580 -0.7338
 8000SOL    HW235637   3.992   4.056   5.504 -0.6611  0.2981  0.0501
 8001SOL     OW35638   1.565   0.945  10.767  0.1939  0.6091  0.0678
 8001SOL    HW135639   1.617   0.921  10.844  0.8136  1.8154  0.0310
 8001SOL    HW235640   1.507   0.869  10.770  1.4474 -0.2746  2.2191
 8002SOL     OW35641   0.422   4.387   8.798 -0.0813  0.2114  0.1968
 8002SOL    HW135642   0.330   4.369   8.816  0.3861 -0.6622  1.6799
 8002SOL    HW235643   0.418   4.476   8.762  1.1076  0.0734 -0.2782
 8003SOL     OW35644   0.203   0.184  17.742  0.3870 -0.1509  0.3055
 8003SOL    HW135645   0.147   0.111  17.718 -0.3719  0.5886 -0.1705
 8003SOL    HW235646   0.280   0.174  17.687  0.9487 -0.4649  1.1384
 8004SOL     OW35647   0.846   1.552  13.803 -0.0471  0.2811 -0.0586
 8004SOL    HW135648   0.926   1.499  13.806 -0.3334 -0.2025 -1.0282
 8004SOL    HW235649   0.778   1.495  13.765 -0.9058  0.5910  1.0080
 8005SOL     OW35650   1.616   0.933  15.457  0.2186 -0.2500  0.3591
 8005SOL    HW135651   1.699   0.958  15.416  0.4412 -1.4529  0.0878
 8005SOL    HW235652   1.553   0.986  15.408 -0.4528 -0.1423  1.3482
 8006SOL     OW35653   3.078   1.741   5.506 -0.4043  0.0057  0.2331
 8006SOL    HW135654   3.015   1.774   5.442 -0.5495  0.1857  0.4719
 8006SOL    HW235655   3.067   1.646   5.496 -0.8537  0.3195 -2.2960
 8007SOL     OW35656   1.318   3.141   8.740  0.6541  0.2959  0.2194
 8007SOL    HW135657   1.345   3.169   8.827  0.7228 -0.5149  0.4532
 8007SOL    HW235658   1.248   3.202   8.714  0.4562  0.6664  1.5807
 8008SOL     OW35659   4.580   1.349   3.772  0.0682  0.8823 -0.4844
 8008SOL    HW135660   4.574   1.259   3.805  0.4272  1.1822  0.3997
 8008SOL    HW235661   4.535   1.344   3.687  0.6305 -0.1554 -0.7145
 8009SOL     OW35662   2.749   2.997   4.450 -0.3194  0.3863 -0.4275
 8009SOL    HW135663   2.695   3.075   4.461  0.0694  0.4253  1.3603
 8009SOL    HW235664   2.784   2.993   4.540  2.0777 -0.7777 -1.4164
 8010SOL     OW35665   0.668   2.454   9.105 -0.2211 -0.1572  0.1361
 8010SOL    HW135666   0.709   2.459   9.019 -3.6269  1.9357 -1.3271
 8010SOL    HW235667   0.700   2.530   9.152  0.8309  0.1312 -1.0648
 8011SOL     OW35668   2.616   2.702   0.076 -0.1936 -0.1867 -0.1517
 8011SOL    HW135669   2.522   2.718   0.080 -0.4021 -1.7345  1.1955
 8011SOL    HW235670   2.638   2.745  17.754  0.8581  0.8317  0.6547
 8012SOL     OW35671   3.783   3.102   6.919 -0.3494 -0.1568 -0.2714
 8012SOL    HW135672   3.694   3.068   6.921 -0.5257  0.2792 -0.9965
 8012SOL    HW235673   3.830   3.029   6.878  0.0042  0.2778 -0.6337
 8013SOL     OW35674   1.750   3.648   8.335  0.0567 -0.0658 -0.4875
 8013SOL    HW135675   1.705   3.572   8.373  0.3265 -0.0302 -0.0984
 8013SOL    HW235676   1.683   3.654   8.267 -0.6206 -2.9105 -0.0689
 8014SOL     OW35677   1.422   3.069   6.708 -0.0104  0.0454  0.2465
 8014SOL    HW135678   1.476   3.141   6.675 -0.2742 -0.3402 -1.0059
 8014SOL    HW235679   1.492   3.022   6.754  1.4756  1.0036 -1.0540
 8015SOL     OW35680   3.359   0.113   4.080 -0.2876 -0.0794  0.0551
 8015SOL    HW135681   3.335   0.138   4.169 -3.4137 -2.7321 -0.0279
 8015SOL    HW235682   3.396   0.192   4.039  1.3955 -0.4857  0.7970
 8016SOL     OW35683   2.670   4.360   3.170  0.1124 -0.0366  0.3580
 8016SOL    HW135684   2.727   4.370   3.094  1.6064 -1.2577  1.3084
 8016SOL    HW235685   2.732   4.328   3.236  1.2242  1.8128  0.2348
 8017SOL     OW35686   4.172   2.638   9.666  0.7340  0.1900 -0.1166
 8017SOL    HW135687   4.174   2.551   9.626  0.0481 -0.1010  0.4924
 8017SOL    HW235688   4.079   2.642   9.687  0.4442  3.2619 -1.9566
 8018SOL     OW35689   1.183   1.846   4.535 -0.4363 -0.9125  0.3431
 8018SOL    HW135690   1.159   1.855   4.627 -0.0436  2.8697  0.0849
 8018SOL    HW235691   1.179   1.936   4.504  2.0581 -0.9343 -0.0229
 8019SOL     OW35692   4.174   2.253  13.094  0.4759 -0.7677 -0.0549
 8019SOL    HW135693   4.157   2.330  13.039  2.1857  0.2412  0.8438
 8019SOL    HW235694   4.255   2.223  13.054  0.1624 -1.5564 -0.0957
 8020SOL     OW35695   2.572   0.189   3.498 -0.3716 -0.0372 -0.5371
 8020SOL    HW135696   2.653   0.183   3.446  1.4864  0.3238  2.3335
 8020SOL    HW235697   2.499   0.168   3.440  0.4415  3.5284 -2.8646
 8021SOL     OW35698   2.347   0.130   3.360  0.2622  0.6214 -0.6566
 8021SOL    HW135699   2.332   0.036   3.370  0.2767  0.6496 -0.3824
 8021SOL    HW235700   2.294   0.140   3.280 -1.1547  0.4401  0.2586
 8022SOL     OW35701   3.612   4.153   3.668 -0.0884 -0.2510  0.7168
 8022SOL    HW135702   3.535   4.098   3.681 -0.4898  0.4885  1.5157
 8022SOL    HW235703   3.586   4.223   3.729  0.1057  2.6412 -2.4901
 8023SOL     OW35704   1.119   1.771   1.884  0.1369 -0.2372 -0.3160
 8023SOL    HW135705   1.146   1.858   1.913 -4.0740  1.4810 -1.5894
 8023SOL    HW235706   1.201   1.727   1.906  1.6367  2.7828  0.1811
 8024SOL     OW35707   4.390   3.831  17.429 -0.2414  0.0634  1.4751
 8024SOL    HW135708   4.309   3.821  17.478 -0.3219 -0.3043  1.2688
 8024SOL    HW235709   4.387   3.756  17.370  0.6069  0.3641  1.0319
 8025SOL     OW35710   4.143   3.607   7.231 -0.7441 -0.4520 -0.4259
 8025SOL    HW135711   4.111   3.685   7.186  0.4439  1.9551  2.8762
 8025SOL    HW235712   4.215   3.650   7.277 -2.3633 -0.3611  2.0554
 8026SOL     OW35713   4.071   0.088   9.547 -0.0645 -0.4606  0.0891
 8026SOL    HW135714   4.103   0.042   9.625  1.8477 -0.1187 -0.5228
 8026SOL    HW235715   3.996   0.139   9.578  0.6601  1.5308 -1.4684
 8027SOL     OW35716   4.017   0.505   4.054 -0.3937  0.1785  0.2666
 8027SOL    HW135717   4.037   0.598   4.050 -1.5456  0.4623  1.2569
 8027SOL    HW235718   3.948   0.506   4.120  0.5071  1.2636  1.1856
 8028SOL     OW35719   0.358   3.871  17.222 -0.0234 -1.1726 -0.3157
 8028SOL    HW135720   0.312   3.877  17.138  1.4457  2.7666 -0.8181
 8028SOL    HW235721   0.288   3.844  17.281 -0.9066  3.4635  0.7416
 8029SOL     OW35722   4.546   4.227  15.166 -0.7026 -1.2533  0.1724
 8029SOL    HW135723   4.631   4.198  15.131  0.3049 -0.1322  1.6701
 8029SOL    HW235724   4.537   4.313  15.125  1.0208 -1.3041 -0.3297
 8030SOL     OW35725   0.106   2.394  10.689  0.3040 -0.2829 -0.6123
 8030SOL    HW135726   0.028   2.396  10.745 -0.2673  1.1008 -1.4605
 8030SOL    HW235727   0.071   2.330  10.627  0.6115 -0.2538 -0.8107
 8031SOL     OW35728   2.473   2.111   5.132  0.5581  0.1610  0.2361
 8031SOL    HW135729   2.490   2.128   5.225 -0.2918 -4.4999  1.2686
 8031SOL    HW235730   2.409   2.040   5.137 -0.2122  0.9220  1.2442
 8032SOL     OW35731   3.541   4.252   7.526 -0.1221  0.1511  0.2998
 8032SOL    HW135732   3.450   4.224   7.518 -0.8576  3.0881 -1.8002
 8032SOL    HW235733   3.536   4.319   7.594 -0.2970  0.8243 -0.3772
 8033SOL     OW35734   1.066   2.025   3.207  0.0133 -0.3179 -0.0996
 8033SOL    HW135735   1.067   2.018   3.302 -0.3055 -3.1197 -0.3152
 8033SOL    HW235736   0.972   2.030   3.187  0.1782  0.3284 -0.7386
 8034SOL     OW35737   0.210   2.746   9.616 -0.5536  0.2681  0.1751
 8034SOL    HW135738   0.146   2.804   9.575  0.5707 -0.2758 -2.3740
 8034SOL    HW235739   0.280   2.812   9.620 -0.5206  0.0427  3.3794
 8035SOL     OW35740   3.966   2.170   2.342 -0.1054 -0.3898  0.0565
 8035SOL    HW135741   4.001   2.107   2.279  2.0556  0.1442  0.7227
 8035SOL    HW235742   3.877   2.135   2.344  0.0511 -0.7802  0.3405
 8036SOL     OW35743   3.290   4.246   5.266 -0.4191 -0.3354 -0.3719
 8036SOL    HW135744   3.212   4.279   5.311 -0.9199 -0.0117 -1.4930
 8036SOL    HW235745   3.345   4.324   5.275  1.3108 -1.5853 -0.1599
 8037SOL     OW35746   0.695   4.685   8.890  0.0478  0.6503 -0.4297
 8037SOL    HW135747   0.777   4.693   8.843 -0.2394  1.4633 -0.7855
 8037SOL    HW235748   0.632   4.660   8.822 -1.4539  0.7302  0.9323
 8038SOL     OW35749   4.589   3.653   6.617  0.1230  0.2635  0.0393
 8038SOL    HW135750   4.530   3.634   6.544  1.3826 -2.2348 -0.3383
 8038SOL    HW235751   4.667   3.677   6.567 -0.0270  1.2992  0.3127
 8039SOL     OW35752   3.956   3.621   4.800  0.2923 -0.5624 -0.1775
 8039SOL    HW135753   4.032   3.604   4.745 -1.1789 -0.9015 -2.1079
 8039SOL    HW235754   3.992   3.692   4.853  1.6135 -2.0587  0.9365
 8040SOL     OW35755   2.967   2.947   7.584  0.0351 -0.2313 -0.3423
 8040SOL    HW135756   2.983   2.855   7.604  0.1587  0.2177  1.6816
 8040SOL    HW235757   3.054   2.986   7.578 -0.5804  1.0995 -0.7343
 8041SOL     OW35758   2.182   2.237  17.358 -0.9105 -0.4140  0.3590
 8041SOL    HW135759   2.167   2.287  17.278  0.1820  0.6754  0.8357
 8041SOL    HW235760   2.266   2.275  17.384 -0.8800 -0.3549  0.1785
 8042SOL     OW35761   3.773   1.569   2.330  0.4533 -0.1832  0.2310
 8042SOL    HW135762   3.809   1.482   2.311  0.0245  0.0478 -1.6158
 8042SOL    HW235763   3.785   1.581   2.424 -1.2680  1.7509  0.1809
 8043SOL     OW35764   2.555   0.588   1.984  0.3439 -0.1495 -0.2895
 8043SOL    HW135765   2.600   0.504   1.975  0.7258  0.0284 -0.0037
 8043SOL    HW235766   2.525   0.611   1.896 -0.8283 -1.2486 -0.1867
 8044SOL     OW35767   2.954   0.329   7.161 -0.0637 -0.8995  0.5950
 8044SOL    HW135768   3.049   0.331   7.154  0.0092 -3.1648  1.0992
 8044SOL    HW235769   2.940   0.254   7.219 -2.4521 -1.5944 -0.8722
 8045SOL     OW35770   2.405   0.691  10.447 -0.4936 -0.2789  0.2267
 8045SOL    HW135771   2.366   0.634  10.381  0.6295 -1.5116  0.6359
 8045SOL    HW235772   2.355   0.674  10.527 -2.1198  3.1758 -0.0235
 8046SOL     OW35773   2.955   4.437   4.250 -0.0201 -0.3748 -0.3142
 8046SOL    HW135774   3.024   4.451   4.315 -0.8554 -0.0443  0.4929
 8046SOL    HW235775   2.958   4.520   4.203 -0.2918 -0.9899 -1.4098
 8047SOL     OW35776   0.507   0.958   1.391  0.8978 -0.0831 -0.2641
 8047SOL    HW135777   0.600   0.938   1.397  0.7584 -0.7086 -0.2639
 8047SOL    HW235778   0.468   0.895   1.451 -0.3526  0.9928  0.0594
 8048SOL     OW35779   2.278   4.563   5.292  0.2089 -0.3821  0.1751
 8048SOL    HW135780   2.362   4.522   5.311 -0.0866 -1.5647 -0.9928
 8048SOL    HW235781   2.255   4.515   5.212  1.1879  1.0608 -0.9676
 8049SOL     OW35782   4.599   0.980   6.611  0.5377 -0.2472  0.1236
 8049SOL    HW135783   4.573   1.010   6.524 -0.2015  2.6993  1.3256
 8049SOL    HW235784   4.646   1.061   6.635 -1.8732  2.1465 -3.1828
 8050SOL     OW35785   0.848   4.007   0.217 -0.5548 -0.1966 -0.4741
 8050SOL    HW135786   0.848   3.912   0.208  2.4056 -0.4182  2.1176
 8050SOL    HW235787   0.809   4.020   0.304  1.1554  0.3461  0.2109
 8051SOL     OW35788   3.804   4.653   5.171 -0.2260  0.1036  0.1493
 8051SOL    HW135789   3.838   4.565   5.156  0.6070  0.4524 -0.0276
 8051SOL    HW235790   3.779   4.647   5.263  3.2190  3.3299  1.3487
 8052SOL     OW35791   2.313   0.077   2.474  0.2497 -0.1209  0.2992
 8052SOL    HW135792   2.283   0.137   2.542 -0.1079 -0.8471  0.7809
 8052SOL    HW235793   2.409   0.079   2.470  0.3597 -0.2831  3.0856
 8053SOL     OW35794   1.939   0.344  17.385 -0.0148  0.1996  0.0631
 8053SOL    HW135795   1.911   0.399  17.312  0.0600 -1.6028 -1.3118
 8053SOL    HW235796   1.897   0.261  17.363  1.0542 -0.4130  0.3220
 8054SOL     OW35797   1.223   2.383   6.766  0.2509 -0.4872 -0.2003
 8054SOL    HW135798   1.267   2.435   6.834  0.3004 -1.4002  0.4688
 8054SOL    HW235799   1.281   2.308   6.750 -0.5443 -0.7477 -1.7717
 8055SOL     OW35800   1.373   3.619   0.066  0.3170 -0.4608 -0.4560
 8055SOL    HW135801   1.282   3.633   0.091  0.6367 -0.6320  0.8252
 8055SOL    HW235802   1.361   3.527   0.042  2.4924 -0.4922 -1.4663
 8056SOL     OW35803   1.609   0.006  15.521  0.0050 -0.2469  0.4575
 8056SOL    HW135804   1.543   4.720  15.584 -1.0747  1.2277 -0.0498
 8056SOL    HW235805   1.652   0.078  15.567  0.3797 -1.0425  1.3401
 8057SOL     OW35806   1.304   2.959  14.504  0.4176 -0.1017 -0.2942
 8057SOL    HW135807   1.320   3.050  14.481  1.3944 -1.2018 -3.9154
 8057SOL    HW235808   1.233   2.937  14.444  1.0643 -1.7226 -0.4725
 8058SOL     OW35809   0.268   3.105   0.511 -0.1550 -0.5789  0.1690
 8058SOL    HW135810   0.191   3.052   0.491 -1.3659  1.1545  0.2591
 8058SOL    HW235811   0.233   3.192   0.530  1.6462  0.0331  0.6608
 8059SOL     OW35812   3.692   2.459  17.186  0.0327 -0.3839 -0.3348
 8059SOL    HW135813   3.666   2.529  17.246  0.5942  2.0242 -2.9200
 8059SOL    HW235814   3.612   2.417  17.155  0.7127 -0.7146 -1.6600
 8060SOL     OW35815   1.034   0.653   8.737 -0.4015 -0.4158  0.0748
 8060SOL    HW135816   0.976   0.583   8.766  0.8607 -1.1314  0.8893
 8060SOL    HW235817   1.109   0.631   8.792 -0.7937 -2.3367 -0.1706
 8061SOL     OW35818   4.334   3.495   8.270  0.0342 -0.0195  0.3220
 8061SOL    HW135819   4.405   3.476   8.330 -1.9168 -0.3332  2.5393
 8061SOL    HW235820   4.338   3.423   8.207  1.0888 -1.1934  1.7549
 8062SOL     OW35821   3.964   1.551  14.958  0.2149 -0.1341 -0.2780
 8062SOL    HW135822   3.913   1.502  15.023 -0.4683  1.1666  0.1813
 8062SOL    HW235823   3.892   1.608  14.930 -0.7261 -0.8785  0.5978
 8063SOL     OW35824   0.087   4.118   5.243  0.0260  1.2232 -0.5433
 8063SOL    HW135825   0.090   4.211   5.264  0.8062  1.1110 -0.1675
 8063SOL    HW235826   0.086   4.085   5.333 -1.1240  0.1070 -0.9686
 8064SOL     OW35827   3.269   3.406   9.020 -0.2137 -0.0834 -0.0891
 8064SOL    HW135828   3.201   3.341   9.002  0.5670 -0.6292 -1.0082
 8064SOL    HW235829   3.352   3.358   9.017  0.5681  1.2623  0.2498
 8065SOL     OW35830   4.192   4.517  13.190 -0.3069  0.1392 -0.0251
 8065SOL    HW135831   4.217   4.600  13.150 -1.2986  1.2604  1.6902
 8065SOL    HW235832   4.109   4.545  13.228  0.5199  2.5186  0.0253
 8066SOL     OW35833   3.516   4.449   0.991  0.4624  0.1818  0.2828
 8066SOL    HW135834   3.548   4.449   0.901 -0.0270  2.0007  0.0982
 8066SOL    HW235835   3.576   4.487   1.054 -0.7833  2.3451  0.1687
 8067SOL     OW35836   2.045   0.734   9.366 -0.0918 -0.2876 -0.2502
 8067SOL    HW135837   2.054   0.641   9.344  0.2711 -0.2033 -0.4540
 8067SOL    HW235838   1.991   0.733   9.446  0.4041 -1.1777  0.0723
 8068SOL     OW35839   4.590   4.435   8.328  0.4386  0.0251 -0.1142
 8068SOL    HW135840   4.615   4.527   8.334  2.0696 -0.5261  1.4208
 8068SOL    HW235841   4.498   4.440   8.355  0.4316 -0.6093 -0.0131
 8069SOL     OW35842   2.045   2.957   9.038 -0.1391  0.0978  0.0620
 8069SOL    HW135843   2.107   2.944   9.110  1.6778 -0.5117 -1.6208
 8069SOL    HW235844   2.069   3.045   9.009  0.3650 -0.8938 -2.5133
 8070SOL     OW35845   3.649   3.948   2.012 -0.3115 -0.2244  0.1891
 8070SOL    HW135846   3.567   3.898   2.019 -0.2023 -0.5222 -0.6257
 8070SOL    HW235847   3.694   3.871   1.978  0.9169  0.5347  0.0997
 8071SOL     OW35848   4.041   3.570   2.786 -0.6240 -0.5334  0.0548
 8071SOL    HW135849   4.112   3.519   2.825  0.0776  1.3129  1.1723
 8071SOL    HW235850   4.048   3.544   2.694 -1.2262 -0.2725 -0.0680
 8072SOL     OW35851   4.107   0.102   5.681 -0.4856 -0.4080 -0.4125
 8072SOL    HW135852   4.182   0.064   5.726 -1.7675 -0.7554  1.4331
 8072SOL    HW235853   4.046   0.110   5.754 -1.5870 -0.6894 -1.2974
 8073SOL     OW35854   4.251   1.065   3.962 -0.1477 -0.7878  0.1182
 8073SOL    HW135855   4.161   1.050   3.990  0.3977 -0.5440  2.0066
 8073SOL    HW235856   4.243   1.084   3.868 -0.9128  0.7645  0.4892
 8074SOL     OW35857   1.849   2.904  10.840 -0.6521  0.3554  0.3138
 8074SOL    HW135858   1.878   2.982  10.888  0.6267 -0.7557  1.3515
 8074SOL    HW235859   1.868   2.837  10.906 -0.1809  1.1396  0.9762
 8075SOL     OW35860   4.034   2.781   5.698 -0.4621 -0.0962 -0.1564
 8075SOL    HW135861   4.007   2.763   5.788 -0.5596  1.0759  0.0400
 8075SOL    HW235862   3.955   2.752   5.651 -0.4716 -0.5752  0.1542
 8076SOL     OW35863   3.229   4.458  10.200  0.1851  0.1581  0.3219
 8076SOL    HW135864   3.297   4.524  10.189 -0.9170  1.1579 -0.5426
 8076SOL    HW235865   3.288   4.383  10.193 -1.3677 -0.8986 -1.6491
 8077SOL     OW35866   2.092   0.576   6.414 -0.3080 -0.3461  0.0863
 8077SOL    HW135867   2.018   0.594   6.472  0.9803 -1.8512  2.1870
 8077SOL    HW235868   2.156   0.641   6.442 -0.3450  1.0162 -2.9772
 8078SOL     OW35869   2.858   0.677   3.271 -1.0350 -0.1404  0.6135
 8078SOL    HW135870   2.779   0.666   3.323 -1.3737 -1.9068 -0.2827
 8078SOL    HW235871   2.865   0.588   3.236  1.1175  1.0237 -1.9764
 8079SOL     OW35872   2.863   3.106   9.505  0.0926 -0.0262  0.2004
 8079SOL    HW135873   2.791   3.166   9.529 -0.3503 -0.3738 -0.2657
 8079SOL    HW235874   2.874   3.068   9.592 -0.1434  1.8096  1.0416
 8080SOL     OW35875   3.357   2.059   1.923 -0.3822 -0.2236  0.0967
 8080SOL    HW135876   3.319   2.133   1.876 -0.6214 -0.0074  0.6387
 8080SOL    HW235877   3.292   2.047   1.992  0.2650 -1.1770  0.5302
 8081SOL     OW35878   1.743   2.147  15.442  0.0739 -0.1969  0.3132
 8081SOL    HW135879   1.691   2.201  15.382  0.4348 -0.1641  0.0359
 8081SOL    HW235880   1.676   2.090  15.481  0.3155  0.7307  2.0773
 8082SOL     OW35881   1.182   4.050   7.619  0.2917 -0.1950 -0.0980
 8082SOL    HW135882   1.222   4.113   7.678 -2.1239  0.7827  0.4781
 8082SOL    HW235883   1.152   4.109   7.550 -1.3785 -1.7694 -0.7361
 8083SOL     OW35884   4.215   4.281   3.963  0.4016  0.0303  0.2735
 8083SOL    HW135885   4.168   4.329   4.032  2.4629  0.3807  1.4271
 8083SOL    HW235886   4.153   4.210   3.946 -0.6436  1.0632 -0.2602
 8084SOL     OW35887   4.526   1.646   2.769 -0.1532 -0.0588  0.1378
 8084SOL    HW135888   4.539   1.649   2.674 -2.3105 -0.7407 -0.1871
 8084SOL    HW235889   4.466   1.721   2.778  0.1672  0.2500 -0.3065
 8085SOL     OW35890   3.041   1.954   8.640  0.2080 -0.1549  0.1790
 8085SOL    HW135891   3.083   1.874   8.674 -1.5547 -1.8326 -1.5926
 8085SOL    HW235892   3.048   2.009   8.718 -1.0454  2.4731 -1.5836
 8086SOL     OW35893   2.724   0.777   1.003  0.1619  0.3317  0.3452
 8086SOL    HW135894   2.775   0.820   0.935 -2.0446 -1.3465 -2.3559
 8086SOL    HW235895   2.699   0.695   0.960 -0.9914 -0.1349  1.8899
 8087SOL     OW35896   1.473   2.536   7.289 -0.4199 -0.0892  0.3436
 8087SOL    HW135897   1.455   2.629   7.282  2.3386  0.4428  0.4140
 8087SOL    HW235898   1.407   2.512   7.354 -0.2584 -0.9077  0.2096
 8088SOL     OW35899   3.315   4.695   1.342  0.1973  0.2366 -0.1725
 8088SOL    HW135900   3.332   4.731   1.255 -0.5992 -0.2917 -0.5492
 8088SOL    HW235901   3.331   4.602   1.327 -1.7224 -0.2077  0.5899
 8089SOL     OW35902   4.632   3.572   7.716  0.0173 -0.4709 -0.3746
 8089SOL    HW135903   4.673   3.541   7.797  2.8786  1.6467 -0.9879
 8089SOL    HW235904   4.588   3.488   7.707  0.9843 -1.0749  0.4296
 8090SOL     OW35905   2.698   2.417   1.769  0.3112 -0.4725  0.1287
 8090SOL    HW135906   2.672   2.509   1.773  2.2757  0.0916 -0.3208
 8090SOL    HW235907   2.793   2.426   1.769  0.2183  0.5025  1.0588
 8091SOL     OW35908   2.210   0.759   6.799  0.6861 -0.2292  0.0532
 8091SOL    HW135909   2.148   0.705   6.846  0.7261 -0.0757  0.2787
 8091SOL    HW235910   2.274   0.774   6.869  1.6289  0.0179 -0.8555
 8092SOL     OW35911   4.382   4.254   4.320 -0.0905 -0.0166 -0.1496
 8092SOL    HW135912   4.289   4.268   4.340  0.0561 -3.7172  3.1300
 8092SOL    HW235913   4.420   4.308   4.389  1.2920  0.0464 -0.9534
 8093SOL     OW35914   2.560   0.158   1.320 -0.2315 -0.4854 -0.0184
 8093SOL    HW135915   2.647   0.119   1.322  0.2629  0.6501  0.3260
 8093SOL    HW235916   2.578   0.235   1.267 -2.2353 -2.3658 -3.4130
 8094SOL     OW35917   4.444   3.133  10.910  0.2030  0.3560 -0.1406
 8094SOL    HW135918   4.520   3.175  10.871  0.7897 -1.3143 -0.8192
 8094SOL    HW235919   4.481   3.060  10.960 -1.4639 -0.0514  0.5056
 8095SOL     OW35920   2.204   4.131   9.174  0.1576 -0.4181  0.5454
 8095SOL    HW135921   2.191   4.226   9.167  3.2071 -0.0125  0.4096
 8095SOL    HW235922   2.294   4.116   9.144 -0.3848 -2.4511 -0.0490
 8096SOL     OW35923   2.351   4.259   6.170 -0.4306 -0.3739 -0.1778
 8096SOL    HW135924   2.313   4.228   6.252  0.6017  1.4083  0.9560
 8096SOL    HW235925   2.315   4.190   6.114  1.2652 -0.7869 -0.7625
 8097SOL     OW35926   2.693   4.218   4.248 -0.1502 -1.1837  0.3239
 8097SOL    HW135927   2.787   4.204   4.252  0.1333 -0.0742 -2.1593
 8097SOL    HW235928   2.677   4.293   4.305 -1.9048 -1.5715  0.3507
 8098SOL     OW35929   0.192   4.200   3.260 -0.2166 -0.3310 -0.7148
 8098SOL    HW135930   0.260   4.267   3.250  0.3432 -0.5338  1.6201
 8098SOL    HW235931   0.186   4.199   3.356 -2.6880  0.5391 -0.8569
 8099SOL     OW35932   2.685   3.625   7.535 -0.4832 -0.6655  0.1734
 8099SOL    HW135933   2.716   3.548   7.582 -1.9077 -1.4532 -0.2162
 8099SOL    HW235934   2.592   3.618   7.553 -0.8173  1.0287 -0.9285
 8100SOL     OW35935   2.753   2.934   5.379  0.2418 -0.1197  0.2686
 8100SOL    HW135936   2.722   2.881   5.452  1.0137 -0.5105  0.3080
 8100SOL    HW235937   2.843   2.955   5.403 -0.5572  3.2353  0.4421
 8101SOL     OW35938   0.591   0.373  16.452 -0.2189  0.1461  0.4551
 8101SOL    HW135939   0.682   0.402  16.456  0.2364 -1.0701 -0.8015
 8101SOL    HW235940   0.546   0.434  16.511 -0.6638 -0.9482  1.2443
 8102SOL     OW35941   3.926   1.799   5.493  0.4274 -0.1795 -0.5207
 8102SOL    HW135942   4.016   1.828   5.505  0.7834 -0.8890 -1.5351
 8102SOL    HW235943   3.878   1.873   5.530  2.4350  0.8227  0.0705
 8103SOL     OW35944   4.350   3.955  16.121 -0.6209 -0.1665  0.1828
 8103SOL    HW135945   4.426   3.997  16.081 -1.3746  1.6131  0.6642
 8103SOL    HW235946   4.301   4.036  16.123  0.1026  0.2909 -0.9629
 8104SOL     OW35947   0.464   1.616   5.753  0.4862  0.2242 -0.0272
 8104SOL    HW135948   0.551   1.656   5.744  1.1005 -1.6015 -2.1906
 8104SOL    HW235949   0.410   1.673   5.699 -1.9506 -3.9834 -2.0362
 8105SOL     OW35950   3.027   2.119   0.354 -0.3156 -0.0190  0.1671
 8105SOL    HW135951   2.938   2.154   0.351 -0.7695 -1.0530  1.6139
 8105SOL    HW235952   3.015   2.024   0.352 -1.0522  0.0756  0.1906
 8106SOL     OW35953   4.427   3.356   7.367 -0.3095  0.0743 -0.1595
 8106SOL    HW135954   4.496   3.295   7.396 -1.0510 -1.9530 -2.6263
 8106SOL    HW235955   4.486   3.411   7.315 -1.5399  1.2481 -0.2882
 8107SOL     OW35956   1.317   0.609   0.792 -0.4272  0.5338 -0.1047
 8107SOL    HW135957   1.245   0.650   0.744 -0.0425 -0.4437 -1.4892
 8107SOL    HW235958   1.333   0.521   0.758  1.7757  1.0735 -0.4392
 8108SOL     OW35959   4.381   2.250   2.408  0.0434  0.9142  0.0613
 8108SOL    HW135960   4.437   2.237   2.485  0.8929  0.0822 -0.6907
 8108SOL    HW235961   4.326   2.172   2.402  2.0007 -0.5393  0.5935
 8109SOL     OW35962   0.568   1.740   8.818  0.0308  0.1606  0.3661
 8109SOL    HW135963   0.495   1.797   8.792  0.0733  0.1519  0.2291
 8109SOL    HW235964   0.522   1.664   8.855  1.1621  0.0190  1.4788
 8110SOL     OW35965   4.448   4.164   7.751 -0.1447 -0.4303 -0.0791
 8110SOL    HW135966   4.366   4.147   7.797  0.9754  0.8868  2.4325
 8110SOL    HW235967   4.451   4.088   7.693  1.0176 -0.6577  0.2745
 8111SOL     OW35968   1.618   3.487  10.188  0.7772 -0.6290 -0.8238
 8111SOL    HW135969   1.687   3.457  10.248  0.0377 -0.5290  0.0697
 8111SOL    HW235970   1.667   3.562  10.155  2.8241  0.5698  4.8037
 8112SOL     OW35971   0.217   0.877   2.015 -0.1366 -0.3301 -0.2101
 8112SOL    HW135972   0.210   0.819   1.939  2.7138 -1.3477  0.3113
 8112SOL    HW235973   0.229   0.957   1.965 -0.5202 -1.3817 -1.9880
 8113SOL     OW35974   1.437   1.137  13.886 -0.4680  0.1072 -0.2522
 8113SOL    HW135975   1.344   1.152  13.901 -0.8092 -2.0212 -0.3339
 8113SOL    HW235976   1.422   1.092  13.803  1.0179  0.4689 -0.7232
 8114SOL     OW35977   1.873   1.181   6.660  0.5683  0.2950  0.2949
 8114SOL    HW135978   1.902   1.107   6.606 -0.2432 -0.1690  0.4934
 8114SOL    HW235979   1.886   1.142   6.747  1.3689 -3.4384 -1.5108
 8115SOL     OW35980   0.920   4.212   5.612  0.4560  0.2632 -0.6268
 8115SOL    HW135981   0.877   4.144   5.664  0.5464  0.5147 -0.2294
 8115SOL    HW235982   0.947   4.282   5.671  2.3353 -0.3447 -0.7676
 8116SOL     OW35983   2.189   3.614   2.872 -0.5539 -0.3470  0.1328
 8116SOL    HW135984   2.136   3.534   2.876  0.8498 -1.1184  3.3196
 8116SOL    HW235985   2.266   3.579   2.828  0.1095 -0.9302  1.7676
 8117SOL     OW35986   1.684   2.868   6.844  0.0304  0.1227  0.2560
 8117SOL    HW135987   1.632   2.892   6.921 -0.9380  2.1818 -1.0234
 8117SOL    HW235988   1.709   2.779   6.868  0.4039  0.1797  0.0762
 8118SOL     OW35989   3.257   3.826   1.939  0.2609  0.4155 -0.3831
 8118SOL    HW135990   3.236   3.741   1.900 -0.1948 -0.2495  1.2903
 8118SOL    HW235991   3.325   3.792   1.998 -1.8126 -2.0627  0.6137
 8119SOL     OW35992   4.623   1.447   6.533  0.3490 -0.0241  0.5877
 8119SOL    HW135993   4.696   1.385   6.524  1.2787  1.0182  0.9028
 8119SOL    HW235994   4.639   1.480   6.621  0.6668 -0.4932  0.7039
 8120SOL     OW35995   0.325   4.658   2.511  0.0097 -0.2255  0.0800
 8120SOL    HW135996   0.393   4.711   2.470  0.1960  0.1912  0.9093
 8120SOL    HW235997   0.380   4.604   2.569  0.4380 -0.6763 -0.7576
 8121SOL     OW35998   3.847   4.100   4.873  0.4532 -0.5481 -0.2918
 8121SOL    HW135999   3.872   4.031   4.810  0.7644  2.7862 -3.8238
 8121SOL    HW236000   3.781   4.050   4.921 -3.4277  1.8368 -3.1698
 8122SOL     OW36001   0.040   1.606  12.369 -0.4638  0.1432  0.2757
 8122SOL    HW136002   0.006   1.538  12.427 -0.6561  0.6681  0.7817
 8122SOL    HW236003   0.051   1.684  12.423  0.3778 -0.0409  0.3721
 8123SOL     OW36004   2.129   4.016   5.154  0.5123 -0.1640  0.4465
 8123SOL    HW136005   2.047   4.049   5.117  0.4592  2.4975  2.9483
 8123SOL    HW236006   2.166   3.989   5.070 -2.7421  0.5547 -1.2253
 8124SOL     OW36007   4.038   0.453   8.349 -0.5125 -0.6853  0.1392
 8124SOL    HW136008   3.951   0.491   8.336 -0.1712 -0.1958 -0.7812
 8124SOL    HW236009   4.041   0.414   8.436 -0.9542  0.3888  0.6369
 8125SOL     OW36010   0.810   4.569  11.593 -0.4159  0.2975 -0.4480
 8125SOL    HW136011   0.774   4.585  11.680 -1.8804  1.4102 -1.2695
 8125SOL    HW236012   0.880   4.506  11.612 -1.4199 -0.3586  1.0011
 8126SOL     OW36013   4.172   2.425   7.334 -0.0171 -0.3639 -0.6591
 8126SOL    HW136014   4.088   2.440   7.291 -1.5729  0.3287  2.5458
 8126SOL    HW236015   4.212   2.361   7.276  0.8530 -1.7035  1.3821
 8127SOL     OW36016   1.746   2.529   1.725  0.0779 -0.1479 -0.2672
 8127SOL    HW136017   1.665   2.481   1.708 -1.4412  1.2026  3.1667
 8127SOL    HW236018   1.760   2.570   1.640 -0.4425  2.9696  1.1717
 8128SOL     OW36019   0.542   1.588   6.749 -0.1618  0.2811  0.1466
 8128SOL    HW136020   0.550   1.671   6.701  1.3674  0.1890  0.2403
 8128SOL    HW236021   0.594   1.610   6.826  0.1812  2.6496 -0.7705
 8129SOL     OW36022   3.814   2.961   9.034 -0.0832 -0.2079 -0.3514
 8129SOL    HW136023   3.861   3.037   8.999 -1.0413  1.6850  2.4304
 8129SOL    HW236024   3.740   2.993   9.085 -3.3339 -1.0561 -4.5493
 8130SOL     OW36025   3.473   4.205   2.584  0.1640  0.2985 -0.0318
 8130SOL    HW136026   3.511   4.117   2.578 -0.7551 -0.1872  1.1400
 8130SOL    HW236027   3.526   4.243   2.654 -2.7508 -1.0256  2.8918
 8131SOL     OW36028   1.271   2.924   7.329  0.8885 -0.4276 -0.1608
 8131SOL    HW136029   1.352   2.892   7.290  1.4373 -1.4584  1.8533
 8131SOL    HW236030   1.249   2.988   7.261 -3.3991  0.6494  2.2203
 8132SOL     OW36031   4.130   3.969  10.765  0.0501 -1.0101  0.2320
 8132SOL    HW136032   4.219   3.966  10.801 -0.1715 -3.1439  0.6212
 8132SOL    HW236033   4.097   4.055  10.791  0.4025 -1.0950  0.9482
 8133SOL     OW36034   3.090   3.038  11.590  0.1757  0.0408  0.4890
 8133SOL    HW136035   3.183   3.038  11.567 -0.2587  0.3339 -1.2037
 8133SOL    HW236036   3.082   3.132  11.607  1.5735  0.9785 -4.0472
 8134SOL     OW36037   0.016   1.453   3.445  0.4398  0.0221 -0.0147
 8134SOL    HW136038   0.033   1.439   3.538 -2.9993 -3.0295  0.1825
 8134SOL    HW236039   0.105   1.449   3.410  0.1360 -1.5335 -0.5952
 8135SOL     OW36040   1.566   3.048  12.026 -0.4824  0.2823  0.3102
 8135SOL    HW136041   1.626   2.976  12.006  0.9320  1.0718  1.6618
 8135SOL    HW236042   1.614   3.127  12.000 -0.3998 -0.5974 -2.1985
 8136SOL     OW36043   3.434   0.343   3.939  0.0324  0.1364  1.1351
 8136SOL    HW136044   3.364   0.404   3.962 -0.8769 -0.5913  0.2730
 8136SOL    HW236045   3.420   0.344   3.845 -0.6222 -2.5054  1.2095
 8137SOL     OW36046   0.526   2.114   8.099 -0.6297  0.0012  0.0930
 8137SOL    HW136047   0.440   2.084   8.128 -0.5834  0.1626  0.3933
 8137SOL    HW236048   0.547   2.045   8.037  1.3272  0.2543  0.4725
 8138SOL     OW36049   2.434   0.399   7.901 -0.0078 -0.0304 -0.3443
 8138SOL    HW136050   2.486   0.348   7.839 -0.9174 -1.3529 -0.0046
 8138SOL    HW236051   2.344   0.370   7.893  0.7599 -2.2595 -0.9920
 8139SOL     OW36052   3.485   3.041   8.421 -0.1619  0.1699 -0.4519
 8139SOL    HW136053   3.399   3.000   8.409  0.3130 -0.6884 -0.8722
 8139SOL    HW236054   3.527   3.003   8.344 -1.0685  0.2431 -0.9901
 8140SOL     OW36055   0.397   1.762  10.561 -0.0956  0.1895 -0.7476
 8140SOL    HW136056   0.491   1.759  10.542 -0.1625 -0.5634 -0.9784
 8140SOL    HW236057   0.390   1.853  10.587  1.2680 -0.4663  1.9053
 8141SOL     OW36058   3.288   3.888   2.557 -0.0423  0.1184 -0.1467
 8141SOL    HW136059   3.340   3.870   2.635 -0.7379  0.7249  0.4660
 8141SOL    HW236060   3.223   3.947   2.597  1.5043  2.3249 -0.8533
 8142SOL     OW36061   4.021   1.534   4.298 -0.0685 -0.1256 -0.7146
 8142SOL    HW136062   4.032   1.500   4.209 -0.7582  0.2324 -0.9394
 8142SOL    HW236063   3.934   1.506   4.324 -0.1321  0.4676 -0.2879
 8143SOL     OW36064   2.021   4.306   0.497  0.6826 -0.3207 -0.3916
 8143SOL    HW136065   2.023   4.298   0.592 -1.7081 -0.2397 -0.3345
 8143SOL    HW236066   2.105   4.262   0.485  0.0712 -1.2961 -1.1525
 8144SOL     OW36067   1.973   2.984  16.686 -0.0126 -0.6590  0.2046
 8144SOL    HW136068   2.000   2.893  16.701 -3.1264 -1.4332  1.1915
 8144SOL    HW236069   1.971   3.020  16.775 -0.2948  0.8258 -0.4071
 8145SOL     OW36070   1.469   0.080  11.253  0.0860  0.6487  0.2136
 8145SOL    HW136071   1.396   0.133  11.285 -2.1792 -1.7668 -1.0262
 8145SOL    HW236072   1.435   0.045  11.170 -0.8949  0.8698  0.5259
 8146SOL     OW36073   0.544   1.165   7.403  0.1724  0.7067 -0.2958
 8146SOL    HW136074   0.612   1.234   7.405  0.8043  0.0124  2.5686
 8146SOL    HW236075   0.547   1.129   7.314  4.2004  2.1196 -0.7599
 8147SOL     OW36076   2.965   2.104   0.859 -0.1152  0.1897  0.4763
 8147SOL    HW136077   3.025   2.152   0.917  0.3475  0.2623 -0.0669
 8147SOL    HW236078   2.881   2.141   0.885  0.8790  2.5171  0.4407
 8148SOL     OW36079   2.739   3.257   3.175  0.1073 -0.1138  0.1915
 8148SOL    HW136080   2.699   3.208   3.247  0.8463 -1.3775 -0.2518
 8148SOL    HW236081   2.684   3.335   3.179  1.4524  0.8845 -0.9135
 8149SOL     OW36082   3.019   4.577   1.966 -0.2350  0.4799  0.6597
 8149SOL    HW136083   3.058   4.496   1.996 -3.5287 -0.2984  2.8173
 8149SOL    HW236084   3.093   4.628   1.934 -0.6303  0.0888 -0.8854
 8150SOL     OW36085   1.567   4.072   6.153  0.4644  0.6162  0.1391
 8150SOL    HW136086   1.637   4.131   6.125  0.8998  0.2735  0.5129
 8150SOL    HW236087   1.531   4.134   6.216  1.9212  0.3084  1.2643
 8151SOL     OW36088   3.585   4.475  14.365  0.5965  0.2744 -0.2430
 8151SOL    HW136089   3.575   4.520  14.280  1.1981 -2.3572 -1.7050
 8151SOL    HW236090   3.597   4.548  14.426  1.4879 -1.7514  1.9808
 8152SOL     OW36091   4.323   2.977  16.691  0.2431  0.2451  0.3435
 8152SOL    HW136092   4.264   2.962  16.765 -1.5671  0.0307 -1.1423
 8152SOL    HW236093   4.339   3.070  16.705 -1.6976  0.4681  1.1731
 8153SOL     OW36094   4.209   4.331   2.420 -0.2910 -0.2060 -0.2288
 8153SOL    HW136095   4.138   4.385   2.452  0.2053  1.0708 -1.2589
 8153SOL    HW236096   4.213   4.352   2.326 -1.1848 -0.5914 -0.3516
 8154SOL     OW36097   3.133   1.645  16.429  0.1742 -0.3178 -0.0562
 8154SOL    HW136098   3.185   1.569  16.454 -1.3649 -0.7226  1.9383
 8154SOL    HW236099   3.053   1.596  16.410  0.1353 -0.5147  0.6081
 8155SOL     OW36100   1.270   3.619  16.988 -0.1052  0.4173 -0.0141
 8155SOL    HW136101   1.231   3.676  16.922 -1.0823  2.0868  1.9874
 8155SOL    HW236102   1.365   3.624  16.972  0.3339 -3.4312  1.6339
 8156SOL     OW36103   2.097   1.940   3.220 -0.3016 -0.0746  0.0657
 8156SOL    HW136104   2.189   1.958   3.202  0.1553 -0.5861  1.9211
 8156SOL    HW236105   2.107   1.853   3.257  1.0397 -0.9531 -2.3775
 8157SOL     OW36106   1.932   3.423   7.077  0.3059  0.0505  0.7444
 8157SOL    HW136107   1.937   3.448   7.169 -0.2795  1.1828  0.4666
 8157SOL    HW236108   1.854   3.470   7.047  0.5228  0.0186  0.1313
 8158SOL     OW36109   3.600   0.190  12.047  0.9256  0.4945 -0.4099
 8158SOL    HW136110   3.560   0.190  12.134 -1.7926 -0.7201 -1.6911
 8158SOL    HW236111   3.548   0.124  12.002 -1.1993  0.0655  2.7321
 8159SOL     OW36112   0.218   2.029   1.356 -0.2148  0.1881 -0.3606
 8159SOL    HW136113   0.188   2.102   1.411 -2.1696 -0.7633 -0.1526
 8159SOL    HW236114   0.225   1.967   1.429  0.3154 -1.6186 -1.9679
 8160SOL     OW36115   3.731   0.337   2.990 -0.0665 -0.0555  0.2207
 8160SOL    HW136116   3.636   0.345   2.989  0.0529  1.4465  0.6739
 8160SOL    HW236117   3.753   0.250   3.023 -0.0136 -0.0252  0.2645
 8161SOL     OW36118   2.787   1.037   3.812  0.5486 -0.5447 -0.5515
 8161SOL    HW136119   2.826   0.957   3.847  3.5462  0.6908 -1.0801
 8161SOL    HW236120   2.793   1.024   3.717  0.6841  0.2981 -0.6620
 8162SOL     OW36121   0.051   3.054   6.679 -0.3397  0.4888  0.3723
 8162SOL    HW136122   0.019   3.018   6.762  1.1590 -1.3531  0.1451
 8162SOL    HW236123   0.108   3.123   6.716  0.4401  0.1080 -0.1231
 8163SOL     OW36124   2.652   2.798   0.729 -0.3270 -0.5227 -0.3579
 8163SOL    HW136125   2.702   2.785   0.648 -1.9293  2.2124 -1.7705
 8163SOL    HW236126   2.616   2.709   0.731 -0.8097 -0.3126  0.0713
 8164SOL     OW36127   1.394   0.072   0.200 -0.9472 -0.7649 -0.2526
 8164SOL    HW136128   1.413   4.737   0.144  1.2073 -1.1602  1.0542
 8164SOL    HW236129   1.361   0.038   0.283  0.4582 -0.6338  0.3515
 8165SOL     OW36130   0.654   0.191  11.945  0.1541  0.2777 -0.2698
 8165SOL    HW136131   0.619   0.280  11.939 -3.4110 -1.0033  2.0856
 8165SOL    HW236132   0.684   0.187  12.036  0.5736  2.6075 -0.3050
 8166SOL     OW36133   1.536   0.795   3.653  0.8847 -0.0595  0.0288
 8166SOL    HW136134   1.558   0.732   3.584  0.1120 -0.9861  0.6223
 8166SOL    HW236135   1.494   0.740   3.720  2.0916 -3.3182 -1.8805
 8167SOL     OW36136   2.833   0.146   8.360  0.1940 -0.2021  0.1183
 8167SOL    HW136137   2.917   0.167   8.400  1.2667 -3.1758 -0.5500
 8167SOL    HW236138   2.788   0.103   8.433  1.3945 -4.1456 -1.4753
 8168SOL     OW36139   1.535   3.925   5.304  0.2254 -0.3559  0.0335
 8168SOL    HW136140   1.507   3.991   5.368  1.3562  0.4994 -0.3594
 8168SOL    HW236141   1.453   3.881   5.284  1.9013 -3.0426 -0.9502
 8169SOL     OW36142   2.190   3.365  15.700  0.3947 -0.3719 -0.2931
 8169SOL    HW136143   2.119   3.327  15.648 -0.0895  0.3221 -0.1489
 8169SOL    HW236144   2.244   3.390  15.625 -0.6116  1.3064 -0.4697
 8170SOL     OW36145   3.830   2.521   5.337 -0.0002  0.1492  0.3236
 8170SOL    HW136146   3.820   2.552   5.247 -0.8055  1.1608  0.7712
 8170SOL    HW236147   3.871   2.436   5.319  1.1290  0.8316 -0.3416
 8171SOL     OW36148   2.816   0.379   3.443 -0.0283  0.1097 -0.3110
 8171SOL    HW136149   2.812   0.376   3.348 -1.2323  0.1690 -0.2690
 8171SOL    HW236150   2.902   0.413   3.467  0.0694  0.2358 -0.8408
 8172SOL     OW36151   2.865   2.281  15.905  0.1005  0.1185 -0.3842
 8172SOL    HW136152   2.909   2.214  15.854 -0.6898 -0.2590 -0.5603
 8172SOL    HW236153   2.940   2.319  15.951 -0.0365 -1.1087  0.8683
 8173SOL     OW36154   0.025   2.663  10.963 -0.4341 -0.2059 -0.0042
 8173SOL    HW136155   4.735   2.751  10.984  2.4323  0.8685 -0.1849
 8173SOL    HW236156   0.106   2.658  11.014  0.4723  1.6170 -1.2552
 8174SOL     OW36157   3.638   1.147   6.138 -0.3178  0.3801 -0.5517
 8174SOL    HW136158   3.640   1.104   6.052 -1.0096  0.7977 -0.7800
 8174SOL    HW236159   3.688   1.226   6.120  0.7093  0.5445  3.1594
 8175SOL     OW36160   2.734   2.730   2.954  0.2462 -0.1100 -0.4960
 8175SOL    HW136161   2.737   2.778   3.036 -0.3788  1.5684 -1.4379
 8175SOL    HW236162   2.702   2.806   2.904  2.5464 -0.0677 -1.9180
 8176SOL     OW36163   3.910   0.419  15.328 -0.6762 -0.7217  0.2907
 8176SOL    HW136164   3.854   0.386  15.258 -0.9271 -0.3391  0.3115
 8176SOL    HW236165   3.899   0.514  15.322 -1.2451 -0.7595  0.7078
 8177SOL     OW36166   3.984   4.436   5.456 -0.1866 -0.0347 -0.2765
 8177SOL    HW136167   4.007   4.399   5.371  2.3291  0.1425  0.3430
 8177SOL    HW236168   3.907   4.382   5.477  0.3083  0.3942  2.6225
 8178SOL     OW36169   3.210   3.537   4.149  0.2791  0.3800 -0.1920
 8178SOL    HW136170   3.208   3.632   4.147 -2.8743  0.3020 -1.7388
 8178SOL    HW236171   3.160   3.531   4.230  1.7277 -2.0242  0.5466
 8179SOL     OW36172   1.024   4.063   4.338 -0.0052 -0.0928 -0.1137
 8179SOL    HW136173   0.964   4.004   4.292  1.3399 -0.6680 -1.1378
 8179SOL    HW236174   1.108   4.042   4.296 -1.7572 -2.6237 -2.2626
 8180SOL     OW36175   4.560   0.016   2.547 -0.2036 -0.0439  0.1054
 8180SOL    HW136176   4.581   4.732   2.637 -1.7924 -0.2186  0.4188
 8180SOL    HW236177   4.550   0.110   2.557 -0.3408 -0.2224  1.6680
 8181SOL     OW36178   0.750   2.760  14.622  0.1207  0.2424  0.1188
 8181SOL    HW136179   0.660   2.758  14.655 -0.2415 -0.0389 -0.8735
 8181SOL    HW236180   0.785   2.691  14.678  0.5115 -1.5574 -2.3222
 8182SOL     OW36181   3.877   3.215  14.147  0.1709 -0.5432 -0.2491
 8182SOL    HW136182   3.943   3.263  14.197  0.7793 -1.9079  0.2554
 8182SOL    HW236183   3.893   3.134  14.196  0.1171 -0.7984 -0.6513
 8183SOL     OW36184   4.295   3.207   1.042 -0.1320  0.1129  0.1837
 8183SOL    HW136185   4.252   3.167   0.966  0.3275 -0.0691  0.0229
 8183SOL    HW236186   4.226   3.271   1.058  0.1262  0.3380  0.3790
 8184SOL     OW36187   0.714   4.207   8.085 -0.1123 -0.0074 -0.1629
 8184SOL    HW136188   0.698   4.113   8.094 -3.7703  0.7794  1.5987
 8184SOL    HW236189   0.692   4.228   8.176  1.3679  2.0952 -0.3052
 8185SOL     OW36190   1.035   4.555   9.252 -0.2917  0.0710 -0.6353
 8185SOL    HW136191   1.048   4.641   9.212  1.3992  0.7314  1.2943
 8185SOL    HW236192   0.958   4.530   9.202  0.3449  0.0256 -1.6041
 8186SOL     OW36193   0.022   0.645   4.194 -0.4084  0.2309  0.3438
 8186SOL    HW136194   0.004   0.576   4.258 -0.0541  0.4117  0.6354
 8186SOL    HW236195   0.113   0.628   4.170 -1.1613 -3.3116 -0.0722
 8187SOL     OW36196   4.372   4.066   4.698 -0.0719  0.5370 -0.3720
 8187SOL    HW136197   4.467   4.083   4.704  0.6754 -3.0198 -2.1192
 8187SOL    HW236198   4.366   4.026   4.612  0.0990 -0.3215  0.0199
 8188SOL     OW36199   2.933   1.362  14.447  1.0943  0.4442  0.0659
 8188SOL    HW136200   2.852   1.357  14.498  1.2577  3.0462  0.6112
 8188SOL    HW236201   2.899   1.354  14.358  3.4551  3.2052 -1.0933
 8189SOL     OW36202   3.786   0.828   1.495 -0.2453  0.2946  0.0781
 8189SOL    HW136203   3.699   0.869   1.501 -0.7431 -0.5277 -1.5122
 8189SOL    HW236204   3.810   0.799   1.583 -1.3089  1.2325  0.6827
 8190SOL     OW36205   1.399   1.248   5.623  0.2506  0.6091 -0.5015
 8190SOL    HW136206   1.377   1.334   5.659 -0.3241  0.1716  0.2165
 8190SOL    HW236207   1.437   1.196   5.694  1.2793  1.1704 -0.6503
 8191SOL     OW36208   3.107   4.464   4.855  0.3657 -0.3559  0.6399
 8191SOL    HW136209   3.060   4.387   4.887  0.0005 -0.5434 -0.3622
 8191SOL    HW236210   3.175   4.465   4.923  0.3113  0.2697  0.6851
 8192SOL     OW36211   2.980   0.296   2.260 -0.2901  0.5297  0.6794
 8192SOL    HW136212   2.889   0.276   2.242 -0.4355  1.9743 -0.1909
 8192SOL    HW236213   3.017   0.210   2.241  1.2301  1.3139  0.0574
 8193SOL     OW36214   4.070   2.978  11.130 -0.7432 -0.3554  0.6832
 8193SOL    HW136215   4.146   3.011  11.177  0.0959 -0.9581 -0.2617
 8193SOL    HW236216   4.095   2.969  11.038  0.7551  1.0535  0.9553
 8194SOL     OW36217   3.907   0.965   9.184 -0.6519  0.2137  0.1187
 8194SOL    HW136218   3.905   1.061   9.193  3.0948 -0.0255  3.6287
 8194SOL    HW236219   3.849   0.963   9.108 -0.0251 -1.7708 -0.2964
 8195SOL     OW36220   3.795   4.385   4.828 -0.0620 -0.7907 -0.5515
 8195SOL    HW136221   3.702   4.385   4.808 -0.2113 -1.3450  0.1595
 8195SOL    HW236222   3.819   4.294   4.810 -0.1145 -0.7897 -0.6241
 8196SOL     OW36223   1.865   0.223  12.251 -0.0433  0.0429  0.2226
 8196SOL    HW136224   1.800   0.261  12.191  0.4427 -2.5492 -1.9250
 8196SOL    HW236225   1.940   0.197  12.198  1.3874 -0.5077  2.5576
 8197SOL     OW36226   0.204   1.917   3.513  0.5359  0.6445 -0.1726
 8197SOL    HW136227   0.117   1.950   3.492 -0.4463 -1.2617  0.8952
 8197SOL    HW236228   0.261   1.961   3.450  1.0341  1.5098  0.8849
 8198SOL     OW36229   2.690   2.602   3.429  0.4304 -0.1726  0.4807
 8198SOL    HW136230   2.631   2.527   3.426  0.2454  0.0776 -2.7884
 8198SOL    HW236231   2.641   2.665   3.481  2.2765 -0.2080  2.2936
 8199SOL     OW36232   4.654   0.957   9.971  0.6315  0.4565  0.1289
 8199SOL    HW136233   4.617   0.935   9.885  2.9197 -0.4806 -0.6133
 8199SOL    HW236234   4.697   0.873   9.986 -0.1120  0.0659  0.0913
 8200SOL     OW36235   0.647   1.373   8.136  0.0287 -0.0482  0.1998
 8200SOL    HW136236   0.679   1.322   8.211  2.3700  0.9361 -0.1269
 8200SOL    HW236237   0.686   1.323   8.063 -0.3141  0.5462 -0.3874
 8201SOL     OW36238   4.378   3.047   9.740  0.0694  0.6009 -0.0492
 8201SOL    HW136239   4.347   2.974   9.794 -0.3639 -0.6834 -2.0439
 8201SOL    HW236240   4.429   3.093   9.807  0.7532  1.6091 -1.2665
 8202SOL     OW36241   2.958   2.166   6.115  0.5586  0.2724  0.1827
 8202SOL    HW136242   2.992   2.113   6.042 -1.2132 -0.4210 -0.1346
 8202SOL    HW236243   2.906   2.231   6.067 -1.0273 -2.0198 -1.2267
 8203SOL     OW36244   0.660   0.813   3.992 -0.8676  0.5421  0.3488
 8203SOL    HW136245   0.575   0.830   3.953 -1.5185 -0.9212  1.1494
 8203SOL    HW236246   0.647   0.851   4.079  0.2820  2.4765 -0.3081
 8204SOL     OW36247   1.593   2.028   5.293 -0.1586 -0.0236 -0.4950
 8204SOL    HW136248   1.617   1.995   5.207 -0.0939  0.6923 -0.7482
 8204SOL    HW236249   1.570   2.119   5.274  0.9741  0.1434 -1.0379
 8205SOL     OW36250   0.836   0.382  11.534 -0.8284  0.1008  0.0015
 8205SOL    HW136251   0.850   0.288  11.529  1.5970  0.5129 -0.8786
 8205SOL    HW236252   0.743   0.385  11.556 -0.8426 -1.7783  0.1784
 8206SOL     OW36253   4.048   4.460  10.892 -0.0535 -0.7259 -0.6530
 8206SOL    HW136254   4.047   4.531  10.957 -0.9238 -0.4784 -0.9418
 8206SOL    HW236255   4.034   4.513  10.814  0.3689  2.8171  1.7200
 8207SOL     OW36256   1.591   1.132   3.185  0.6006  0.0039 -0.3759
 8207SOL    HW136257   1.628   1.170   3.265  0.7835  0.8442 -0.8640
 8207SOL    HW236258   1.510   1.181   3.175  1.2141  1.4198  1.3944
 8208SOL     OW36259   1.180   4.282   1.363  0.3511 -0.7011  0.1681
 8208SOL    HW136260   1.165   4.367   1.403 -0.3248 -0.4872 -0.5573
 8208SOL    HW236261   1.268   4.261   1.394  0.4900  0.0376  0.2782
 8209SOL     OW36262   3.099   4.473  16.136  0.5156  0.0423 -0.5743
 8209SOL    HW136263   3.079   4.387  16.098  1.7008 -0.1171 -0.8233
 8209SOL    HW236264   3.097   4.451  16.230 -2.2457 -2.6332 -1.2419
 8210SOL     OW36265   1.676   3.072   2.857 -0.1820 -0.3641  0.0687
 8210SOL    HW136266   1.730   3.000   2.889 -0.5823 -0.2728  0.9509
 8210SOL    HW236267   1.745   3.138   2.859 -1.4961  0.9654  1.9706
 8211SOL     OW36268   3.139   3.799   8.818  0.8636 -0.4447  0.1547
 8211SOL    HW136269   3.075   3.870   8.817  1.7522  0.3777  1.3355
 8211SOL    HW236270   3.076   3.727   8.828  0.7945  0.3303  5.5804
 8212SOL     OW36271   3.324   0.233   0.278 -0.0788 -0.1325  0.8850
 8212SOL    HW136272   3.288   0.187   0.353  0.7354 -1.6768  0.3381
 8212SOL    HW236273   3.250   0.233   0.218  2.1325  0.1728 -1.8922
 8213SOL     OW36274   4.474   3.952  12.336 -0.0480 -0.0197  0.6113
 8213SOL    HW136275   4.565   3.926  12.325 -0.8549 -2.4643 -0.2968
 8213SOL    HW236276   4.436   3.893  12.270 -0.2022  1.2155 -0.4033
 8214SOL     OW36277   4.682   4.591  15.455  0.0968  0.8778 -0.3189
 8214SOL    HW136278   4.735   4.609  15.533  0.7579  0.1618 -0.6058
 8214SOL    HW236279   4.728   4.635  15.384  2.9637 -3.3483 -1.0671
 8215SOL     OW36280   3.846   0.789   6.477  0.3115 -0.0520 -0.3970
 8215SOL    HW136281   3.823   0.852   6.545  1.8240  0.8463 -0.7386
 8215SOL    HW236282   3.940   0.778   6.467 -0.3590 -3.3532 -3.3334
 8216SOL     OW36283   3.853   2.255  11.402  0.7794 -0.3572  0.6093
 8216SOL    HW136284   3.828   2.224  11.488  0.0020 -1.0812  0.1225
 8216SOL    HW236285   3.769   2.235  11.361  1.3429  0.1414 -0.8305
 8217SOL     OW36286   0.138   2.903  11.442  0.0744  0.3176  0.4699
 8217SOL    HW136287   0.166   2.971  11.380  2.5145 -2.4388 -1.4423
 8217SOL    HW236288   0.218   2.850  11.439  0.9272  1.6387 -0.6800
 8218SOL     OW36289   2.118   0.146  11.738 -0.4834  0.0247 -0.1458
 8218SOL    HW136290   2.079   0.231  11.716  1.9686  0.2395 -3.6212
 8218SOL    HW236291   2.191   0.173  11.794  2.3471 -2.6999 -2.5898
 8219SOL     OW36292   1.352   3.377   6.973 -0.4893  0.2744 -0.6489
 8219SOL    HW136293   1.301   3.321   6.914  0.1571  0.0236 -0.9754
 8219SOL    HW236294   1.429   3.407   6.923  0.9857 -1.4843  0.5556
 8220SOL     OW36295   1.500   4.582   3.462  0.3346  0.8706  0.2798
 8220SOL    HW136296   1.438   4.542   3.522  1.3053 -0.5343  0.3568
 8220SOL    HW236297   1.520   4.667   3.499  0.3743 -0.1357  2.5585
 8221SOL     OW36298   3.005   3.579   2.648  0.3273  0.1775 -0.6398
 8221SOL    HW136299   3.091   3.592   2.608 -0.0335  3.7551 -0.2375
 8221SOL    HW236300   2.992   3.672   2.663  0.9134 -0.1533  1.9689
 8222SOL     OW36301   3.610   0.961   6.628 -0.0003 -0.0689 -0.1055
 8222SOL    HW136302   3.612   1.038   6.685  1.7582  1.4336 -2.2521
 8222SOL    HW236303   3.632   1.000   6.544 -0.3171  0.8082  0.2165
 8223SOL     OW36304   4.006   0.089   8.440  0.0811 -0.0239 -0.3914
 8223SOL    HW136305   4.071   0.029   8.476  0.0995  0.4031  0.2854
 8223SOL    HW236306   3.955   0.101   8.520  1.1031  2.4509 -0.1245
 8224SOL     OW36307   4.349   2.741   3.184  0.0358  0.4490 -0.1512
 8224SOL    HW136308   4.317   2.765   3.098  0.0088 -0.9571 -0.5347
 8224SOL    HW236309   4.272   2.741   3.241  1.1510 -0.1550  1.3717
 8225SOL     OW36310   4.417   4.335   2.054 -0.1709  0.4311  0.0394
 8225SOL    HW136311   4.328   4.361   2.077 -0.6938 -1.0735 -0.2858
 8225SOL    HW236312   4.470   4.414   2.064 -1.0270  1.0897 -0.6298
 8226SOL     OW36313   4.624   3.060  14.599 -0.6827  0.3330  0.8726
 8226SOL    HW136314   4.704   3.067  14.548 -0.2436 -2.3777  1.2197
 8226SOL    HW236315   4.568   3.005  14.544 -0.5738 -1.0106  2.1189
 8227SOL     OW36316   3.582   4.314   3.893 -0.1397 -0.1791 -0.5043
 8227SOL    HW136317   3.490   4.293   3.908  0.0631  0.1229  1.2496
 8227SOL    HW236318   3.583   4.409   3.908 -0.3229 -0.0575 -1.2537
 8228SOL     OW36319   0.109   0.303   5.187 -0.1626 -0.4923 -0.2813
 8228SOL    HW136320   0.056   0.252   5.126 -1.8124  0.7147  0.1496
 8228SOL    HW236321   0.045   0.354   5.236  1.2235  1.4700 -0.4764
 8229SOL     OW36322   2.866   2.409   6.341 -0.4998  0.4265  0.3947
 8229SOL    HW136323   2.906   2.446   6.262  1.3221 -2.5829 -0.0909
 8229SOL    HW236324   2.877   2.314   6.342  0.6220  0.5469  0.0982
 8230SOL     OW36325   1.558   3.502   2.223  0.1074  0.1558 -0.5901
 8230SOL    HW136326   1.618   3.571   2.249 -1.1515  0.7482  0.7761
 8230SOL    HW236327   1.613   3.426   2.205  0.5708  0.6743 -1.3311
 8231SOL     OW36328   1.338   1.102   5.262 -0.5611  0.1491  0.5428
 8231SOL    HW136329   1.404   1.128   5.327  0.7928  2.1486 -1.6119
 8231SOL    HW236330   1.258   1.120   5.312 -0.0413  2.5856  0.5248
 8232SOL     OW36331   1.703   4.079   0.141 -0.0093  0.3292 -0.2570
 8232SOL    HW136332   1.609   4.063   0.152 -0.0821  1.5045  0.7262
 8232SOL    HW236333   1.741   4.110   0.222  0.9362  1.7477 -1.2594
 8233SOL     OW36334   1.164   4.733   2.609  0.4860 -0.0843 -0.2032
 8233SOL    HW136335   1.233   0.030   2.663  0.5839 -0.7703  0.1504
 8233SOL    HW236336   1.152   4.646   2.647  0.0045  0.1391  0.1541
 8234SOL     OW36337   4.048   0.402   3.381 -0.1589 -0.2759 -0.0498
 8234SOL    HW136338   4.112   0.468   3.359 -1.8060  0.7881 -1.6211
 8234SOL    HW236339   4.057   0.345   3.304 -1.8998  0.5304 -0.8410
 8235SOL     OW36340   1.532   0.479  17.176 -0.7435  0.6318 -0.2540
 8235SOL    HW136341   1.507   0.569  17.153  1.6980  1.6100  0.9630
 8235SOL    HW236342   1.627   0.480  17.164 -0.5912  0.8992  0.9986
 8236SOL     OW36343   0.049   4.068   7.984  0.1160 -0.3961 -0.1544
 8236SOL    HW136344   0.057   3.990   8.038 -1.4929  1.6089  2.9555
 8236SOL    HW236345   0.072   4.024   7.902 -1.3595  0.1678 -0.8686
 8237SOL     OW36346   4.341   4.363  12.342  0.1226 -0.3732  0.5364
 8237SOL    HW136347   4.407   4.325  12.284 -0.4828 -1.3935  0.5198
 8237SOL    HW236348   4.280   4.397  12.276  1.8514  1.8978  0.1297
 8238SOL     OW36349   0.100   2.900   8.077  0.2468 -0.5634  0.1317
 8238SOL    HW136350   0.180   2.934   8.037 -2.3013  2.7772 -2.0841
 8238SOL    HW236351   0.123   2.814   8.112 -0.8263 -0.5115  0.9432
 8239SOL     OW36352   2.506   0.669  17.622  0.3601  0.4423 -0.0274
 8239SOL    HW136353   2.439   0.601  17.634  0.3862  0.8656  2.4486
 8239SOL    HW236354   2.587   0.628  17.651 -2.3031 -3.3145  2.0141
 8240SOL     OW36355   4.107   0.584   5.716 -0.0470 -0.4248 -0.0400
 8240SOL    HW136356   4.129   0.668   5.675  1.5705 -0.4234  0.8372
 8240SOL    HW236357   4.063   0.626   5.790 -0.0555 -1.8294  0.7560
 8241SOL     OW36358   1.798   4.071  12.962  0.0156 -0.1438 -0.1375
 8241SOL    HW136359   1.716   4.118  12.947  0.4182  0.0581 -1.6817
 8241SOL    HW236360   1.803   4.031  12.875  1.4977  1.3554 -0.7457
 8242SOL     OW36361   1.192   1.984   7.288  0.4131  0.0872 -0.0293
 8242SOL    HW136362   1.107   2.028   7.297  0.5989 -0.4787  4.5807
 8242SOL    HW236363   1.144   1.925   7.230  0.9901 -0.0320 -0.3782
 8243SOL     OW36364   1.142   3.394   9.017  0.6605 -0.0323  0.2509
 8243SOL    HW136365   1.210   3.443   8.971  1.5216 -0.8784  0.6139
 8243SOL    HW236366   1.064   3.449   9.009 -0.1118 -1.2332 -0.4817
 8244SOL     OW36367   0.427   3.340   5.430  0.3143 -0.0048 -0.1340
 8244SOL    HW136368   0.361   3.364   5.365  0.3474 -0.3717 -0.3073
 8244SOL    HW236369   0.504   3.389   5.401  0.9502 -0.7620  0.2795
 8245SOL     OW36370   2.883   0.642  16.848 -0.9071 -0.0020 -0.0431
 8245SOL    HW136371   2.821   0.569  16.856 -2.1274  0.8362 -1.8444
 8245SOL    HW236372   2.964   0.596  16.825 -1.8433 -0.7685 -1.7940
 8246SOL     OW36373   1.459   0.667   8.342 -0.6539  0.3919 -0.0249
 8246SOL    HW136374   1.422   0.578   8.345  0.5412 -0.0179  2.8729
 8246SOL    HW236375   1.387   0.711   8.388  1.9623  1.6439  2.8765
 8247SOL     OW36376   1.320   0.796  10.313 -0.0872  0.5537  0.3142
 8247SOL    HW136377   1.352   0.871  10.364  0.2179  1.5384 -1.3352
 8247SOL    HW236378   1.342   0.718  10.365  0.6875  0.8611  0.4595
 8248SOL     OW36379   0.701   1.298   4.599 -0.6832 -0.2449  0.1007
 8248SOL    HW136380   0.764   1.226   4.593 -0.3770  0.0578 -0.2420
 8248SOL    HW236381   0.762   1.363   4.634 -1.3733  0.3649  0.1632
 8249SOL     OW36382   3.461   2.253   8.468 -0.4876 -0.3396  0.1777
 8249SOL    HW136383   3.400   2.306   8.519  0.1497 -0.1132  0.7130
 8249SOL    HW236384   3.422   2.262   8.382 -0.3146 -0.2025  0.1129
 8250SOL     OW36385   1.072   1.011   3.018 -0.0593 -0.5862 -0.6434
 8250SOL    HW136386   1.088   1.001   3.112 -1.2678  1.8421 -0.1834
 8250SOL    HW236387   1.008   1.083   3.015  1.5593  0.8707 -0.6885
 8251SOL     OW36388   4.600   1.525   7.935 -0.2129 -0.8084 -0.4068
 8251SOL    HW136389   4.641   1.602   7.895 -1.4107  1.1745  2.1869
 8251SOL    HW236390   4.511   1.561   7.939  0.4385  0.5651  1.2838
 8252SOL     OW36391   1.839   0.551   6.555 -0.0591 -0.1281 -0.9394
 8252SOL    HW136392   1.749   0.538   6.587  0.5786  1.2623  1.4255
 8252SOL    HW236393   1.875   0.464   6.571  2.7756  1.0121 -1.1005
 8253SOL     OW36394   1.767   0.542  14.396  0.5000 -0.2408 -0.3845
 8253SOL    HW136395   1.833   0.577  14.336  0.5558 -1.2509 -0.9056
 8253SOL    HW236396   1.695   0.508  14.343  1.1262  1.8075 -2.5669
 8254SOL     OW36397   3.757   0.153   3.429  0.1873 -0.3456 -0.1182
 8254SOL    HW136398   3.721   0.209   3.499 -2.8050 -2.7048  0.2382
 8254SOL    HW236399   3.836   0.118   3.470 -0.5234  0.2617  1.7978
 8255SOL     OW36400   3.062   0.851   4.519  0.2325  0.2639  0.3197
 8255SOL    HW136401   3.006   0.928   4.533  2.4736  1.7508  1.1416
 8255SOL    HW236402   3.149   0.890   4.525 -0.2601  1.3145  0.7041
 8256SOL     OW36403   4.177   3.329   7.471  0.1414  0.5796  0.2159
 8256SOL    HW136404   4.187   3.239   7.503 -0.8908 -0.2562 -1.8263
 8256SOL    HW236405   4.266   3.341   7.437 -0.3232 -0.4908 -1.4176
 8257SOL     OW36406   0.198   1.477  15.392 -0.3997  0.7130 -0.5682
 8257SOL    HW136407   0.186   1.409  15.326  0.3895 -0.5667  0.6049
 8257SOL    HW236408   0.113   1.502  15.429 -0.2619 -1.7383  1.3980
 8258SOL     OW36409   1.731   0.621   4.880  0.3424 -0.0004 -0.2602
 8258SOL    HW136410   1.652   0.568   4.893 -1.1416  2.2421 -0.0488
 8258SOL    HW236411   1.738   0.626   4.785 -0.0972  0.9036 -0.2432
 8259SOL     OW36412   2.525   2.513   8.637 -0.3182  0.3404 -0.3109
 8259SOL    HW136413   2.540   2.597   8.592 -3.6436  1.4171  0.5811
 8259SOL    HW236414   2.459   2.480   8.576 -0.1296  0.6772 -0.6991
 8260SOL     OW36415   3.222   4.001   8.522 -0.1338  0.2611  0.3783
 8260SOL    HW136416   3.266   3.937   8.465 -0.2598  1.4923 -1.1079
 8260SOL    HW236417   3.130   3.973   8.520 -0.0676  0.0445  0.3572
 8261SOL     OW36418   4.220   0.215  13.911  0.5513 -0.3912 -0.2122
 8261SOL    HW136419   4.238   0.265  13.832  3.8655  1.0956  1.5006
 8261SOL    HW236420   4.301   0.195  13.958  2.2520  6.3453 -0.3772
 8262SOL     OW36421   4.562   1.301  10.178  0.4749 -0.6726  0.1175
 8262SOL    HW136422   4.621   1.256  10.117  0.5613  0.2276 -0.4599
 8262SOL    HW236423   4.618   1.378  10.187 -0.1658 -0.2160  0.2070
 8263SOL     OW36424   3.961   1.369  15.244 -0.1520  0.1188  0.6262
 8263SOL    HW136425   4.032   1.433  15.252  0.5927 -0.1342 -3.8223
 8263SOL    HW236426   3.991   1.290  15.289  0.2894  0.0239  0.1567
 8264SOL     OW36427   0.908   3.950   3.452 -0.3988  0.2327  0.5182
 8264SOL    HW136428   0.848   3.977   3.522 -0.3556  1.2288  0.1697
 8264SOL    HW236429   0.909   4.031   3.401 -0.4114  1.1104  1.9213
 8265SOL     OW36430   2.082   4.112   3.320 -0.1049  0.2025 -0.3675
 8265SOL    HW136431   2.126   4.041   3.273  0.9509 -0.1615  1.1778
 8265SOL    HW236432   2.082   4.068   3.405 -1.3129 -0.6817 -0.8241
 8266SOL     OW36433   1.224   0.032   1.557  0.1321  0.3160  0.1078
 8266SOL    HW136434   1.187   0.016   1.643 -0.4358 -2.8782 -0.7246
 8266SOL    HW236435   1.187   0.118   1.542 -1.4353 -0.3718  0.0781
 8267SOL     OW36436   3.739   2.730  17.699  0.5768 -1.0311 -0.0534
 8267SOL    HW136437   3.787   2.811  17.681 -2.3482  0.0204 -2.9569
 8267SOL    HW236438   3.799   2.691   0.002  1.0395  0.7629  0.6047
 8268SOL     OW36439   0.602   1.893  15.077 -0.1241 -0.1261  0.2555
 8268SOL    HW136440   0.528   1.942  15.111 -0.3820  0.1486 -0.6901
 8268SOL    HW236441   0.562   1.825  15.022  1.5016  0.7483 -2.0257
 8269SOL     OW36442   4.001   4.233   6.548  0.2926 -0.2989 -0.9286
 8269SOL    HW136443   4.033   4.279   6.626  1.5999  0.7763 -2.0735
 8269SOL    HW236444   3.929   4.291   6.523 -0.2959 -0.6795 -0.0698
 8270SOL     OW36445   3.879   4.374   5.102  0.0010 -0.4233  0.1718
 8270SOL    HW136446   3.814   4.310   5.132  1.2867 -1.3280  1.0075
 8270SOL    HW236447   3.850   4.391   5.012 -2.1949  0.0245  0.9575
 8271SOL     OW36448   1.179   0.274   4.378  0.7569 -0.4960  0.1529
 8271SOL    HW136449   1.103   0.319   4.415 -0.4550 -0.1466 -2.8356
 8271SOL    HW236450   1.236   0.268   4.455  0.8375 -0.9612  0.0560
 8272SOL     OW36451   0.313   0.096   8.683 -0.6304 -0.0017  0.1154
 8272SOL    HW136452   0.335   0.166   8.744 -0.5705  0.7076 -0.7221
 8272SOL    HW236453   0.331   0.129   8.595 -0.5707 -1.0643 -0.2709
 8273SOL     OW36454   2.001   4.732   4.474 -0.7862 -0.0528  0.2641
 8273SOL    HW136455   2.049   4.692   4.401 -0.7421 -0.7518  0.6817
 8273SOL    HW236456   1.925   4.674   4.469 -0.6589 -0.1153 -1.1331
 8274SOL     OW36457   1.611   0.981   1.863 -0.3961 -0.3167  0.5146
 8274SOL    HW136458   1.602   0.918   1.791 -0.6681  0.3940 -0.0686
 8274SOL    HW236459   1.654   0.933   1.933  0.4018 -0.0306  0.2233
 8275SOL     OW36460   2.879   0.696   2.029  0.1562 -0.2609 -0.0153
 8275SOL    HW136461   2.866   0.686   2.124  0.1734  4.1261  0.4319
 8275SOL    HW236462   2.907   0.606   2.009 -0.3915 -0.5170  0.3465
 8276SOL     OW36463   3.554   0.507   8.453  0.3411 -0.4859 -0.0385
 8276SOL    HW136464   3.459   0.496   8.462  0.3399 -1.9593 -1.9911
 8276SOL    HW236465   3.562   0.602   8.466 -1.2904 -0.0248 -2.3805
 8277SOL     OW36466   4.596   3.754  12.008  0.1841  0.1569 -0.3083
 8277SOL    HW136467   4.685   3.753  12.044 -0.4989 -2.0899  1.2489
 8277SOL    HW236468   4.592   3.673  11.957  0.5016  0.1574 -0.3330
 8278SOL     OW36469   0.432   0.195  17.602  0.3238  0.4838 -0.1256
 8278SOL    HW136470   0.512   0.173  17.650  1.4715  0.9065 -1.8579
 8278SOL    HW236471   0.452   0.281  17.565  1.7580 -0.1566 -0.8213
 8279SOL     OW36472   3.268   0.701  16.980  0.6439  0.8111 -0.4289
 8279SOL    HW136473   3.218   0.661  16.909  0.0170  0.6583  0.0962
 8279SOL    HW236474   3.348   0.739  16.945  1.5518 -1.7239 -1.1042
 8280SOL     OW36475   2.866   1.448   9.650  0.4027  1.5713  0.1282
 8280SOL    HW136476   2.909   1.438   9.735  0.4256 -0.4511 -0.1161
 8280SOL    HW236477   2.815   1.367   9.643 -0.0172  2.0768 -2.9760
 8281SOL     OW36478   2.798   4.308   6.309 -0.8792  0.1486  0.0129
 8281SOL    HW136479   2.735   4.260   6.362 -1.1457 -1.7122 -1.9832
 8281SOL    HW236480   2.841   4.241   6.257 -0.3095  2.6628 -2.7623
 8282SOL     OW36481   0.934   3.996  13.039  0.1599 -0.0450 -0.4322
 8282SOL    HW136482   1.027   4.019  13.043  0.8419 -2.7134 -0.4305
 8282SOL    HW236483   0.940   3.913  12.992  0.5269 -0.4137  0.2703
 8283SOL     OW36484   0.116   3.662   5.678 -0.0664 -0.2284 -0.5107
 8283SOL    HW136485   0.069   3.745   5.686  0.3091 -0.0422 -0.2511
 8283SOL    HW236486   0.202   3.695   5.652 -0.8674  1.9224 -0.3856
 8284SOL     OW36487   4.213   4.017   8.860 -0.2908  0.0440 -0.4829
 8284SOL    HW136488   4.187   3.925   8.866  0.7677 -0.1672  1.1054
 8284SOL    HW236489   4.139   4.066   8.895  1.2381  1.9648  0.1241
 8285SOL     OW36490   1.528   4.676   3.065  0.5553 -0.0313 -0.1740
 8285SOL    HW136491   1.591   4.617   3.106  0.0526  0.4253  1.2654
 8285SOL    HW236492   1.567   4.685   2.978 -1.5429  1.9938 -0.8932
 8286SOL     OW36493   2.661   0.772   9.374 -0.2432  0.9394  0.0193
 8286SOL    HW136494   2.637   0.781   9.466  2.1327  0.7646  0.6677
 8286SOL    HW236495   2.724   0.699   9.372  0.5262  1.5455  1.9513
 8287SOL     OW36496   1.173   0.693   3.636  0.1478  0.6161 -0.0557
 8287SOL    HW136497   1.205   0.604   3.651  3.5512  1.6839 -1.0475
 8287SOL    HW236498   1.136   0.712   3.723 -2.2001 -1.5976 -0.5485
 8288SOL     OW36499   0.572   4.739  13.479 -0.2021 -0.0615 -0.2253
 8288SOL    HW136500   0.589   4.665  13.537 -2.3819 -0.5659 -0.2096
 8288SOL    HW236501   0.487   0.031  13.510 -0.7516 -2.1128  0.4078
 8289SOL     OW36502   2.191   2.699   7.595 -0.0149 -0.4564 -0.4574
 8289SOL    HW136503   2.184   2.697   7.690 -3.6006 -1.1308 -0.7617
 8289SOL    HW236504   2.143   2.777   7.568 -0.5153 -1.5878 -2.8286
 8290SOL     OW36505   4.222   3.815   2.358 -0.2309 -0.5265 -0.6366
 8290SOL    HW136506   4.305   3.808   2.311 -0.4780 -0.8076 -1.0259
 8290SOL    HW236507   4.157   3.803   2.289 -0.6927 -0.2041 -0.2575
 8291SOL     OW36508   1.601   1.150  10.594  0.1348  0.5062  0.1587
 8291SOL    HW136509   1.665   1.202  10.642 -1.2748  0.1329  2.3929
 8291SOL    HW236510   1.588   1.074  10.650 -1.1457  1.2216  0.8268
 8292SOL     OW36511   1.605   1.072   8.359  0.0108  0.1511  0.3377
 8292SOL    HW136512   1.524   1.070   8.410 -1.1176  1.3523 -1.4131
 8292SOL    HW236513   1.651   0.989   8.375  1.6917  0.9421 -0.3058
 8293SOL     OW36514   0.085   4.587   0.556 -0.6314  0.7885 -0.4214
 8293SOL    HW136515   0.108   4.658   0.497  2.3405  1.6805  1.8165
 8293SOL    HW236516   0.063   4.521   0.490 -0.4610 -1.9448  2.2366
 8294SOL     OW36517   2.579   1.520   6.507  0.1217 -0.3932  0.2228
 8294SOL    HW136518   2.602   1.609   6.535  0.8174 -0.9303  1.3485
 8294SOL    HW236519   2.541   1.542   6.422 -0.1222 -0.7260  0.2485
 8295SOL     OW36520   4.384   2.808   4.687  0.5654 -0.4208 -0.7459
 8295SOL    HW136521   4.416   2.844   4.770 -2.4867  0.8599 -0.1391
 8295SOL    HW236522   4.412   2.879   4.629  0.0509  0.1219 -0.3241
 8296SOL     OW36523   4.114   0.981  11.137 -0.3639 -0.4759  0.2559
 8296SOL    HW136524   4.034   0.928  11.140 -0.7468 -0.0703 -3.7604
 8296SOL    HW236525   4.077   1.058  11.094 -0.7544 -0.3904  0.7273
 8297SOL     OW36526   1.355   1.214   6.813 -0.0371 -0.0327 -0.7128
 8297SOL    HW136527   1.285   1.159   6.778 -0.3470  0.2710 -0.5720
 8297SOL    HW236528   1.315   1.245   6.894 -1.3962 -0.3255 -1.2714
 8298SOL     OW36529   1.373   3.325   8.352  0.3592  0.3176 -0.0826
 8298SOL    HW136530   1.295   3.272   8.367  0.3577  0.4213  0.2748
 8298SOL    HW236531   1.416   3.270   8.286  0.2201 -0.0077  0.0957
 8299SOL     OW36532   1.317   3.502   8.826  0.2490  0.0546 -0.1285
 8299SOL    HW136533   1.339   3.466   8.740 -1.4199  0.3670 -0.6675
 8299SOL    HW236534   1.403   3.531   8.856 -0.2301  0.7466  0.5659
 8300SOL     OW36535   0.367   4.360   8.506 -0.2011  0.5767  0.0676
 8300SOL    HW136536   0.389   4.376   8.598 -0.3058  0.2592  0.1500
 8300SOL    HW236537   0.364   4.446   8.466 -0.9880  1.3089  1.6918
 8301SOL     OW36538   0.522   2.162  12.514 -0.5370 -0.4605  0.0263
 8301SOL    HW136539   0.595   2.164  12.576 -1.2439  0.2882  0.8194
 8301SOL    HW236540   0.568   2.192  12.435 -1.1983 -4.3107 -1.8336
 8302SOL     OW36541   2.492   4.374   5.363 -0.1416 -0.2317  0.1029
 8302SOL    HW136542   2.471   4.386   5.456 -1.6713 -0.3755 -0.2369
 8302SOL    HW236543   2.587   4.386   5.353 -0.3461 -0.3569 -1.9835
 8303SOL     OW36544   4.364   1.178   7.880  0.4366  0.5378 -0.0040
 8303SOL    HW136545   4.296   1.144   7.938  0.5878 -0.5774 -0.4676
 8303SOL    HW236546   4.419   1.221   7.944  2.0004 -0.9891 -0.3111
 8304SOL     OW36547   2.657   0.348   9.706 -0.1333  0.3924  0.2828
 8304SOL    HW136548   2.747   0.331   9.735  0.3336  0.2013 -1.2866
 8304SOL    HW236549   2.619   0.262   9.729  0.5263 -0.2986 -1.2593
 8305SOL     OW36550   3.503   1.426   2.740 -0.0109 -0.4131 -0.3683
 8305SOL    HW136551   3.567   1.355   2.751  1.0627  0.7248  0.6445
 8305SOL    HW236552   3.551   1.486   2.796 -2.8508  1.5505 -0.0605
 8306SOL     OW36553   4.313   1.642   5.413 -0.6294  0.0235  0.1226
 8306SOL    HW136554   4.400   1.677   5.392 -0.1056 -0.7099  1.0340
 8306SOL    HW236555   4.292   1.588   5.337  1.4746 -1.1278  0.3612
 8307SOL     OW36556   1.029   0.016  12.880  0.9720  0.5155 -0.8598
 8307SOL    HW136557   1.005   0.086  12.940  0.6907 -1.5474  1.4451
 8307SOL    HW236558   1.025   4.685  12.943 -1.5866  2.4314  1.1260
 8308SOL     OW36559   1.392   3.079   3.541  0.4729  0.2391  0.2854
 8308SOL    HW136560   1.338   3.076   3.462  0.6067 -1.4084  0.2640
 8308SOL    HW236561   1.321   3.063   3.603  0.1882 -3.1747 -0.9439
 8309SOL     OW36562   3.833   2.283   1.431  0.1074  0.6002  0.0943
 8309SOL    HW136563   3.741   2.305   1.413  0.0275 -0.0014 -0.2389
 8309SOL    HW236564   3.870   2.370   1.444  0.5284  0.4811 -0.2747
 8310SOL     OW36565   2.871   0.929   8.163  0.0135  0.0429 -0.1157
 8310SOL    HW136566   2.905   0.978   8.238 -0.3319 -2.9370  2.0076
 8310SOL    HW236567   2.940   0.864   8.151  0.0150  0.0294 -0.0355
 8311SOL     OW36568   3.246   0.988  16.798 -0.3072 -0.6993 -0.0154
 8311SOL    HW136569   3.203   0.920  16.747 -0.0896 -0.4760 -0.4956
 8311SOL    HW236570   3.326   0.942  16.823  0.3059  0.4927  0.2183
 8312SOL     OW36571   3.559   3.014   6.081 -0.0550 -0.2469 -0.2841
 8312SOL    HW136572   3.595   2.930   6.109 -0.1598  1.1856  4.1175
 8312SOL    HW236573   3.494   3.023   6.151  0.3091 -0.4637  0.0833
 8313SOL     OW36574   2.970   2.454  12.672  0.2803 -0.0604 -0.2108
 8313SOL    HW136575   2.971   2.359  12.665  2.5649 -0.2024  2.1933
 8313SOL    HW236576   2.995   2.469  12.763 -2.3175  1.3463  0.2773
 8314SOL     OW36577   2.484   1.983   2.646 -0.1434 -0.1207 -0.4762
 8314SOL    HW136578   2.529   1.978   2.562  1.4871 -0.0679  0.4034
 8314SOL    HW236579   2.518   2.067   2.677  1.2069 -0.2722 -1.5595
 8315SOL     OW36580   1.287   0.820  10.677  0.2748 -0.8589 -0.4928
 8315SOL    HW136581   1.213   0.795  10.733  0.9697 -0.8508  0.4211
 8315SOL    HW236582   1.316   0.739  10.634  1.4930 -0.2569 -0.8052
 8316SOL     OW36583   1.105   2.356   7.286 -0.6462 -0.2916 -0.1076
 8316SOL    HW136584   1.093   2.263   7.270 -1.0580 -0.0335 -1.2510
 8316SOL    HW236585   1.018   2.396   7.292 -1.5209 -1.7812 -2.8878
 8317SOL     OW36586   0.033   3.508   1.996  0.0279 -0.1069 -0.3037
 8317SOL    HW136587   0.055   3.416   2.004 -0.6897 -0.3028 -0.6063
 8317SOL    HW236588   0.077   3.551   2.070  0.1883 -0.3231 -0.2743
 8318SOL     OW36589   1.722   3.475  13.915  0.1107 -0.0679  0.0203
 8318SOL    HW136590   1.675   3.411  13.969  1.1491  1.2429  2.4646
 8318SOL    HW236591   1.694   3.441  13.830  0.2071 -2.4222  0.9282
 8319SOL     OW36592   2.083   0.335   6.273  0.1294 -0.0937  0.2216
 8319SOL    HW136593   1.997   0.346   6.231  0.7087 -0.7014 -1.1322
 8319SOL    HW236594   2.096   0.415   6.323  0.6761 -0.6903  1.0190
 8320SOL     OW36595   3.741   2.302   9.802  0.4349  0.1852 -0.1963
 8320SOL    HW136596   3.679   2.313   9.730 -0.6622  1.1066  0.8882
 8320SOL    HW236597   3.691   2.232   9.845  0.9714 -0.8209 -1.2078
 8321SOL     OW36598   3.601   2.290   4.702  0.3185  0.3237  0.0192
 8321SOL    HW136599   3.529   2.352   4.695  3.3105  4.0138  1.9578
 8321SOL    HW236600   3.654   2.318   4.627  2.7883 -0.8360  1.3085
 8322SOL     OW36601   0.686   4.079   4.873 -0.2467 -0.2964  0.0337
 8322SOL    HW136602   0.750   4.150   4.889  0.7286 -0.7186 -2.0523
 8322SOL    HW236603   0.690   4.031   4.956 -0.5250 -0.4726 -0.0578
 8323SOL     OW36604   2.880   4.335  15.780 -0.1733  0.5034  0.0621
 8323SOL    HW136605   2.856   4.356  15.690 -0.2317  0.3202  0.0342
 8323SOL    HW236606   2.873   4.418  15.826 -1.6672 -0.2290  1.1988
 8324SOL     OW36607   3.340   3.060  15.787  0.6027 -0.3103 -0.2787
 8324SOL    HW136608   3.381   3.118  15.724  0.1826 -2.2530 -2.3230
 8324SOL    HW236609   3.401   3.070  15.860  0.2326  0.4862 -0.0796
 8325SOL     OW36610   3.631   0.652   2.368  0.3589  0.5295 -0.4640
 8325SOL    HW136611   3.637   0.744   2.345 -1.2916  0.4789 -1.0931
 8325SOL    HW236612   3.642   0.610   2.283  1.3129 -0.1887  0.0112
 8326SOL     OW36613   2.424   2.702   7.474  0.6145 -0.6035 -1.0588
 8326SOL    HW136614   2.357   2.704   7.543  4.4047  1.8766  2.5241
 8326SOL    HW236615   2.374   2.723   7.394 -1.7441 -1.3434  0.2125
 8327SOL     OW36616   2.511   4.620  17.665 -0.6143  0.4060 -0.2493
 8327SOL    HW136617   2.469   4.534  17.665  1.3371 -0.5716  1.0922
 8327SOL    HW236618   2.451   4.665  17.606 -0.4493 -0.5305 -1.1374
 8328SOL     OW36619   1.627   3.164   9.602 -0.1483  0.0626 -0.5777
 8328SOL    HW136620   1.626   3.194   9.511  2.5772  1.7634 -0.0447
 8328SOL    HW236621   1.539   3.136   9.626 -0.3210  0.5801 -0.6082
 8329SOL     OW36622   0.939   3.738   5.065  0.8495 -0.2248 -0.0949
 8329SOL    HW136623   0.856   3.715   5.108  2.1876 -3.2343  0.8857
 8329SOL    HW236624   0.992   3.665   5.097 -0.2090 -1.0813 -0.2811
 8330SOL     OW36625   2.227   1.815  11.235  0.2462  0.3574 -0.2700
 8330SOL    HW136626   2.316   1.795  11.206  0.6288 -0.2007  1.2880
 8330SOL    HW236627   2.241   1.832  11.329 -3.6029  1.8725  0.0106
 8331SOL     OW36628   2.473   4.639   5.926 -0.0680 -0.2172  0.0792
 8331SOL    HW136629   2.529   4.618   5.851 -0.2993 -0.7036  0.0451
 8331SOL    HW236630   2.400   4.685   5.884 -0.4965  2.2274  3.4890
 8332SOL     OW36631   3.779   0.983   5.642 -0.3925 -0.1673  0.6963
 8332SOL    HW136632   3.851   0.974   5.704 -0.3625  1.9558  0.9732
 8332SOL    HW236633   3.775   0.894   5.605 -2.9837 -0.3756  1.4318
 8333SOL     OW36634   2.228   1.398   8.239 -0.4057 -0.8105  0.6915
 8333SOL    HW136635   2.260   1.321   8.285  0.7841 -1.6026 -1.4630
 8333SOL    HW236636   2.176   1.353   8.172  0.2221 -0.7515  0.1658
 8334SOL     OW36637   3.423   3.379   1.345  0.0957 -0.4217 -0.3541
 8334SOL    HW136638   3.428   3.337   1.259 -0.4062 -0.8396 -0.1772
 8334SOL    HW236639   3.356   3.442   1.321  0.0477  0.2357  1.4839
 8335SOL     OW36640   3.936   0.116   5.434  0.0519 -0.4232 -0.6958
 8335SOL    HW136641   3.995   0.177   5.389 -1.1349  1.3692  0.1910
 8335SOL    HW236642   3.973   0.117   5.522  0.0885 -2.3869 -0.6911
 8336SOL     OW36643   2.742   0.125  12.530 -0.6002 -0.3084 -0.3583
 8336SOL    HW136644   2.796   0.068  12.476  0.2670  0.9531 -0.8462
 8336SOL    HW236645   2.650   0.115  12.505 -0.9689  0.5093  0.6265
 8337SOL     OW36646   4.264   2.124   9.699  0.8126  0.0923  0.1245
 8337SOL    HW136647   4.263   2.029   9.709 -1.7211  0.0336 -0.6780
 8337SOL    HW236648   4.171   2.142   9.689  0.8037 -0.2109 -0.3590
 8338SOL     OW36649   4.072   1.345   1.985  0.4240  0.2915  0.2650
 8338SOL    HW136650   3.978   1.364   1.980  0.3711  0.1025  0.5156
 8338SOL    HW236651   4.094   1.331   1.893  0.6052 -0.9474  0.4958
 8339SOL     OW36652   0.048   1.684   2.392  0.3410  0.5427  0.0853
 8339SOL    HW136653   0.072   1.735   2.315  0.5570  0.1497 -0.1117
 8339SOL    HW236654   0.126   1.689   2.447  0.3650  0.4093  0.0656
 8340SOL     OW36655   2.033   2.471   8.832 -0.0765  0.0928  0.2285
 8340SOL    HW136656   1.956   2.415   8.829  0.1182 -0.1074 -0.8131
 8340SOL    HW236657   2.048   2.498   8.741  0.7331  0.5536  0.4949
 8341SOL     OW36658   3.428   1.641   5.386  0.0206  0.6154  0.2379
 8341SOL    HW136659   3.407   1.734   5.382 -1.1458  0.3591  0.4048
 8341SOL    HW236660   3.409   1.625   5.479 -1.3121 -0.7831 -0.2802
 8342SOL     OW36661   0.842   3.776   4.514 -0.3575  0.1938 -0.0564
 8342SOL    HW136662   0.916   3.758   4.571  0.7729  1.5284 -1.0903
 8342SOL    HW236663   0.816   3.862   4.548  0.5869  0.9047 -1.1095
 8343SOL     OW36664   0.238   0.885  11.482  0.0355 -0.3643 -0.0736
 8343SOL    HW136665   0.240   0.796  11.448  1.3287 -0.5852  0.5570
 8343SOL    HW236666   0.160   0.921  11.441 -0.7337 -1.1262  0.7448
 8344SOL     OW36667   2.450   1.584   6.247  0.1748  0.0036  0.2135
 8344SOL    HW136668   2.395   1.645   6.296  0.3972 -1.1810  1.9809
 8344SOL    HW236669   2.388   1.512   6.243  2.2015 -1.8063  1.1576
 8345SOL     OW36670   3.956   2.698   2.408  0.2568 -0.6516  0.6399
 8345SOL    HW136671   3.977   2.760   2.338  0.3996 -3.1585 -1.5407
 8345SOL    HW236672   3.976   2.614   2.365  1.2261  0.0717 -0.3424
 8346SOL     OW36673   4.051   4.052  15.341 -0.4309 -0.1077  0.5246
 8346SOL    HW136674   4.023   4.136  15.378  1.3735  0.0645  1.4953
 8346SOL    HW236675   4.130   4.082  15.297  0.3968 -1.8099  0.8792
 8347SOL     OW36676   0.024   0.227   9.414 -0.7498 -0.3724 -0.2598
 8347SOL    HW136677   0.054   0.249   9.502 -0.8507  1.1712 -0.6089
 8347SOL    HW236678   4.671   0.241   9.430 -0.6973  1.9890 -2.1819
 8348SOL     OW36679   1.455   3.299   9.217 -0.1956  0.3042 -0.3204
 8348SOL    HW136680   1.452   3.219   9.270 -1.4119  1.1419  0.8631
 8348SOL    HW236681   1.454   3.262   9.128 -1.3780  1.4160 -0.7651
 8349SOL     OW36682   4.138   1.253  13.721 -0.0170 -0.1864 -0.4519
 8349SOL    HW136683   4.114   1.310  13.648 -2.1685 -1.9148 -1.0625
 8349SOL    HW236684   4.148   1.168  13.678 -1.3482 -0.0058 -1.0941
 8350SOL     OW36685   0.334   1.897   8.996  0.1738 -0.0406 -0.4524
 8350SOL    HW136686   0.393   1.945   8.937 -0.7262  1.3561 -0.2067
 8350SOL    HW236687   0.323   1.964   9.063  1.7052  0.5365 -0.7699
 8351SOL     OW36688   4.368   4.067   1.959  0.1146 -0.1985 -0.0437
 8351SOL    HW136689   4.421   4.048   1.882 -0.4687 -1.3409 -0.1619
 8351SOL    HW236690   4.403   4.154   1.980 -2.8477  1.1363 -0.5976
 8352SOL     OW36691   3.158   4.004  15.589  0.2627  0.7355 -0.1672
 8352SOL    HW136692   3.243   4.010  15.633  0.2591  0.8061 -0.1690
 8352SOL    HW236693   3.125   3.921  15.623  0.2097  0.9827  0.3865
 8353SOL     OW36694   4.719   3.218   8.317  0.2084  0.1492 -0.1876
 8353SOL    HW136695   0.059   3.167   8.318  0.0345 -0.1049  1.6443
 8353SOL    HW236696   4.649   3.153   8.311  1.6172 -1.6989  3.3191
 8354SOL     OW36697   3.969   2.545   8.490  0.1123 -0.4546 -0.1374
 8354SOL    HW136698   4.000   2.575   8.575  0.7830 -0.1521 -0.4953
 8354SOL    HW236699   3.945   2.454   8.511 -2.6748  0.4156  0.4064
 8355SOL     OW36700   4.207   1.425   4.816 -0.9610 -0.5516 -0.0953
 8355SOL    HW136701   4.280   1.473   4.854 -1.7899 -0.2290  1.1049
 8355SOL    HW236702   4.153   1.503   4.799 -0.8814 -0.6140 -0.6398
 8356SOL     OW36703   3.298   1.101   6.778  0.2928  0.2017  0.3620
 8356SOL    HW136704   3.284   1.087   6.685 -0.2545  2.2913  0.1341
 8356SOL    HW236705   3.222   1.154   6.800 -2.6630 -2.3741 -3.8205
 8357SOL     OW36706   1.937   0.311  14.875 -0.2334 -0.0508 -0.2019
 8357SOL    HW136707   1.900   0.392  14.910 -0.6662  0.0953 -0.9934
 8357SOL    HW236708   2.033   0.310  14.881 -0.2582  2.1667  0.6214
 8358SOL     OW36709   4.696   0.534   6.335 -0.2764 -0.3739 -0.0889
 8358SOL    HW136710   4.716   0.602   6.400  3.3542 -0.7866 -0.7821
 8358SOL    HW236711   4.674   0.590   6.262 -1.2010 -0.1962  0.3270
 8359SOL     OW36712   1.372   2.439  16.487  0.3418  0.2634  0.2821
 8359SOL    HW136713   1.333   2.471  16.405  1.4425 -0.2435 -0.4443
 8359SOL    HW236714   1.410   2.521  16.519  0.5317  1.3624 -2.7688
 8360SOL     OW36715   4.456   2.417  14.614 -0.4527  0.6787 -0.1112
 8360SOL    HW136716   4.400   2.364  14.557 -1.6103  1.1573  0.5870
 8360SOL    HW236717   4.412   2.406  14.699 -1.6242 -0.8059 -0.9073
 8361SOL     OW36718   3.359   4.449   1.265 -0.2868  0.4457 -0.5194
 8361SOL    HW136719   3.408   4.405   1.196 -1.4039 -0.7571 -0.5392
 8361SOL    HW236720   3.299   4.380   1.293  0.9004  0.5224  2.2061
 8362SOL     OW36721   4.622   0.072   0.578  0.5075 -0.5087  0.1868
 8362SOL    HW136722   4.555   0.021   0.532  2.5279 -1.2578 -1.9301
 8362SOL    HW236723   4.703   0.047   0.534 -0.0827  0.1218 -1.2488
 8363SOL     OW36724   0.435   2.611   3.793 -0.2967  0.4661 -0.3732
 8363SOL    HW136725   0.497   2.544   3.820 -0.3098  0.1741 -1.0504
 8363SOL    HW236726   0.368   2.601   3.860 -2.5240  3.3203 -2.1776
 8364SOL     OW36727   2.600   4.643   8.977 -0.0846 -0.1904  0.5672
 8364SOL    HW136728   2.680   4.691   8.953 -0.3773 -0.8819 -1.8041
 8364SOL    HW236729   2.617   4.641   9.071  0.8911  2.3607  0.4571
 8365SOL     OW36730   1.417   0.094   5.562  0.9082  0.1280 -0.2859
 8365SOL    HW136731   1.389   0.184   5.580  1.1899  0.7663 -3.0150
 8365SOL    HW236732   1.344   0.039   5.589  1.6508 -0.9983 -0.5773
 8366SOL     OW36733   0.945   4.718   8.409 -0.3790  0.6445 -0.2461
 8366SOL    HW136734   0.900   4.675   8.482  2.7145 -0.8122  0.8092
 8366SOL    HW236735   1.016   4.656   8.396 -1.2515 -0.2985 -0.5239
 8367SOL     OW36736   1.137   1.718   3.907 -0.0591  0.5204 -0.1536
 8367SOL    HW136737   1.066   1.668   3.946 -1.3214  2.1246 -0.3667
 8367SOL    HW236738   1.206   1.659   3.935  0.9630  1.7107 -0.1448
 8368SOL     OW36739   1.528   2.509   4.116  0.1789 -0.1453  0.0962
 8368SOL    HW136740   1.504   2.601   4.106 -2.4036 -0.6953  1.1538
 8368SOL    HW236741   1.559   2.509   4.207  0.9360 -2.2221 -0.1595
 8369SOL     OW36742   2.647   2.157  13.059  0.6065 -0.4217  0.1541
 8369SOL    HW136743   2.557   2.190  13.064  0.1621 -1.6308  0.2003
 8369SOL    HW236744   2.698   2.237  13.068  0.3163 -0.4912  2.5638
 8370SOL     OW36745   2.668   0.116  12.190  0.0856 -0.5253 -0.6411
 8370SOL    HW136746   2.660   0.130  12.095  0.2121  1.0561 -0.4083
 8370SOL    HW236747   2.645   0.025  12.211 -0.3529  0.0024  1.1464
 8371SOL     OW36748   4.295   1.801   2.825  0.2716 -0.0209 -0.3748
 8371SOL    HW136749   4.299   1.892   2.855  0.3759 -0.2298  0.2418
 8371SOL    HW236750   4.224   1.797   2.761 -0.1271 -2.4782  0.2295
 8372SOL     OW36751   1.586   4.120   4.770 -0.2703 -0.5415  0.0335
 8372SOL    HW136752   1.515   4.116   4.834 -0.9183  1.1750 -0.5802
 8372SOL    HW236753   1.637   4.043   4.796  1.1555  0.8674  1.3842
 8373SOL     OW36754   1.710   4.315   5.444 -0.2146 -0.3174  0.3453
 8373SOL    HW136755   1.780   4.380   5.450  0.4149 -1.2111  2.5818
 8373SOL    HW236756   1.637   4.362   5.483  0.8867  2.4882 -0.9670
 8374SOL     OW36757   1.282   2.620  17.304  0.4847 -0.3477  0.0161
 8374SOL    HW136758   1.199   2.599  17.261 -1.0514  1.6245  2.0390
 8374SOL    HW236759   1.340   2.606  17.229  0.6027 -0.0546  0.0539
 8375SOL     OW36760   2.389   1.652   4.418  0.0216 -0.2334 -0.3670
 8375SOL    HW136761   2.322   1.665   4.350 -1.6113  2.4186  1.7354
 8375SOL    HW236762   2.408   1.560   4.400 -2.3617 -0.8905  0.4331
 8376SOL     OW36763   1.090   4.318   6.414  0.2809 -0.1505  0.1622
 8376SOL    HW136764   1.080   4.225   6.395 -1.9608  0.4532 -1.5893
 8376SOL    HW236765   1.006   4.341   6.375  0.0296  1.7147  1.7896
 8377SOL     OW36766   3.966   1.500  13.169  0.2565 -0.6070 -0.3717
 8377SOL    HW136767   3.919   1.550  13.236 -0.3451  0.4992 -1.6282
 8377SOL    HW236768   3.927   1.536  13.090  0.9599 -1.5227 -1.1333
 8378SOL     OW36769   1.006   0.170   8.747 -0.3443 -0.1401  0.5885
 8378SOL    HW136770   1.096   0.155   8.718 -0.1994 -1.0693  1.5166
 8378SOL    HW236771   0.973   0.083   8.770  1.4493 -1.0272 -0.2014
 8379SOL     OW36772   2.856   0.644   5.454  0.6083 -0.4125  0.3324
 8379SOL    HW136773   2.803   0.716   5.487  0.2279 -1.1575  1.3455
 8379SOL    HW236774   2.941   0.689   5.452  0.3586 -0.0023 -0.6772
 8380SOL     OW36775   4.112   4.350   1.323  0.2772  0.1886  0.0568
 8380SOL    HW136776   4.190   4.357   1.379  0.4303 -2.6937  0.1720
 8380SOL    HW236777   4.041   4.384   1.378  0.7513 -0.5389  1.1340
 8381SOL     OW36778   3.512   0.406   8.184  0.5085 -0.2197  0.3830
 8381SOL    HW136779   3.565   0.336   8.144 -3.4108 -2.4695 -0.8479
 8381SOL    HW236780   3.561   0.419   8.266 -0.2863 -2.7651  1.2556
 8382SOL     OW36781   0.849   2.470  12.261  0.0915  0.1491  0.0751
 8382SOL    HW136782   0.800   2.388  12.259 -0.6551  0.5779  1.4244
 8382SOL    HW236783   0.928   2.436  12.304 -0.1444 -0.9458 -0.3571
 8383SOL     OW36784   1.260   4.713  13.571 -0.4004 -0.3601  0.5113
 8383SOL    HW136785   1.332   0.032  13.549 -1.6949  0.3930 -1.6784
 8383SOL    HW236786   1.185   0.026  13.545 -1.3634 -0.2511  3.4272
 8384SOL     OW36787   1.934   2.637  16.965 -0.2871 -0.3211  0.3747
 8384SOL    HW136788   1.895   2.577  17.029  0.8955  0.8200  2.1744
 8384SOL    HW236789   1.868   2.673  16.907 -0.3980  0.1871  0.8157
 8385SOL     OW36790   3.590   2.428   5.641  0.2622  0.4741 -0.0317
 8385SOL    HW136791   3.670   2.462   5.681  0.3395 -0.7118  0.8123
 8385SOL    HW236792   3.539   2.404   5.718 -0.6161 -1.1528 -1.1268
 8386SOL     OW36793   3.398   4.690  10.185 -0.5410 -0.4201  0.1043
 8386SOL    HW136794   3.484   4.691  10.143  0.4988 -2.3268  2.2620
 8386SOL    HW236795   3.414   4.689  10.279  0.3460  0.2413 -0.0364
 8387SOL     OW36796   2.422   1.338   2.582 -0.5262 -0.2581 -0.1201
 8387SOL    HW136797   2.489   1.281   2.620 -1.0505 -0.2920  0.7621
 8387SOL    HW236798   2.375   1.360   2.663  0.6277  0.7481  0.2703
 8388SOL     OW36799   3.990   0.985  16.619 -0.0409 -0.7969 -0.3348
 8388SOL    HW136800   3.903   0.967  16.657 -0.4559 -0.8877 -1.3414
 8388SOL    HW236801   4.021   0.905  16.577  0.7774 -1.1101  0.8433
 8389SOL     OW36802   3.590   0.650  11.952  0.2727  0.4307  0.1195
 8389SOL    HW136803   3.525   0.614  12.012 -0.2576 -0.4671 -0.9956
 8389SOL    HW236804   3.666   0.598  11.979 -1.0913 -0.5188  2.1163
 8390SOL     OW36805   0.771   1.654   6.286 -0.7337  0.1554 -0.0744
 8390SOL    HW136806   0.749   1.740   6.250 -0.5216  0.1677 -0.1702
 8390SOL    HW236807   0.814   1.680   6.367  0.7074 -0.7174 -0.5713
 8391SOL     OW36808   3.373   4.452   7.114 -0.4230  0.8255 -0.0067
 8391SOL    HW136809   3.437   4.394   7.158 -0.9295  0.0263 -0.3273
 8391SOL    HW236810   3.308   4.460   7.184 -0.8849 -0.5640 -0.2815
 8392SOL     OW36811   0.025   1.692   7.044 -0.0033  0.3000  0.0397
 8392SOL    HW136812   4.679   1.684   7.084 -0.8814  1.2311 -1.6833
 8392SOL    HW236813   0.027   1.787   7.043  0.0404  0.2861 -1.9702
 8393SOL     OW36814   2.159   1.557   9.515  0.0777  0.0055 -0.0547
 8393SOL    HW136815   2.215   1.480   9.503  0.6261  0.0876  2.0166
 8393SOL    HW236816   2.073   1.514   9.518 -0.1344  0.4809  0.6567
 8394SOL     OW36817   0.411   3.269   9.378  0.3540  0.2143  0.1292
 8394SOL    HW136818   0.487   3.285   9.433 -1.6639  0.6626  2.8182
 8394SOL    HW236819   0.411   3.173   9.377  0.1899  0.2084  0.7236
 8395SOL     OW36820   4.239   4.198  16.164  0.1978 -0.0862  0.7663
 8395SOL    HW136821   4.185   4.222  16.239 -1.1314 -0.9331  0.0731
 8395SOL    HW236822   4.258   4.278  16.116  1.4896 -0.1473  1.1602
 8396SOL     OW36823   4.169   0.425  11.609  0.4466 -0.2122  0.1026
 8396SOL    HW136824   4.213   0.508  11.625  0.3721 -0.6916  2.7759
 8396SOL    HW236825   4.078   0.453  11.617  0.9900  0.9950  2.1331
 8397SOL     OW36826   1.130   2.739   6.675  0.1681  0.3956 -0.1986
 8397SOL    HW136827   1.132   2.723   6.769  0.4833  0.3828 -0.2088
 8397SOL    HW236828   1.039   2.759   6.653  0.3375  1.3712  0.0134
 8398SOL     OW36829   0.602   0.877   3.203 -0.1137  0.1916 -0.3108
 8398SOL    HW136830   0.528   0.924   3.162  1.2547  0.4972 -2.4281
 8398SOL    HW236831   0.654   0.957   3.211  0.5495 -0.3851  0.9574
 8399SOL     OW36832   0.944   2.697  12.792 -0.2451  0.2861  0.3824
 8399SOL    HW136833   1.003   2.652  12.852 -1.3584 -1.4710  0.1388
 8399SOL    HW236834   0.977   2.653  12.714 -2.8448  0.4242 -0.7990
 8400SOL     OW36835   3.041   3.569   2.950  0.7047 -0.6678 -0.6695
 8400SOL    HW136836   2.998   3.572   2.865  1.1898 -0.4572 -0.9048
 8400SOL    HW236837   3.004   3.485   2.976 -1.3493  0.1397 -0.9583
 8401SOL     OW36838   1.766   1.586   4.759  0.0456 -0.2015  0.3569
 8401SOL    HW136839   1.683   1.615   4.723 -0.0786 -1.8464 -0.6521
 8401SOL    HW236840   1.818   1.583   4.679 -0.5924 -1.0703 -0.0194
 8402SOL     OW36841   4.585   1.022   6.980 -0.5282  0.5378 -0.1062
 8402SOL    HW136842   4.661   1.030   7.038  0.7808 -0.8420 -1.6249
 8402SOL    HW236843   4.581   1.106   6.933  1.6867  1.2864  1.0149
 8403SOL     OW36844   0.518   4.646   2.175 -0.1401 -0.6991  0.0323
 8403SOL    HW136845   0.527   4.695   2.257 -1.9211 -0.7154  0.2324
 8403SOL    HW236846   0.492   4.560   2.208 -0.0848 -0.6686  0.1594
 8404SOL     OW36847   0.591   2.151   6.902 -0.0507  0.1042 -0.0226
 8404SOL    HW136848   0.662   2.157   6.838  0.2522 -0.6796  0.2388
 8404SOL    HW236849   0.524   2.201   6.855  1.3696  2.4090  0.3898
 8405SOL     OW36850   0.179   1.791   6.167  0.1284 -0.8584 -0.1588
 8405SOL    HW136851   0.198   1.724   6.234 -2.5853 -2.0666 -0.5782
 8405SOL    HW236852   0.144   1.853   6.231  0.6236  0.0894 -0.8054
 8406SOL     OW36853   3.388   4.560   8.255 -0.1799  0.0816  0.1692
 8406SOL    HW136854   3.293   4.564   8.258 -0.1409  1.6853 -0.6329
 8406SOL    HW236855   3.406   4.619   8.329  0.8415  0.1936 -0.1685
 8407SOL     OW36856   2.896   1.295   4.339  0.1395  0.4798 -0.2371
 8407SOL    HW136857   2.922   1.357   4.408 -1.8971  1.6104 -0.4793
 8407SOL    HW236858   2.972   1.239   4.350 -0.6246 -0.3260  0.9203
 8408SOL     OW36859   0.516   3.799   2.779  0.0907  0.0165  0.2795
 8408SOL    HW136860   0.579   3.844   2.835 -0.2220 -0.8206  1.3018
 8408SOL    HW236861   0.520   3.848   2.697 -0.4603  0.3395  0.4397
 8409SOL     OW36862   2.350   1.626   9.731  0.1611  0.2343 -0.3042
 8409SOL    HW136863   2.323   1.581   9.650  2.6739  1.1320 -1.6392
 8409SOL    HW236864   2.354   1.716   9.698 -1.4023 -0.6438 -2.9455
 8410SOL     OW36865   1.845   0.848   2.608 -0.4215 -0.3328  0.1357
 8410SOL    HW136866   1.756   0.841   2.640 -1.3767  1.9875 -2.0164
 8410SOL    HW236867   1.835   0.777   2.545 -2.2301 -0.5599  0.6846
 8411SOL     OW36868   4.250   0.708   9.418 -0.0769  0.3700  0.0286
 8411SOL    HW136869   4.299   0.721   9.336  1.4723 -0.6727  0.7944
 8411SOL    HW236870   4.231   0.615   9.413  0.7025  0.4014 -3.6335
 8412SOL     OW36871   2.957   2.937   8.268 -0.5497 -0.3290  0.6119
 8412SOL    HW136872   2.872   2.917   8.307 -0.8470  0.9514  0.6252
 8412SOL    HW236873   2.946   2.905   8.179 -0.5364  0.6632  0.2529
 8413SOL     OW36874   3.885   4.253  11.097 -0.8859  0.3558  0.1467
 8413SOL    HW136875   3.793   4.281  11.099 -1.4491 -1.3593 -1.7912
 8413SOL    HW236876   3.925   4.325  11.049 -1.2256  0.1711 -0.4116
 8414SOL     OW36877   4.562   3.364   6.499 -0.2230  0.3258  0.7086
 8414SOL    HW136878   4.521   3.326   6.577  0.1601 -0.2989  0.6093
 8414SOL    HW236879   4.518   3.449   6.493 -1.6690 -0.5196 -0.5953
 8415SOL     OW36880   3.361   1.742   6.853 -0.2982  0.5606  0.0993
 8415SOL    HW136881   3.326   1.724   6.766 -0.0731  2.2223 -0.3355
 8415SOL    HW236882   3.451   1.734   6.822 -0.3537  0.8902 -0.1456
 8416SOL     OW36883   4.271   3.893  14.591  0.1576 -0.1635  0.4783
 8416SOL    HW136884   4.305   3.809  14.562  0.4132  0.5832 -1.3875
 8416SOL    HW236885   4.235   3.874  14.678 -0.8825 -1.6543 -0.2684
 8417SOL     OW36886   2.136   0.675  13.942  0.3797 -0.0403 -0.1765
 8417SOL    HW136887   2.110   0.734  14.013  1.1491 -1.1952  1.0753
 8417SOL    HW236888   2.053   0.629  13.933 -0.8007  1.7146  1.6948
 8418SOL     OW36889   4.376   4.578   9.598 -0.1855 -0.0241  0.0926
 8418SOL    HW136890   4.409   4.667   9.590 -0.7314  0.1275 -0.4238
 8418SOL    HW236891   4.288   4.606   9.622 -0.2355  0.5711 -0.7966
 8419SOL     OW36892   3.525   1.481   5.149 -0.6144 -0.0800  0.5515
 8419SOL    HW136893   3.500   1.519   5.234 -1.0765  1.5227 -0.3003
 8419SOL    HW236894   3.453   1.509   5.093  0.1676  2.3439  0.7555
 8420SOL     OW36895   3.631   2.535  13.629 -0.7559 -0.1269 -0.7869
 8420SOL    HW136896   3.579   2.455  13.617 -0.0409 -0.7199  0.0405
 8420SOL    HW236897   3.721   2.503  13.637 -0.9248 -0.0947  1.0333
 8421SOL     OW36898   1.949   2.194  17.506  0.3267  0.4792  1.0874
 8421SOL    HW136899   1.952   2.102  17.533 -0.1071  0.3436  0.6836
 8421SOL    HW236900   2.039   2.217  17.486  0.0447  0.0655 -0.7130
 8422SOL     OW36901   3.650   4.356   2.725  0.5119  0.0900  0.1328
 8422SOL    HW136902   3.664   4.449   2.740  1.5159 -0.0437  0.0030
 8422SOL    HW236903   3.730   4.320   2.687 -0.2264 -1.3926 -0.0472
 8423SOL     OW36904   1.617   3.961   3.135  0.0050  0.5249 -0.0044
 8423SOL    HW136905   1.546   4.025   3.145 -1.0898 -0.1670 -3.1556
 8423SOL    HW236906   1.645   3.984   3.046  2.1999 -1.2065  0.2726
 8424SOL     OW36907   0.263   1.001   4.717 -0.2209  0.0011  0.1443
 8424SOL    HW136908   0.263   1.079   4.661  2.5407 -0.0227  0.1112
 8424SOL    HW236909   0.319   1.046   4.780 -2.0927  1.4142  0.7936
 8425SOL     OW36910   0.281   0.349   1.788 -0.2708  0.3963 -0.4566
 8425SOL    HW136911   0.339   0.421   1.814 -3.0389  1.3660  2.9715
 8425SOL    HW236912   0.224   0.401   1.732 -0.8423  1.6547  1.2930
 8426SOL     OW36913   1.346   1.021   4.796  0.7688 -0.6552 -0.1960
 8426SOL    HW136914   1.431   1.041   4.834  0.2563 -1.2018  1.2122
 8426SOL    HW236915   1.300   1.055   4.872  1.1256 -0.8913  0.1252
 8427SOL     OW36916   1.320   4.228  14.750  0.1338 -0.1237  0.1126
 8427SOL    HW136917   1.378   4.164  14.708  0.1199 -0.7287  1.0289
 8427SOL    HW236918   1.274   4.273  14.679 -0.7577 -0.4029  0.5169
 8428SOL     OW36919   0.584   2.868   7.142  0.2541 -0.0208 -0.3214
 8428SOL    HW136920   0.602   2.949   7.190  1.1372 -0.4905  0.1316
 8428SOL    HW236921   0.609   2.891   7.053  0.0064  1.1539 -0.0933
 8429SOL     OW36922   0.984   3.016  14.711  0.7120 -0.2903  0.2084
 8429SOL    HW136923   0.964   3.013  14.805 -0.0283 -3.0820 -0.0422
 8429SOL    HW236924   1.055   2.953  14.700  0.1199 -1.3959  2.6712
 8430SOL     OW36925   0.975   2.493   5.402 -0.1598  0.9114  0.6115
 8430SOL    HW136926   0.980   2.428   5.331  0.4406 -0.4978  1.9472
 8430SOL    HW236927   0.918   2.559   5.363 -0.9872 -0.1321  0.0295
 8431SOL     OW36928   1.244   2.483  16.928 -0.0532  0.4482  0.3072
 8431SOL    HW136929   1.211   2.401  16.890 -0.3665 -0.4260  2.4607
 8431SOL    HW236930   1.269   2.441  17.010  0.6391  0.7579  0.2541
 8432SOL     OW36931   0.334   2.890   6.796 -0.1638 -0.0272 -0.5571
 8432SOL    HW136932   0.357   2.799   6.813 -1.6620 -0.5129 -1.1496
 8432SOL    HW236933   0.262   2.868   6.737  0.1361  0.5721 -1.1436
 8433SOL     OW36934   1.490   0.304   7.447 -0.0189 -0.2762  0.6165
 8433SOL    HW136935   1.566   0.282   7.392  3.4419  2.1404  4.3840
 8433SOL    HW236936   1.531   0.372   7.501 -0.8762 -1.4014  2.6707
 8434SOL     OW36937   4.204   0.412   4.654  0.2039  0.1656 -0.1695
 8434SOL    HW136938   4.196   0.489   4.710 -2.3500  0.0057 -0.2946
 8434SOL    HW236939   4.122   0.414   4.604  0.8119 -2.5267 -1.2925
 8435SOL     OW36940   4.538   4.214   4.098 -0.4261  0.5003 -0.4981
 8435SOL    HW136941   4.604   4.227   4.166 -0.0238 -0.1506 -0.7733
 8435SOL    HW236942   4.467   4.186   4.156 -0.0447  0.0421 -0.2528
 8436SOL     OW36943   0.373   3.622  16.182 -0.0837 -0.0128 -0.5300
 8436SOL    HW136944   0.291   3.574  16.183  0.9677 -1.7447  0.9606
 8436SOL    HW236945   0.441   3.562  16.212 -1.5473 -1.8778 -0.9178
 8437SOL     OW36946   4.564   1.565   3.957  0.5107  0.1837  0.2449
 8437SOL    HW136947   4.502   1.532   4.023  0.0666 -2.3333 -1.4299
 8437SOL    HW236948   4.552   1.507   3.882 -0.9666 -0.2150  0.7862
 8438SOL     OW36949   1.619   0.770   7.154  0.2473 -0.3680  0.0075
 8438SOL    HW136950   1.692   0.733   7.205  0.1998 -1.9908 -1.1079
 8438SOL    HW236951   1.667   0.828   7.096  0.2297 -0.3044  0.0573
 8439SOL     OW36952   1.561   4.230   7.950  0.2936 -0.3967 -0.1400
 8439SOL    HW136953   1.610   4.197   8.026 -0.2110 -0.0417  0.3447
 8439SOL    HW236954   1.508   4.294   7.998 -1.0749 -2.2824  0.8612
 8440SOL     OW36955   1.016   2.676   0.242 -0.2129 -0.2904 -0.3087
 8440SOL    HW136956   1.097   2.713   0.277 -0.3828  0.0836 -0.3075
 8440SOL    HW236957   1.034   2.671   0.148  0.4534 -1.2208 -0.1260
 8441SOL     OW36958   1.737   1.614  15.504  0.2505 -0.1428  0.1437
 8441SOL    HW136959   1.683   1.681  15.462  0.7807  0.9152  1.1606
 8441SOL    HW236960   1.814   1.669  15.514 -0.2989  0.3858  1.5517
 8442SOL     OW36961   3.611   4.510   3.027  0.3696  0.3311 -0.2223
 8442SOL    HW136962   3.641   4.463   3.105 -0.6696 -3.0819 -1.8516
 8442SOL    HW236963   3.693   4.557   3.013  0.6773  0.4088  1.9369
 8443SOL     OW36964   3.197   0.446   2.639 -0.3493  0.0958  0.4117
 8443SOL    HW136965   3.253   0.472   2.566  0.5187 -0.4697  0.8723
 8443SOL    HW236966   3.123   0.395   2.608 -0.3354 -0.0444  0.6053
 8444SOL     OW36967   2.428   2.180   2.894 -0.1920 -0.2605 -1.2840
 8444SOL    HW136968   2.515   2.192   2.857 -0.0391  0.8275 -0.5738
 8444SOL    HW236969   2.369   2.196   2.820 -0.4308 -0.6917 -1.1902
 8445SOL     OW36970   4.676   4.370   5.326 -0.0511 -0.1974  0.1183
 8445SOL    HW136971   4.629   4.414   5.397 -0.5468 -1.0701  0.3325
 8445SOL    HW236972   4.603   4.355   5.266 -0.8629 -1.6786  1.4948
 8446SOL     OW36973   2.267   1.442  14.750 -0.1410  1.1419 -0.3576
 8446SOL    HW136974   2.320   1.478  14.679 -0.0124  0.1111 -0.7843
 8446SOL    HW236975   2.205   1.513  14.763 -1.4410 -0.2469  1.0573
 8447SOL     OW36976   2.229   2.287   2.448 -0.2767  0.1911  0.6499
 8447SOL    HW136977   2.202   2.368   2.491 -1.3628  0.5081 -0.6269
 8447SOL    HW236978   2.282   2.324   2.377 -0.0743 -1.5780 -0.1317
 8448SOL     OW36979   3.096   3.926   2.955  0.0415 -0.0237  0.0401
 8448SOL    HW136980   3.108   4.010   2.911  0.1838  0.3427  0.7697
 8448SOL    HW236981   3.004   3.904   2.937 -0.6319  0.8730  2.3768
 8449SOL     OW36982   3.921   2.993  12.141 -0.3398 -0.6805  0.1840
 8449SOL    HW136983   3.927   2.929  12.070  0.7112  0.9560 -1.1933
 8449SOL    HW236984   4.012   3.002  12.171 -1.7585  0.6075  3.9901
 8450SOL     OW36985   2.138   2.037   2.449 -0.2862  0.3612 -0.2580
 8450SOL    HW136986   2.204   1.997   2.394  2.5045  1.8120  2.0413
 8450SOL    HW236987   2.166   2.128   2.459  1.8087 -0.1052 -1.9975
 8451SOL     OW36988   0.990   1.262   2.642  0.0027 -0.2641  0.1370
 8451SOL    HW136989   0.925   1.235   2.576 -0.2330 -0.1619  0.3274
 8451SOL    HW236990   0.962   1.206   2.715 -2.0411  0.0002 -0.4502
 8452SOL     OW36991   3.340   0.821   3.990 -0.3099 -0.0594  0.0360
 8452SOL    HW136992   3.429   0.821   3.956 -0.7361  1.0274 -1.0779
 8452SOL    HW236993   3.350   0.772   4.072  0.9730 -0.1446 -0.1772
 8453SOL     OW36994   1.731   2.354   5.234  0.3852  0.0077 -0.4775
 8453SOL    HW136995   1.744   2.328   5.143  0.9552  3.1728 -1.2974
 8453SOL    HW236996   1.695   2.441   5.214 -1.2001 -0.4386  0.3890
 8454SOL     OW36997   3.859   0.209   5.108  0.2681 -0.2200 -0.1683
 8454SOL    HW136998   3.855   0.114   5.109 -0.3188 -0.2202 -1.5304
 8454SOL    HW236999   3.897   0.217   5.021  2.2502  1.0466  0.8236
 8455SOL     OW37000   0.411   3.709   5.692  0.6015 -0.0911  0.4144
 8455SOL    HW137001   0.409   3.735   5.784  1.0616  1.0907  0.0859
 8455SOL    HW237002   0.426   3.615   5.709  1.0916 -0.3613 -1.4823
 8456SOL     OW37003   4.324   3.412  15.360  0.6307 -0.0943 -0.4647
 8456SOL    HW137004   4.311   3.357  15.438  1.3420 -1.3573 -1.2401
 8456SOL    HW237005   4.391   3.360  15.316  0.4078  0.1014 -1.0309
 8457SOL     OW37006   0.371   2.057   6.030  0.5298  0.4802 -0.0577
 8457SOL    HW137007   0.422   1.989   5.984  0.3303 -0.8362  1.6843
 8457SOL    HW237008   0.278   2.036   6.019  0.6401  0.0391 -0.1352
 8458SOL     OW37009   1.918   1.238  16.869 -0.4091 -0.1426 -0.4193
 8458SOL    HW137010   1.990   1.298  16.890 -1.4273  0.4847  1.3048
 8458SOL    HW237011   1.924   1.181  16.947 -3.0143  0.7042  0.3896
 8459SOL     OW37012   2.655   4.584   9.219  0.3607  0.6738 -0.4556
 8459SOL    HW137013   2.571   4.550   9.250 -0.2806  2.2105 -0.5003
 8459SOL    HW237014   2.716   4.511   9.224 -2.8568 -1.8829  1.4390
 8460SOL     OW37015   0.682   1.986  15.333 -0.2424  0.1277 -0.5287
 8460SOL    HW137016   0.587   1.977  15.328 -0.3298  1.3782 -1.1589
 8460SOL    HW237017   0.689   1.974  15.238 -1.2569 -0.9068 -0.4745
 8461SOL     OW37018   4.185   1.167   2.168 -0.2517 -0.9024 -0.3064
 8461SOL    HW137019   4.154   1.218   2.093  0.7985  2.1229  1.3638
 8461SOL    HW237020   4.267   1.131   2.135 -1.0019 -2.0111 -0.9875
 8462SOL     OW37021   3.579   1.081   1.788  0.1627 -0.3561  0.0884
 8462SOL    HW137022   3.565   1.088   1.882  1.7778  0.9763  0.2169
 8462SOL    HW237023   3.617   1.166   1.768 -0.6421  0.1022  0.5161
 8463SOL     OW37024   2.491   0.488   4.065  0.5090  0.3820  0.3330
 8463SOL    HW137025   2.409   0.508   4.110 -0.3320 -2.5788  0.0684
 8463SOL    HW237026   2.531   0.574   4.052  3.0140 -0.7698  0.3777
 8464SOL     OW37027   2.537   4.259   7.347 -0.4327 -0.2993  0.6308
 8464SOL    HW137028   2.556   4.349   7.321 -1.5754 -0.0082  0.8110
 8464SOL    HW237029   2.494   4.232   7.266  3.8885  0.4435 -1.9091
 8465SOL     OW37030   0.137   1.245  16.701  0.0124  0.3134 -0.3369
 8465SOL    HW137031   0.121   1.185  16.629  0.3100 -0.3019  0.1088
 8465SOL    HW237032   0.079   1.318  16.681  1.9835  2.0626  0.2667
 8466SOL     OW37033   3.173   1.342  10.198 -0.3264 -0.5214 -0.2164
 8466SOL    HW137034   3.161   1.419  10.142 -1.0846  0.6097  1.4930
 8466SOL    HW237035   3.224   1.370  10.274  1.0574  0.9794 -1.6878
 8467SOL     OW37036   4.538   2.322   7.841  0.0870  0.1791  0.0116
 8467SOL    HW137037   4.504   2.236   7.816  1.6177  0.1181 -1.9227
 8467SOL    HW237038   4.555   2.320   7.935  0.7456  0.0854 -0.1084
 8468SOL     OW37039   2.448   4.213   4.845  0.0438  0.5292  0.0558
 8468SOL    HW137040   2.532   4.229   4.800  0.4440  1.7157  1.2152
 8468SOL    HW237041   2.471   4.221   4.938 -1.5420 -0.2348  0.5003
 8469SOL     OW37042   3.697   3.971  16.146  0.2057 -0.6891  0.2564
 8469SOL    HW137043   3.641   4.043  16.173 -0.2655 -0.6606 -0.8112
 8469SOL    HW237044   3.777   4.024  16.147 -0.9910  1.1304  0.2126
 8470SOL     OW37045   3.398   2.373   5.819  0.2683  0.1770  0.1074
 8470SOL    HW137046   3.329   2.434   5.844 -1.5783 -0.0974 -4.3719
 8470SOL    HW237047   3.374   2.292   5.864  0.5647 -0.2314 -0.4788
 8471SOL     OW37048   4.278   1.258   6.255 -0.5060 -0.4272  0.0011
 8471SOL    HW137049   4.260   1.225   6.343 -3.3413 -0.1035 -0.4296
 8471SOL    HW237050   4.340   1.328   6.274 -0.9888 -0.2026  0.7568
 8472SOL     OW37051   3.970   2.015   7.851 -0.2764  0.1928  0.2108
 8472SOL    HW137052   3.968   1.924   7.882 -0.8511  0.1354  0.0099
 8472SOL    HW237053   4.048   2.036   7.901 -0.9937  0.0529  1.3972
 8473SOL     OW37054   0.297   1.952  17.184 -0.1264  0.3507 -0.3486
 8473SOL    HW137055   0.259   1.950  17.272  1.1786 -2.2751  0.1393
 8473SOL    HW237056   0.370   1.894  17.204 -1.0868 -0.0328  2.1027
 8474SOL     OW37057   3.140   3.650   7.290  0.1328 -0.2086  0.2729
 8474SOL    HW137058   3.045   3.646   7.305 -0.0450 -1.7881 -1.3216
 8474SOL    HW237059   3.177   3.581   7.346  0.8639 -2.8291 -3.3914
 8475SOL     OW37060   2.259   2.754  10.655  0.2019  0.2611 -0.2895
 8475SOL    HW137061   2.224   2.791  10.575  1.8095 -0.1397 -1.1736
 8475SOL    HW237062   2.351   2.764  10.631  0.3978  0.1640  0.4194
 8476SOL     OW37063   0.350   0.937   2.552  0.1257 -0.4422 -0.2771
 8476SOL    HW137064   0.353   0.862   2.493  1.9134 -0.8561  0.3490
 8476SOL    HW237065   0.314   0.894   2.629 -0.5627  1.7401  0.6372
 8477SOL     OW37066   4.210   2.092  10.876  0.1942 -0.3748  0.4775
 8477SOL    HW137067   4.162   2.017  10.842 -0.8856 -0.4505  2.1517
 8477SOL    HW237068   4.193   2.082  10.970 -0.2026 -2.9850  0.1159
 8478SOL     OW37069   3.372   1.356  15.421  0.2802 -0.1162 -0.6920
 8478SOL    HW137070   3.413   1.441  15.400 -0.6893 -0.0675 -2.4115
 8478SOL    HW237071   3.399   1.345  15.512 -0.2647 -3.9018 -1.0037
 8479SOL     OW37072   2.166   1.814   6.671  0.1607  0.0955 -0.3762
 8479SOL    HW137073   2.175   1.764   6.752  0.4383  1.6920  0.5731
 8479SOL    HW237074   2.153   1.906   6.695 -0.8478 -0.2225  0.3311
 8480SOL     OW37075   3.497   4.148  15.628  0.0025 -0.0317 -0.4377
 8480SOL    HW137076   3.527   4.108  15.546  1.0461  1.1527 -0.6369
 8480SOL    HW237077   3.458   4.073  15.673  2.5294 -0.7293  0.5469
 8481SOL     OW37078   1.314   1.925   5.265  0.0916 -0.4686 -0.1873
 8481SOL    HW137079   1.394   1.952   5.309  1.1318 -1.3425 -1.5653
 8481SOL    HW237080   1.320   1.834   5.296 -2.2467  0.0442  1.8086
 8482SOL     OW37081   4.279   3.987   2.691  0.5610 -0.6690  0.6182
 8482SOL    HW137082   4.313   4.076   2.686  0.8671 -0.6881  2.2801
 8482SOL    HW237083   4.216   3.983   2.620  2.1244  0.4250 -0.8125
 8483SOL     OW37084   4.564   2.350  14.072  0.5093  0.5435 -0.4841
 8483SOL    HW137085   4.631   2.302  14.022  2.7538  1.1204  1.9859
 8483SOL    HW237086   4.487   2.322  14.023 -0.1757 -1.2480  1.5826
 8484SOL     OW37087   0.648   2.064   9.269 -0.2621  0.8653  0.2401
 8484SOL    HW137088   0.621   2.133   9.329 -0.2030 -1.2183  2.6538
 8484SOL    HW237089   0.584   2.063   9.197  1.7846 -1.5296 -1.5605
 8485SOL     OW37090   1.115   3.752   7.762  0.4201  0.4234 -0.2813
 8485SOL    HW137091   1.079   3.680   7.814 -1.1609  0.5043 -1.2727
 8485SOL    HW237092   1.077   3.735   7.676  1.9660  1.1191 -1.1143
 8486SOL     OW37093   4.480   3.136   5.276  0.6263 -0.0902 -0.4042
 8486SOL    HW137094   4.513   3.088   5.200 -0.7117 -2.7854  0.7241
 8486SOL    HW237095   4.555   3.119   5.333  0.8900 -0.3610 -0.8407
 8487SOL     OW37096   4.244   1.271  13.970  0.3443 -0.5264  0.0477
 8487SOL    HW137097   4.269   1.364  13.971  0.6758 -0.6054 -0.8079
 8487SOL    HW237098   4.205   1.267  13.883 -0.9983  0.1451  0.6063
 8488SOL     OW37099   2.588   3.136   6.265 -0.2397  0.0240 -0.5721
 8488SOL    HW137100   2.665   3.194   6.262 -1.3568  1.5361 -0.2833
 8488SOL    HW237101   2.554   3.159   6.179 -0.5234 -2.0401 -1.0054
 8489SOL     OW37102   1.953   3.620   6.553 -0.1610  0.3636 -0.1134
 8489SOL    HW137103   2.011   3.573   6.492 -0.3361 -1.3539  1.0469
 8489SOL    HW237104   2.015   3.685   6.584  0.1231 -0.8443  1.8037
 8490SOL     OW37105   4.331   4.676  11.934  0.0573 -0.5243  0.8265
 8490SOL    HW137106   4.377   0.018  11.948 -1.8174  0.5580  0.7116
 8490SOL    HW237107   4.307   4.676  11.841 -0.2574  1.2229  0.8974
 8491SOL     OW37108   2.675   2.799  14.816  0.2063 -0.0194  0.3985
 8491SOL    HW137109   2.604   2.777  14.755  1.3421 -0.3066 -0.8256
 8491SOL    HW237110   2.626   2.855  14.876 -1.7242  1.1352 -2.1959
 8492SOL     OW37111   0.850   1.355  17.421 -0.0910  0.1215  0.2795
 8492SOL    HW137112   0.899   1.433  17.447  0.3946  0.1632 -0.7431
 8492SOL    HW237113   0.906   1.316  17.353 -1.0499 -0.9887  0.1233
 8493SOL     OW37114   4.006   0.995   4.092  0.1843  0.1234  0.5692
 8493SOL    HW137115   3.915   1.015   4.115  0.2946  0.8195  0.4143
 8493SOL    HW237116   4.005   0.910   4.048 -3.5334  1.3786 -1.7216
 8494SOL     OW37117   2.698   0.436   7.673  0.4027  0.0759 -0.2601
 8494SOL    HW137118   2.703   0.341   7.666 -0.2500 -0.0868  1.3683
 8494SOL    HW237119   2.763   0.449   7.742  0.4809  1.7432 -0.6412
 8495SOL     OW37120   0.815   2.550   3.564  0.9616  0.5052 -0.0807
 8495SOL    HW137121   0.849   2.461   3.570 -3.2130 -1.4269 -4.9652
 8495SOL    HW237122   0.837   2.581   3.652  1.1653 -0.6184  0.2614
 8496SOL     OW37123   0.216   0.394   3.969 -0.2783 -0.6379 -0.0428
 8496SOL    HW137124   0.295   0.340   3.974 -0.7621 -1.4697 -1.3765
 8496SOL    HW237125   0.159   0.350   4.031  3.4825 -0.6756  3.4290
 8497SOL     OW37126   3.660   3.157   4.782  0.0690 -0.1475  0.3645
 8497SOL    HW137127   3.737   3.206   4.810  1.4741 -1.7115 -0.7841
 8497SOL    HW237128   3.653   3.181   4.690 -1.2435 -0.9346  0.2709
 8498SOL     OW37129   3.097   2.872   6.820 -0.0857 -0.8891  0.2130
 8498SOL    HW137130   3.155   2.845   6.891  0.1489  0.3556  0.4917
 8498SOL    HW237131   3.040   2.933   6.867 -2.7003 -1.9245 -1.5962
 8499SOL     OW37132   3.601   0.083  12.860  0.7387  1.0694 -0.2439
 8499SOL    HW137133   3.662   0.054  12.792  0.1621 -1.2189  0.2396
 8499SOL    HW237134   3.659   0.100  12.935 -2.4025  0.5130  2.3149
 8500SOL     OW37135   2.527   0.403   2.614 -0.2030  0.1334 -0.5981
 8500SOL    HW137136   2.497   0.330   2.669 -1.2741 -1.4249 -3.2245
 8500SOL    HW237137   2.502   0.475   2.672  0.4888 -0.3865  0.3418
 8501SOL     OW37138   4.724   1.305  14.666  0.3890 -0.2768  0.0616
 8501SOL    HW137139   0.066   1.347  14.643 -0.6181  1.4429 -0.4292
 8501SOL    HW237140   4.702   1.347  14.749  0.4015  0.4883 -0.3273
 8502SOL     OW37141   1.724   2.031  17.704  0.1750 -0.9052  0.4327
 8502SOL    HW137142   1.731   2.028  17.609  0.9419  2.5585  0.3854
 8502SOL    HW237143   1.738   1.938  17.723 -2.8230 -2.0555 -2.9831
 8503SOL     OW37144   2.086   3.064  15.860 -0.3641  0.7014 -0.6599
 8503SOL    HW137145   2.180   3.081  15.852 -0.5464  1.7700 -0.5329
 8503SOL    HW237146   2.051   3.106  15.782  1.1526 -1.3291 -2.4329
 8504SOL     OW37147   2.494   2.923   8.005 -0.4298 -0.2628  0.7046
 8504SOL    HW137148   2.562   2.970   8.053 -1.8307  1.4845  0.9810
 8504SOL    HW237149   2.556   2.860   7.968 -1.4778  0.3096 -2.0086
 8505SOL     OW37150   3.382   3.944   7.764 -0.3225 -0.0091  0.0477
 8505SOL    HW137151   3.465   3.993   7.766 -0.9537  1.0876 -0.4166
 8505SOL    HW237152   3.417   3.860   7.734  0.5143  0.4598 -0.2969
 8506SOL     OW37153   3.489   4.420   6.864 -0.2057  0.6344  0.1399
 8506SOL    HW137154   3.445   4.428   6.949  1.5416  0.3941  1.0621
 8506SOL    HW237155   3.512   4.327   6.858 -1.4710  0.4342 -1.7024
 8507SOL     OW37156   1.948   0.869   4.415  0.0503  0.2996  0.5154
 8507SOL    HW137157   1.970   0.824   4.333 -2.7450  1.2697 -0.7711
 8507SOL    HW237158   2.031   0.914   4.433 -0.1744  0.7773  0.3465
 8508SOL     OW37159   3.639   0.143   5.368 -0.3715 -0.2315 -0.1496
 8508SOL    HW137160   3.635   0.211   5.435 -1.0675  0.8116 -1.2549
 8508SOL    HW237161   3.732   0.152   5.344 -0.3304  0.5714  0.3386
 8509SOL     OW37162   1.384   0.423  12.236 -0.2124 -0.4578 -0.5800
 8509SOL    HW137163   1.312   0.384  12.286 -0.4681 -0.5001 -0.9819
 8509SOL    HW237164   1.343   0.498  12.193  1.4606  0.8826  0.1598
 8510SOL     OW37165   3.538   3.276  11.147 -0.1418  0.3758 -0.2718
 8510SOL    HW137166   3.586   3.353  11.177 -3.4039  1.6106  1.7012
 8510SOL    HW237167   3.473   3.265  11.216 -0.3947 -0.2991 -0.6159
 8511SOL     OW37168   1.405   0.578   1.261  0.7156 -0.0480 -0.5868
 8511SOL    HW137169   1.433   0.618   1.178  0.5859  1.9169  0.3233
 8511SOL    HW237170   1.314   0.557   1.239  1.6506 -2.4917 -2.2109
 8512SOL     OW37171   3.038   4.540  12.628  0.5855 -0.1621 -0.0045
 8512SOL    HW137172   2.973   4.570  12.564 -3.1442 -1.0562  3.3700
 8512SOL    HW237173   3.085   4.624  12.631 -0.5432  0.4410  0.8351
 8513SOL     OW37174   3.111   0.812   3.549  0.7972 -0.3431 -1.2988
 8513SOL    HW137175   3.116   0.733   3.603  0.3888 -0.6469 -1.7006
 8513SOL    HW237176   3.128   0.789   3.458  3.0114  1.2617 -1.2838
 8514SOL     OW37177   0.532   2.939  10.432  0.0804  0.1309 -0.0981
 8514SOL    HW137178   0.462   2.875  10.417  1.4366 -0.6538 -3.0670
 8514SOL    HW237179   0.576   2.896  10.504 -0.8626 -2.1158 -0.8728
 8515SOL     OW37180   3.615   1.763   6.399  0.8892 -0.5680  0.4952
 8515SOL    HW137181   3.554   1.691   6.417 -0.5418  0.5176  0.0439
 8515SOL    HW237182   3.661   1.714   6.331  4.7043  1.9352  1.2622
 8516SOL     OW37183   0.879   2.015  16.816 -0.0444 -0.0540  0.1899
 8516SOL    HW137184   0.801   2.061  16.848 -1.1055 -0.7866 -1.3802
 8516SOL    HW237185   0.943   2.085  16.801  1.0169 -0.7127  1.5681
 8517SOL     OW37186   3.860   2.585   1.779  0.4870  0.6178 -0.0900
 8517SOL    HW137187   3.829   2.598   1.869 -1.2886  1.4440 -0.8453
 8517SOL    HW237188   3.826   2.499   1.754  0.2835  0.9456 -0.9273
 8518SOL     OW37189   3.470   0.679   1.450 -0.0321  0.0993 -0.5586
 8518SOL    HW137190   3.482   0.772   1.466 -0.8412 -0.0675  1.0284
 8518SOL    HW237191   3.441   0.639   1.532 -0.6801 -1.8931 -1.7736
 8519SOL     OW37192   0.980   3.922   5.421 -0.4682  0.6705  0.2898
 8519SOL    HW137193   0.888   3.898   5.415  0.0893 -1.1929 -0.7450
 8519SOL    HW237194   0.993   3.893   5.512 -2.3747  0.1441  0.3829
 8520SOL     OW37195   0.787   1.239   5.182  0.3451  0.3441  0.9802
 8520SOL    HW137196   0.763   1.268   5.270 -2.8686 -2.1998  0.9083
 8520SOL    HW237197   0.857   1.179   5.207 -2.8613 -3.7865 -0.1484
 8521SOL     OW37198   4.558   3.249   8.797  0.1381  0.4470  0.0450
 8521SOL    HW137199   4.632   3.194   8.772  0.7531  1.1018  0.4012
 8521SOL    HW237200   4.492   3.190   8.833 -0.7516  0.4924 -1.4909
 8522SOL     OW37201   3.706   4.632   3.754  0.1559  0.1236  0.2442
 8522SOL    HW137202   3.679   4.559   3.698  0.0642  1.2964 -1.2572
 8522SOL    HW237203   3.666   4.701   3.700  2.2623  1.6026  0.5423
 8523SOL     OW37204   3.843   1.983  10.822  0.3378  0.0440  0.1603
 8523SOL    HW137205   3.822   2.058  10.878 -0.3390 -1.0460  1.3755
 8523SOL    HW237206   3.931   1.973  10.858  0.0625  0.5017  0.9735
 8524SOL     OW37207   3.877   4.504   8.740  0.0441  0.1992 -0.1246
 8524SOL    HW137208   3.905   4.413   8.742  0.2557  0.2758  0.5487
 8524SOL    HW237209   3.957   4.550   8.767  0.5280 -0.1564 -0.9714
 8525SOL     OW37210   1.585   1.503  11.177 -0.1600 -0.2310 -0.3530
 8525SOL    HW137211   1.591   1.440  11.250  0.0567  2.1454  1.6695
 8525SOL    HW237212   1.492   1.508  11.157 -0.1715  0.4219 -0.1183
 8526SOL     OW37213   3.028   1.326   7.356  0.5447  0.0058  0.3492
 8526SOL    HW137214   3.067   1.287   7.434  1.0103 -1.5320 -0.6392
 8526SOL    HW237215   2.945   1.279   7.353  0.2957  0.4007  1.1590
 8527SOL     OW37216   3.769   4.665   7.014  0.0103  0.0388 -0.2781
 8527SOL    HW137217   3.782   4.660   7.109 -1.6176 -0.2416 -0.0630
 8527SOL    HW237218   3.856   4.696   6.991 -0.3059  0.6700 -0.6415
 8528SOL     OW37219   0.832   0.658   3.858 -0.0464  0.3599  0.6203
 8528SOL    HW137220   0.923   0.675   3.883  0.1717  0.1977 -0.0609
 8528SOL    HW237221   0.779   0.694   3.929  2.3023  1.3226  1.8827
 8529SOL     OW37222   0.078   2.106   2.809 -0.0891 -0.5226  0.3909
 8529SOL    HW137223   0.149   2.139   2.753  0.4825 -0.4458  1.1712
 8529SOL    HW237224   0.049   2.192   2.839 -0.7136 -0.8446  0.7062
 8530SOL     OW37225   1.308   1.662   5.953  0.1554 -0.4703  0.0845
 8530SOL    HW137226   1.357   1.580   5.951 -1.6858 -1.5899  0.1326
 8530SOL    HW237227   1.354   1.722   6.011  0.2632 -1.9953  1.5738
 8531SOL     OW37228   1.871   1.463   8.707  0.6546  0.2876  0.4747
 8531SOL    HW137229   1.918   1.429   8.631  0.6925  0.7068  0.3140
 8531SOL    HW237230   1.863   1.557   8.693  0.5130  0.6118  2.7680
 8532SOL     OW37231   1.910   4.444   4.696  0.7719  0.0382 -0.0416
 8532SOL    HW137232   1.864   4.381   4.641  2.3589 -0.9753 -0.2089
 8532SOL    HW237233   1.994   4.455   4.650  0.3596  1.7461 -0.3992
 8533SOL     OW37234   2.706   4.114  15.742  0.1486 -0.0842  0.0795
 8533SOL    HW137235   2.620   4.153  15.722 -0.0464 -0.5296  0.0444
 8533SOL    HW237236   2.753   4.184  15.787  0.7857  0.0867 -0.8511
 8534SOL     OW37237   2.389   2.014  12.675 -0.1371 -0.3867 -0.1227
 8534SOL    HW137238   2.484   2.030  12.677 -0.0638 -0.6234 -1.5810
 8534SOL    HW237239   2.366   2.054  12.759 -1.6119  0.0632 -0.7473
 8535SOL     OW37240   1.658   2.824  10.453  0.1816 -0.3236  0.3341
 8535SOL    HW137241   1.635   2.863  10.369 -0.5077 -1.0861  0.1650
 8535SOL    HW237242   1.715   2.748  10.439 -1.5648 -1.2884 -1.4745
 8536SOL     OW37243   2.610   0.265   0.807 -0.1784  0.3767  0.4213
 8536SOL    HW137244   2.685   0.207   0.811 -0.1405  0.4518  0.8651
 8536SOL    HW237245   2.601   0.263   0.712 -0.4260  1.9416  0.4010
 8537SOL     OW37246   2.599   1.174   2.733  0.9906  0.1307 -0.2586
 8537SOL    HW137247   2.632   1.092   2.697  1.1448  0.2239 -0.3314
 8537SOL    HW237248   2.681   1.223   2.729  1.9718 -1.4775  0.0555
 8538SOL     OW37249   3.663   3.787  14.784  0.0009 -0.0602 -0.0048
 8538SOL    HW137250   3.687   3.694  14.789  1.0815  0.1867 -0.5753
 8538SOL    HW237251   3.582   3.778  14.733 -0.2595 -0.9753  0.5655
 8539SOL     OW37252   1.829   0.151   3.912 -0.1288  0.2274  0.5990
 8539SOL    HW137253   1.799   0.213   3.978  0.0656  1.7212 -0.7226
 8539SOL    HW237254   1.788   0.070   3.943  0.0509 -0.1759 -0.2030
 8540SOL     OW37255   1.476   4.204   7.373 -0.0822 -0.3464  0.5981
 8540SOL    HW137256   1.418   4.269   7.334  1.1247  0.3178 -0.1208
 8540SOL    HW237257   1.458   4.135   7.310 -0.1126  1.8752 -1.8325
 8541SOL     OW37258   1.456   4.584   1.973 -0.6360  0.1039 -0.0784
 8541SOL    HW137259   1.476   4.661   1.920  0.1865  0.9938  1.5349
 8541SOL    HW237260   1.360   4.588   1.968 -0.6917 -0.9193  0.1287
 8542SOL     OW37261   3.747   3.633   8.081 -0.1057 -0.3437 -0.2519
 8542SOL    HW137262   3.784   3.716   8.113  0.2528 -0.5325 -0.1767
 8542SOL    HW237263   3.827   3.592   8.048  0.0464  0.4946 -0.9346
 8543SOL     OW37264   3.615   0.597   2.853 -0.4168  0.2162 -0.2045
 8543SOL    HW137265   3.528   0.559   2.865  0.7546 -1.9519  1.6242
 8543SOL    HW237266   3.664   0.535   2.799  2.1119  1.7397  0.3537
 8544SOL     OW37267   2.650   0.294   1.550  0.8976  0.0242 -0.6297
 8544SOL    HW137268   2.584   0.243   1.503  1.0851 -0.1878 -0.6613
 8544SOL    HW237269   2.667   0.364   1.486 -1.6444  0.7468 -0.5146
 8545SOL     OW37270   0.832   0.617   2.975  0.2992  0.0200 -0.0490
 8545SOL    HW137271   0.840   0.643   3.067  2.0336  0.8163 -0.4238
 8545SOL    HW237272   0.737   0.618   2.968  0.3825  3.0414 -0.7745
 8546SOL     OW37273   1.623   0.095   3.561  0.7880 -0.3184 -0.7392
 8546SOL    HW137274   1.553   0.147   3.522  1.8092  1.1349 -0.6259
 8546SOL    HW237275   1.666   0.149   3.627 -0.4657 -0.3853  0.1314
 8547SOL     OW37276   1.818   1.293   4.241  0.1870  0.2248 -1.0110
 8547SOL    HW137277   1.906   1.328   4.227  0.4892 -1.0575 -2.4130
 8547SOL    HW237278   1.784   1.371   4.285 -2.2376 -0.5453 -1.5079
 8548SOL     OW37279   3.779   1.913   1.843 -0.4672  0.3591 -0.2896
 8548SOL    HW137280   3.774   1.831   1.795  0.9432 -0.0207  0.2306
 8548SOL    HW237281   3.758   1.882   1.932  2.1630 -0.1032  0.1671
 8549SOL     OW37282   3.104   3.991   7.747 -0.3812  0.2294 -0.3473
 8549SOL    HW137283   3.194   3.973   7.775 -1.1527 -2.7941  0.1623
 8549SOL    HW237284   3.076   3.909   7.705  4.6818 -1.1174 -1.1451
 8550SOL     OW37285   3.580   3.832   8.494 -0.0777  0.0029 -0.0761
 8550SOL    HW137286   3.608   3.770   8.561 -0.2525  0.0183  0.0099
 8550SOL    HW237287   3.527   3.885   8.553 -0.9450  0.8888 -1.6611
 8551SOL     OW37288   3.865   3.799   2.583 -0.2732  0.8732  0.3477
 8551SOL    HW137289   3.909   3.770   2.663  0.8927 -0.6670 -0.8474
 8551SOL    HW237290   3.931   3.846   2.531 -2.1540  0.4148 -2.4415
 8552SOL     OW37291   0.197   3.903   8.918 -0.0848  0.3523  0.3213
 8552SOL    HW137292   0.291   3.907   8.938  0.2789  2.4915 -1.7732
 8552SOL    HW237293   0.155   3.962   8.981  0.3842  1.1959 -0.1570
 8553SOL     OW37294   0.718   3.710   4.865  0.6837 -0.4515  0.1007
 8553SOL    HW137295   0.799   3.750   4.897  1.1695 -1.8340  0.6053
 8553SOL    HW237296   0.661   3.704   4.942 -0.8442 -0.9761 -1.0677
 8554SOL     OW37297   2.146   4.611   5.540 -0.0975 -0.1505 -0.5785
 8554SOL    HW137298   2.124   4.519   5.553  1.4515 -0.5879 -1.0480
 8554SOL    HW237299   2.187   4.600   5.455 -0.0162 -0.5108 -0.4908
 8555SOL     OW37300   0.860   2.277   7.035  0.5061  0.8754  0.2373
 8555SOL    HW137301   0.817   2.359   7.010 -1.6585  0.0545  1.3382
 8555SOL    HW237302   0.897   2.252   6.950 -0.2932 -0.6251  0.3378
 8556SOL     OW37303   0.432   4.073   8.675  0.3525 -0.0688 -0.1582
 8556SOL    HW137304   0.404   4.064   8.584  0.2755  0.6284 -0.2037
 8556SOL    HW237305   0.391   3.992   8.706  1.1301  0.0756  1.2560
 8557SOL     OW37306   0.916   4.706   7.054 -0.2299 -0.3340 -0.6394
 8557SOL    HW137307   0.889   0.056   7.041  0.1290 -0.0417  0.7035
 8557SOL    HW237308   0.918   4.709   7.149 -0.8462  0.7619 -0.6614
 8558SOL     OW37309   3.167   3.986   0.260  1.0482  0.2351  0.2126
 8558SOL    HW137310   3.203   3.914   0.313  1.7205  0.3741 -0.0540
 8558SOL    HW237311   3.211   4.060   0.302 -0.8230  0.5034  1.6836
 8559SOL     OW37312   4.407   1.383   1.646 -0.3082  0.1000 -0.0799
 8559SOL    HW137313   4.402   1.296   1.685  0.3181 -0.6503 -1.6740
 8559SOL    HW237314   4.316   1.394   1.619  0.1651 -0.2449 -1.8049
 8560SOL     OW37315   1.871   4.031   4.631 -0.1176 -0.1573 -0.1239
 8560SOL    HW137316   1.824   4.112   4.610 -0.1540  0.2702  1.6284
 8560SOL    HW237317   1.804   3.992   4.688  0.4843 -2.3462 -0.9290
 8561SOL     OW37318   3.058   4.723   7.290 -0.1617 -0.4674 -0.4666
 8561SOL    HW137319   2.986   4.728   7.228  0.7711  0.7671 -1.4649
 8561SOL    HW237320   3.119   0.047   7.253 -2.3907  1.0984 -1.3582
 8562SOL     OW37321   3.360   4.087   4.091 -0.2492  0.1199 -0.2192
 8562SOL    HW137322   3.382   4.179   4.076 -1.0283  0.5541  1.2838
 8562SOL    HW237323   3.440   4.049   4.056  0.0982  0.4670  0.1985
 8563SOL     OW37324   3.291   3.981   9.992 -0.5911 -0.0810 -0.4875
 8563SOL    HW137325   3.252   4.068   9.983 -2.4055 -0.7368  0.8807
 8563SOL    HW237326   3.342   3.969   9.912 -2.7134  0.6872 -1.9535
 8564SOL     OW37327   0.112   0.839   2.269 -0.9237 -0.0674 -0.4616
 8564SOL    HW137328   0.145   0.923   2.301 -2.0887 -0.5652  2.0290
 8564SOL    HW237329   0.132   0.841   2.175 -0.0134  0.8460 -0.2413
 8565SOL     OW37330   1.190   2.023   6.762 -0.1972 -0.4624 -1.1441
 8565SOL    HW137331   1.233   2.034   6.677 -3.3837  0.4287 -2.6516
 8565SOL    HW237332   1.219   2.096   6.816 -0.4039 -0.8551 -0.5028
 8566SOL     OW37333   2.295   0.299   1.601  0.0726  0.2065 -0.6542
 8566SOL    HW137334   2.289   0.248   1.520 -2.2713  2.9858 -2.2226
 8566SOL    HW237335   2.313   0.226   1.661 -1.0317  0.4581 -0.0249
 8567SOL     OW37336   0.372   1.231   1.521 -0.6900  0.0362 -0.2864
 8567SOL    HW137337   0.375   1.170   1.595  0.8219 -1.9549 -1.9958
 8567SOL    HW237338   0.420   1.180   1.456 -1.1224  0.6828 -1.1104
 8568SOL     OW37339   3.556   2.367   7.404  0.2735  0.5676  0.4869
 8568SOL    HW137340   3.599   2.341   7.322  1.0879 -0.2202  1.1564
 8568SOL    HW237341   3.580   2.286   7.448  2.0534  1.4850  1.2181
 8569SOL     OW37342   3.788   4.321  15.997 -0.4237  0.1791 -0.2979
 8569SOL    HW137343   3.766   4.298  15.907  1.1346 -0.7439 -0.4426
 8569SOL    HW237344   3.735   4.251  16.036 -0.0501  0.0511 -0.0259
 8570SOL     OW37345   2.894   1.482   6.780  0.5891 -0.4796  0.2643
 8570SOL    HW137346   2.970   1.505   6.833  1.5006 -0.2127 -1.1683
 8570SOL    HW237347   2.885   1.557   6.721 -1.9001 -0.1118  1.0935
 8571SOL     OW37348   2.385   1.245  16.275 -0.0267  0.3783 -0.0283
 8571SOL    HW137349   2.425   1.296  16.345 -1.9709  0.2818  1.1581
 8571SOL    HW237350   2.293   1.272  16.281 -0.2110 -0.5003  1.0665
 8572SOL     OW37351   1.386   4.313   2.070  0.2854  0.1270  0.0161
 8572SOL    HW137352   1.310   4.329   2.014  1.4743 -0.6259 -1.8320
 8572SOL    HW237353   1.421   4.402   2.081 -0.2138 -0.1095  3.5661
 8573SOL     OW37354   3.733   0.596   6.083 -0.2231 -0.0900 -0.1919
 8573SOL    HW137355   3.718   0.610   6.177 -0.1620 -0.9064 -0.0608
 8573SOL    HW237356   3.701   0.509   6.059 -1.1456  0.2539 -0.1938
 8574SOL     OW37357   0.547   3.453   7.844  0.5060  0.7002  0.2671
 8574SOL    HW137358   0.554   3.442   7.939  1.5594  1.3160  0.2524
 8574SOL    HW237359   0.555   3.361   7.816 -0.6267  0.5109  0.5624
 8575SOL     OW37360   1.794   1.084   8.101  0.1701  0.0788 -0.6718
 8575SOL    HW137361   1.862   1.139   8.062 -2.2243  3.3343 -0.2687
 8575SOL    HW237362   1.722   1.148   8.105  1.0495  0.9561  0.7370
 8576SOL     OW37363   0.049   3.490   9.306  0.4787  0.7465  0.1335
 8576SOL    HW137364   4.702   3.453   9.304  1.1811 -0.8800 -0.2339
 8576SOL    HW237365   0.056   3.552   9.233  1.1243 -0.2084 -0.6017
 8577SOL     OW37366   2.096   1.650  16.244 -0.4130 -0.3580 -0.0472
 8577SOL    HW137367   2.126   1.659  16.153 -1.8675  2.1805 -0.2893
 8577SOL    HW237368   2.001   1.658  16.238 -0.3192  0.0268 -1.0381
 8578SOL     OW37369   3.435   0.912  17.634 -0.1237  0.2415  0.7942
 8578SOL    HW137370   3.445   0.959  17.717 -1.2874 -0.6469  1.4295
 8578SOL    HW237371   3.410   0.829  17.673 -2.1744  0.8816  0.8491
 8579SOL     OW37372   0.101   3.185   5.696  0.4094  0.5774  0.1865
 8579SOL    HW137373   0.128   3.275   5.717  1.6626 -0.5051  3.2051
 8579SOL    HW237374   0.067   3.147   5.777  0.8036 -2.1455 -0.9309
 8580SOL     OW37375   4.722   2.645   6.404 -0.2228 -0.3559  0.0330
 8580SOL    HW137376   0.018   2.688   6.327  1.4759 -2.6803 -0.4599
 8580SOL    HW237377   4.650   2.703   6.429  0.2207 -1.0662  2.8945
 8581SOL     OW37378   1.067   4.394   7.819 -0.3737  0.7254  0.3555
 8581SOL    HW137379   1.003   4.427   7.757  1.1778  0.8812 -1.1616
 8581SOL    HW237380   1.147   4.439   7.791  0.8537 -1.1492  0.8057
 8582SOL     OW37381   2.445   3.455   7.547  0.0206  0.5392  0.1207
 8582SOL    HW137382   2.371   3.439   7.489 -0.8770  0.6284  1.2334
 8582SOL    HW237383   2.517   3.438   7.486  0.8906 -0.2224  1.3445
 8583SOL     OW37384   2.409   0.500   1.751  0.9676  0.8156  0.3305
 8583SOL    HW137385   2.383   0.432   1.689 -1.2755  0.9028  1.1567
 8583SOL    HW237386   2.385   0.583   1.709 -1.1585  0.4216  0.7340
 8584SOL     OW37387   3.488   0.360   4.559  0.5716 -0.4965  0.1180
 8584SOL    HW137388   3.499   0.420   4.633 -0.2800 -1.4090  0.9965
 8584SOL    HW237389   3.404   0.320   4.585  0.0910  0.4769  0.0758
 8585SOL     OW37390   2.583   3.934   4.661  0.2062  0.3738  0.5867
 8585SOL    HW137391   2.530   3.867   4.616  2.5417 -2.0372  1.3898
 8585SOL    HW237392   2.563   4.015   4.614  0.3070  0.1438  0.1422
 8586SOL     OW37393   4.721   1.886   1.312 -0.1935  0.0953 -0.2354
 8586SOL    HW137394   4.740   1.834   1.234  3.0347 -2.5668  2.3496
 8586SOL    HW237395   0.046   1.946   1.278  0.9552 -0.9765  0.0941
 8587SOL     OW37396   1.459   0.857   6.668 -0.5067  0.0440  0.3076
 8587SOL    HW137397   1.505   0.779   6.697 -0.6666 -0.3939 -0.6147
 8587SOL    HW237398   1.397   0.822   6.604 -2.1518 -0.8436  2.4195
 8588SOL     OW37399   1.373   4.054  11.186  0.0140  0.0581 -0.3894
 8588SOL    HW137400   1.422   4.025  11.263 -1.5981 -0.6441  0.3660
 8588SOL    HW237401   1.351   4.142  11.217  1.9122 -0.1941  1.6583
 8589SOL     OW37402   0.215   2.956   6.504 -0.2413 -0.6169  0.6018
 8589SOL    HW137403   0.163   2.877   6.518 -2.8703  0.8793 -0.5880
 8589SOL    HW237404   0.174   3.014   6.568  1.0433  1.5967 -0.5491
 8590SOL     OW37405   4.443   3.176  11.423 -0.1609 -0.1315 -0.0386
 8590SOL    HW137406   4.522   3.227  11.406 -1.0612  0.4858 -2.3710
 8590SOL    HW237407   4.468   3.134  11.505 -0.4563 -2.2705 -1.0520
 8591SOL     OW37408   3.553   1.977   8.634  0.4106 -0.3841  0.3816
 8591SOL    HW137409   3.585   1.913   8.571 -0.0391 -0.6649  0.4355
 8591SOL    HW237410   3.512   2.040   8.575  0.9104  2.2615  2.8234
 8592SOL     OW37411   4.078   2.624   3.058  0.4502  0.1623  0.4036
 8592SOL    HW137412   4.107   2.547   3.009 -3.2049  0.1745 -1.7262
 8592SOL    HW237413   4.066   2.692   2.992 -0.6642  0.4129  0.8649
 8593SOL     OW37414   0.902   0.944   2.697  0.3322  0.0837  0.4799
 8593SOL    HW137415   0.912   0.990   2.781  2.1070  2.2527 -0.9397
 8593SOL    HW237416   0.816   0.979   2.675  0.5801  0.4829  0.1585
 8594SOL     OW37417   3.311   2.470   7.451  0.1698 -0.3867  0.4314
 8594SOL    HW137418   3.270   2.394   7.409  2.2026 -1.6650  0.8069
 8594SOL    HW237419   3.401   2.443   7.436  0.8583  0.9944  2.1201
 8595SOL     OW37420   3.804   1.916   2.835  0.5718  0.3479  0.4586
 8595SOL    HW137421   3.826   1.824   2.843 -0.9374  0.0580  1.1246
 8595SOL    HW237422   3.779   1.908   2.743 -0.5722 -1.8920  0.9698
 8596SOL     OW37423   4.516   1.820  15.261  0.1638 -0.4137 -0.1924
 8596SOL    HW137424   4.566   1.899  15.284  1.6215 -1.2957 -0.3908
 8596SOL    HW237425   4.558   1.748  15.308  2.6910 -0.3385 -2.4106
 8597SOL     OW37426   1.353   1.718   1.147  0.1695 -0.1095 -0.2077
 8597SOL    HW137427   1.387   1.645   1.096  2.2245  0.2222  0.6650
 8597SOL    HW237428   1.321   1.776   1.078  1.9787  0.5854 -0.4591
 8598SOL     OW37429   2.038   0.242   2.172  0.2260  0.4017  0.4455
 8598SOL    HW137430   1.950   0.239   2.136  0.3289 -1.0063  0.3113
 8598SOL    HW237431   2.085   0.172   2.126  0.6815 -0.2561  1.9104
 8599SOL     OW37432   4.061   2.413   0.694 -0.0332 -1.3009 -0.2130
 8599SOL    HW137433   4.063   2.396   0.788 -1.7994  0.1846  0.0825
 8599SOL    HW237434   3.986   2.361   0.666  0.5220 -1.3280 -1.6293
 8600SOL     OW37435   3.940   0.761   2.827 -0.5250  0.6771  0.4884
 8600SOL    HW137436   3.898   0.677   2.841  1.6711 -0.5542 -0.3454
 8600SOL    HW237437   4.031   0.732   2.823 -0.1177  1.9435  0.5776
 8601SOL     OW37438   1.849   3.434   1.182  0.7514 -0.8676 -0.0725
 8601SOL    HW137439   1.860   3.471   1.269 -1.2594 -2.9425  1.0553
 8601SOL    HW237440   1.934   3.442   1.139  0.2026 -0.4652 -1.0946
 8602SOL     OW37441   4.712   0.486  13.472 -0.6995 -0.2353  0.1708
 8602SOL    HW137442   4.628   0.469  13.428  0.5115  2.2034 -3.1357
 8602SOL    HW237443   4.682   0.529  13.552  1.0874 -0.9438  1.2329
 8603SOL     OW37444   4.002   0.786  15.136  0.0191  0.3388 -0.7795
 8603SOL    HW137445   4.082   0.758  15.091 -0.7855 -0.4303 -1.7340
 8603SOL    HW237446   3.991   0.872  15.096  3.6564  0.6754 -1.0789
 8604SOL     OW37447   2.095   0.039   6.371  0.4240  0.0301  0.2669
 8604SOL    HW137448   2.005   0.071   6.373  0.1632 -0.7237  0.6247
 8604SOL    HW237449   2.140   0.116   6.336 -0.5648  0.4530 -0.0810
 8605SOL     OW37450   0.820   2.834  11.246 -0.4966 -0.5714 -0.0115
 8605SOL    HW137451   0.778   2.752  11.271  0.2018 -0.1205  2.6853
 8605SOL    HW237452   0.914   2.815  11.256 -0.1218  0.8615 -0.8577
 8606SOL     OW37453   2.653   0.389  15.636 -0.3109 -0.2133 -0.5162
 8606SOL    HW137454   2.740   0.351  15.624 -0.1783  0.0672 -0.4441
 8606SOL    HW237455   2.662   0.484  15.637  1.3688 -0.3676 -1.8854
 8607SOL     OW37456   2.163   1.931  12.569  0.2469  0.3598  0.1766
 8607SOL    HW137457   2.244   1.967  12.604  1.2631 -1.8272  0.0270
 8607SOL    HW237458   2.105   1.986  12.623  0.0530 -0.6888  1.0360
 8608SOL     OW37459   0.052   3.799   2.419  0.1353 -0.2199 -0.1913
 8608SOL    HW137460   0.136   3.818   2.461  0.2467 -1.5841  0.1887
 8608SOL    HW237461   0.047   3.888   2.384  1.1850 -0.9539 -2.1599
 8609SOL     OW37462   1.985   2.559   3.908 -0.6701  0.6851  0.6852
 8609SOL    HW137463   1.998   2.504   3.831  0.3832  1.2320  0.4752
 8609SOL    HW237464   2.054   2.512   3.954 -0.6280 -1.3534 -1.4181
 8610SOL     OW37465   2.239   4.555  10.509 -0.2836 -0.8140  0.1159
 8610SOL    HW137466   2.223   4.495  10.437  3.4049 -0.5612 -0.9195
 8610SOL    HW237467   2.148   4.572  10.533 -0.0128 -0.1809  0.7086
 8611SOL     OW37468   0.096   3.439   5.848 -0.0044 -0.3069  0.3958
 8611SOL    HW137469   0.107   3.522   5.803  1.3441 -0.0755  1.1380
 8611SOL    HW237470   0.144   3.447   5.931 -1.7354  1.1325  1.2504
 8612SOL     OW37471   2.437   2.672   7.779  0.1651  0.1435 -0.3150
 8612SOL    HW137472   2.358   2.708   7.818  0.3816  0.5971 -0.2873
 8612SOL    HW237473   2.466   2.612   7.848  1.6015  1.6025  0.3653
 8613SOL     OW37474   2.173   1.586   3.849 -0.0801 -0.1018  0.2930
 8613SOL    HW137475   2.225   1.523   3.799  0.3951  0.3114  0.2733
 8613SOL    HW237476   2.190   1.665   3.799  1.5207 -0.8807 -0.4062
 8614SOL     OW37477   3.489   2.754  13.525  0.5165 -0.0660 -0.4452
 8614SOL    HW137478   3.455   2.712  13.446  1.8591 -1.7795 -0.0919
 8614SOL    HW237479   3.531   2.683  13.573 -0.3471 -0.1428  0.2100
 8615SOL     OW37480   2.424   1.723  13.395  0.4674  0.3626  0.2537
 8615SOL    HW137481   2.436   1.664  13.321 -0.6633  1.6616 -0.9631
 8615SOL    HW237482   2.516   1.736  13.416  0.6324 -0.8820  0.3160
 8616SOL     OW37483   3.572   2.525  10.871 -0.1380 -0.5583 -0.0450
 8616SOL    HW137484   3.591   2.472  10.794  0.2089  0.9469 -1.0100
 8616SOL    HW237485   3.650   2.580  10.881  0.3620 -0.6359 -3.5353
 8617SOL     OW37486   4.104   3.406   0.955 -0.1259  0.1292 -0.1348
 8617SOL    HW137487   4.144   3.483   0.916 -1.2862  0.1132 -1.3446
 8617SOL    HW237488   4.017   3.431   0.984 -0.0842  3.0805 -2.5574
 8618SOL     OW37489   2.978   4.210   6.129  0.2263  0.1390 -0.2469
 8618SOL    HW137490   2.960   4.133   6.076 -0.0329  0.8921 -1.2645
 8618SOL    HW237491   3.059   4.184   6.174  0.6480 -0.3521 -1.2891
 8619SOL     OW37492   2.673   2.194  15.638 -0.1198 -0.5076 -0.4270
 8619SOL    HW137493   2.763   2.209  15.666 -0.1227 -1.6915  0.2433
 8619SOL    HW237494   2.659   2.276  15.591  1.0190  0.1791  0.4153
 8620SOL     OW37495   0.751   2.911   4.455  0.1279  0.1869  0.3601
 8620SOL    HW137496   0.796   2.993   4.437 -0.5269  0.8580  1.8397
 8620SOL    HW237497   0.765   2.871   4.369  1.6423  0.4645  0.4718
 8621SOL     OW37498   1.142   3.441   7.392 -0.0466 -0.3060  0.1782
 8621SOL    HW137499   1.160   3.351   7.365  0.0834  0.5898 -2.6965
 8621SOL    HW237500   1.125   3.447   7.486  1.1837 -1.0501  0.4519
 8622SOL     OW37501   4.008   4.151   6.241  0.2947  0.8852 -0.6075
 8622SOL    HW137502   3.949   4.156   6.317  0.3407 -1.2220 -0.4506
 8622SOL    HW237503   3.998   4.237   6.201 -0.1752  0.6391 -1.0129
 8623SOL     OW37504   4.640   1.895   3.766 -0.2798  0.9933  0.0360
 8623SOL    HW137505   4.550   1.862   3.772 -0.5480  1.7894  0.4244
 8623SOL    HW237506   4.681   1.813   3.793 -0.2504  1.5920  1.8085
 8624SOL     OW37507   1.791   1.454   9.055 -0.3678  0.2077  0.2497
 8624SOL    HW137508   1.828   1.538   9.082  2.1279 -0.5791 -0.7299
 8624SOL    HW237509   1.764   1.419   9.140 -3.4346  2.7334  0.3088
 8625SOL     OW37510   0.991   3.492  17.391  0.6320 -0.1033  0.1194
 8625SOL    HW137511   0.999   3.504  17.296  0.0119  2.0306  0.3195
 8625SOL    HW237512   0.897   3.511  17.392  0.8258  0.8958 -0.2891
 8626SOL     OW37513   0.416   4.325   3.430  0.0059 -0.5430 -0.7295
 8626SOL    HW137514   0.441   4.414   3.408 -0.8575 -0.3555 -0.9428
 8626SOL    HW237515   0.469   4.283   3.362  0.7314 -0.6536 -0.1008
 8627SOL     OW37516   2.766   3.022   5.010 -0.0525 -0.4559 -0.3368
 8627SOL    HW137517   2.751   2.936   5.049 -1.7252  0.8154  1.7752
 8627SOL    HW237518   2.849   3.045   5.051  0.0601  0.2331 -0.9666
 8628SOL     OW37519   3.125   0.610  17.546 -0.0585 -0.0074 -0.0152
 8628SOL    HW137520   3.070   0.614  17.468 -0.5687 -4.0910  0.1641
 8628SOL    HW237521   3.184   0.681  17.520 -0.5456  1.3287  2.5802
 8629SOL     OW37522   0.346   4.708   4.751 -0.5452 -0.0831 -0.0874
 8629SOL    HW137523   0.382   0.055   4.759 -2.6506  0.5154  2.9632
 8629SOL    HW237524   0.343   4.703   4.655 -0.6580  0.7520 -0.1279
 8630SOL     OW37525   4.458   4.384  15.415  0.1321 -0.0868  0.1237
 8630SOL    HW137526   4.547   4.407  15.389 -0.6877  1.1584 -1.5883
 8630SOL    HW237527   4.461   4.295  15.448  1.0479 -0.5153 -1.0993
 8631SOL     OW37528   2.547   0.529   5.434  0.3109 -0.3699 -0.0981
 8631SOL    HW137529   2.538   0.601   5.372  0.9603 -0.3106 -0.1231
 8631SOL    HW237530   2.638   0.547   5.457  0.9264  0.1682 -3.0044
 8632SOL     OW37531   4.072   2.171   1.257 -0.3869 -0.3725 -0.0954
 8632SOL    HW137532   4.021   2.204   1.331 -2.0784 -2.2512 -0.4354
 8632SOL    HW237533   4.008   2.113   1.217 -0.3216  0.7985 -1.9027
 8633SOL     OW37534   0.750   1.943   4.439  0.5063 -0.5445  0.2507
 8633SOL    HW137535   0.747   1.922   4.345  1.0911  1.5133 -0.2236
 8633SOL    HW237536   0.658   1.940   4.464  0.6122  3.2497  1.0801
 8634SOL     OW37537   3.418   3.867   6.573 -0.1467 -0.4531 -0.5679
 8634SOL    HW137538   3.415   3.832   6.662  0.9801 -0.0263 -0.3670
 8634SOL    HW237539   3.497   3.824   6.541  1.3153  0.4236  1.8194
 8635SOL     OW37540   2.526   0.703  11.811  0.1763 -0.7972 -0.1867
 8635SOL    HW137541   2.536   0.622  11.760  0.0140  0.6720 -2.5847
 8635SOL    HW237542   2.438   0.683  11.844 -0.5378  0.2614 -1.4379
 8636SOL     OW37543   2.662   1.373   8.779 -0.6907  0.5750  0.3954
 8636SOL    HW137544   2.658   1.428   8.858  3.0594 -0.2996  1.1742
 8636SOL    HW237545   2.735   1.410   8.730 -0.2856 -0.6551  0.0734
 8637SOL     OW37546   2.648   0.026  15.963  0.3872 -0.4411 -0.3213
 8637SOL    HW137547   2.702   0.102  15.942  0.6828 -0.5752 -0.0431
 8637SOL    HW237548   2.639   4.736  15.873 -2.1679  0.7966 -0.5025
 8638SOL     OW37549   0.738   0.609   1.934 -0.0005 -0.4798 -0.4329
 8638SOL    HW137550   0.727   0.703   1.950  1.3195 -0.6708  1.6279
 8638SOL    HW237551   0.780   0.601   1.848  2.0345 -0.6724  0.5605
 8639SOL     OW37552   1.707   3.222   1.072  0.8533  0.9362  0.3724
 8639SOL    HW137553   1.740   3.307   1.102  1.6805  0.0585  1.9333
 8639SOL    HW237554   1.768   3.184   1.009  0.5507 -0.8194  1.1178
 8640SOL     OW37555   3.611   2.863   3.435  0.6474  0.2827  0.0409
 8640SOL    HW137556   3.649   2.778   3.460  3.3743  0.7161 -2.5300
 8640SOL    HW237557   3.521   2.843   3.458  0.6906 -0.2179 -0.2259
 8641SOL     OW37558   4.224   2.978   1.471  0.0083  0.1444  0.5159
 8641SOL    HW137559   4.190   3.021   1.549 -1.1694 -0.5530  0.4025
 8641SOL    HW237560   4.304   2.951   1.516  0.7895  0.3449 -0.7442
 8642SOL     OW37561   0.910   1.589   2.868  0.7315 -0.1839 -0.0685
 8642SOL    HW137562   0.962   1.669   2.871 -0.0646  0.3524 -0.5718
 8642SOL    HW237563   0.919   1.572   2.775 -0.9472  0.4966 -0.3572
 8643SOL     OW37564   0.231   4.005   3.604 -0.0505 -0.2596  0.7617
 8643SOL    HW137565   0.300   4.046   3.655 -0.1169 -0.2684  0.8582
 8643SOL    HW237566   0.285   3.962   3.537 -1.6255  0.2578 -0.8434
 8644SOL     OW37567   3.714   3.562   5.522 -0.2088 -0.0579  0.1532
 8644SOL    HW137568   3.713   3.542   5.428  2.8682  0.8176 -0.0598
 8644SOL    HW237569   3.794   3.613   5.533 -0.0798 -0.2616  0.1591
 8645SOL     OW37570   3.416   1.442   6.979 -0.3758  0.1654  0.0951
 8645SOL    HW137571   3.450   1.457   6.891 -1.0416  2.2741  0.2092
 8645SOL    HW237572   3.364   1.364   6.957  0.3071  0.5587 -3.0095
 8646SOL     OW37573   4.445   1.418  15.672  0.3555 -0.0428 -0.8902
 8646SOL    HW137574   4.487   1.404  15.588 -1.1814  0.6753 -1.7870
 8646SOL    HW237575   4.505   1.389  15.741  0.8939  0.6209 -1.0781
 8647SOL     OW37576   2.207   2.514   5.096  0.5649 -0.5415 -0.1664
 8647SOL    HW137577   2.210   2.431   5.050 -0.9084 -1.0134  0.5623
 8647SOL    HW237578   2.234   2.493   5.185 -0.3988  0.5848  0.4044
 8648SOL     OW37579   2.472   4.210   5.156  0.3934 -0.4294  0.2756
 8648SOL    HW137580   2.492   4.244   5.243 -0.0841 -0.3014  0.3350
 8648SOL    HW237581   2.405   4.269   5.122 -0.7115 -2.3808 -0.9901
 8649SOL     OW37582   1.317   1.203   5.004  0.1829  0.7726  0.1642
 8649SOL    HW137583   1.412   1.201   5.005  0.1336 -1.3723  1.2071
 8649SOL    HW237584   1.294   1.157   5.085 -1.5341  1.8348  0.2856
 8650SOL     OW37585   2.316   1.063   1.791  0.1515 -0.1010 -0.2443
 8650SOL    HW137586   2.407   1.059   1.818 -0.7989  1.4037  3.1112
 8650SOL    HW237587   2.278   1.145   1.822  0.4121  0.9952 -2.7957
 8651SOL     OW37588   2.265   4.612   1.366 -0.0925 -0.0084 -0.2678
 8651SOL    HW137589   2.172   4.635   1.356  0.0714  0.8551  0.2779
 8651SOL    HW237590   2.275   4.610   1.461 -2.3008  3.2718  0.0348
 8652SOL     OW37591   1.115   1.131  16.651  0.1635 -0.4863  0.5967
 8652SOL    HW137592   1.159   1.161  16.731 -0.9602  2.2183  0.2269
 8652SOL    HW237593   1.058   1.068  16.694 -1.3767  0.5569  0.0869
 8653SOL     OW37594   1.821   2.980   9.634  0.2202 -0.1047  1.2268
 8653SOL    HW137595   1.747   3.041   9.625 -0.2707 -0.5346  2.3173
 8653SOL    HW237596   1.783   2.916   9.573  1.3562 -1.0846  1.5596
 8654SOL     OW37597   1.189   4.523   3.920  0.2952  0.3315 -0.5193
 8654SOL    HW137598   1.223   4.607   3.889 -1.8540  2.0850  1.8725
 8654SOL    HW237599   1.095   4.534   3.906  0.6693  2.4247 -1.4225
 8655SOL     OW37600   4.640   1.583   9.690  0.0157  0.1335  0.1477
 8655SOL    HW137601   4.549   1.609   9.699  0.6336  1.4803  2.4564
 8655SOL    HW237602   4.681   1.612   9.771  1.6026 -0.5204 -0.4127
 8656SOL     OW37603   0.592   4.660   8.438  0.5246 -0.1021  0.3502
 8656SOL    HW137604   0.509   4.643   8.392  0.2449  1.2505  0.3397
 8656SOL    HW237605   0.650   4.625   8.370 -0.7608 -2.0229  0.2477
 8657SOL     OW37606   3.959   2.576  14.519 -0.1246 -0.0626  0.4714
 8657SOL    HW137607   4.021   2.593  14.448 -1.2260  0.4121 -0.3785
 8657SOL    HW237608   4.013   2.525  14.580  0.8795 -0.6135 -0.8759
 8658SOL     OW37609   3.114   2.926   2.606 -0.5011  0.0285 -0.7740
 8658SOL    HW137610   3.026   2.901   2.579 -1.4870  0.2708  2.1602
 8658SOL    HW237611   3.167   2.907   2.529  0.0353  3.4979 -1.2978
 8659SOL     OW37612   4.483   2.646  16.326 -0.0810 -0.1026 -0.2433
 8659SOL    HW137613   4.400   2.607  16.298  0.2158 -1.2529  0.4742
 8659SOL    HW237614   4.452   2.720  16.378 -1.6402 -0.3466 -0.8160
 8660SOL     OW37615   4.097   3.102  16.508  0.2003 -0.4678 -0.4927
 8660SOL    HW137616   4.093   3.189  16.467 -4.6445  0.2837  1.5650
 8660SOL    HW237617   4.167   3.124  16.569 -0.8965 -0.3139  0.7216
 8661SOL     OW37618   3.499   2.054  11.198  0.6607 -0.1383  0.2320
 8661SOL    HW137619   3.558   2.127  11.214  0.5204  0.2029 -0.8300
 8661SOL    HW237620   3.491   2.074  11.105  0.3840  1.2005  0.5437
 8662SOL     OW37621   0.014   4.015   2.153  0.1648  0.2778  0.4230
 8662SOL    HW137622   4.660   4.008   2.163  0.1765 -0.7703 -0.1452
 8662SOL    HW237623   0.038   3.943   2.094  0.9368 -0.4498  1.6221
 8663SOL     OW37624   3.739   1.000  14.065 -0.3701  0.5467 -0.1453
 8663SOL    HW137625   3.667   1.062  14.056  0.1158  1.0194 -0.8161
 8663SOL    HW237626   3.819   1.047  14.040 -0.7992  1.2157 -0.2465
 8664SOL     OW37627   4.043   4.646  12.263 -0.2562 -0.1675 -0.0734
 8664SOL    HW137628   4.021   4.682  12.177  1.6271 -1.0788 -0.9466
 8664SOL    HW237629   4.117   4.590  12.238 -0.0044 -1.1315  2.7764
 8665SOL     OW37630   0.099   3.086   4.940  0.0298 -0.0421  0.0155
 8665SOL    HW137631   0.145   3.003   4.945 -1.9847 -1.2154 -0.8656
 8665SOL    HW237632   0.143   3.139   4.873  1.1168  0.1064  0.8420
 8666SOL     OW37633   2.079   2.553  10.224  0.2665 -0.0375 -0.2262
 8666SOL    HW137634   2.167   2.574  10.255  0.5442  1.5586 -2.1061
 8666SOL    HW237635   2.096   2.459  10.214 -0.4021 -0.1013 -0.7663
 8667SOL     OW37636   3.717   0.933   4.117 -0.2211 -0.3082  0.2943
 8667SOL    HW137637   3.689   0.929   4.209  1.2543  0.9625  0.7927
 8667SOL    HW237638   3.733   0.843   4.091  1.2433  0.4679 -1.4552
 8668SOL     OW37639   2.873   3.217   2.434 -0.7721  0.6709  0.1877
 8668SOL    HW137640   2.807   3.203   2.366 -1.3853 -1.7304  1.2984
 8668SOL    HW237641   2.928   3.142   2.416 -2.2671  0.0777 -1.8643
 8669SOL     OW37642   3.542   0.106   7.159  0.0624  0.1157 -0.4498
 8669SOL    HW137643   3.632   0.116   7.128  0.9180 -1.5052  1.4891
 8669SOL    HW237644   3.504   0.102   7.072  1.0618  2.4624 -0.9982
 8670SOL     OW37645   0.343   0.022  17.154  0.2430  0.6852  0.5803
 8670SOL    HW137646   0.291   0.020  17.235 -1.5578  0.1252 -0.6004
 8670SOL    HW237647   0.416   0.080  17.176  1.1612 -0.5373  0.7568
 8671SOL     OW37648   1.329   1.550  15.009 -0.2751  0.2073 -0.0324
 8671SOL    HW137649   1.344   1.563  14.915 -0.4479  2.2541  0.2221
 8671SOL    HW237650   1.394   1.486  15.035  0.8079  1.8877  1.4168
 8672SOL     OW37651   0.509   0.357   7.045  0.0589 -0.1212  0.1176
 8672SOL    HW137652   0.462   0.333   7.125 -1.4540 -1.0334 -1.0579
 8672SOL    HW237653   0.547   0.276   7.012 -0.9576 -0.4097 -0.3526
 8673SOL     OW37654   2.968   4.706   3.258 -0.2653 -0.2380 -0.0624
 8673SOL    HW137655   3.035   4.639   3.271  0.1661 -0.0825 -1.5263
 8673SOL    HW237656   3.015   0.042   3.227  2.2683 -1.3800  0.9478
 8674SOL     OW37657   2.254   4.524   7.261  0.1919 -0.4565 -0.0258
 8674SOL    HW137658   2.343   4.512   7.229  0.2418  0.1840 -0.1213
 8674SOL    HW237659   2.212   4.478   7.188 -1.0619 -0.2450  0.5602
 8675SOL     OW37660   1.035   4.148  12.589 -0.2253  0.7014  0.4220
 8675SOL    HW137661   1.095   4.113  12.523 -0.2291 -3.2210  2.4838
 8675SOL    HW237662   0.979   4.194  12.527 -1.3216  1.3706  1.9008
 8676SOL     OW37663   0.904   2.994   8.874 -0.7003  0.1054  1.1076
 8676SOL    HW137664   0.825   2.941   8.874 -0.4546 -0.2718 -1.5977
 8676SOL    HW237665   0.949   2.942   8.807 -2.7991 -0.4722  0.1553
 8677SOL     OW37666   1.364   0.178   4.543  0.7913 -0.5687 -0.3643
 8677SOL    HW137667   1.327   0.094   4.571  1.4284 -0.4882  0.7086
 8677SOL    HW237668   1.401   0.208   4.625  0.4757 -1.3983  0.0815
 8678SOL     OW37669   3.090   3.617  11.096  0.1141 -0.0750 -0.5374
 8678SOL    HW137670   3.021   3.678  11.068  1.6854  2.9327  2.1135
 8678SOL    HW237671   3.101   3.645  11.187 -1.6575  0.2851 -0.4346
 8679SOL     OW37672   1.771   1.836   7.573  0.1622  0.4881  0.1263
 8679SOL    HW137673   1.676   1.830   7.564  0.6054 -0.3646 -4.3934
 8679SOL    HW237674   1.781   1.903   7.640 -2.2063  1.2305 -0.2673
 8680SOL     OW37675   2.832   1.041   4.652  0.0185  0.1725 -0.6339
 8680SOL    HW137676   2.855   1.132   4.670 -1.4791  0.0978  1.6978
 8680SOL    HW237677   2.803   1.016   4.740 -0.5239 -2.9881 -1.7313
 8681SOL     OW37678   1.004   4.107   4.690 -0.1469 -0.9700  0.2827
 8681SOL    HW137679   1.096   4.083   4.678  0.1023 -0.3000  0.8565
 8681SOL    HW237680   0.968   4.027   4.652 -0.4650 -1.9315  2.6292
 8682SOL     OW37681   4.505   1.609   1.761  0.1777 -0.3534  0.0223
 8682SOL    HW137682   4.475   1.674   1.697 -0.8122 -3.0525 -2.2850
 8682SOL    HW237683   4.477   1.530   1.715 -1.7268  0.6883 -0.6395
 8683SOL     OW37684   2.078   0.190   3.750 -0.0151  0.1404 -0.3859
 8683SOL    HW137685   2.122   0.233   3.824  0.4600  0.2519 -0.7275
 8683SOL    HW237686   1.996   0.166   3.792  1.5309 -0.9456  2.0083
 8684SOL     OW37687   1.068   1.375  16.514 -0.1794  0.1107  0.0730
 8684SOL    HW137688   1.074   1.292  16.560  3.0114  0.1824 -0.2496
 8684SOL    HW237689   1.111   1.363  16.429  0.2835 -1.2886  0.5177
 8685SOL     OW37690   1.450   2.360   4.440 -0.3663 -0.1658  0.1399
 8685SOL    HW137691   1.513   2.421   4.401 -1.6120 -0.6495 -2.5949
 8685SOL    HW237692   1.376   2.420   4.449  1.0887  1.3037  2.3105
 8686SOL     OW37693   4.679   0.716   7.324  0.2782  0.5864 -0.5128
 8686SOL    HW137694   0.013   0.685   7.374 -1.1764  0.5584  1.6630
 8686SOL    HW237695   4.608   0.726   7.388 -0.3748 -0.3452 -1.0929
 8687SOL     OW37696   1.073   1.303   4.916  0.3568  0.0553  0.7013
 8687SOL    HW137697   1.051   1.359   4.990  2.6781 -0.2948  1.6666
 8687SOL    HW237698   1.164   1.279   4.933  0.3274 -2.0897 -2.1337
 8688SOL     OW37699   4.077   1.421   4.052 -0.0626 -0.1558  0.3934
 8688SOL    HW137700   4.130   1.495   4.024 -2.3674 -0.0898 -3.7090
 8688SOL    HW237701   4.060   1.374   3.970  1.4796  0.0132 -0.0256
 8689SOL     OW37702   2.592   0.829   8.119 -0.7513 -0.0031  0.1341
 8689SOL    HW137703   2.683   0.854   8.129 -1.2002  0.8802  2.0392
 8689SOL    HW237704   2.553   0.868   8.198 -1.4188 -1.1108  0.3624
 8690SOL     OW37705   2.079   0.134   0.842 -0.3381  0.1217  0.4281
 8690SOL    HW137706   2.095   0.228   0.838 -1.8532  0.3604 -0.0024
 8690SOL    HW237707   1.983   0.137   0.848 -0.3775 -1.4214  0.6589
 8691SOL     OW37708   4.540   3.652   1.927 -0.2480  1.0542  0.0141
 8691SOL    HW137709   4.498   3.640   1.842 -0.6830  1.2344  0.2032
 8691SOL    HW237710   4.601   3.578   1.931 -0.8746  0.5578  0.4657
 8692SOL     OW37711   3.299   2.931   3.836 -0.4006  0.1410  0.9105
 8692SOL    HW137712   3.235   3.002   3.845 -1.5587 -0.8144  0.2627
 8692SOL    HW237713   3.374   2.985   3.811  2.0766 -2.9651  1.7189
 8693SOL     OW37714   3.381   4.023  12.086  0.0729  0.9865 -0.3316
 8693SOL    HW137715   3.401   4.019  11.992 -0.5054 -3.5452 -0.2785
 8693SOL    HW237716   3.469   4.031  12.123  0.9751 -3.5125 -1.5303
 8694SOL     OW37717   0.223   0.625   6.180  0.0386 -0.2237 -0.3306
 8694SOL    HW137718   0.260   0.709   6.153 -0.3729 -0.4796 -1.7208
 8694SOL    HW237719   0.143   0.655   6.224 -0.5739 -0.3609 -1.3423
 8695SOL     OW37720   0.665   2.986   3.120 -0.1262  0.0211 -0.5284
 8695SOL    HW137721   0.697   3.067   3.080 -0.6986 -0.5436 -2.1447
 8695SOL    HW237722   0.742   2.929   3.120  2.0615  3.0083 -2.1508
 8696SOL     OW37723   4.013   4.313   3.536 -0.2925  0.5002  0.3107
 8696SOL    HW137724   3.925   4.286   3.562 -0.2035 -1.3157 -1.2693
 8696SOL    HW237725   4.044   4.228   3.504 -0.9902  0.2743  0.2329
 8697SOL     OW37726   4.451   0.254   7.805 -0.2421  0.0741  0.2600
 8697SOL    HW137727   4.514   0.325   7.789 -0.8609 -0.2564 -3.5623
 8697SOL    HW237728   4.407   0.238   7.722 -1.7151  0.6110  0.9432
 8698SOL     OW37729   0.141   0.931   5.428  0.4207  0.4360  0.8159
 8698SOL    HW137730   0.194   1.007   5.403  2.3731 -1.1993 -0.0321
 8698SOL    HW237731   0.193   0.856   5.399  0.3259  0.2172  1.2207
 8699SOL     OW37732   0.634   0.109  12.420 -0.4484  0.0264  0.9192
 8699SOL    HW137733   0.622   0.076  12.331  0.7734  3.5611 -0.5437
 8699SOL    HW237734   0.645   0.022  12.458 -0.2001  0.1624  1.1570
 8700SOL     OW37735   3.099   0.913   4.054  0.2627 -0.2028  0.1159
 8700SOL    HW137736   3.154   0.952   4.122  0.9175 -1.8454  0.5292
 8700SOL    HW237737   3.171   0.889   3.996 -0.1245 -2.3360  0.5255
 8701SOL     OW37738   2.913   2.865   8.639 -0.5275 -0.0933  0.6584
 8701SOL    HW137739   2.857   2.875   8.715 -0.8453 -0.3462  0.4549
 8701SOL    HW237740   2.947   2.954   8.626 -1.1246 -0.1287 -1.1475
 8702SOL     OW37741   0.294   2.092   9.191  0.2710  0.5007 -0.1325
 8702SOL    HW137742   0.238   2.160   9.155 -0.0430  0.4841  0.3291
 8702SOL    HW237743   0.321   2.120   9.278 -0.0515  1.4866 -0.3486
 8703SOL     OW37744   1.069   1.571   7.186  0.4745  0.1667  0.4742
 8703SOL    HW137745   1.064   1.663   7.162 -2.0874 -0.0105  0.2302
 8703SOL    HW237746   1.047   1.558   7.279 -0.9396  1.7592  0.3674
 8704SOL     OW37747   0.632   3.039   0.159  0.1025 -0.3171 -0.1812
 8704SOL    HW137748   0.595   3.048   0.246  1.7799 -0.4713  0.5487
 8704SOL    HW237749   0.705   2.981   0.181  0.0141  0.3422  1.8078
 8705SOL     OW37750   3.312   3.744   0.359 -0.6219 -0.4120 -0.6055
 8705SOL    HW137751   3.311   3.654   0.392  0.6110  0.1552  0.9726
 8705SOL    HW237752   3.383   3.737   0.295  0.6159  1.1919  0.5914
 8706SOL     OW37753   4.096   0.865   3.322  0.3679  0.2266  0.4105
 8706SOL    HW137754   4.059   0.863   3.411  2.4408  1.5201  1.2761
 8706SOL    HW237755   4.181   0.823   3.331  0.7579  1.4337  2.2706
 8707SOL     OW37756   3.045   1.592  10.362 -0.5615 -0.0576  0.1885
 8707SOL    HW137757   3.005   1.652  10.425 -2.7953 -2.7761  1.3690
 8707SOL    HW237758   2.981   1.522  10.353  1.1150 -1.5727  0.0366
 8708SOL     OW37759   0.253   4.183   5.651  0.3859  0.2304 -0.0957
 8708SOL    HW137760   0.255   4.111   5.714 -1.0751  1.2143  1.1069
 8708SOL    HW237761   0.168   4.220   5.675  0.8282  0.9740  0.3433
 8709SOL     OW37762   2.206   2.292   4.935 -0.4300 -0.5670 -0.5217
 8709SOL    HW137763   2.174   2.347   4.863 -0.0379 -1.3285 -1.2726
 8709SOL    HW237764   2.245   2.231   4.872 -1.1353 -1.1025 -0.4428
 8710SOL     OW37765   1.228   4.497   4.232  0.1498  0.1342 -0.5692
 8710SOL    HW137766   1.177   4.489   4.151 -0.5312 -0.9474 -0.0431
 8710SOL    HW237767   1.164   4.504   4.303  0.2213 -1.0940 -0.3769
 8711SOL     OW37768   2.821   0.394   6.407 -0.0651 -0.0091 -0.5473
 8711SOL    HW137769   2.844   0.311   6.447  1.0328  1.6481  2.2682
 8711SOL    HW237770   2.751   0.362   6.350  2.6715 -2.9505 -2.2761
 8712SOL     OW37771   3.225   3.526  14.498  0.1962 -0.6136 -0.1259
 8712SOL    HW137772   3.256   3.451  14.448 -1.1544 -0.4867 -1.1539
 8712SOL    HW237773   3.163   3.572  14.441 -0.0671 -2.5237 -1.3632
 8713SOL     OW37774   2.372   3.825  17.547 -0.4929  0.2346  0.3064
 8713SOL    HW137775   2.322   3.765  17.602 -1.2418  0.3203 -0.2846
 8713SOL    HW237776   2.327   3.813  17.464 -0.5619 -2.5794  0.7678
 8714SOL     OW37777   4.054   1.683   8.176 -0.8640 -0.4179 -0.3692
 8714SOL    HW137778   4.079   1.750   8.240 -1.0206  0.5167 -1.2780
 8714SOL    HW237779   3.991   1.726   8.118  1.4086  4.3085  0.6501
 8715SOL     OW37780   2.896   3.312   2.686  0.2582 -0.3984 -0.1977
 8715SOL    HW137781   2.889   3.408   2.689  0.2053 -0.3640 -1.5885
 8715SOL    HW237782   2.868   3.304   2.595  2.1182 -0.4725 -0.7461
 8716SOL     OW37783   0.145   3.240   9.026 -0.0306 -0.0947 -0.0895
 8716SOL    HW137784   0.072   3.248   8.964  1.6543  0.0561 -2.0326
 8716SOL    HW237785   0.158   3.145   9.032  0.2761  0.0350  1.1270
 8717SOL     OW37786   4.290   2.393  16.517 -0.2199  0.1234 -0.0719
 8717SOL    HW137787   4.280   2.470  16.462 -1.4022  0.3107  0.4117
 8717SOL    HW237788   4.198   2.368  16.526 -0.6260  1.4656 -0.4955
 8718SOL     OW37789   1.185   4.174   6.730  0.3704 -0.1430  0.0085
 8718SOL    HW137790   1.277   4.188   6.754  0.9499 -0.1053 -2.3012
 8718SOL    HW237791   1.147   4.235   6.793 -2.3783 -2.4074  0.5400
 8719SOL     OW37792   0.520   0.093   2.394  0.0895 -0.1973 -0.1504
 8719SOL    HW137793   0.516   0.177   2.439 -0.3153 -0.5542  0.4814
 8719SOL    HW237794   0.589   0.052   2.446  0.0051 -0.9022 -0.5907
 8720SOL     OW37795   0.567   3.514   6.650  0.2444 -0.3361  0.0365
 8720SOL    HW137796   0.484   3.558   6.670  1.1761  0.8140  1.3522
 8720SOL    HW237797   0.537   3.462   6.576 -0.3785  0.0159  0.0365
 8721SOL     OW37798   2.624   3.784   5.626 -0.0237 -1.0251  0.8303
 8721SOL    HW137799   2.590   3.766   5.714 -0.9207  1.7506  1.0763
 8721SOL    HW237800   2.581   3.867   5.604  0.8623 -1.5966 -2.9709
 8722SOL     OW37801   2.350   2.769   0.103 -0.1983  0.0019  0.2125
 8722SOL    HW137802   2.266   2.730   0.127  0.1131 -0.3454  0.7423
 8722SOL    HW237803   2.324   2.850   0.058 -1.4629  0.7064  2.2310
 8723SOL     OW37804   1.728   3.280  13.260 -0.6498 -0.0373  0.2187
 8723SOL    HW137805   1.814   3.296  13.222 -1.2821 -0.4500 -1.4058
 8723SOL    HW237806   1.751   3.300  13.350 -0.7965  1.9093 -0.1677
 8724SOL     OW37807   3.356   2.475   3.016  0.0573 -0.6394  0.5824
 8724SOL    HW137808   3.265   2.469   3.044 -0.3065 -0.8986 -0.6278
 8724SOL    HW237809   3.401   2.453   3.098 -0.4462 -0.0124  1.0261
 8725SOL     OW37810   0.790   1.703  11.116 -0.3782 -0.2700 -0.7149
 8725SOL    HW137811   0.723   1.638  11.135  0.8036 -1.0092  0.7871
 8725SOL    HW237812   0.844   1.690  11.193 -0.6646  2.0243 -0.1273
 8726SOL     OW37813   2.064   2.250   5.593 -1.1167 -0.0851 -0.2379
 8726SOL    HW137814   2.002   2.235   5.522  0.7002  1.2799 -2.0938
 8726SOL    HW237815   2.086   2.163   5.628 -0.8815  0.6563  1.4647
 8727SOL     OW37816   1.863   1.510   5.592 -0.3877  0.1408 -0.1530
 8727SOL    HW137817   1.921   1.494   5.517 -0.1412 -2.6673  0.6469
 8727SOL    HW237818   1.848   1.604   5.593 -0.7668  0.0744  0.0556
 8728SOL     OW37819   4.457   1.043   7.425 -0.1526 -0.0050 -0.0648
 8728SOL    HW137820   4.510   1.075   7.498  0.3915 -0.1961 -0.3729
 8728SOL    HW237821   4.416   0.965   7.463 -2.8411  0.6005 -1.7598
 8729SOL     OW37822   2.112   2.400   4.720  0.0002  0.0719 -0.1714
 8729SOL    HW137823   2.106   2.373   4.628 -1.0571 -0.5192  0.0697
 8729SOL    HW237824   2.032   2.452   4.722  0.0446  0.1931 -1.5992
 8730SOL     OW37825   3.458   0.911   5.276  0.0733  0.0576  0.0415
 8730SOL    HW137826   3.406   0.979   5.234  0.3693  0.9235  1.0698
 8730SOL    HW237827   3.540   0.956   5.297 -1.6406  2.7636  1.0001
 8731SOL     OW37828   0.263   3.167   6.336  0.5694  0.1957  0.0925
 8731SOL    HW137829   0.281   3.136   6.248 -0.0960  0.8798 -0.2801
 8731SOL    HW237830   0.236   3.085   6.379 -1.5560  0.4556 -0.7345
 8732SOL     OW37831   1.634   2.119   8.598 -0.0876 -0.2727  0.0048
 8732SOL    HW137832   1.621   2.039   8.548  0.2543  0.7927 -1.7969
 8732SOL    HW237833   1.729   2.129   8.590  0.0173 -0.3610  1.1241
 8733SOL     OW37834   3.396   1.066  13.761  0.0462  0.1555  0.5994
 8733SOL    HW137835   3.457   1.056  13.688 -0.3283  1.1200  0.1525
 8733SOL    HW237836   3.316   1.036  13.717  0.2024 -0.2529  0.5977
 8734SOL     OW37837   3.466   2.764   2.624  0.0434 -0.1422  0.3237
 8734SOL    HW137838   3.411   2.753   2.702 -0.2877  1.7316  0.3570
 8734SOL    HW237839   3.454   2.686   2.569 -0.1154 -0.0395  0.2149
 8735SOL     OW37840   2.650   1.317  11.276 -0.2164 -0.1145  0.1019
 8735SOL    HW137841   2.648   1.265  11.357  1.0400 -0.3552 -0.0207
 8735SOL    HW237842   2.640   1.406  11.309  1.3668 -0.7004  2.1696
 8736SOL     OW37843   4.128   3.402   3.852 -0.8171  0.6515 -0.4672
 8736SOL    HW137844   4.189   3.469   3.822 -0.2364  0.0152 -0.7145
 8736SOL    HW237845   4.172   3.322   3.822 -3.4779  0.1488 -3.0330
 8737SOL     OW37846   1.286   2.957   6.951  0.3874  0.6310 -0.3845
 8737SOL    HW137847   1.322   3.021   7.012 -2.6989  1.2572  0.7421
 8737SOL    HW237848   1.301   3.005   6.870  1.6721  0.2917 -0.3462
 8738SOL     OW37849   1.739   2.693  16.770 -0.2005 -0.2314 -0.0260
 8738SOL    HW137850   1.756   2.759  16.703 -3.3332  1.2858  0.6327
 8738SOL    HW237851   1.657   2.730  16.804 -0.2380 -1.4673  1.2296
 8739SOL     OW37852   4.723   2.819   5.331 -0.6444  0.2699 -0.2226
 8739SOL    HW137853   0.051   2.857   5.277 -1.7738  2.1517 -0.3300
 8739SOL    HW237854   4.673   2.758   5.277  0.4709 -0.9571  0.1210
 8740SOL     OW37855   1.650   1.038  16.374 -0.5416 -0.6006  0.5763
 8740SOL    HW137856   1.627   1.013  16.285 -0.3765  4.0641 -0.8116
 8740SOL    HW237857   1.743   1.022  16.354 -0.6142  0.0116 -0.2404
 8741SOL     OW37858   1.510   4.139  15.811 -0.1748  0.1584 -0.0657
 8741SOL    HW137859   1.588   4.194  15.803 -0.8719  1.2065  0.3437
 8741SOL    HW237860   1.551   4.053  15.801 -1.0506 -0.3560  0.8348
 8742SOL     OW37861   1.744   3.918  10.925 -0.0155 -0.3119 -0.1219
 8742SOL    HW137862   1.707   3.996  10.967  0.8955  1.0169 -1.8063
 8742SOL    HW237863   1.838   3.932  10.943  0.0950  1.2505 -1.9194
 8743SOL     OW37864   0.352   0.161   6.560 -0.0960 -0.2563 -0.1948
 8743SOL    HW137865   0.358   0.075   6.519 -0.7080 -0.3691 -0.0494
 8743SOL    HW237866   0.308   0.207   6.488 -0.3545 -2.9894 -1.7571
 8744SOL     OW37867   2.694   0.579   5.693  0.2030  0.4396  0.3526
 8744SOL    HW137868   2.662   0.577   5.783 -0.7928  1.4671  0.0255
 8744SOL    HW237869   2.698   0.487   5.669 -0.3723  0.5912 -0.2972
 8745SOL     OW37870   1.604   2.721   9.185  0.9193  0.2769  0.8018
 8745SOL    HW137871   1.655   2.696   9.108 -0.3197  1.3441 -0.3521
 8745SOL    HW237872   1.532   2.658   9.181  0.5737  0.5020  3.2233
 8746SOL     OW37873   4.544   2.729   5.873  0.4133 -0.4447  0.1472
 8746SOL    HW137874   4.565   2.657   5.933 -0.0039 -1.5950 -1.0688
 8746SOL    HW237875   4.609   2.713   5.805 -0.4961 -0.0266 -0.8340
 8747SOL     OW37876   1.205   1.780  16.010 -0.6511  0.0979  0.7070
 8747SOL    HW137877   1.212   1.715  16.080  0.9520  0.5852  1.0079
 8747SOL    HW237878   1.110   1.788  16.012 -0.4952  2.3989 -0.5076
 8748SOL     OW37879   0.820   3.738  10.244 -0.1437 -0.2815  0.3965
 8748SOL    HW137880   0.870   3.694  10.313 -2.2534 -2.3159  0.6059
 8748SOL    HW237881   0.900   3.777  10.209 -0.0239 -0.4468  0.4875
 8749SOL     OW37882   1.609   3.635   8.617  0.0775  0.1995 -0.2656
 8749SOL    HW137883   1.688   3.613   8.667  0.2661  3.7100  0.9618
 8749SOL    HW237884   1.554   3.558   8.630  0.9761 -0.2462  0.9510
 8750SOL     OW37885   3.059   1.280   4.084  0.0588 -0.3856 -0.6303
 8750SOL    HW137886   3.069   1.214   4.152 -1.4820  0.4303  0.3910
 8750SOL    HW237887   3.057   1.360   4.137  0.7050  1.5929 -3.5820
 8751SOL     OW37888   2.662   0.347   1.832 -0.2754 -0.5983 -0.0583
 8751SOL    HW137889   2.695   0.289   1.764  0.7565  0.8695 -0.8222
 8751SOL    HW237890   2.603   0.408   1.788 -1.8196 -2.9247 -1.1539
 8752SOL     OW37891   1.640   3.770   9.664 -0.4720  0.7614  0.1398
 8752SOL    HW137892   1.715   3.829   9.653 -0.5809  0.1400 -4.0847
 8752SOL    HW237893   1.565   3.829   9.662 -2.3112 -1.5657  1.8657
 8753SOL     OW37894   2.359   1.153   3.829 -0.5333  0.2059 -0.2677
 8753SOL    HW137895   2.292   1.130   3.765 -3.0095 -1.4760  2.9057
 8753SOL    HW237896   2.399   1.069   3.850 -2.5408 -0.8475 -0.6088
 8754SOL     OW37897   0.802   3.415  11.319  0.7465 -0.1477  0.4354
 8754SOL    HW137898   0.717   3.436  11.356  1.4298  0.5713  1.5965
 8754SOL    HW237899   0.863   3.408  11.392  2.0827 -0.8178 -0.7439
 8755SOL     OW37900   1.418   0.542   7.246  0.1906  0.1209 -0.0178
 8755SOL    HW137901   1.505   0.581   7.242  0.4661 -0.4970 -0.1010
 8755SOL    HW237902   1.387   0.574   7.331 -1.1648  0.9392 -0.8068
 8756SOL     OW37903   1.417   0.881   5.599  0.7036 -0.4973 -0.1474
 8756SOL    HW137904   1.419   0.949   5.666  0.1237  1.8202 -2.4656
 8756SOL    HW237905   1.511   0.868   5.592  0.7324 -0.0781 -0.4661
 8757SOL     OW37906   4.222   3.629   7.552  0.1369 -0.7434  0.8672
 8757SOL    HW137907   4.214   3.544   7.509  0.9104 -0.8234  0.8986
 8757SOL    HW237908   4.278   3.667   7.484 -1.8226  0.2657 -0.2078
 8758SOL     OW37909   1.844   3.884   5.373 -0.1166 -0.2224 -0.0537
 8758SOL    HW137910   1.809   3.805   5.333  0.7921 -0.4198 -0.4614
 8758SOL    HW237911   1.779   3.951   5.351  0.6767  0.5843  0.0642
 8759SOL     OW37912   3.041   3.637  14.342 -0.2995  0.2287 -0.3267
 8759SOL    HW137913   3.066   3.702  14.277  0.0187 -0.7389 -1.1772
 8759SOL    HW237914   2.983   3.575  14.297 -1.1289 -0.1236  1.2036
 8760SOL     OW37915   1.026   0.363   3.918  0.1001  0.2364  0.5164
 8760SOL    HW137916   1.074   0.424   3.974 -1.1242  1.1091  0.6412
 8760SOL    HW237917   0.996   0.293   3.976  1.1942 -1.5033 -1.0429
 8761SOL     OW37918   1.355   2.854  15.797 -0.2302 -0.2760  0.0724
 8761SOL    HW137919   1.309   2.895  15.724 -0.7224 -1.1007 -0.0801
 8761SOL    HW237920   1.408   2.787  15.752 -0.5021 -0.6091  0.2518
 8762SOL     OW37921   1.086   3.388   3.025  0.4669 -0.1295 -0.0531
 8762SOL    HW137922   1.106   3.341   2.945  3.4092 -1.0168  1.2108
 8762SOL    HW237923   0.992   3.404   3.015  0.2794 -0.8456  0.5651
 8763SOL     OW37924   3.487   0.781  12.843 -0.0583  0.5782 -0.2189
 8763SOL    HW137925   3.524   0.730  12.914  0.1867  2.5177  1.0604
 8763SOL    HW237926   3.446   0.712  12.791  3.0247 -0.8885 -0.7018
 8764SOL     OW37927   0.449   0.858   5.047  0.1796  0.5185  0.2995
 8764SOL    HW137928   0.504   0.886   4.973 -0.0804 -0.7681 -0.3730
 8764SOL    HW237929   0.414   0.777   5.012  0.8986  0.4209 -0.2007
 8765SOL     OW37930   2.100   0.255   3.487  0.3848 -0.1961  0.0382
 8765SOL    HW137931   2.105   0.235   3.581  2.2668 -0.8758 -0.1966
 8765SOL    HW237932   2.172   0.199   3.458  2.1597  1.9873  0.2263
 8766SOL     OW37933   3.063   4.115   2.528  0.3754  0.1245  0.9610
 8766SOL    HW137934   3.134   4.149   2.473 -0.8829  1.7831  0.3398
 8766SOL    HW237935   3.003   4.189   2.517 -0.0710 -0.5466 -1.1344
 8767SOL     OW37936   3.428   4.447  16.301 -0.2651 -0.0458  0.3515
 8767SOL    HW137937   3.358   4.391  16.333  0.0040  0.9410  2.7096
 8767SOL    HW237938   3.401   4.467  16.211 -2.1029  0.7409  1.0882
 8768SOL     OW37939   1.567   1.378   6.961 -0.0637 -0.2681 -0.2243
 8768SOL    HW137940   1.526   1.316   6.901  1.7413 -1.4263 -0.2725
 8768SOL    HW237941   1.487   1.421   6.992  1.5453  0.4902  2.8493
 8769SOL     OW37942   0.851   1.415  12.180 -0.2599  0.6121  0.0992
 8769SOL    HW137943   0.855   1.319  12.186 -1.6766  0.5296 -0.1540
 8769SOL    HW237944   0.877   1.427  12.089  1.6114  0.1289  0.5749
 8770SOL     OW37945   3.029   2.170   2.972  0.1265 -0.8193 -0.0642
 8770SOL    HW137946   3.023   2.103   3.040  1.2512  0.8103  1.6473
 8770SOL    HW237947   3.087   2.129   2.908  1.1846 -1.3452  1.2171
 8771SOL     OW37948   3.224   1.453   3.090 -0.0889  0.1421  0.3803
 8771SOL    HW137949   3.261   1.460   3.178 -0.3669 -0.0020  0.5066
 8771SOL    HW237950   3.133   1.425   3.096 -0.2708  0.3255 -1.3687
 8772SOL     OW37951   4.554   2.972   2.435 -0.4500  0.0659  0.7874
 8772SOL    HW137952   4.632   3.024   2.452 -0.1276  0.2340 -1.1091
 8772SOL    HW237953   4.541   3.003   2.345 -3.7540 -2.4656  0.3755
 8773SOL     OW37954   2.542   1.907   4.749  0.4404  0.5689 -0.1194
 8773SOL    HW137955   2.507   1.973   4.689 -1.4242 -0.8709 -0.6275
 8773SOL    HW237956   2.470   1.908   4.812  0.9872 -0.3173  0.5095
 8774SOL     OW37957   2.925   0.752  16.582  0.1287 -0.3750 -0.2372
 8774SOL    HW137958   2.870   0.805  16.525  1.4456  0.5414 -0.6594
 8774SOL    HW237959   2.853   0.712  16.631  0.8619  0.8924  1.8840
 8775SOL     OW37960   4.128   0.550  10.617 -0.5607 -0.0467 -0.2023
 8775SOL    HW137961   4.211   0.599  10.620  0.0027 -1.2339  2.6524
 8775SOL    HW237962   4.110   0.550  10.711  0.3860 -0.3444 -0.0183
 8776SOL     OW37963   2.999   1.306   6.408 -0.3931  0.0610 -0.4916
 8776SOL    HW137964   3.047   1.286   6.328  1.5310 -0.0189  0.6979
 8776SOL    HW237965   3.029   1.396   6.416  0.1278 -0.1976  0.4190
 8777SOL     OW37966   2.278   3.163   8.279 -0.1462 -0.1674 -0.3623
 8777SOL    HW137967   2.316   3.129   8.360  0.1040  1.1682  0.0833
 8777SOL    HW237968   2.356   3.212   8.252 -0.5682  1.8751  2.1335
 8778SOL     OW37969   1.508   1.324   8.262  0.0124  0.7252 -0.3537
 8778SOL    HW137970   1.563   1.384   8.313  0.1665  0.0260  0.2990
 8778SOL    HW237971   1.505   1.253   8.326 -0.8429 -0.0917 -1.3062
 8779SOL     OW37972   1.233   2.912  14.783  0.0229 -0.6696  0.7282
 8779SOL    HW137973   1.225   2.984  14.846  0.5105 -1.3207  1.5265
 8779SOL    HW237974   1.268   2.954  14.704 -0.1127  1.5431  1.8462
 8780SOL     OW37975   3.823   1.684   8.985 -0.7033 -0.3631  0.0116
 8780SOL    HW137976   3.787   1.749   9.045  0.9351  0.3691  0.1998
 8780SOL    HW237977   3.755   1.693   8.918  0.7687  0.0071 -1.4366
 8781SOL     OW37978   2.082   4.007   5.433  0.2211 -0.6480  0.1528
 8781SOL    HW137979   2.109   3.998   5.341  2.3500  0.8838  0.6346
 8781SOL    HW237980   1.992   3.974   5.423  1.1132 -2.5723 -1.6656
 8782SOL     OW37981   2.854   1.541  11.192 -0.4234 -0.2697  0.1850
 8782SOL    HW137982   2.878   1.498  11.273 -0.5299 -1.2349 -0.2941
 8782SOL    HW237983   2.807   1.612  11.236 -1.5477 -1.7309  1.3204
 8783SOL     OW37984   0.032   2.815   2.220  0.0888 -0.1143  0.0612
 8783SOL    HW137985   0.112   2.764   2.227 -0.4330 -0.8082  0.8999
 8783SOL    HW237986   4.720   2.770   2.286  0.4190 -1.7517 -0.8114
 8784SOL     OW37987   2.089   4.303  14.433 -0.8380  0.4034 -0.6031
 8784SOL    HW137988   2.175   4.276  14.466 -0.5153 -0.2489 -1.9646
 8784SOL    HW237989   2.071   4.244  14.359 -0.9052  0.3382 -0.5343
 8785SOL     OW37990   2.515   1.087   2.975  0.0406 -0.5757  0.1843
 8785SOL    HW137991   2.521   1.139   2.895 -2.7684 -1.0477 -0.3021
 8785SOL    HW237992   2.429   1.047   2.969 -0.4962  0.7963 -1.2289
 8786SOL     OW37993   0.405   0.056  10.767 -0.5451  0.2785 -0.1199
 8786SOL    HW137994   0.374   0.045  10.857  0.2157 -0.3192  0.0781
 8786SOL    HW237995   0.468   0.127  10.780  0.6689 -1.2794  2.6530
 8787SOL     OW37996   2.685   2.511  12.600  0.3674  0.3174 -0.0262
 8787SOL    HW137997   2.710   2.579  12.662 -0.0603  1.1235 -0.7465
 8787SOL    HW237998   2.770   2.500  12.556 -0.0108 -1.0150 -0.4368
 8788SOL     OW37999   0.820   1.298  16.406  0.2800 -0.5793 -0.0059
 8788SOL    HW138000   0.746   1.275  16.463  0.1604  2.0994  0.9439
 8788SOL    HW238001   0.887   1.310  16.474  0.7445  1.8316 -0.9112
 8789SOL     OW38002   4.625   0.391   5.334 -0.1940  0.3056  0.2868
 8789SOL    HW138003   4.632   0.461   5.399 -2.5802  2.2289 -1.5183
 8789SOL    HW238004   4.637   0.317   5.393  0.4274  0.3302  0.1882
 8790SOL     OW38005   3.589   1.077   1.338 -0.1880 -0.4086  0.6252
 8790SOL    HW138006   3.552   1.162   1.314  0.2052 -0.2625  0.5305
 8790SOL    HW238007   3.509   1.026   1.326  0.2493 -1.2300  1.2062
 8791SOL     OW38008   4.412   3.003   6.787  0.0305 -0.3688 -0.1150
 8791SOL    HW138009   4.444   2.932   6.731 -0.7912 -1.1255  0.3751
 8791SOL    HW238010   4.421   2.969   6.876 -0.2280 -0.9817 -0.3186
 8792SOL     OW38011   3.727   1.290   1.713  0.6344  0.5336  0.7955
 8792SOL    HW138012   3.797   1.264   1.653 -1.6561 -0.7517 -1.3421
 8792SOL    HW238013   3.667   1.318   1.644  0.1563 -0.9577  0.5997
 8793SOL     OW38014   0.317   2.051   1.772 -0.3409 -0.4479  0.3078
 8793SOL    HW138015   0.253   2.010   1.713  1.4332  0.1508 -2.0048
 8793SOL    HW238016   0.257   2.104   1.825 -1.6797 -1.3540 -0.2987
 8794SOL     OW38017   4.260   1.109  10.307  0.1172  0.8559 -0.2248
 8794SOL    HW138018   4.343   1.060  10.309 -1.9097 -2.6131 -0.4870
 8794SOL    HW238019   4.266   1.152  10.221  2.2309 -2.0979 -1.5835
 8795SOL     OW38020   1.306   2.613   9.471  0.3951  0.2780 -0.3079
 8795SOL    HW138021   1.295   2.670   9.395  0.6354  0.8230  0.0680
 8795SOL    HW238022   1.351   2.541   9.426 -0.9075 -3.0200  3.5896
 8796SOL     OW38023   1.629   4.521   0.573  0.5255 -0.2649  0.5425
 8796SOL    HW138024   1.722   4.532   0.593  0.6292 -1.1987  0.5772
 8796SOL    HW238025   1.618   4.522   0.478 -0.3109  0.0073  0.6414
 8797SOL     OW38026   1.902   3.973  15.539 -0.3136 -0.6963  0.1724
 8797SOL    HW138027   1.850   3.893  15.530 -1.0750  0.0594 -2.2006
 8797SOL    HW238028   1.985   3.939  15.505  0.2453  1.1956 -0.3689
 8798SOL     OW38029   4.172   1.399   7.055 -0.1573  0.2059 -0.1442
 8798SOL    HW138030   4.097   1.458   7.063 -0.3887  0.1029 -1.4867
 8798SOL    HW238031   4.148   1.354   6.974  0.2547  0.5757 -0.4702
 8799SOL     OW38032   2.103   0.931   8.950 -0.2582  0.2315 -0.2613
 8799SOL    HW138033   2.014   0.930   8.987 -0.1739 -1.6846 -0.1110
 8799SOL    HW238034   2.116   1.023   8.930  0.5972 -0.3241 -2.3204
 8800SOL     OW38035   1.226   1.932  11.193  0.6490 -1.0997 -0.2811
 8800SOL    HW138036   1.209   2.008  11.249  0.2846 -2.4188  1.4030
 8800SOL    HW238037   1.135   1.913  11.173  0.4418  0.8514 -1.2724
 8801SOL     OW38038   2.688   2.589   5.829 -0.3277 -0.1117 -0.8010
 8801SOL    HW138039   2.621   2.540   5.782 -1.7819  0.1034  1.0443
 8801SOL    HW238040   2.703   2.654   5.761  2.3277 -1.3453 -1.3745
 8802SOL     OW38041   3.296   2.220   1.440 -0.1892  0.4685 -0.6251
 8802SOL    HW138042   3.322   2.178   1.358 -0.1188 -0.2247 -0.2575
 8802SOL    HW238043   3.205   2.231   1.413 -0.7202 -1.5833  0.2819
 8803SOL     OW38044   0.793   2.203   7.903  0.0801 -0.5797 -0.0609
 8803SOL    HW138045   0.777   2.295   7.924  0.3034 -0.4457 -0.4798
 8803SOL    HW238046   0.708   2.172   7.934  0.1730 -0.4087  0.3591
 8804SOL     OW38047   3.136   1.054   6.114 -0.0055 -0.4411  0.1184
 8804SOL    HW138048   3.200   0.986   6.093  1.6549  1.1956 -0.0732
 8804SOL    HW238049   3.187   1.135   6.114 -2.0387  0.8435  1.3692
 8805SOL     OW38050   0.514   3.135   0.411 -0.7849  0.1772  1.0732
 8805SOL    HW138051   0.571   3.139   0.487 -1.0979 -1.2679  1.3885
 8805SOL    HW238052   0.428   3.121   0.451 -1.4865 -0.6929 -0.7092
 8806SOL     OW38053   3.966   1.794  11.454 -0.3965  0.1350  0.2636
 8806SOL    HW138054   3.979   1.864  11.391 -0.3847 -0.9540 -0.9518
 8806SOL    HW238055   4.013   1.836  11.526  0.7704 -0.1380 -0.3418
 8807SOL     OW38056   0.862   4.164  16.166 -0.1996  0.3015  0.2540
 8807SOL    HW138057   0.947   4.128  16.191  0.7616  0.9288 -2.1522
 8807SOL    HW238058   0.871   4.250  16.207 -0.3841  1.1529 -1.5109
 8808SOL     OW38059   1.171   0.858   5.775  0.0686  0.7575  0.3261
 8808SOL    HW138060   1.221   0.855   5.694 -1.4084  0.7436 -0.5940
 8808SOL    HW238061   1.142   0.770   5.799  1.6866  0.7459  2.2303
 8809SOL     OW38062   1.294   3.215  14.407  0.3743  0.6837 -0.1864
 8809SOL    HW138063   1.258   3.301  14.429 -0.2387  1.0291 -2.5393
 8809SOL    HW238064   1.364   3.243  14.348 -0.2941  1.2181 -0.7171
 8810SOL     OW38065   4.620   1.961   1.698  0.2412 -0.1634 -0.0174
 8810SOL    HW138066   4.607   1.878   1.652  0.3455  0.1085 -0.5288
 8810SOL    HW238067   4.624   1.927   1.788  0.6995  3.3547  1.3111
 8811SOL     OW38068   2.187   2.440   4.072  0.6273 -0.7417  0.0671
 8811SOL    HW138069   2.173   2.364   4.128 -1.0676 -1.3992 -1.2241
 8811SOL    HW238070   2.263   2.474   4.119  1.3942  1.6837 -2.8952
 8812SOL     OW38071   3.660   4.231   5.111  0.3015 -0.2139 -0.1683
 8812SOL    HW138072   3.600   4.204   5.041  0.1837  2.1472 -0.9802
 8812SOL    HW238073   3.594   4.271   5.167  0.2889 -2.2791  1.2831
 8813SOL     OW38074   2.438   0.447   0.196  0.3694  0.4497 -0.3903
 8813SOL    HW138075   2.433   0.404   0.110  0.6636  0.2117 -0.2886
 8813SOL    HW238076   2.389   0.527   0.178 -0.1623  0.1405 -0.3178
 8814SOL     OW38077   2.476   2.479   5.690 -0.2544  0.6763  0.1923
 8814SOL    HW138078   2.449   2.565   5.658  1.8429  0.8578 -1.1235
 8814SOL    HW238079   2.402   2.439   5.645  0.2342 -0.8240  0.7282
 8815SOL     OW38080   3.673   2.137   5.734  0.1471 -0.8535  0.3693
 8815SOL    HW138081   3.728   2.095   5.800  0.8606  0.8862  0.8811
 8815SOL    HW238082   3.681   2.229   5.761  3.4307 -0.8378 -0.6493
 8816SOL     OW38083   2.816   0.686   3.644  0.2808 -0.3180 -0.2755
 8816SOL    HW138084   2.739   0.682   3.587 -0.4396  0.2282  0.6603
 8816SOL    HW238085   2.827   0.780   3.660  0.5200 -0.4398  0.2500
 8817SOL     OW38086   2.027   2.806   4.460 -0.1451  0.1972  0.0521
 8817SOL    HW138087   2.108   2.762   4.437 -0.6521 -0.7049 -0.0190
 8817SOL    HW238088   2.058   2.888   4.498 -0.3302  1.2765 -2.1051
 8818SOL     OW38089   1.003   4.025   2.687  0.3492  0.0046  0.0966
 8818SOL    HW138090   1.070   4.009   2.620  0.3136  0.8123 -0.1274
 8818SOL    HW238091   0.963   4.106   2.657  0.7668 -0.7159 -2.4288
 8819SOL     OW38092   0.317   2.315   6.122  0.3342 -0.5802 -0.1228
 8819SOL    HW138093   0.370   2.258   6.067  0.8149  0.2159 -0.4726
 8819SOL    HW238094   0.354   2.309   6.210  0.8955  0.2675 -0.3019
 8820SOL     OW38095   3.654   4.660   8.677 -0.2489  0.2770  0.1095
 8820SOL    HW138096   3.709   4.737   8.686 -1.2069  0.8676  0.8680
 8820SOL    HW238097   3.726   4.597   8.681  0.9955  1.7673  0.9563
 8821SOL     OW38098   0.958   3.494   7.824  0.3301  0.1153 -0.0598
 8821SOL    HW138099   0.888   3.495   7.759  0.2828  0.8605 -0.0015
 8821SOL    HW238100   1.023   3.437   7.784  0.8273  1.4187 -1.1078
 8822SOL     OW38101   1.915   4.001   0.318 -0.5569 -0.5058  0.1102
 8822SOL    HW138102   1.904   4.096   0.308  3.1464 -0.0852  0.3099
 8822SOL    HW238103   1.922   3.993   0.413 -0.2671 -0.4824  0.0901
 8823SOL     OW38104   3.951   3.302   1.606  0.3611  0.2399  0.2047
 8823SOL    HW138105   4.000   3.221   1.617 -0.6894 -0.3982  0.1090
 8823SOL    HW238106   3.919   3.281   1.518 -0.3166 -0.5810  0.6572
 8824SOL     OW38107   1.906   3.394  15.426  0.8560  0.4458  0.1151
 8824SOL    HW138108   1.858   3.424  15.349  1.1371 -0.0377 -0.2447
 8824SOL    HW238109   1.846   3.438  15.486 -0.9508 -1.3669 -0.3612
 8825SOL     OW38110   0.744   0.394   1.607 -0.2930 -0.5365  0.3840
 8825SOL    HW138111   0.768   0.371   1.697  1.6739 -0.6818 -0.1826
 8825SOL    HW238112   0.681   0.323   1.590 -1.0005 -0.0225  0.8616
 8826SOL     OW38113   3.509   4.405   2.242  0.3175  0.1554 -0.1863
 8826SOL    HW138114   3.605   4.411   2.246  0.3117  0.0474  0.1558
 8826SOL    HW238115   3.501   4.495   2.273 -0.9898 -0.7249  1.9694
 8827SOL     OW38116   2.417   3.041  10.675  0.0694 -0.0286 -0.0580
 8827SOL    HW138117   2.365   3.079  10.746 -0.0993  1.9313 -1.2312
 8827SOL    HW238118   2.400   2.947  10.683  3.8266 -0.6910  0.1664
 8828SOL     OW38119   3.658   0.845   3.025 -0.5881 -0.5736 -0.3943
 8828SOL    HW138120   3.716   0.800   3.086 -0.9847 -0.3534  0.1420
 8828SOL    HW238121   3.669   0.794   2.944 -1.0781 -0.7834 -0.3297
 8829SOL     OW38122   0.260   4.679   3.645 -0.4860 -0.1798  0.0527
 8829SOL    HW138123   0.209   4.636   3.576 -0.5279 -3.1358  1.9603
 8829SOL    HW238124   0.269   4.614   3.714  1.4573  0.8450  0.7489
 8830SOL     OW38125   1.463   4.372   1.343 -0.2623  0.2428  0.8169
 8830SOL    HW138126   1.548   4.342   1.312 -0.9402 -1.7711  0.9303
 8830SOL    HW238127   1.485   4.370   1.436  0.8132 -0.0712  0.5544
 8831SOL     OW38128   1.808   0.101   6.391  0.0630 -0.8928  0.0391
 8831SOL    HW138129   1.729   0.047   6.387 -0.7908  0.4181 -0.7643
 8831SOL    HW238130   1.792   0.143   6.306  1.4491 -2.3539 -0.9439
 8832SOL     OW38131   2.064   4.492  16.344  0.2514 -0.1002  0.2277
 8832SOL    HW138132   2.135   4.525  16.399  0.1898  0.2322  0.1113
 8832SOL    HW238133   2.004   4.566  16.334 -0.5900 -0.8958 -0.6875
 8833SOL     OW38134   1.494   2.455  11.024  0.1032 -0.3344 -0.0925
 8833SOL    HW138135   1.534   2.409  11.097  1.0250 -1.6877 -1.4453
 8833SOL    HW238136   1.571   2.481  10.974 -1.0043  2.1663 -0.5253
 8834SOL     OW38137   3.761   1.751   3.900 -0.5199 -0.1802 -0.1314
 8834SOL    HW138138   3.849   1.744   3.864 -1.0025  2.5670 -1.8574
 8834SOL    HW238139   3.715   1.754   3.817 -0.8478 -0.8778  0.0317
 8835SOL     OW38140   1.958   4.391   5.247  0.7219  0.6417  0.8022
 8835SOL    HW138141   1.875   4.420   5.209 -0.1680 -1.6199  0.9955
 8835SOL    HW238142   2.019   4.459   5.220 -0.4208  1.1895 -0.3676
 8836SOL     OW38143   1.618   4.688  14.639  0.0493  0.0147 -0.3629
 8836SOL    HW138144   1.664   0.016  14.590  0.8158  0.4625  1.0024
 8836SOL    HW238145   1.611   4.729  14.725  2.5694 -0.7714  0.2031
 8837SOL     OW38146   3.464   0.606   3.516 -0.2510 -0.4744  0.5486
 8837SOL    HW138147   3.454   0.684   3.462 -1.0312 -2.7724 -2.6527
 8837SOL    HW238148   3.491   0.537   3.455 -2.1324 -0.5479 -0.1795
 8838SOL     OW38149   2.932   0.905   8.740 -0.1825 -0.4478 -0.1561
 8838SOL    HW138150   2.965   0.993   8.722  0.7709 -1.1249 -1.7183
 8838SOL    HW238151   2.982   0.861   8.671 -1.2020 -1.6456 -0.1279
 8839SOL     OW38152   1.563   0.797   0.770 -0.1138  0.1570  0.0432
 8839SOL    HW138153   1.547   0.703   0.758 -3.3018  0.8390 -1.0337
 8839SOL    HW238154   1.585   0.797   0.863 -1.1678  0.9474  0.2878
 8840SOL     OW38155   2.296   0.486  15.193 -0.0142  0.4972 -0.0924
 8840SOL    HW138156   2.324   0.446  15.275 -0.2322 -0.6398 -0.5795
 8840SOL    HW238157   2.226   0.430  15.160 -0.5909 -0.7593  3.2578
 8841SOL     OW38158   4.237   2.986  16.268 -0.2056 -0.1321 -0.1059
 8841SOL    HW138159   4.188   3.027  16.339 -0.4665  0.2878 -0.5240
 8841SOL    HW238160   4.265   2.908  16.315 -0.0282  1.6616  2.7487
 8842SOL     OW38161   4.311   4.192   4.939  0.6803  0.1489  0.5442
 8842SOL    HW138162   4.219   4.209   4.958  0.2643 -0.4328 -0.9298
 8842SOL    HW238163   4.306   4.141   4.858  0.6765  0.2058  0.5091
 8843SOL     OW38164   0.545   0.245   8.992 -0.1432 -0.8306 -0.2019
 8843SOL    HW138165   0.518   0.224   9.081  2.5447 -0.0228  0.7983
 8843SOL    HW238166   0.564   0.157   8.962 -1.7344 -1.0874 -0.4424
 8844SOL     OW38167   1.646   3.179   7.310 -0.2463  0.1713 -0.6082
 8844SOL    HW138168   1.719   3.196   7.370 -0.7410  1.5671 -0.4143
 8844SOL    HW238169   1.644   3.262   7.263  1.2782 -0.5487 -1.9665
 8845SOL     OW38170   0.462   0.878  10.276  0.1545 -0.3360  0.7644
 8845SOL    HW138171   0.444   0.966  10.242  0.1500  0.0354  1.7010
 8845SOL    HW238172   0.555   0.881  10.251 -0.4654  1.8264 -1.2840
 8846SOL     OW38173   0.603   4.286   7.405  0.2001  0.3488  0.2334
 8846SOL    HW138174   0.518   4.330   7.404 -0.3888 -0.7940 -1.1490
 8846SOL    HW238175   0.661   4.362   7.406  0.0807  0.4524 -0.6406
 8847SOL     OW38176   0.324   3.153  11.381  0.1984 -0.3208  0.1046
 8847SOL    HW138177   0.398   3.093  11.372 -1.8483 -2.6318 -1.2846
 8847SOL    HW238178   0.352   3.235  11.340 -0.7054 -0.9109 -1.6860
 8848SOL     OW38179   4.440   3.544   1.682  0.0236  0.1981 -0.6948
 8848SOL    HW138180   4.384   3.557   1.606  1.3809  0.6649 -1.5973
 8848SOL    HW238181   4.524   3.518   1.646  0.3936  0.5135 -0.0571
 8849SOL     OW38182   1.656   4.152   5.194  0.5129  0.1813  0.0778
 8849SOL    HW138183   1.617   4.064   5.201  1.2976 -0.2141 -0.6209
 8849SOL    HW238184   1.649   4.189   5.282 -1.4414 -1.5235  0.6579
 8850SOL     OW38185   0.308   0.705   4.521 -0.0152  0.1084  0.3200
 8850SOL    HW138186   0.333   0.713   4.429 -1.3199 -0.4176 -0.0794
 8850SOL    HW238187   0.241   0.637   4.520  0.1228  0.0006 -0.7183
 8851SOL     OW38188   2.919   4.121   1.328 -0.4527 -0.7883  0.3059
 8851SOL    HW138189   2.860   4.128   1.254 -0.6004 -2.2806  0.2778
 8851SOL    HW238190   2.854   4.113   1.398 -2.7726 -0.3351 -1.7953
 8852SOL     OW38191   4.158   4.716  11.342  0.2069 -0.3909 -0.1056
 8852SOL    HW138192   4.221   4.645  11.358 -0.0238 -0.7544 -0.7645
 8852SOL    HW238193   4.117   4.723  11.428  1.2151  1.2792  0.2234
 8853SOL     OW38194   3.182   1.186   1.250  0.0527  0.2113 -0.6393
 8853SOL    HW138195   3.142   1.272   1.263  0.3990  0.3027 -0.1785
 8853SOL    HW238196   3.108   1.130   1.277 -0.0223  0.3334 -0.5915
 8854SOL     OW38197   0.539   4.006   2.014  0.1916  0.5811  0.5757
 8854SOL    HW138198   0.537   4.071   1.944  2.0837 -2.7632 -2.5814
 8854SOL    HW238199   0.450   4.015   2.047 -0.3050 -2.0901 -0.0150
 8855SOL     OW38200   2.190   4.347   3.963 -0.3436  0.3366  0.2224
 8855SOL    HW138201   2.169   4.268   4.013 -0.2001  0.0300 -0.2006
 8855SOL    HW238202   2.282   4.327   3.945 -0.7520 -1.3291 -0.0459
 8856SOL     OW38203   2.782   0.497   2.562  0.7509  0.1453 -0.0825
 8856SOL    HW138204   2.767   0.555   2.637  0.0679  0.7983 -0.7369
 8856SOL    HW238205   2.709   0.435   2.561  0.6925  0.2670 -3.0134
 8857SOL     OW38206   1.714   1.555   3.158 -0.2963 -0.3557  0.2857
 8857SOL    HW138207   1.783   1.525   3.099 -0.0940 -0.9475  0.8195
 8857SOL    HW238208   1.716   1.648   3.137 -1.4703 -0.4446 -0.2144
 8858SOL     OW38209   4.259   1.456   5.187 -0.6240  0.1538  0.1009
 8858SOL    HW138210   4.230   1.542   5.156  2.0477  0.7412 -0.7691
 8858SOL    HW238211   4.279   1.413   5.104  0.6846 -0.4920  0.7357
 8859SOL     OW38212   0.057   2.832  12.292 -0.5309  0.0498 -0.3461
 8859SOL    HW138213   0.047   2.749  12.338  2.6337 -1.0458 -1.5966
 8859SOL    HW238214   0.151   2.848  12.299 -0.2633 -1.2365 -0.9179
 8860SOL     OW38215   4.337   1.704   5.696 -0.1069 -0.2051 -0.3253
 8860SOL    HW138216   4.395   1.634   5.726 -1.0783 -2.2178 -3.1639
 8860SOL    HW238217   4.313   1.671   5.609 -1.4480 -0.8817  0.3007
 8861SOL     OW38218   2.446   1.133   9.580 -0.5152 -0.5299 -0.1560
 8861SOL    HW138219   2.386   1.122   9.653 -1.1326 -0.4250 -0.6474
 8861SOL    HW238220   2.432   1.060   9.519 -1.3898 -0.2308 -0.3143
 8862SOL     OW38221   2.545   1.899   6.262  0.7168 -0.0399 -0.1849
 8862SOL    HW138222   2.589   1.822   6.298 -0.4731  0.5771  2.5851
 8862SOL    HW238223   2.452   1.891   6.284  0.2464 -1.6797 -2.7706
 8863SOL     OW38224   0.656   0.054   5.227 -0.1294 -0.2484 -0.0168
 8863SOL    HW138225   0.637   0.013   5.143  0.7563  0.0967 -0.3857
 8863SOL    HW238226   0.581   0.038   5.284  0.3522 -0.2356  0.6176
 8864SOL     OW38227   2.267   0.749   9.120  0.4259  0.0760 -0.0685
 8864SOL    HW138228   2.203   0.702   9.173  0.8595 -0.8076 -0.3142
 8864SOL    HW238229   2.212   0.810   9.071 -2.5638 -2.5986 -0.0353
 8865SOL     OW38230   1.889   2.843   8.460 -0.2791 -0.4369 -0.1208
 8865SOL    HW138231   1.896   2.839   8.364  2.1068 -1.4855  0.1190
 8865SOL    HW238232   1.965   2.896   8.483 -1.0523  0.1565  1.0393
 8866SOL     OW38233   4.626   3.904   0.468 -0.0546  0.2494 -0.2744
 8866SOL    HW138234   4.553   3.853   0.504  0.3292  1.5577  2.3373
 8866SOL    HW238235   4.622   3.979   0.527  2.2949  0.9538 -1.0278
 8867SOL     OW38236   4.596   3.241  16.082  0.5820 -0.0959 -0.4476
 8867SOL    HW138237   4.530   3.177  16.055  0.5903  0.0710 -0.8706
 8867SOL    HW238238   4.543   3.318  16.100  0.7105  0.2035 -1.3304
 8868SOL     OW38239   3.382   2.429   6.512  0.3184 -0.5588 -0.2085
 8868SOL    HW138240   3.331   2.446   6.591  2.9819  2.1795  0.9203
 8868SOL    HW238241   3.354   2.342   6.486 -1.8922 -0.2900  1.2881
 8869SOL     OW38242   0.875   3.262   6.440  0.1380 -0.1816 -0.0225
 8869SOL    HW138243   0.836   3.245   6.354 -1.0388 -2.7997  1.0345
 8869SOL    HW238244   0.794   3.238   6.485  0.6394  0.1920  1.0672
 8870SOL     OW38245   3.253   4.003   4.624 -0.4674 -0.3490 -0.4795
 8870SOL    HW138246   3.349   3.996   4.624 -0.5031 -0.8168  1.4063
 8870SOL    HW238247   3.237   3.996   4.718  0.1750  2.3125 -0.1643
 8871SOL     OW38248   2.307   2.574   0.681  0.4603  0.2740  0.0180
 8871SOL    HW138249   2.268   2.608   0.600 -0.6544  0.3434  0.5951
 8871SOL    HW238250   2.385   2.630   0.678  0.3638  0.3278 -1.9483
 8872SOL     OW38251   2.664   2.084   9.585  0.2644  0.0058  0.3966
 8872SOL    HW138252   2.666   2.023   9.659  1.3195 -2.0688 -1.3578
 8872SOL    HW238253   2.723   2.044   9.521 -0.1857 -0.6246  0.3755
 8873SOL     OW38254   3.135   1.550   8.375 -0.2330 -0.3340  0.3830
 8873SOL    HW138255   3.169   1.632   8.409  0.3729 -0.2292 -0.4768
 8873SOL    HW238256   3.191   1.487   8.422  1.7417  0.7010 -0.6247
 8874SOL     OW38257   2.087   0.442   3.081  0.5996  0.0724  0.3846
 8874SOL    HW138258   2.004   0.454   3.035  0.6337  1.0001  0.5555
 8874SOL    HW238259   2.094   0.530   3.120 -0.7204  0.6094 -0.6047
 8875SOL     OW38260   1.930   2.873  16.067  0.1565  0.0794 -0.4575
 8875SOL    HW138261   1.913   2.967  16.078 -1.1534  0.1656 -3.2693
 8875SOL    HW238262   1.912   2.865  15.973 -1.1130 -0.1082 -0.2037
 8876SOL     OW38263   2.533   3.705  13.726 -0.5918  0.2264 -0.0032
 8876SOL    HW138264   2.582   3.786  13.743  0.9992 -0.8878  0.6369
 8876SOL    HW238265   2.452   3.747  13.698 -1.5312 -2.1828 -0.8638
 8877SOL     OW38266   4.077   4.002   2.493 -0.5233 -0.5948 -0.5572
 8877SOL    HW138267   4.035   4.060   2.429  0.7607  1.6936  0.7014
 8877SOL    HW238268   4.133   3.944   2.442  0.9459 -1.7495  2.3819
 8878SOL     OW38269   4.110   1.718   9.582  0.0289  0.2243  0.0349
 8878SOL    HW138270   4.136   1.775   9.654 -1.9339 -1.4774  2.0829
 8878SOL    HW238271   4.075   1.777   9.516  0.0573  0.1178 -0.0768
 8879SOL     OW38272   2.958   2.687   7.717  0.0495  0.0065  0.4001
 8879SOL    HW138273   3.028   2.671   7.780  2.6403  1.2415 -2.1693
 8879SOL    HW238274   2.919   2.601   7.699  0.8606 -0.4762  0.9846
 8880SOL     OW38275   0.165   2.989  10.719 -0.7523 -0.0944 -0.1665
 8880SOL    HW138276   0.168   3.079  10.684 -3.0119 -0.2855 -0.8551
 8880SOL    HW238277   0.244   2.996  10.773 -0.3734 -2.6606 -0.3964
 8881SOL     OW38278   4.582   3.465   6.073  0.0771  0.3710 -0.0577
 8881SOL    HW138279   4.642   3.401   6.111 -0.8393 -0.0762  0.6020
 8881SOL    HW238280   4.577   3.445   5.979 -0.0937 -1.3527  0.3241
 8882SOL     OW38281   2.272   0.012   5.747 -0.4512 -0.3032  0.3073
 8882SOL    HW138282   2.224   4.718   5.672  1.5257 -2.2675 -0.0308
 8882SOL    HW238283   2.242   0.103   5.747  0.2585 -0.0629  1.9694
 8883SOL     OW38284   2.135   3.748   6.923  0.1869  0.0908  0.0725
 8883SOL    HW138285   2.202   3.786   6.981  1.0958 -2.6470  0.8056
 8883SOL    HW238286   2.116   3.671   6.977 -1.5052  0.6427  0.2768
 8884SOL     OW38287   0.536   4.002   2.581  0.3736 -0.2666 -0.0149
 8884SOL    HW138288   0.465   4.048   2.626  0.9437 -0.1851  0.7985
 8884SOL    HW238289   0.610   4.005   2.642  0.3949 -1.4316  0.0080
 8885SOL     OW38290   1.374   0.976   6.009  0.0802 -0.4524  0.2849
 8885SOL    HW138291   1.435   0.981   6.083  0.2210 -0.2498  0.1546
 8885SOL    HW238292   1.291   0.964   6.057 -0.1897  1.6433  0.3370
 8886SOL     OW38293   3.987   4.133   2.268 -0.0135  0.6389  0.3623
 8886SOL    HW138294   3.914   4.077   2.292  1.3720 -1.1156  0.4611
 8886SOL    HW238295   3.946   4.182   2.197 -0.9676 -1.7807 -0.7660
 8887SOL     OW38296   0.444   2.420  11.751  0.1153  0.2870 -0.0471
 8887SOL    HW138297   0.431   2.325  11.756  1.2316  0.0906 -0.8686
 8887SOL    HW238298   0.351   2.442  11.742  0.4612  2.1175  0.8982
 8888SOL     OW38299   0.599   4.380   4.992  0.1807  0.3523  0.3256
 8888SOL    HW138300   0.672   4.327   5.024 -0.9733 -1.1424  0.5512
 8888SOL    HW238301   0.528   4.335   5.039 -0.7222  1.9475  0.4621
 8889SOL     OW38302   0.698   1.752   5.782  0.2677  0.3442 -0.4422
 8889SOL    HW138303   0.769   1.740   5.718 -0.1392  0.0142 -0.8325
 8889SOL    HW238304   0.742   1.815   5.839 -0.8922  0.2065  0.6123
 8890SOL     OW38305   0.366   1.201   7.594  0.1405  0.1544 -0.7671
 8890SOL    HW138306   0.418   1.186   7.515 -0.9470 -1.0857 -1.2482
 8890SOL    HW238307   0.279   1.198   7.553  0.9695 -1.2224 -2.4198
 8891SOL     OW38308   1.299   1.583   2.893  0.2396  0.3821 -0.9658
 8891SOL    HW138309   1.340   1.637   2.960  0.2569 -0.8288  0.0158
 8891SOL    HW238310   1.277   1.505   2.945 -1.0105  0.6836 -1.0414
 8892SOL     OW38311   4.142   4.134   7.325  0.3243 -0.1813  0.2498
 8892SOL    HW138312   4.060   4.112   7.281  1.5852 -1.7029 -1.3591
 8892SOL    HW238313   4.208   4.095   7.268  0.2687 -0.7306  0.5601
 8893SOL     OW38314   3.274   0.972   2.186 -0.4561  0.1817  0.2576
 8893SOL    HW138315   3.262   1.057   2.144  0.0950  1.6537  3.0351
 8893SOL    HW238316   3.190   0.951   2.228 -1.1710 -2.2822 -2.4189
 8894SOL     OW38317   3.849   1.663   1.736 -0.4618  0.3935  0.3396
 8894SOL    HW138318   3.887   1.588   1.692  1.2577  0.8247  1.0943
 8894SOL    HW238319   3.761   1.631   1.757  0.2674 -1.5383  0.4534
 8895SOL     OW38320   4.354   2.849   7.364 -0.1511 -0.4756  0.0736
 8895SOL    HW138321   4.337   2.915   7.430  1.1744 -0.0841  0.0106
 8895SOL    HW238322   4.283   2.870   7.304  0.2375  1.5651  0.3576
 8896SOL     OW38323   0.802   2.084   7.645 -0.8096 -0.5010 -0.2861
 8896SOL    HW138324   0.817   2.098   7.738  0.3725 -0.3479 -0.4970
 8896SOL    HW238325   0.792   2.174   7.614  1.4801  0.2153  1.0685
 8897SOL     OW38326   0.455   3.787   3.695  1.1025  0.8798  0.0985
 8897SOL    HW138327   0.446   3.698   3.659  0.9890  2.1483 -3.0004
 8897SOL    HW238328   0.480   3.769   3.785  0.8278  0.5756  0.1164
 8898SOL     OW38329   3.030   4.155   2.828  0.1752 -0.1289  0.1924
 8898SOL    HW138330   3.045   4.162   2.734 -2.4486 -0.4676 -0.2493
 8898SOL    HW238331   3.083   4.230   2.855 -0.3238  1.0568 -2.1255
 8899SOL     OW38332   3.587   2.817   6.369  0.2837 -1.0050  0.4975
 8899SOL    HW138333   3.680   2.812   6.388  0.1831  0.2679  1.3375
 8899SOL    HW238334   3.554   2.875   6.438 -3.0402  1.0810 -2.8248
 8900SOL     OW38335   2.846   2.762  17.156  0.4071  0.4702  0.1285
 8900SOL    HW138336   2.874   2.686  17.208  0.2138  1.6755  1.9934
 8900SOL    HW238337   2.871   2.842  17.202 -1.2486  0.6917  0.6309
 8901SOL     OW38338   3.716   0.960   8.981 -0.1269 -0.2540 -0.6210
 8901SOL    HW138339   3.629   0.965   8.943 -0.0046 -1.7527 -1.0970
 8901SOL    HW238340   3.764   1.028   8.933  0.7029  0.7930  1.7305
 8902SOL     OW38341   3.747   1.186   1.002  0.3505 -0.3739  0.7013
 8902SOL    HW138342   3.819   1.209   1.062  1.9769 -0.3954 -1.2277
 8902SOL    HW238343   3.671   1.208   1.056  0.4435  1.6302  0.0243
 8903SOL     OW38344   2.694   0.809   7.049  0.0260  0.6191  0.0610
 8903SOL    HW138345   2.761   0.741   7.052 -2.3722 -1.6839  1.0320
 8903SOL    HW238346   2.642   0.774   7.120 -0.8572  1.1664 -0.3144
 8904SOL     OW38347   3.548   4.170   1.140  0.0057 -0.1179  0.2128
 8904SOL    HW138348   3.538   4.156   1.046  0.2524  0.5541  0.0878
 8904SOL    HW238349   3.625   4.226   1.138  1.6761 -2.4529 -1.0719
 8905SOL     OW38350   3.055   3.040  12.744 -0.0008 -0.0558 -0.3222
 8905SOL    HW138351   3.133   3.096  12.741  0.6214 -0.9278 -0.7069
 8905SOL    HW238352   3.013   3.080  12.668  0.5222  1.8262  0.3758
 8906SOL     OW38353   3.016   4.353   3.727 -0.2396  0.0607  0.1599
 8906SOL    HW138354   3.010   4.264   3.693  1.6336  0.7547 -1.9854
 8906SOL    HW238355   3.051   4.340   3.816  0.5322  3.2326  0.3211
 8907SOL     OW38356   2.215   4.334   3.235 -0.2200 -0.0808  0.4496
 8907SOL    HW138357   2.296   4.306   3.195 -1.1899  0.1340 -1.6454
 8907SOL    HW238358   2.161   4.260   3.264 -2.7562  1.8724  0.7051
 8908SOL     OW38359   0.543   2.972  15.528 -0.2179 -0.0722 -0.4383
 8908SOL    HW138360   0.541   2.940  15.618  1.1468 -0.4283 -0.5344
 8908SOL    HW238361   0.600   2.905  15.488  1.0941  2.0930 -2.1893
 8909SOL     OW38362   3.624   2.652  17.358  0.2050 -0.3447 -0.3807
 8909SOL    HW138363   3.638   2.736  17.315  0.1661  0.1150  0.4969
 8909SOL    HW238364   3.571   2.684  17.431  1.4492 -0.8866  0.7919
 8910SOL     OW38365   4.101   1.360   1.677  0.3673 -0.2521  0.3765
 8910SOL    HW138366   4.010   1.341   1.654  0.4521 -0.0054 -0.1519
 8910SOL    HW238367   4.117   1.442   1.632  2.0252  0.6847  2.6521
 8911SOL     OW38368   4.485   0.278   0.014 -0.8477 -0.2742  0.0399
 8911SOL    HW138369   4.454   0.208  17.718  1.5793 -1.5152  0.2327
 8911SOL    HW238370   4.547   0.327  17.720  2.5125 -2.0727  2.1814
 8912SOL     OW38371   1.540   3.399  13.110 -0.6830  0.4862  0.0649
 8912SOL    HW138372   1.593   3.478  13.115  1.4220 -1.0002  1.6245
 8912SOL    HW238373   1.602   3.333  13.142  0.2155  1.0895 -0.4480
 8913SOL     OW38374   2.769   3.690   3.679 -0.6414  0.3079  0.1233
 8913SOL    HW138375   2.718   3.630   3.734  2.4489 -2.8899 -0.4565
 8913SOL    HW238376   2.855   3.648   3.688 -1.7294 -1.5127  1.9717
 8914SOL     OW38377   2.874   4.698  12.004  0.0355 -0.5166  0.2057
 8914SOL    HW138378   2.806   0.018  11.975 -1.3771 -1.5023  1.4586
 8914SOL    HW238379   2.939   0.025  12.023  0.3962 -0.4156 -1.3841
 8915SOL     OW38380   2.623   1.527   4.632  0.1419 -0.0280  0.2133
 8915SOL    HW138381   2.567   1.487   4.566  1.0220  0.1728 -0.6567
 8915SOL    HW238382   2.691   1.565   4.576 -0.0462 -1.3720 -0.9151
 8916SOL     OW38383   3.756   1.514   7.223  0.0459  0.1570 -0.1266
 8916SOL    HW138384   3.679   1.563   7.251  1.2941  1.9151  0.1931
 8916SOL    HW238385   3.738   1.437   7.277 -1.4137 -1.0826 -2.3684
 8917SOL     OW38386   1.785   3.913   8.052  0.7790  0.1080  0.6113
 8917SOL    HW138387   1.831   3.978   8.106  1.6288  0.6904 -0.8075
 8917SOL    HW238388   1.707   3.903   8.107  1.2889 -0.9963  1.1284
 8918SOL     OW38389   2.331   1.774  14.673 -0.6663  0.4426 -0.6980
 8918SOL    HW138390   2.415   1.809  14.703 -0.9003  1.1733 -0.8892
 8918SOL    HW238391   2.363   1.716  14.604 -0.1310  0.8382 -0.7856
 8919SOL     OW38392   4.283   3.061   4.835  0.3255 -0.1318 -0.5338
 8919SOL    HW138393   4.208   3.079   4.891 -0.2634 -0.1934 -1.3057
 8919SOL    HW238394   4.250   3.070   4.746 -0.8541 -0.4253 -0.1264
 8920SOL     OW38395   2.758   1.308   6.565  0.1570  0.0919  0.9024
 8920SOL    HW138396   2.706   1.389   6.565  1.9727  1.2521  1.9786
 8920SOL    HW238397   2.844   1.325   6.525 -0.9517 -1.7305 -2.2365
 8921SOL     OW38398   2.008   1.997   4.204  0.1024 -0.1183  0.3273
 8921SOL    HW138399   1.956   2.013   4.125 -2.1219 -0.6587  1.6886
 8921SOL    HW238400   1.947   1.979   4.275  0.0386  0.3175  0.3779
 8922SOL     OW38401   3.984   0.593  13.346  0.5371 -0.4772  0.6595
 8922SOL    HW138402   3.957   0.510  13.308  3.1938  0.0224 -2.3839
 8922SOL    HW238403   3.908   0.650  13.335  0.1901 -0.9184  0.8085
 8923SOL     OW38404   3.947   2.280   7.787 -0.0959  0.1740 -0.2391
 8923SOL    HW138405   3.947   2.186   7.808 -1.0213  0.0702 -0.6880
 8923SOL    HW238406   3.899   2.312   7.864 -0.9368 -2.9127  0.5330
 8924SOL     OW38407   2.341   0.069   1.759  0.2602 -0.3260 -0.6711
 8924SOL    HW138408   2.285   0.034   1.829  1.2631 -0.8797 -0.1466
 8924SOL    HW238409   2.422   0.076   1.810 -0.4338  0.9595  0.2582
 8925SOL     OW38410   2.415   0.222  16.042 -0.1394  0.4695 -0.3053
 8925SOL    HW138411   2.420   0.267  15.957  1.1224  1.6107  0.3785
 8925SOL    HW238412   2.509   0.219  16.058  0.1313 -1.7641 -2.2109
 8926SOL     OW38413   3.625   3.692   4.229  0.4222 -0.1170 -0.2166
 8926SOL    HW138414   3.598   3.756   4.163  0.1422 -0.9254 -0.8952
 8926SOL    HW238415   3.621   3.608   4.183 -0.1734 -0.1083 -0.1874
 8927SOL     OW38416   1.744   0.223   6.809 -0.6226  0.0134 -0.1420
 8927SOL    HW138417   1.669   0.227   6.867  0.5506  0.4577  1.3391
 8927SOL    HW238418   1.794   0.147   6.839 -0.9032 -0.1347 -0.0584
 8928SOL     OW38419   3.396   3.340  16.363  0.2711 -0.0565 -0.0776
 8928SOL    HW138420   3.465   3.275  16.352  0.1622  0.2336 -2.4569
 8928SOL    HW238421   3.446   3.420  16.381  1.6198 -0.7430 -0.8041
 8929SOL     OW38422   0.219   0.301   5.750  0.5710  0.0451 -0.0835
 8929SOL    HW138423   0.233   0.369   5.817 -1.5843  0.7816 -0.3825
 8929SOL    HW238424   0.130   0.282   5.780  1.5265  0.1108  2.8736
 8930SOL     OW38425   3.930   2.280   5.259 -0.5501 -0.3477 -0.2275
 8930SOL    HW138426   3.945   2.229   5.180 -0.2232 -0.3644 -0.1547
 8930SOL    HW238427   4.014   2.269   5.303 -0.7076  0.8645  0.3937
 8931SOL     OW38428   1.025   0.124   2.048  0.6110  0.5725 -0.0466
 8931SOL    HW138429   1.087   0.136   2.120  0.0868 -1.3207  0.7295
 8931SOL    HW238430   0.945   0.129   2.101  1.9279 -0.7140  2.0679
 8932SOL     OW38431   3.418   1.525   5.862  0.3932  0.1474  0.0165
 8932SOL    HW138432   3.471   1.602   5.841 -0.5945  0.8977  0.2867
 8932SOL    HW238433   3.333   1.541   5.821  1.7712  0.6323 -2.6226
 8933SOL     OW38434   1.502   3.570   9.179  0.0624  0.5920  0.1107
 8933SOL    HW138435   1.472   3.485   9.149 -0.6211  0.4244  1.2890
 8933SOL    HW238436   1.589   3.546   9.212  0.2239  0.7174 -0.2150
 8934SOL     OW38437   2.567   3.451   3.187 -0.1432  0.1702  0.6698
 8934SOL    HW138438   2.603   3.539   3.172 -1.8266  1.0605  1.8467
 8934SOL    HW238439   2.532   3.447   3.276 -1.4841 -1.1178  0.0755
 8935SOL     OW38440   2.550   1.727   8.794  0.2298 -0.0495 -0.0252
 8935SOL    HW138441   2.559   1.657   8.729  1.1398 -1.8792  2.0340
 8935SOL    HW238442   2.626   1.781   8.773 -0.7289  1.9503  1.5957
 8936SOL     OW38443   4.203   2.549   6.617 -0.0916  0.1991  0.3322
 8936SOL    HW138444   4.206   2.614   6.687 -0.5610  1.2651 -0.6116
 8936SOL    HW238445   4.154   2.604   6.555 -0.4254  1.5673  1.8126
 8937SOL     OW38446   2.702   1.859   7.888 -0.1560 -0.2215  0.1748
 8937SOL    HW138447   2.616   1.856   7.929 -0.9331  1.1740 -1.4117
 8937SOL    HW238448   2.715   1.772   7.851  1.8178  0.2558 -0.2481
 8938SOL     OW38449   3.562   4.694   6.817  0.4197  0.0841 -0.0388
 8938SOL    HW138450   3.563   4.599   6.815 -1.7382  0.1073 -1.4886
 8938SOL    HW238451   3.629   4.707   6.885 -0.0566 -0.6120  0.5599
 8939SOL     OW38452   4.048   0.316   4.452 -0.2592  0.5305 -0.5472
 8939SOL    HW138453   4.017   0.227   4.468  0.5819 -0.0842 -2.3633
 8939SOL    HW238454   4.049   0.317   4.356 -1.4066  1.1660 -0.5614
 8940SOL     OW38455   1.281   4.183   2.678  0.6585  0.0175 -0.6418
 8940SOL    HW138456   1.270   4.162   2.771 -0.8183 -0.6215 -0.9691
 8940SOL    HW238457   1.372   4.160   2.659  0.8982  0.5208 -0.1235
 8941SOL     OW38458   2.635   4.636  13.665 -0.0037 -0.2776  0.3566
 8941SOL    HW138459   2.569   4.658  13.731 -0.2913  0.1208 -0.0606
 8941SOL    HW238460   2.712   4.623  13.720 -1.9859 -1.5131  2.8456
 8942SOL     OW38461   2.454   0.451   5.124  0.6524 -0.3842  0.1437
 8942SOL    HW138462   2.410   0.487   5.201  0.6012 -2.2984  1.0011
 8942SOL    HW238463   2.427   0.511   5.054  0.4195 -1.5152 -0.7234
 8943SOL     OW38464   4.085   2.135  10.286 -0.0139 -0.5750 -0.0111
 8943SOL    HW138465   4.037   2.217  10.275  2.7142  0.9613 -0.3169
 8943SOL    HW238466   4.040   2.102  10.364 -0.7074 -0.3374 -0.3046
 8944SOL     OW38467   0.796   0.481  17.423 -0.3189 -0.4304  0.4498
 8944SOL    HW138468   0.798   0.575  17.404  0.7296 -0.2807  1.2841
 8944SOL    HW238469   0.728   0.450  17.364 -2.2093 -1.6527  3.2827
 8945SOL     OW38470   2.027   3.487   5.967 -0.0614 -0.4591 -0.0723
 8945SOL    HW138471   1.967   3.526   6.031  0.5381 -0.5560  0.5504
 8945SOL    HW238472   1.991   3.402   5.943 -1.3062 -0.1289  0.6617
 8946SOL     OW38473   1.697   3.938  10.182 -0.4903 -0.1848 -0.7141
 8946SOL    HW138474   1.630   3.909  10.121 -2.3704  0.9014  0.8499
 8946SOL    HW238475   1.653   3.915  10.264  0.6606  0.0255 -0.0338
 8947SOL     OW38476   1.215   0.631   8.159  0.7558 -0.1601  0.2595
 8947SOL    HW138477   1.298   0.587   8.143  0.3372 -0.2934 -1.5210
 8947SOL    HW238478   1.241   0.718   8.129  1.8362 -1.2753 -2.0097
 8948SOL     OW38479   3.356   4.361  15.803  0.6170 -0.5207  0.0492
 8948SOL    HW138480   3.422   4.323  15.745  1.2258 -1.7218  1.5217
 8948SOL    HW238481   3.275   4.325  15.767  1.9677 -0.9552 -2.5359
 8949SOL     OW38482   1.076   4.016  15.761  0.1853 -0.1706  0.2278
 8949SOL    HW138483   1.019   4.073  15.812 -0.2376  0.4889 -0.9898
 8949SOL    HW238484   1.038   4.034  15.676 -1.2622 -0.2496  0.8583
 8950SOL     OW38485   1.693   2.849   0.194  0.1217 -0.0074  0.0728
 8950SOL    HW138486   1.730   2.761   0.182  0.4711  0.0454  0.8244
 8950SOL    HW238487   1.774   2.892   0.167  0.3648 -0.6932 -0.2994
 8951SOL     OW38488   1.514   2.266  11.835  0.4387 -0.0430 -0.2367
 8951SOL    HW138489   1.552   2.352  11.816  1.6886 -0.2935  1.2045
 8951SOL    HW238490   1.589   2.232  11.883  1.4405  0.1322 -1.6850
 8952SOL     OW38491   0.135   4.361   2.970  0.4779 -0.2719  0.1690
 8952SOL    HW138492   0.087   4.428   3.019 -3.5477 -3.9179  1.3047
 8952SOL    HW238493   0.076   4.314   2.910  0.0981  1.1370 -0.5577
 8953SOL     OW38494   4.246   0.294   5.533 -0.0553  0.2415 -0.1408
 8953SOL    HW138495   4.179   0.323   5.471  0.4232  2.5172  0.4107
 8953SOL    HW238496   4.208   0.217   5.576  1.8748 -0.2489  0.7106
 8954SOL     OW38497   3.696   3.859   5.233 -0.6690 -0.0205  0.9700
 8954SOL    HW138498   3.664   3.879   5.145  0.1795 -0.3683  0.5785
 8954SOL    HW238499   3.782   3.824   5.210 -0.3919  0.5502  1.1132
 8955SOL     OW38500   0.949   1.228   3.398 -0.0817  0.0045  0.3142
 8955SOL    HW138501   0.960   1.317   3.433  1.8640 -0.0239 -0.2197
 8955SOL    HW238502   1.033   1.226   3.352  0.4130 -1.9271  1.3258
 8956SOL     OW38503   1.562   3.030   2.237 -0.1031 -0.5373 -0.1391
 8956SOL    HW138504   1.599   3.025   2.325 -2.4681 -1.4106  0.8048
 8956SOL    HW238505   1.640   3.065   2.195  0.5929  0.4871  1.9997
 8957SOL     OW38506   3.214   2.276   7.281  0.5121 -0.4918 -0.4997
 8957SOL    HW138507   3.187   2.185   7.268  0.6847 -1.0044  2.7149
 8957SOL    HW238508   3.296   2.272   7.233  1.0347  0.4227  0.3203
 8958SOL     OW38509   1.807   1.218   7.026  0.1334  0.2444 -0.6697
 8958SOL    HW138510   1.808   1.273   7.105  0.3309  1.6923 -1.6783
 8958SOL    HW238511   1.752   1.270   6.969  1.7599  1.3233 -1.2619
 8959SOL     OW38512   4.134   2.804  14.287  0.0997  0.5463 -0.5753
 8959SOL    HW138513   4.165   2.751  14.360  0.2646  2.3872  0.6845
 8959SOL    HW238514   4.197   2.780  14.219 -0.0910  0.2821 -0.6628
 8960SOL     OW38515   4.199   4.149   7.892  0.4325  0.1686  0.2144
 8960SOL    HW138516   4.149   4.193   7.823 -0.3620  3.5070  2.9374
 8960SOL    HW238517   4.119   4.135   7.943 -0.6165 -1.0544 -1.7500
 8961SOL     OW38518   0.217   2.904   1.963 -0.2003  0.1595 -0.0770
 8961SOL    HW138519   0.147   2.964   1.990 -0.9885  0.2877 -2.4583
 8961SOL    HW238520   0.168   2.823   1.956  0.2442 -0.1917  0.8531
 8962SOL     OW38521   2.523   1.246   6.878  0.6159  0.6886  0.1097
 8962SOL    HW138522   2.611   1.215   6.855 -0.2921 -3.5814  2.3987
 8962SOL    HW238523   2.476   1.163   6.890 -1.0542  1.6890  0.4363
 8963SOL     OW38524   4.194   3.222   2.522  0.5753 -0.0994 -0.0138
 8963SOL    HW138525   4.149   3.273   2.455 -0.6180 -0.4613  0.4978
 8963SOL    HW238526   4.282   3.260   2.518  2.2349 -3.8334  0.9218
 8964SOL     OW38527   2.558   1.238   5.874  0.0145 -0.4607  0.7097
 8964SOL    HW138528   2.542   1.195   5.789 -1.3614 -1.2625  1.3728
 8964SOL    HW238529   2.533   1.165   5.931 -3.2921  0.4513  0.4394
 8965SOL     OW38530   1.175   2.440   7.989  0.2902  0.3081 -0.1196
 8965SOL    HW138531   1.136   2.354   8.007  0.4703  0.3178  0.3181
 8965SOL    HW238532   1.131   2.502   8.048  1.0366  1.0487 -0.3461
 8966SOL     OW38533   3.167   3.294   6.167  0.2873  0.0172  0.4596
 8966SOL    HW138534   3.209   3.277   6.082 -1.9674  0.5333 -0.7502
 8966SOL    HW238535   3.245   3.298   6.223 -0.5114  1.2570  1.4671
 8967SOL     OW38536   1.340   1.479  16.627 -0.6210 -0.3512 -0.8307
 8967SOL    HW138537   1.252   1.456  16.598 -0.1417  0.0002 -2.5981
 8967SOL    HW238538   1.393   1.495  16.549  2.3025 -0.1575  1.1859
 8968SOL     OW38539   1.668   0.364   7.672 -0.2672  0.4592  0.7225
 8968SOL    HW138540   1.704   0.290   7.721 -2.0708  1.8988  4.2023
 8968SOL    HW238541   1.608   0.405   7.735  0.6381  1.8696  0.6656
 8969SOL     OW38542   1.965   2.851   0.135  0.2312 -0.1301 -0.0017
 8969SOL    HW138543   2.051   2.890   0.117 -0.9189  1.2139 -2.5824
 8969SOL    HW238544   1.927   2.862   0.048  1.7505  0.1780 -0.6304
 8970SOL     OW38545   1.214   3.103   3.730  0.1822 -0.7772  0.6010
 8970SOL    HW138546   1.226   3.189   3.771 -0.2763  0.0544 -0.9816
 8970SOL    HW238547   1.129   3.126   3.691  0.9747  1.1956  0.0133
 8971SOL     OW38548   3.935   1.038   8.445  0.8225 -0.1630 -0.0940
 8971SOL    HW138549   3.961   1.065   8.533 -2.7427 -0.5449  1.0800
 8971SOL    HW238550   3.954   1.111   8.386 -2.0476  1.8024  1.4044
 8972SOL     OW38551   4.550   2.615  11.440  0.2331 -0.5935  0.0655
 8972SOL    HW138552   4.624   2.645  11.388 -0.9221  1.5334 -0.3525
 8972SOL    HW238553   4.583   2.636  11.528  0.7233  2.8187 -0.8977
 8973SOL     OW38554   0.183   0.364  13.024  0.4275  0.0532  0.1321
 8973SOL    HW138555   0.099   0.320  13.010  0.1566 -0.0571  2.1696
 8973SOL    HW238556   0.192   0.373  13.118  1.1723  0.7256  0.0051
 8974SOL     OW38557   3.658   0.661  13.132  0.6809 -0.4346 -0.1218
 8974SOL    HW138558   3.717   0.666  13.057  0.5334  4.0328  0.0901
 8974SOL    HW238559   3.631   0.571  13.110 -0.8905 -0.0497  0.1764
 8975SOL     OW38560   0.483   0.130  13.268 -0.0302 -0.2949  0.3473
 8975SOL    HW138561   0.539   0.078  13.326  0.3865  0.5638  0.7212
 8975SOL    HW238562   0.402   0.147  13.316  0.5791  1.4138  0.7577
 8976SOL     OW38563   3.099   3.020   5.743 -0.4495  0.0236 -0.2413
 8976SOL    HW138564   3.136   3.096   5.700 -0.0002  1.0402  1.9344
 8976SOL    HW238565   3.153   3.016   5.822  0.5909 -2.2844 -1.0598
 8977SOL     OW38566   1.644   0.853   3.036 -0.3430  0.0482  0.0225
 8977SOL    HW138567   1.549   0.846   3.046 -0.1879 -0.2058  1.2651
 8977SOL    HW238568   1.644   0.946   3.061  0.7316 -0.0632  0.4436
 8978SOL     OW38569   1.809   1.976   4.017  0.4093  0.4066 -0.2207
 8978SOL    HW138570   1.782   1.900   4.068 -2.1025 -0.2497 -2.5191
 8978SOL    HW238571   1.824   1.942   3.929 -3.7084  0.4198 -0.9184
 8979SOL     OW38572   0.040   1.898   4.236 -0.3349 -0.4373  0.3415
 8979SOL    HW138573   4.727   1.820   4.249 -1.0208 -0.2850 -1.5408
 8979SOL    HW238574   4.714   1.958   4.201  1.1022  1.4556  0.8577
 8980SOL     OW38575   2.512   1.747   1.705 -0.1738 -0.8373 -0.5586
 8980SOL    HW138576   2.577   1.737   1.635  0.2414 -1.9861  0.0039
 8980SOL    HW238577   2.437   1.739   1.646 -0.7408  1.3820 -0.1526
 8981SOL     OW38578   3.135   1.865   3.475  0.9589 -0.3146  0.1152
 8981SOL    HW138579   3.137   1.776   3.509 -3.1224  0.1544  1.5803
 8981SOL    HW238580   3.181   1.841   3.394 -1.4584  2.9399 -2.2421
 8982SOL     OW38581   3.858   3.267   5.952  0.4003  0.4831 -0.0371
 8982SOL    HW138582   3.841   3.172   5.957  0.9580  0.4078  0.4798
 8982SOL    HW238583   3.809   3.287   5.873 -2.0125  1.2369  1.6801
 8983SOL     OW38584   3.156   4.617   7.015 -0.4197  0.2243  0.3070
 8983SOL    HW138585   3.139   4.601   7.108 -0.8707  0.0280  0.1915
 8983SOL    HW238586   3.250   4.598   7.020  0.3591  3.4225 -1.9379
 8984SOL     OW38587   4.469   0.713   7.537  0.0089  0.1273  0.4199
 8984SOL    HW138588   4.445   0.782   7.599 -2.1993  0.0086 -0.3123
 8984SOL    HW238589   4.528   0.658   7.590 -1.0428 -0.7859  0.6434
 8985SOL     OW38590   4.731   3.270   7.598  0.1667 -0.0329  0.6312
 8985SOL    HW138591   4.642   3.261   7.631  0.9088  0.6589  2.8360
 8985SOL    HW238592   0.002   3.193   7.542  0.2635  0.6968 -0.3390
 8986SOL     OW38593   1.910   2.715   9.014 -0.6754 -0.0740 -0.4564
 8986SOL    HW138594   1.955   2.797   8.992 -1.0683 -0.4459 -2.5492
 8986SOL    HW238595   1.950   2.641   8.969  0.5328  0.2021  0.1672
 8987SOL     OW38596   4.022   0.258   6.573  0.1168 -0.3836  0.2925
 8987SOL    HW138597   4.090   0.299   6.625 -0.6012 -0.0856  0.9852
 8987SOL    HW238598   3.958   0.236   6.641 -1.1221  1.6553 -0.2288
 8988SOL     OW38599   1.352   0.408   8.326  0.0065  0.6633  0.0325
 8988SOL    HW138600   1.281   0.347   8.343  0.4788 -0.1531 -0.9630
 8988SOL    HW238601   1.365   0.391   8.233  1.2607 -1.0750  0.5309
 8989SOL     OW38602   1.783   0.633   7.351  0.1515 -0.8380 -0.6476
 8989SOL    HW138603   1.777   0.540   7.369 -3.8922 -0.9450 -2.6091
 8989SOL    HW238604   1.858   0.626   7.292 -0.0603 -0.7470 -0.9264
 8990SOL     OW38605   1.667   0.841   7.536  0.5572 -0.3425  0.0527
 8990SOL    HW138606   1.716   0.806   7.611  0.8671  1.3402  0.6346
 8990SOL    HW238607   1.691   0.782   7.465 -2.5298 -2.4109  0.7371
 8991SOL     OW38608   2.887   2.978  17.348  0.1653 -0.1360  0.2016
 8991SOL    HW138609   2.926   3.042  17.287  0.8742  0.2724  1.0757
 8991SOL    HW238610   2.922   3.010  17.431 -0.2142 -0.4481  0.4796
 8992SOL     OW38611   1.723   3.038   7.549  0.2601  0.4845 -0.4524
 8992SOL    HW138612   1.677   3.043   7.633 -0.2642 -0.9800 -0.6641
 8992SOL    HW238613   1.668   3.096   7.497 -1.9271 -2.3868 -1.3235
 8993SOL     OW38614   3.407   0.201  12.702  0.1848  0.3846  0.4993
 8993SOL    HW138615   3.447   0.162  12.780  0.7360  1.3623  0.7191
 8993SOL    HW238616   3.332   0.247  12.740 -0.4557 -0.4744  0.2759
 8994SOL     OW38617   1.230   3.550   8.473 -0.2617 -0.1435 -0.0130
 8994SOL    HW138618   1.286   3.493   8.421  0.5160 -1.3164  2.1056
 8994SOL    HW238619   1.157   3.549   8.412 -1.1670 -0.3493  1.0670
 8995SOL     OW38620   2.728   0.945   3.564 -0.1697 -0.2023 -0.4505
 8995SOL    HW138621   2.780   0.913   3.491 -0.5351  1.6791 -1.5565
 8995SOL    HW238622   2.637   0.935   3.538  0.3177  0.0229 -2.2192
 8996SOL     OW38623   3.156   3.902   4.068 -0.1390  0.1898 -0.7976
 8996SOL    HW138624   3.243   3.922   4.103  0.8882 -2.7832 -1.6570
 8996SOL    HW238625   3.168   3.932   3.978 -0.1079 -1.6832 -1.4239
 8997SOL     OW38626   0.740   0.550   3.611 -0.0057 -0.1476  0.2602
 8997SOL    HW138627   0.654   0.592   3.615 -0.5943 -1.1722 -1.2443
 8997SOL    HW238628   0.785   0.597   3.680  0.7349  0.2645 -0.5043
 8998SOL     OW38629   0.698   0.531   5.685 -0.4656  0.0471  0.2016
 8998SOL    HW138630   0.669   0.503   5.599  0.6127 -0.5301  0.0251
 8998SOL    HW238631   0.760   0.598   5.658 -1.5153  0.2610 -1.6500
 8999SOL     OW38632   0.210   3.812  12.457  0.4293  0.7527 -0.3505
 8999SOL    HW138633   0.124   3.799  12.496  0.7315  4.0551  1.4341
 8999SOL    HW238634   0.269   3.831  12.529  0.3524 -1.4713  0.2782
 9000SOL     OW38635   3.920   3.211   6.252  0.4623  0.3942  0.0161
 9000SOL    HW138636   3.985   3.273   6.285 -0.7544  2.4138 -1.3590
 9000SOL    HW238637   3.860   3.276   6.216 -1.5462 -1.7492 -0.5581
 9001SOL     OW38638   3.574   2.175  10.172  0.8568 -0.1964 -0.2865
 9001SOL    HW138639   3.551   2.161  10.080  0.1884 -0.4452 -0.0827
 9001SOL    HW238640   3.522   2.102  10.206  0.2702 -0.1612 -1.1090
 9002SOL     OW38641   1.803   0.178   7.876  0.2502  0.7463  0.3873
 9002SOL    HW138642   1.881   0.199   7.927  0.6489  0.5579 -0.1448
 9002SOL    HW238643   1.842   0.102   7.831 -0.5836  0.5007  0.0818
 9003SOL     OW38644   1.689   2.846   0.463  0.1317  0.2131  0.1596
 9003SOL    HW138645   1.683   2.836   0.368  0.4659 -1.4540  0.3171
 9003SOL    HW238646   1.599   2.869   0.486 -0.2271 -1.5515  0.4745
 9004SOL     OW38647   0.048   4.355   9.100  0.0563 -0.5437 -0.2454
 9004SOL    HW138648   4.718   4.417   9.119 -0.4881 -0.9568 -0.9197
 9004SOL    HW238649   0.089   4.352   9.187  0.0263  2.3139 -0.1340
 9005SOL     OW38650   1.473   1.068  17.177 -0.1904  0.1493 -0.2836
 9005SOL    HW138651   1.416   1.131  17.223  0.5165  0.0248  0.7604
 9005SOL    HW238652   1.451   0.984  17.217 -0.8364  0.0830 -0.7788
 9006SOL     OW38653   2.206   1.557   5.660  0.5608 -0.2971 -0.5693
 9006SOL    HW138654   2.255   1.630   5.698  1.0650 -1.2739  0.6453
 9006SOL    HW238655   2.132   1.549   5.720 -0.1419 -0.7195 -1.4830
 9007SOL     OW38656   2.562   1.827   3.139 -0.2675 -0.5970  0.4015
 9007SOL    HW138657   2.571   1.779   3.221 -0.9657 -1.5867 -0.1091
 9007SOL    HW238658   2.638   1.801   3.086  0.3721 -2.6270  2.2888
 9008SOL     OW38659   4.483   0.697  16.883 -0.4320  0.1815  0.7045
 9008SOL    HW138660   4.424   0.764  16.918 -0.3737  0.6103 -0.0121
 9008SOL    HW238661   4.470   0.696  16.788  0.3874 -0.6595  0.5973
 9009SOL     OW38662   2.775   0.021   6.809  0.1205 -0.2762  0.3924
 9009SOL    HW138663   2.687   4.726   6.808  0.9291 -2.1885 -0.8649
 9009SOL    HW238664   2.752   0.112   6.789 -0.8823 -0.4908  0.5822
 9010SOL     OW38665   1.239   3.615   5.096 -0.0729 -0.1083 -0.1764
 9010SOL    HW138666   1.324   3.583   5.125 -0.2857  0.3127  0.9281
 9010SOL    HW238667   1.257   3.624   5.002 -1.9839 -1.6159 -0.6769
 9011SOL     OW38668   0.093   3.291   2.807 -0.0029 -0.4752  0.0253
 9011SOL    HW138669   0.183   3.266   2.786  0.0718 -0.8678  0.8532
 9011SOL    HW238670   0.096   3.309   2.901  2.6507  0.6027 -0.2872
 9012SOL     OW38671   0.444   3.975   4.315 -0.0219  0.0978 -0.6797
 9012SOL    HW138672   0.433   4.018   4.400  1.2757  0.9400 -0.9534
 9012SOL    HW238673   0.442   3.880   4.331  1.2727  0.4088  1.3600
 9013SOL     OW38674   0.721   0.376   3.881 -0.2888  0.1189  0.0893
 9013SOL    HW138675   0.769   0.451   3.846 -1.2004  1.0515  0.8410
 9013SOL    HW238676   0.795   0.319   3.903 -1.6167 -1.7687 -0.2975
 9014SOL     OW38677   0.588   2.328   7.286 -0.3275  0.5957  0.0564
 9014SOL    HW138678   0.537   2.326   7.205  0.4201  0.9503 -0.4234
 9014SOL    HW238679   0.537   2.385   7.343 -0.3759 -0.0815  0.6927
 9015SOL     OW38680   2.803   1.742  12.923 -0.4332  0.0059 -0.2842
 9015SOL    HW138681   2.824   1.665  12.870 -1.5562 -0.2655 -0.3340
 9015SOL    HW238682   2.722   1.768  12.879  0.9884  1.1505 -2.2154
 9016SOL     OW38683   3.640   4.520  13.338 -0.3503  0.2964 -0.2255
 9016SOL    HW138684   3.582   4.492  13.409 -0.5089 -2.6682 -1.5199
 9016SOL    HW238685   3.636   4.441  13.284  0.6297  0.8505 -1.1010
 9017SOL     OW38686   1.774   1.474   3.423 -0.1082 -0.1287  0.0498
 9017SOL    HW138687   1.753   1.492   3.332 -2.0187  2.1119  0.9375
 9017SOL    HW238688   1.865   1.462   3.397  0.2306  2.4497  0.0308
 9018SOL     OW38689   0.089   1.458   9.996  0.0243 -0.5020 -0.7284
 9018SOL    HW138690   0.113   1.366  10.009 -0.6997 -0.5082  0.5862
 9018SOL    HW238691   0.050   1.472  10.082  2.3913  0.5004  0.1745
 9019SOL     OW38692   2.716   4.171   7.027 -0.2780 -0.0455 -0.1032
 9019SOL    HW138693   2.784   4.110   7.001 -1.0316 -1.2273  0.7247
 9019SOL    HW238694   2.755   4.198   7.111 -0.8763 -0.2705  0.2520
 9020SOL     OW38695   4.399   0.848   2.843 -0.6819  0.4686  0.5210
 9020SOL    HW138696   4.306   0.870   2.849 -0.7754 -0.0572  0.9202
 9020SOL    HW238697   4.432   0.894   2.920 -1.6266  2.0011  0.0108
 9021SOL     OW38698   2.806   3.403   8.158 -0.1507  0.0798  0.0836
 9021SOL    HW138699   2.837   3.331   8.104  1.8145  1.6097 -0.8456
 9021SOL    HW238700   2.888   3.421   8.205 -1.4231 -0.0032  2.3434
 9022SOL     OW38701   1.243   4.355   6.058  0.1400  0.5268  0.1517
 9022SOL    HW138702   1.320   4.412   6.046 -0.5838  1.0210 -2.1878
 9022SOL    HW238703   1.254   4.299   5.981 -0.3306  0.6587 -0.0091
 9023SOL     OW38704   2.719   2.482   7.274  0.8861  0.1252  0.8506
 9023SOL    HW138705   2.800   2.432   7.288  0.0612 -1.4245  0.1114
 9023SOL    HW238706   2.664   2.413   7.237 -0.8919  0.3407  3.1067
 9024SOL     OW38707   0.868   4.248   7.541  0.1232 -0.5625 -0.3924
 9024SOL    HW138708   0.862   4.236   7.636  0.4448 -0.2982 -0.3362
 9024SOL    HW238709   0.778   4.231   7.513 -1.1370  2.0833  2.0511
 9025SOL     OW38710   3.864   1.958   7.601 -0.0699  0.5180 -0.2849
 9025SOL    HW138711   3.866   1.862   7.604 -1.4431  0.4340 -1.9256
 9025SOL    HW238712   3.907   1.983   7.683 -0.9737  2.8907 -0.5357
 9026SOL     OW38713   0.566   1.322   6.639 -0.1721 -0.5885 -0.3313
 9026SOL    HW138714   0.565   1.408   6.682  2.5755 -1.3242  1.1855
 9026SOL    HW238715   0.498   1.338   6.573  0.6193  2.0261 -0.5164
 9027SOL     OW38716   2.110   3.878   7.785  0.3445 -0.1115  0.1733
 9027SOL    HW138717   2.108   3.823   7.863  0.5783  0.8428  0.8504
 9027SOL    HW238718   2.015   3.890   7.781  0.3023 -0.6560 -0.5140
 9028SOL     OW38719   1.333   4.164  15.317 -0.3439 -0.2742  0.4163
 9028SOL    HW138720   1.315   4.172  15.223 -0.7827 -0.1274  0.5156
 9028SOL    HW238721   1.266   4.099  15.334 -2.3320  1.2871 -1.5057
 9029SOL     OW38722   2.901   3.862   8.159 -0.0614  0.6984  0.1191
 9029SOL    HW138723   2.874   3.800   8.092 -2.0048 -0.7367  2.2245
 9029SOL    HW238724   2.996   3.863   8.144  0.0242  2.5393  0.7599
 9030SOL     OW38725   3.962   2.532  12.791 -0.2518 -0.1656  0.2875
 9030SOL    HW138726   4.035   2.530  12.730 -1.1040  0.7562 -0.7566
 9030SOL    HW238727   4.005   2.521  12.876 -0.2138 -1.2210  0.1244
 9031SOL     OW38728   4.071   4.674  11.068  0.2592 -0.4009 -0.3266
 9031SOL    HW138729   4.092   0.026  11.065  0.1493 -0.4276 -2.2086
 9031SOL    HW238730   4.131   4.640  11.134 -4.0749 -4.2330  1.5804
 9032SOL     OW38731   0.620   3.516   4.734  0.1570  0.1794  0.5661
 9032SOL    HW138732   0.665   3.584   4.785  0.2307 -0.3856  1.2480
 9032SOL    HW238733   0.642   3.438   4.784 -0.8518 -0.0704  0.6148
 9033SOL     OW38734   3.221   2.766   7.932  0.0602 -0.6889  0.5084
 9033SOL    HW138735   3.272   2.838   7.895  1.7216 -2.3392 -0.3679
 9033SOL    HW238736   3.245   2.689   7.880 -2.0525 -2.3862  2.0507
 9034SOL     OW38737   4.081   4.289  15.115 -0.2030  0.1270 -0.5593
 9034SOL    HW138738   4.138   4.296  15.191 -0.7861 -0.3685 -0.0798
 9034SOL    HW238739   3.995   4.278  15.156 -0.4615  1.2141 -0.8067
 9035SOL     OW38740   1.886   2.298   9.573 -0.3601 -0.2815  0.4726
 9035SOL    HW138741   1.844   2.269   9.654 -1.0387 -3.3203 -0.9697
 9035SOL    HW238742   1.978   2.289   9.599  0.6517  1.3566 -2.5708
 9036SOL     OW38743   4.362   1.649   9.723  0.3489 -0.2547  0.0910
 9036SOL    HW138744   4.326   1.669   9.810  0.1444 -0.8346  0.1407
 9036SOL    HW238745   4.305   1.690   9.658  3.1707  2.4918 -0.6580
 9037SOL     OW38746   3.650   4.161  13.943  0.9805 -0.7752 -0.1092
 9037SOL    HW138747   3.590   4.224  13.904 -1.4050 -3.2044 -0.3618
 9037SOL    HW238748   3.658   4.191  14.033 -1.0928  2.7585 -1.1377
 9038SOL     OW38749   4.419   2.460   7.070  0.3522  0.5353  0.0041
 9038SOL    HW138750   4.466   2.386   7.109  0.3518  1.8013  2.3933
 9038SOL    HW238751   4.398   2.501   7.154  0.5995  1.6445 -0.4879
 9039SOL     OW38752   3.158   2.813   5.265  0.1887  0.1005 -0.2520
 9039SOL    HW138753   3.243   2.855   5.248  0.5776  0.0174  1.5248
 9039SOL    HW238754   3.169   2.723   5.235  2.3336  0.5336 -0.7709
 9040SOL     OW38755   3.851   2.012   8.385 -0.2612  0.2242 -0.3327
 9040SOL    HW138756   3.901   2.070   8.328  1.9101 -1.0833  0.2687
 9040SOL    HW238757   3.918   1.952   8.418 -0.4292 -0.4389 -1.2049
 9041SOL     OW38758   4.402   2.479   3.107 -0.0179 -0.0464  0.3507
 9041SOL    HW138759   4.459   2.534   3.053  0.8799  1.5409  2.9158
 9041SOL    HW238760   4.381   2.539   3.178 -1.3145  1.6768 -1.4988
 9042SOL     OW38761   1.742   4.436  10.012 -0.1500 -0.0919  0.3881
 9042SOL    HW138762   1.752   4.376   9.938  0.0292  3.6062 -2.5912
 9042SOL    HW238763   1.647   4.439  10.023 -0.0681 -1.5024  1.4226
 9043SOL     OW38764   4.340   3.424   5.556  0.3453  0.2827 -0.1332
 9043SOL    HW138765   4.353   3.401   5.464  1.1606  1.7696 -0.3843
 9043SOL    HW238766   4.429   3.430   5.589  0.3985 -2.1807  0.1523
 9044SOL     OW38767   0.270   0.324  10.582 -0.0052  0.1003  0.1988
 9044SOL    HW138768   0.207   0.310  10.652 -0.4952  0.1959 -0.2239
 9044SOL    HW238769   0.336   0.375  10.629 -0.1396  1.4670 -1.0805
 9045SOL     OW38770   0.855   4.639  12.158 -0.1225 -0.3607  0.3395
 9045SOL    HW138771   0.904   4.593  12.090  1.1048 -0.5070  1.3207
 9045SOL    HW238772   0.923   4.654  12.223 -1.0764  0.7941  1.0688
 9046SOL     OW38773   0.933   4.559  11.331  0.2317  0.5227  0.2870
 9046SOL    HW138774   0.974   4.602  11.405  1.1509  0.2940 -0.0850
 9046SOL    HW238775   0.882   4.498  11.383 -0.7383  0.4170 -0.7771
 9047SOL     OW38776   2.744   0.858   2.960 -0.5242  0.6421  0.3569
 9047SOL    HW138777   2.676   0.925   2.973 -0.5728  0.5254  0.6922
 9047SOL    HW238778   2.818   0.909   2.991  0.1897 -0.6976  0.8708
 9048SOL     OW38779   0.590   2.215   5.564  0.1620 -0.4310  0.1947
 9048SOL    HW138780   0.590   2.297   5.613 -1.0180  0.2076 -0.8909
 9048SOL    HW238781   0.663   2.182   5.617 -0.2076  0.1204  1.0383
 9049SOL     OW38782   4.352   0.216   6.302 -0.0360  0.2689 -0.1386
 9049SOL    HW138783   4.292   0.257   6.365  2.0197  0.8698  1.4259
 9049SOL    HW238784   4.330   0.262   6.221 -1.8004 -3.2829 -1.6393
 9050SOL     OW38785   2.328   3.173  16.780  0.0426 -0.1337  0.5777
 9050SOL    HW138786   2.318   3.267  16.795  1.4869  0.1474 -0.1838
 9050SOL    HW238787   2.269   3.164  16.706 -0.5800  1.2408  0.9020
 9051SOL     OW38788   0.602   0.026  11.757  0.5869 -0.0110 -0.1092
 9051SOL    HW138789   0.577   4.682  11.795 -0.6340  1.3232  2.0821
 9051SOL    HW238790   0.607   0.077  11.838  0.1748  0.1862 -0.2082
 9052SOL     OW38791   0.501   4.248   3.204 -0.0017 -0.1199 -0.3978
 9052SOL    HW138792   0.474   4.188   3.133 -1.4702 -0.2866  0.3011
 9052SOL    HW238793   0.566   4.300   3.157  2.4943 -1.4775  1.5442
 9053SOL     OW38794   0.695   1.476   6.086  0.8138  0.1304  0.0218
 9053SOL    HW138795   0.709   1.545   6.151  0.1502  1.3036 -1.0818
 9053SOL    HW238796   0.756   1.410   6.121 -2.1652 -1.1515  2.7463
 9054SOL     OW38797   1.988   4.537   2.555  0.4217  0.3148  0.1524
 9054SOL    HW138798   2.077   4.540   2.521 -0.0724 -0.3760 -1.1915
 9054SOL    HW238799   1.935   4.575   2.485  0.5438 -0.6460 -0.4480
 9055SOL     OW38800   3.122   4.011   3.819  0.6331 -0.4092  0.8554
 9055SOL    HW138801   3.033   4.045   3.819  0.1498 -1.6628  0.3110
 9055SOL    HW238802   3.159   4.071   3.753 -2.3240 -0.5471 -0.9029
 9056SOL     OW38803   3.481   2.206   1.682  0.2045  0.0498  0.4215
 9056SOL    HW138804   3.418   2.185   1.613  0.6308  0.2598 -0.0277
 9056SOL    HW238805   3.474   2.136   1.747  0.6882  0.4020  0.8489
 9057SOL     OW38806   2.790   1.071   0.094  0.1537 -0.1860 -0.1944
 9057SOL    HW138807   2.812   1.103   0.181 -2.0172  2.9298 -0.7888
 9057SOL    HW238808   2.874   1.031   0.072  0.0899 -1.6220  2.1265
 9058SOL     OW38809   3.058   3.297   7.380 -0.1683 -0.0763  0.5295
 9058SOL    HW138810   3.131   3.327   7.326 -0.1299 -1.3330 -0.1156
 9058SOL    HW238811   2.987   3.349   7.342  1.1320  0.6169 -0.9533
 9059SOL     OW38812   3.822   2.280   0.685 -0.2260  0.0582  0.4911
 9059SOL    HW138813   3.766   2.225   0.630 -2.8143  0.6089  2.5740
 9059SOL    HW238814   3.750   2.321   0.733 -3.1709 -3.1267 -1.1426
 9060SOL     OW38815   3.886   4.372  16.235 -0.5104  0.6517  0.3141
 9060SOL    HW138816   3.858   4.345  16.147 -3.4100  0.9816  1.1276
 9060SOL    HW238817   3.798   4.395  16.266 -0.0586  2.4371  0.2554
 9061SOL     OW38818   1.963   0.045   3.156  0.5842 -0.1623 -0.8970
 9061SOL    HW138819   1.887   0.053   3.213  0.5212 -2.8679 -0.6135
 9061SOL    HW238820   1.933   4.730   3.084  1.7248  0.6061 -1.9715
 9062SOL     OW38821   1.045   3.142   5.292  0.0031 -0.3859  0.1475
 9062SOL    HW138822   1.060   3.055   5.257 -3.9544 -0.7801 -0.5456
 9062SOL    HW238823   1.099   3.185   5.226  0.1316  0.1534  0.5996
 9063SOL     OW38824   2.635   2.728   8.524  0.0284 -0.7873 -0.4891
 9063SOL    HW138825   2.626   2.821   8.504 -3.5698 -0.6615  1.7856
 9063SOL    HW238826   2.726   2.735   8.553 -0.1300  0.7513 -0.4089
 9064SOL     OW38827   1.167   1.277   2.382  0.1405  0.3372 -0.2645
 9064SOL    HW138828   1.074   1.253   2.386  0.3978 -0.6351  0.0921
 9064SOL    HW238829   1.178   1.364   2.345 -0.7540  0.3520 -0.4975
 9065SOL     OW38830   2.198   1.016   8.055 -0.3899  0.3211  0.2658
 9065SOL    HW138831   2.212   1.090   7.996  0.1220 -1.1226 -1.4229
 9065SOL    HW238832   2.239   0.947   8.003 -1.0162  1.3453 -1.5915
 9066SOL     OW38833   1.213   4.325   8.496  0.0280  0.1238 -0.0241
 9066SOL    HW138834   1.199   4.313   8.590  1.4262  1.1170  0.3039
 9066SOL    HW238835   1.195   4.238   8.459  1.7649 -0.1801 -0.1129
 9067SOL     OW38836   2.105   2.185   5.177 -0.2299 -0.2871  0.2804
 9067SOL    HW138837   2.111   2.185   5.081  0.7150  1.2284  0.3435
 9067SOL    HW238838   2.175   2.247   5.196  0.5206 -1.6645  1.9934
 9068SOL     OW38839   3.610   1.602   3.317 -0.1604 -0.0784 -0.5543
 9068SOL    HW138840   3.688   1.547   3.320  0.0464  0.0873 -2.6779
 9068SOL    HW238841   3.645   1.692   3.318  0.8846 -0.5020  0.4928
 9069SOL     OW38842   3.028   0.708   8.106 -0.1979 -0.1505 -0.1785
 9069SOL    HW138843   2.982   0.625   8.119 -0.2829  0.0013  0.4591
 9069SOL    HW238844   3.055   0.681   8.018  0.3938 -2.1441  0.6090
 9070SOL     OW38845   4.049   2.941   1.285  0.0326 -0.1982 -0.5062
 9070SOL    HW138846   4.121   2.908   1.232 -0.0073 -0.7118 -0.2396
 9070SOL    HW238847   4.105   2.937   1.362  1.0445 -0.6842 -1.2785
 9071SOL     OW38848   2.390   0.884   4.879  0.3952  0.5435  0.3989
 9071SOL    HW138849   2.435   0.952   4.829 -0.7639  0.4524 -0.7553
 9071SOL    HW238850   2.310   0.929   4.904  0.5402 -0.2826  2.4032
 9072SOL     OW38851   1.640   4.508   2.191 -0.5668  0.0346 -0.1521
 9072SOL    HW138852   1.565   4.552   2.150 -0.9203  0.1355  0.5965
 9072SOL    HW238853   1.685   4.479   2.111 -1.4174 -1.2208 -0.1751
 9073SOL     OW38854   1.331   2.650   5.327 -0.0552  0.3090 -0.4426
 9073SOL    HW138855   1.333   2.732   5.277 -1.6648 -0.6144 -2.0378
 9073SOL    HW238856   1.424   2.631   5.313  0.2429  0.1247  1.8503
 9074SOL     OW38857   3.458   0.084   7.412  0.8538  0.0080 -0.3788
 9074SOL    HW138858   3.498   0.077   7.325  2.1383 -1.4183  0.3268
 9074SOL    HW238859   3.422   0.173   7.405  3.0427  0.9236  0.1749
 9075SOL     OW38860   0.237   2.436   9.518 -0.8047  0.8059  0.1556
 9075SOL    HW138861   0.292   2.440   9.597 -1.0943 -0.4646  0.4213
 9075SOL    HW238862   0.153   2.476   9.541 -0.9585 -0.2723  1.5096
 9076SOL     OW38863   0.703   1.392   5.781 -0.3538 -0.5089  0.0852
 9076SOL    HW138864   0.682   1.305   5.814  1.8805 -1.0825 -0.0557
 9076SOL    HW238865   0.668   1.436   5.858 -2.2884 -0.9473 -0.5490
 9077SOL     OW38866   1.865   0.006  15.787  0.2411 -0.0312 -1.3868
 9077SOL    HW138867   1.834   0.080  15.734  1.5221  2.0659  0.8218
 9077SOL    HW238868   1.945   0.045  15.820  0.3115 -0.4783 -1.0329
 9078SOL     OW38869   1.572   1.774  16.998 -0.5011  0.2097 -0.2855
 9078SOL    HW138870   1.554   1.680  16.990 -0.2765  0.1556 -0.1641
 9078SOL    HW238871   1.649   1.781  16.941  0.4327 -1.2336  0.7627
 9079SOL     OW38872   0.356   4.110  14.164 -0.1068 -0.2960  0.6513
 9079SOL    HW138873   0.305   4.068  14.233 -0.2323 -1.1522  0.0307
 9079SOL    HW238874   0.326   4.200  14.174  1.7288  0.2852  0.8372
 9080SOL     OW38875   0.727   3.078   9.148  0.3479  0.6601 -0.0388
 9080SOL    HW138876   0.804   3.130   9.127 -0.8786  1.7069 -1.9947
 9080SOL    HW238877   0.656   3.137   9.121  0.1442  0.5478  0.2490
 9081SOL     OW38878   1.041   2.717   3.215 -0.2645  0.4073 -0.4342
 9081SOL    HW138879   1.114   2.692   3.271 -2.1338  0.1073  1.8463
 9081SOL    HW238880   1.045   2.643   3.155 -0.8909  0.2814 -0.3205
 9082SOL     OW38881   1.563   2.780   1.446 -0.4444  0.1771  0.1726
 9082SOL    HW138882   1.529   2.821   1.526  1.7118 -1.7153  2.0500
 9082SOL    HW238883   1.497   2.769   1.378  0.9803 -0.6796 -1.0816
 9083SOL     OW38884   0.427   2.902   3.985 -0.3345 -0.4670  0.2045
 9083SOL    HW138885   0.367   2.861   4.048 -2.4003  0.9004 -0.8842
 9083SOL    HW238886   0.367   2.971   3.956  0.1771 -0.8691 -1.8256
 9084SOL     OW38887   2.323   3.551  17.112 -0.3958  0.6913 -0.2325
 9084SOL    HW138888   2.414   3.525  17.099 -0.4991 -0.1938  0.8078
 9084SOL    HW238889   2.301   3.532  17.203 -0.6069  1.3904 -0.1397
 9085SOL     OW38890   0.128   3.697   7.089  0.6018 -0.7795  0.4623
 9085SOL    HW138891   0.098   3.685   7.179 -0.5740  0.7114  0.2687
 9085SOL    HW238892   0.106   3.789   7.073  1.0198 -0.5691  1.0945
 9086SOL     OW38893   4.177   3.106   6.708  0.3502 -0.2749 -0.0791
 9086SOL    HW138894   4.176   3.091   6.614  0.3950 -1.1264  0.0598
 9086SOL    HW238895   4.260   3.074   6.743  0.4442 -1.2109 -1.1689
 9087SOL     OW38896   3.308   3.551  13.068 -0.1301 -0.0358 -0.2742
 9087SOL    HW138897   3.313   3.517  13.158  0.7294 -1.6526 -0.9210
 9087SOL    HW238898   3.223   3.594  13.079  0.2934  1.0054 -1.1163
 9088SOL     OW38899   1.117   1.841   2.806 -0.2901  0.0141 -0.1525
 9088SOL    HW138900   1.141   1.823   2.897 -2.2229 -1.5095  0.0429
 9088SOL    HW238901   1.089   1.932   2.799  0.4779  0.4381  2.2172
 9089SOL     OW38902   0.284   0.851   8.191  0.1885 -0.1761 -0.4579
 9089SOL    HW138903   0.349   0.803   8.139 -0.5783 -1.4300 -0.2507
 9089SOL    HW238904   0.226   0.782   8.225  0.4825 -0.5103 -0.6249
 9090SOL     OW38905   4.012   2.826  11.361  0.0914 -0.4285 -0.6247
 9090SOL    HW138906   4.103   2.843  11.386 -0.6187  1.2000  0.7831
 9090SOL    HW238907   4.018   2.849  11.269 -1.4734 -0.3202 -0.6866
 9091SOL     OW38908   2.264   2.642   6.705 -0.2516 -0.3057 -0.4339
 9091SOL    HW138909   2.318   2.585   6.651  0.6419 -1.0250  1.2028
 9091SOL    HW238910   2.174   2.632   6.676  0.0159 -1.4561 -0.8719
 9092SOL     OW38911   4.035   1.364   5.792  0.0216 -0.3947  0.0510
 9092SOL    HW138912   3.960   1.314   5.760  0.8708  0.1496 -2.8116
 9092SOL    HW238913   3.999   1.424   5.857 -0.5021  1.4725 -1.9531
 9093SOL     OW38914   3.151   0.682  14.459  0.1933  0.3749  0.5035
 9093SOL    HW138915   3.181   0.736  14.532 -1.3407  0.2696  1.2015
 9093SOL    HW238916   3.196   0.598  14.469 -0.8412 -0.2728 -0.2837
 9094SOL     OW38917   0.408   4.133   1.310 -0.2571 -0.3481 -0.1214
 9094SOL    HW138918   0.433   4.204   1.369  0.5234 -0.3674 -0.4300
 9094SOL    HW238919   0.318   4.110   1.335 -0.7686 -0.3364 -1.9652
 9095SOL     OW38920   1.288   2.031  15.942  0.4836  0.3159 -0.0822
 9095SOL    HW138921   1.211   2.086  15.951  1.1371  0.7338  2.8597
 9095SOL    HW238922   1.246   1.951  15.974 -0.3052  0.4019 -0.9206
 9096SOL     OW38923   2.297   0.514   8.914 -0.1501 -0.3853  0.3747
 9096SOL    HW138924   2.280   0.594   8.964 -0.3111  0.2130 -0.6345
 9096SOL    HW238925   2.210   0.500   8.877  1.3078 -0.1556 -3.1166
 9097SOL     OW38926   3.990   1.534   6.471  0.2325 -0.2281  0.1175
 9097SOL    HW138927   4.042   1.588   6.529  1.2155 -2.2666  1.1322
 9097SOL    HW238928   3.911   1.585   6.453  0.2423 -0.2283  0.0732
 9098SOL     OW38929   0.664   3.574   4.457 -0.1694 -0.1524  0.2266
 9098SOL    HW138930   0.653   3.560   4.551 -1.0660  3.5676  0.6548
 9098SOL    HW238931   0.723   3.648   4.466 -1.4778  0.7338  1.7212
 9099SOL     OW38932   2.923   0.544   2.963  0.0029  0.7481 -0.5184
 9099SOL    HW138933   2.842   0.579   2.925 -0.2046 -0.1323 -0.9011
 9099SOL    HW238934   2.954   0.623   3.006  1.4581  0.5190 -1.1709
 9100SOL     OW38935   4.703   2.020   2.235 -0.0417 -0.0014 -0.3891
 9100SOL    HW138936   4.631   2.080   2.218 -2.8170 -3.1517  0.1046
 9100SOL    HW238937   4.662   1.943   2.194 -2.2582 -0.4362  2.6260
 9101SOL     OW38938   3.348   2.853   1.865  0.0319 -0.0168 -0.2090
 9101SOL    HW138939   3.307   2.894   1.942 -0.1493  1.7609 -1.2591
 9101SOL    HW238940   3.267   2.828   1.821  0.4801 -2.5542  0.4283
 9102SOL     OW38941   4.254   1.111   0.229 -0.5423  0.4085  0.7832
 9102SOL    HW138942   4.237   1.201   0.259  1.4436  1.0887 -0.0906
 9102SOL    HW238943   4.209   1.058   0.295  2.2123  0.7527  2.9464
 9103SOL     OW38944   3.051   0.295   2.843 -0.2952  0.1389  0.4153
 9103SOL    HW138945   3.013   0.370   2.888 -1.4620 -0.6488  0.7544
 9103SOL    HW238946   3.123   0.336   2.795 -1.2089  1.4377  0.1685
 9104SOL     OW38947   4.024   2.307  16.532  0.4576 -0.8323  0.2830
 9104SOL    HW138948   4.020   2.300  16.437 -0.4353 -0.0655  0.2686
 9104SOL    HW238949   3.965   2.381  16.540 -1.7147 -2.4013 -1.1275
 9105SOL     OW38950   2.856   3.094   2.067 -0.9691  0.1922  0.0889
 9105SOL    HW138951   2.906   3.055   2.139 -0.6909  0.1557 -0.1234
 9105SOL    HW238952   2.829   3.015   2.020 -1.9697  0.8488 -0.4272
 9106SOL     OW38953   0.577   2.916   5.460  0.1284  0.4022  0.2190
 9106SOL    HW138954   0.550   2.828   5.487 -2.3981  1.1562  0.1086
 9106SOL    HW238955   0.551   2.975   5.531 -0.2907  1.8882 -1.1553
 9107SOL     OW38956   1.608   2.540  14.550 -0.0172 -0.4854  0.2408
 9107SOL    HW138957   1.670   2.557  14.478  0.7559  0.9000  1.2423
 9107SOL    HW238958   1.551   2.617  14.548  3.1615  1.8995  2.6433
 9108SOL     OW38959   0.315   0.643  10.384  0.9019 -0.6851 -0.2138
 9108SOL    HW138960   0.342   0.722  10.336  1.2336 -0.3280  0.5522
 9108SOL    HW238961   0.360   0.660  10.467 -0.2497 -1.7807  0.6261
 9109SOL     OW38962   3.041   1.866   4.406 -0.2018 -0.0785 -0.6050
 9109SOL    HW138963   3.009   1.879   4.317 -0.1058 -3.5439 -1.1373
 9109SOL    HW238964   2.982   1.919   4.460  2.3708  1.1477  0.9897
 9110SOL     OW38965   1.549   1.631  16.715 -0.3973 -0.5082  0.0877
 9110SOL    HW138966   1.477   1.594  16.664  0.1420 -1.7275  0.2057
 9110SOL    HW238967   1.561   1.721  16.683  0.9857 -1.2273 -1.4259
 9111SOL     OW38968   2.687   3.951   2.070  0.6436  0.0269 -0.2113
 9111SOL    HW138969   2.774   3.921   2.096 -0.8991 -3.4917  0.8295
 9111SOL    HW238970   2.682   4.036   2.115 -1.3530  0.3910 -1.1185
 9112SOL     OW38971   4.272   0.746   8.110 -0.3554  0.2766  0.2614
 9112SOL    HW138972   4.300   0.825   8.156  0.7945  0.3243 -0.5391
 9112SOL    HW238973   4.286   0.678   8.176 -1.8740  0.3750  0.7028
 9113SOL     OW38974   0.605   2.489   8.255 -0.0519  0.1738  0.0291
 9113SOL    HW138975   0.615   2.584   8.253  1.2579  0.0607  1.5047
 9113SOL    HW238976   0.628   2.469   8.164 -2.2163 -2.6991  0.0826
 9114SOL     OW38977   0.615   4.237   8.333  0.5840 -0.0776 -0.5949
 9114SOL    HW138978   0.637   4.270   8.420  1.2003 -1.2623 -0.3051
 9114SOL    HW238979   0.520   4.249   8.341  0.9395  1.3848  1.3463
 9115SOL     OW38980   4.717   2.241  11.052 -0.4561  0.0226  0.0929
 9115SOL    HW138981   0.070   2.228  11.044 -0.4836 -0.0283 -0.1752
 9115SOL    HW238982   4.699   2.296  10.975  0.6858  0.4671  0.1535
 9116SOL     OW38983   0.300   3.963  13.040 -0.0136 -0.1927  0.2138
 9116SOL    HW138984   0.385   3.938  13.004 -0.0205 -0.4371  0.3653
 9116SOL    HW238985   0.294   3.904  13.115  1.3740 -1.4725 -0.6928
 9117SOL     OW38986   4.196   3.441   4.837  0.4752 -0.1698  0.2926
 9117SOL    HW138987   4.261   3.394   4.784 -1.3275 -1.8897 -0.3877
 9117SOL    HW238988   4.181   3.513   4.777 -2.7071 -1.1027 -0.0093
 9118SOL     OW38989   2.425   2.194   9.515  0.0993 -0.2855 -0.2636
 9118SOL    HW138990   2.438   2.160   9.426  1.3847  0.3130 -0.3154
 9118SOL    HW238991   2.506   2.158   9.553  1.2238  2.9112  0.3825
 9119SOL     OW38992   1.397   4.138   3.185 -0.0580  0.2056 -0.2942
 9119SOL    HW138993   1.440   4.162   3.267 -0.6225 -1.9395  0.6043
 9119SOL    HW238994   1.321   4.088   3.215  1.4595 -1.7476  0.2745
 9120SOL     OW38995   1.082   3.687   7.185  0.9087 -0.2024  0.1046
 9120SOL    HW138996   1.068   3.618   7.250  1.0802  0.4422  0.8257
 9120SOL    HW238997   1.072   3.767   7.237  0.6729  1.5104 -2.5551
 9121SOL     OW38998   4.431   2.641  14.299 -0.5702  0.0323  0.2476
 9121SOL    HW138999   4.389   2.655  14.213 -1.0542  2.0128  0.8073
 9121SOL    HW239000   4.517   2.620  14.263  0.2622  0.3020  2.1131
 9122SOL     OW39001   3.664   3.559   3.210 -0.0910 -0.1202 -0.0573
 9122SOL    HW139002   3.663   3.526   3.120 -2.2776  0.4805 -0.2571
 9122SOL    HW239003   3.571   3.552   3.234  0.5316 -0.2110  2.3458
 9123SOL     OW39004   2.506   1.056  16.122 -0.1975  0.1879  0.3405
 9123SOL    HW139005   2.451   1.092  16.192  0.0751 -1.1452  1.2309
 9123SOL    HW239006   2.539   1.142  16.094  1.9549 -0.3198  1.3524
 9124SOL     OW39007   1.694   1.304   6.455 -0.5952 -0.1594  0.2619
 9124SOL    HW139008   1.618   1.302   6.514 -2.1156 -1.9342 -1.7507
 9124SOL    HW239009   1.757   1.266   6.517 -2.8328 -1.8713  1.5133
 9125SOL     OW39010   1.178   3.148   2.137  0.0288  0.8943  0.0692
 9125SOL    HW139011   1.260   3.178   2.175 -0.2422 -0.5474  1.7577
 9125SOL    HW239012   1.205   3.122   2.049  0.2470 -3.1050  1.3315
 9126SOL     OW39013   3.126   1.722   8.807 -0.5792  0.4716  0.2111
 9126SOL    HW139014   3.164   1.681   8.884  0.0413 -0.4755 -0.5928
 9126SOL    HW239015   3.210   1.741   8.765 -0.8598  2.4660  0.5780
 9127SOL     OW39016   0.544   3.647   7.657  0.2031 -0.5444  0.3798
 9127SOL    HW139017   0.628   3.635   7.613  1.9077  1.6538  3.0571
 9127SOL    HW239018   0.549   3.565   7.706  1.6806  0.1100  1.3250
 9128SOL     OW39019   3.885   2.358   6.550 -0.2428  0.4841 -0.4095
 9128SOL    HW139020   3.928   2.390   6.471 -1.4489  0.4026 -1.0922
 9128SOL    HW239021   3.791   2.366   6.539 -0.1065 -0.1661 -2.0801
 9129SOL     OW39022   1.300   2.586   3.686 -0.2490 -0.2309  0.0950
 9129SOL    HW139023   1.242   2.610   3.759  2.7840  1.6980  1.8587
 9129SOL    HW239024   1.385   2.603   3.726  0.2932  0.0183 -1.1749
 9130SOL     OW39025   1.387   1.596   3.954  0.3229  0.9356 -0.2778
 9130SOL    HW139026   1.402   1.630   4.043  2.6392  2.2136 -1.1449
 9130SOL    HW239027   1.480   1.597   3.931  0.0791  1.0096 -1.2478
 9131SOL     OW39028   3.508   0.662  14.831 -0.1990  0.2094 -0.4063
 9131SOL    HW139029   3.422   0.675  14.792 -0.0709 -0.3637 -0.8755
 9131SOL    HW239030   3.546   0.742  14.795  0.9866 -1.5837 -3.1173
 9132SOL     OW39031   3.588   4.468   3.590 -0.2691 -0.8924 -0.6792
 9132SOL    HW139032   3.504   4.485   3.632  0.3078 -0.7770  0.4386
 9132SOL    HW239033   3.549   4.435   3.509 -1.7475 -3.9386  1.2630
 9133SOL     OW39034   0.494   1.177   2.483  0.4201  0.2677 -0.1874
 9133SOL    HW139035   0.444   1.095   2.478  1.7979 -0.5225 -0.9737
 9133SOL    HW239036   0.506   1.178   2.388  1.5666 -0.1327 -0.0487
 9134SOL     OW39037   1.916   4.342  13.004 -0.0700  0.7090 -0.5402
 9134SOL    HW139038   1.874   4.270  13.052  2.2083 -0.5401 -0.4509
 9134SOL    HW239039   1.912   4.405  13.077  0.2790  0.5451 -0.3808
 9135SOL     OW39040   4.604   1.290   6.898  0.4175 -0.7126  0.2533
 9135SOL    HW139041   4.589   1.336   6.981 -1.5268  2.6845 -1.9983
 9135SOL    HW239042   4.693   1.319   6.882  0.3075 -0.5229 -0.0025
 9136SOL     OW39043   0.923   3.760  16.541 -0.0676  0.6257 -0.0639
 9136SOL    HW139044   0.846   3.734  16.492 -1.5613  1.1125  2.0311
 9136SOL    HW239045   0.964   3.675  16.559 -0.0108  0.8541  0.9083
 9137SOL     OW39046   4.692   3.127   5.432  0.5552 -0.4629  0.2779
 9137SOL    HW139047   0.036   3.083   5.441  1.0129  0.3656 -0.0481
 9137SOL    HW239048   4.696   3.177   5.513  0.7508  0.2962 -0.1970
 9138SOL     OW39049   3.162   3.116   9.065 -0.2856 -0.7703 -0.2481
 9138SOL    HW139050   3.225   3.135   9.134 -0.4634 -1.9871  0.2516
 9138SOL    HW239051   3.096   3.081   9.124  0.9231 -1.2940  0.8040
 9139SOL     OW39052   0.399   1.017   3.383 -0.2928 -0.9343 -0.0089
 9139SOL    HW139053   0.416   0.971   3.465  3.8625  0.8292  0.1683
 9139SOL    HW239054   0.368   0.947   3.325 -0.8558 -2.4522  2.1500
 9140SOL     OW39055   2.727   1.642   6.286 -0.5943 -0.2018 -0.0676
 9140SOL    HW139056   2.640   1.608   6.264 -0.7193  0.9863 -1.4207
 9140SOL    HW239057   2.762   1.624   6.199 -2.2049  0.8009 -0.9280
 9141SOL     OW39058   3.614   4.128   5.845 -0.1018 -0.0487 -0.0894
 9141SOL    HW139059   3.541   4.107   5.902  1.3255 -0.7660  1.4770
 9141SOL    HW239060   3.566   4.126   5.762 -0.5363 -0.5509  0.1797
 9142SOL     OW39061   0.552   1.559  15.878 -0.2508  0.1090 -0.5865
 9142SOL    HW139062   0.626   1.536  15.934 -1.1778 -1.9930 -0.2089
 9142SOL    HW239063   0.594   1.542  15.794  1.7628  0.0487  0.4354
 9143SOL     OW39064   1.564   1.844  15.072 -0.7318  0.0335  0.0533
 9143SOL    HW139065   1.542   1.937  15.067 -1.6711 -0.1248  1.1043
 9143SOL    HW239066   1.564   1.835  15.168  0.6502  0.6196  0.1077
 9144SOL     OW39067   0.995   3.129   7.746  0.0432 -0.1050 -0.4475
 9144SOL    HW139068   0.985   3.081   7.664  0.0003  0.1572 -0.5952
 9144SOL    HW239069   1.060   3.197   7.729  0.0718 -0.3083 -1.1507
 9145SOL     OW39070   4.201   2.681   4.933  0.0833  0.1107  0.3669
 9145SOL    HW139071   4.262   2.748   4.902 -1.3703  1.7215  0.9609
 9145SOL    HW239072   4.116   2.702   4.894  1.7513  1.0317 -2.7086
 9146SOL     OW39073   0.144   4.703  12.194 -0.0762 -0.1017  0.1392
 9146SOL    HW139074   0.155   0.022  12.120 -2.1185 -1.2429 -1.0633
 9146SOL    HW239075   0.058   4.672  12.168 -1.2584  2.6300  0.8063
 9147SOL     OW39076   4.440   1.083   4.520 -0.4848  0.1429  0.6256
 9147SOL    HW139077   4.481   1.001   4.492 -2.4608 -1.4347  2.3539
 9147SOL    HW239078   4.355   1.043   4.534 -0.8281  0.2418 -1.2945
 9148SOL     OW39079   1.130   3.955   5.946 -0.5024 -0.4000 -0.1385
 9148SOL    HW139080   1.186   3.912   6.011  0.0025 -0.4025 -0.5743
 9148SOL    HW239081   1.057   3.893   5.951  0.0476 -0.8354  2.8797
 9149SOL     OW39082   4.574   1.822   5.581 -0.2507  0.2035  0.1985
 9149SOL    HW139083   4.533   1.834   5.667 -1.3676 -0.9613 -0.1643
 9149SOL    HW239084   4.596   1.729   5.586 -0.7726 -0.0666 -2.4757
 9150SOL     OW39085   0.783   4.216   6.937 -0.3341 -0.0508 -0.3011
 9150SOL    HW139086   0.850   4.148   6.949 -0.0795  0.3683  0.6422
 9150SOL    HW239087   0.765   4.234   7.029  0.1573 -1.6613  0.1053
 9151SOL     OW39088   2.857   0.008   7.120 -0.0944  0.0144 -0.0311
 9151SOL    HW139089   2.762   4.738   7.120 -0.2469  1.3944 -0.9481
 9151SOL    HW239090   2.859   0.084   7.062  0.2553  0.1632  0.1724
 9152SOL     OW39091   2.429   3.253   1.944  0.4212 -0.3065 -0.3706
 9152SOL    HW139092   2.419   3.179   2.003  1.6147 -0.7131 -0.6736
 9152SOL    HW239093   2.523   3.252   1.925  0.8149  0.6397  1.5491
 9153SOL     OW39094   0.500   1.818   9.530 -0.2672  0.1564 -0.2076
 9153SOL    HW139095   0.521   1.855   9.444 -1.6158 -1.1304 -1.0865
 9153SOL    HW239096   0.406   1.807   9.522 -0.3389  2.2028 -2.1572
 9154SOL     OW39097   2.635   4.275   5.941 -0.4889 -0.1177  0.3569
 9154SOL    HW139098   2.548   4.294   5.905 -0.9164  0.3642  1.6657
 9154SOL    HW239099   2.677   4.237   5.864 -0.1874 -0.5460  0.7374
 9155SOL     OW39100   3.246   0.965   1.615  0.2920 -0.3121  0.2061
 9155SOL    HW139101   3.262   0.891   1.674 -1.1776  0.4739  1.6140
 9155SOL    HW239102   3.158   0.947   1.584  0.4064  1.9276 -1.3689
 9156SOL     OW39103   3.261   4.359   2.011  0.1897  0.2987 -0.9129
 9156SOL    HW139104   3.187   4.311   1.973  0.4986 -0.5015 -0.5209
 9156SOL    HW239105   3.276   4.308   2.091 -1.3166 -1.7524 -1.9247
 9157SOL     OW39106   0.367   3.242   7.621  0.2969  0.4587  0.2929
 9157SOL    HW139107   0.304   3.307   7.653  0.2029  1.4544 -1.9645
 9157SOL    HW239108   0.409   3.203   7.698 -0.9959 -1.0615  0.2396
 9158SOL     OW39109   4.733   3.797   4.681 -0.2299  0.1349  0.1196
 9158SOL    HW139110   4.657   3.739   4.683  1.1998 -1.7905 -0.5613
 9158SOL    HW239111   4.716   3.855   4.755 -0.3662 -1.3413  1.2593
 9159SOL     OW39112   3.510   0.707   5.765  0.0520 -0.4784 -0.3798
 9159SOL    HW139113   3.427   0.754   5.763  0.9195  1.1132  0.8863
 9159SOL    HW239114   3.491   0.634   5.823  0.7370 -0.1578  0.2508
 9160SOL     OW39115   2.353   0.978   9.971 -0.1661  0.5342 -0.1783
 9160SOL    HW139116   2.332   0.966  10.064 -3.0542 -1.2310 -1.0734
 9160SOL    HW239117   2.435   1.027   9.970  0.5969 -0.7440 -0.4785
 9161SOL     OW39118   1.267   2.713  12.561  0.1706 -0.2208 -0.0740
 9161SOL    HW139119   1.299   2.787  12.613 -0.0007 -0.4491  0.3541
 9161SOL    HW239120   1.245   2.761  12.481 -1.0801  1.0217  1.0139
 9162SOL     OW39121   1.106   2.369   5.613 -0.7478 -0.1878 -0.1482
 9162SOL    HW139122   1.071   2.281   5.595 -2.2721  0.2357  0.7277
 9162SOL    HW239123   1.056   2.413   5.545  1.2158  0.4767 -1.1473
 9163SOL     OW39124   2.996   2.418  16.618  0.1467 -0.9226  0.3784
 9163SOL    HW139125   3.022   2.365  16.543 -0.6183 -1.8125  0.7463
 9163SOL    HW239126   2.965   2.347  16.674 -0.6626 -0.0415  1.0464
 9164SOL     OW39127   4.728   2.426   1.298  0.4988  0.0609  0.0761
 9164SOL    HW139128   4.728   2.334   1.270  0.3229  0.4262 -1.1130
 9164SOL    HW239129   4.711   2.474   1.217  1.0077  0.3433  0.1394
 9165SOL     OW39130   2.832   0.483  14.985  0.3570  0.1920  0.6631
 9165SOL    HW139131   2.827   0.576  14.964 -0.8299  0.0749  0.4563
 9165SOL    HW239132   2.884   0.476  15.064  3.2234 -1.4720 -1.3534
 9166SOL     OW39133   4.326   0.780  16.049 -0.6834 -0.0730  0.2335
 9166SOL    HW139134   4.414   0.797  16.080 -0.6374 -1.5046  0.9130
 9166SOL    HW239135   4.337   0.691  16.016 -0.2016 -0.3960  1.2682
 9167SOL     OW39136   2.275   4.602   4.867 -0.3199  0.8449 -0.1735
 9167SOL    HW139137   2.321   4.628   4.947 -2.6677  0.4834  1.2819
 9167SOL    HW239138   2.293   4.680   4.814  2.5417 -0.6421 -1.4328
 9168SOL     OW39139   0.868   0.178  12.605  0.8711 -0.1355  0.3314
 9168SOL    HW139140   0.807   0.144  12.540  0.7569 -2.6506  1.7577
 9168SOL    HW239141   0.845   0.121  12.677 -0.4648  1.3271  1.0558
 9169SOL     OW39142   2.398   0.991  17.607 -0.0205 -0.0295 -0.5914
 9169SOL    HW139143   2.444   0.915  17.571 -1.7627 -0.0482 -2.7949
 9169SOL    HW239144   2.313   0.956  17.632 -0.7528  1.4874 -0.9882
 9170SOL     OW39145   1.092   3.436   3.605 -0.0319  0.8240 -0.4793
 9170SOL    HW139146   1.180   3.420   3.637 -1.0755 -2.0453  0.9392
 9170SOL    HW239147   1.062   3.348   3.627 -0.4434  0.7510 -1.3451
 9171SOL     OW39148   1.858   4.574   0.738 -0.4266  0.2090 -0.2408
 9171SOL    HW139149   1.915   4.635   0.692 -0.6147  0.9826  0.5661
 9171SOL    HW239150   1.918   4.516   0.785 -0.7318 -0.3460 -0.5350
 9172SOL     OW39151   1.249   3.261  12.605  0.1311  0.2273 -0.3887
 9172SOL    HW139152   1.326   3.224  12.562 -0.6748  0.3209 -1.9071
 9172SOL    HW239153   1.189   3.186  12.603 -0.6012  0.8296 -0.7979
 9173SOL     OW39154   4.436   0.524   5.631  0.7767 -0.2061  0.1722
 9173SOL    HW139155   4.390   0.604   5.657  3.2370  0.3521  2.8722
 9173SOL    HW239156   4.362   0.479   5.591  1.7785 -1.2077 -0.5210
 9174SOL     OW39157   3.176   2.008   7.282  0.2938  0.1138  0.2580
 9174SOL    HW139158   3.247   1.991   7.220  1.1108  3.4901  0.2745
 9174SOL    HW239159   3.170   1.921   7.322  0.9953 -0.1598 -0.2246
 9175SOL     OW39160   3.725   4.076   3.106  0.4427 -0.2187 -0.1721
 9175SOL    HW139161   3.734   4.162   3.147  1.5971 -0.0641 -0.7473
 9175SOL    HW239162   3.749   4.015   3.176  2.1713  1.0431  0.3408
 9176SOL     OW39163   1.444   3.346   5.444 -0.0864 -0.1331 -0.4363
 9176SOL    HW139164   1.466   3.438   5.454  1.0230 -0.0396 -3.8190
 9176SOL    HW239165   1.354   3.343   5.412 -0.0979  1.3732 -0.5359
 9177SOL     OW39166   3.528   3.675  10.566 -0.0140  0.5581  0.4042
 9177SOL    HW139167   3.566   3.755  10.601  2.6987 -1.3085  1.6897
 9177SOL    HW239168   3.609   3.626  10.557 -0.3493  0.3865 -1.5686
 9178SOL     OW39169   2.447   0.524   7.464  0.2547  0.2315  0.1973
 9178SOL    HW139170   2.362   0.547   7.502 -0.4170 -2.5226  0.3433
 9178SOL    HW239171   2.505   0.500   7.536  1.9488 -2.3202 -2.0620
 9179SOL     OW39172   1.407   2.090  15.093  0.5653  0.2120  0.2111
 9179SOL    HW139173   1.399   2.102  14.999 -1.8962 -1.3210  0.2022
 9179SOL    HW239174   1.319   2.121  15.116  0.6391 -0.0664  0.8807
 9180SOL     OW39175   3.420   4.712  10.790 -0.0898 -0.2662 -1.0119
 9180SOL    HW139176   3.336   4.720  10.746 -0.4695 -1.8025 -0.5478
 9180SOL    HW239177   3.422   0.057  10.831 -2.8499 -0.2641 -0.8977
 9181SOL     OW39178   0.002   3.947  11.092 -0.5741 -0.4039 -0.0356
 9181SOL    HW139179   4.697   3.991  11.020 -1.1804 -2.2761 -0.7736
 9181SOL    HW239180   0.089   3.985  11.100 -0.2264 -0.5447 -3.2109
 9182SOL     OW39181   2.465   0.054   0.181 -0.0019 -0.3465  0.1259
 9182SOL    HW139182   2.498   4.705   0.184 -4.1182 -1.7593  1.6844
 9182SOL    HW239183   2.548   0.102   0.189 -0.2895  0.2106 -0.2660
 9183SOL     OW39184   3.731   2.434   4.115 -0.4085 -0.3257 -0.1164
 9183SOL    HW139185   3.659   2.495   4.099 -0.9916 -0.8185  0.6817
 9183SOL    HW239186   3.805   2.482   4.078 -0.3782 -0.3543 -0.0923
 9184SOL     OW39187   2.547   3.194   4.387  0.2290  0.5138 -0.6788
 9184SOL    HW139188   2.546   3.118   4.330 -0.0488 -0.0024  0.0088
 9184SOL    HW239189   2.493   3.155   4.456 -2.2456 -1.3755 -3.7152
 9185SOL     OW39190   1.984   2.824   4.840  0.4033  0.2511  0.0129
 9185SOL    HW139191   1.947   2.902   4.799  2.2561  0.6171 -0.9903
 9185SOL    HW239192   1.924   2.801   4.911 -1.6383  1.3977 -1.3610
 9186SOL     OW39193   3.277   3.544  12.528 -0.2132 -0.5920 -0.3853
 9186SOL    HW139194   3.286   3.518  12.620 -0.7824 -0.1919 -0.2184
 9186SOL    HW239195   3.278   3.638  12.544 -0.2666 -0.7819  0.7498
 9187SOL     OW39196   1.226   1.553   8.407 -0.1571 -0.4309 -0.1946
 9187SOL    HW139197   1.254   1.506   8.328 -0.5570  0.1637 -0.6891
 9187SOL    HW239198   1.224   1.481   8.471  0.5449  1.1438  1.6007
 9188SOL     OW39199   1.364   3.564   7.680  0.3477 -0.3112  0.3222
 9188SOL    HW139200   1.396   3.654   7.680  1.3987 -0.6763 -1.1446
 9188SOL    HW239201   1.439   3.520   7.639 -0.4292 -2.7148  1.4776
 9189SOL     OW39202   0.216   3.240   4.766 -0.1302  0.4264 -0.1653
 9189SOL    HW139203   0.300   3.194   4.754  0.5789  1.8242 -0.5416
 9189SOL    HW239204   0.243   3.331   4.764 -0.3660  0.5284  1.1925
 9190SOL     OW39205   4.329   4.232   6.236  0.3618 -0.5158  0.7131
 9190SOL    HW139206   4.308   4.192   6.320 -0.2605  1.5792  1.5337
 9190SOL    HW239207   4.282   4.316   6.234  0.4202 -0.5364 -2.2038
 9191SOL     OW39208   4.293   0.655  12.357 -0.2951  0.0385 -0.2288
 9191SOL    HW139209   4.292   0.739  12.312  0.1237  0.8470  1.2652
 9191SOL    HW239210   4.379   0.622  12.329  1.0839  1.6827  2.0739
 9192SOL     OW39211   2.574   2.253   4.927 -0.4436 -0.2866 -0.5341
 9192SOL    HW139212   2.518   2.229   5.001 -0.5819  1.1076 -0.1801
 9192SOL    HW239213   2.647   2.192   4.939 -0.1108 -0.1258 -1.7212
 9193SOL     OW39214   3.266   4.341  17.243 -0.5455 -0.2025  0.2298
 9193SOL    HW139215   3.322   4.312  17.171 -0.4356  1.6474 -0.4444
 9193SOL    HW239216   3.190   4.288  17.220  0.5890 -1.6744 -0.1144
 9194SOL     OW39217   3.979   3.954   6.838 -0.2002 -0.0005 -0.9590
 9194SOL    HW139218   3.958   4.046   6.855  2.0187  0.4607 -0.6934
 9194SOL    HW239219   3.897   3.924   6.798 -0.9671 -0.5294  1.0246
 9195SOL     OW39220   0.238   4.236  11.821 -0.5908 -0.4301  0.2146
 9195SOL    HW139221   0.260   4.297  11.890  0.7834  0.9023 -1.4042
 9195SOL    HW239222   0.281   4.152  11.839 -1.7609 -1.1171 -0.1506
 9196SOL     OW39223   3.646   2.614   6.634  0.2956 -0.4929 -0.1813
 9196SOL    HW139224   3.721   2.653   6.679 -1.0070  0.9887  0.7171
 9196SOL    HW239225   3.685   2.560   6.565 -1.8613  0.6768 -2.3254
 9197SOL     OW39226   4.532   0.773   3.186 -0.3070  0.2648 -0.0596
 9197SOL    HW139227   4.614   0.727   3.202  0.0669  1.1117  0.5071
 9197SOL    HW239228   4.559   0.865   3.193  0.5488 -0.1388  1.9385
 9198SOL     OW39229   2.721   3.289   1.935  0.1297 -0.1629  0.2477
 9198SOL    HW139230   2.754   3.379   1.934 -1.0925  0.2624 -0.5687
 9198SOL    HW239231   2.778   3.248   2.000  1.5950  1.3135 -0.0867
 9199SOL     OW39232   2.146   1.928  13.184  0.4681  0.2775  0.1926
 9199SOL    HW139233   2.058   1.905  13.155  0.5098 -1.3757  1.3505
 9199SOL    HW239234   2.152   1.871  13.261  2.5242 -0.1321 -0.2675
 9200SOL     OW39235   1.869   4.049   9.965  0.0758 -0.0608  0.2169
 9200SOL    HW139236   1.924   3.977   9.995 -2.3405 -1.8317  0.4014
 9200SOL    HW239237   1.796   4.034  10.025 -1.7992 -1.4239 -2.4149
 9201SOL     OW39238   0.149   3.574   3.006 -0.2274 -0.0276 -0.3062
 9201SOL    HW139239   0.173   3.633   2.935  0.6179 -1.7400 -1.4324
 9201SOL    HW239240   0.056   3.560   2.989 -0.0179 -1.0804 -0.6152
 9202SOL     OW39241   2.050   3.311   1.893 -0.6015  0.0256 -0.0762
 9202SOL    HW139242   2.112   3.341   1.960 -0.0309 -1.7779  0.2057
 9202SOL    HW239243   2.093   3.284   1.812  0.5739  1.0477  0.2234
 9203SOL     OW39244   2.610   4.238   1.871  0.8168  0.4939 -0.2009
 9203SOL    HW139245   2.541   4.210   1.809  1.3378 -0.8614 -0.1645
 9203SOL    HW239246   2.681   4.184   1.836 -0.4576 -1.4378  0.2076
 9204SOL     OW39247   1.065   2.361   4.838 -0.0808 -0.6083  0.4401
 9204SOL    HW139248   1.118   2.423   4.889  2.3236 -2.4289  0.1461
 9204SOL    HW239249   1.076   2.277   4.882  0.4662 -1.4125 -1.2191
 9205SOL     OW39250   3.366   1.174   7.976 -0.3357  0.0447 -0.9911
 9205SOL    HW139251   3.402   1.180   7.887 -1.8560  0.9660 -1.5604
 9205SOL    HW239252   3.306   1.100   7.973 -0.1760 -0.1148  0.0318
 9206SOL     OW39253   3.248   4.203   4.872  0.4769 -0.3651 -0.6105
 9206SOL    HW139254   3.173   4.210   4.931  2.9687  1.1642  2.3716
 9206SOL    HW239255   3.204   4.242   4.796 -0.6677 -0.2760  0.1002
 9207SOL     OW39256   3.384   3.922  15.716  0.1626  0.3700  0.1268
 9207SOL    HW139257   3.390   3.835  15.676 -2.3111 -0.7669  2.1882
 9207SOL    HW239258   3.423   3.899  15.800  1.2996  2.0544  0.0566
 9208SOL     OW39259   0.014   2.956  13.327  0.3801 -0.3555  0.8736
 9208SOL    HW139260   0.092   2.936  13.378  1.8155 -1.8021 -1.8823
 9208SOL    HW239261   4.683   2.967  13.389 -0.4568  1.9514 -0.4886
 9209SOL     OW39262   2.529   2.809   6.463  0.4063 -0.5273 -0.5860
 9209SOL    HW139263   2.438   2.781   6.472  0.7497 -1.6335 -0.6011
 9209SOL    HW239264   2.563   2.773   6.381  3.0207  1.9977 -0.5883
 9210SOL     OW39265   0.264   4.581   5.558  0.0136  0.0589 -0.5853
 9210SOL    HW139266   0.326   4.634   5.508  1.0345 -1.6403 -1.1406
 9210SOL    HW239267   0.299   4.607   5.644  2.7073 -0.1366 -1.6196
 9211SOL     OW39268   2.483   4.269   3.904 -0.2170  0.4668  0.4110
 9211SOL    HW139269   2.514   4.352   3.940  0.1303  0.8943 -0.8774
 9211SOL    HW239270   2.503   4.293   3.814 -2.0224  1.7308  0.3510
 9212SOL     OW39271   0.112   4.155   4.819  0.5128  0.4166  0.4342
 9212SOL    HW139272   0.205   4.163   4.841  0.8912  0.7837 -1.2444
 9212SOL    HW239273   0.073   4.136   4.904  0.2171  0.1369  0.2348
 9213SOL     OW39274   4.237   4.255   3.163 -0.2641 -0.1945  0.0803
 9213SOL    HW139275   4.321   4.300   3.157 -0.0303 -0.4131  1.9900
 9213SOL    HW239276   4.213   4.278   3.073  1.2499  0.5215 -0.1334
 9214SOL     OW39277   2.353   2.433   7.890  0.1746  0.0404  0.0803
 9214SOL    HW139278   2.434   2.386   7.870 -0.4855 -0.4728 -1.3629
 9214SOL    HW239279   2.311   2.421   7.805  0.8791  0.9956 -0.3980
 9215SOL     OW39280   4.028   1.066   4.399  0.3841  0.0411 -0.2381
 9215SOL    HW139281   4.030   1.022   4.314  0.3991 -2.8730  1.2793
 9215SOL    HW239282   4.095   1.020   4.449  0.2294 -0.4480 -0.4787
 9216SOL     OW39283   2.647   2.721  13.023 -0.3385  0.4042 -0.3074
 9216SOL    HW139284   2.633   2.737  13.117 -1.0927  0.4976 -0.4323
 9216SOL    HW239285   2.584   2.784  12.987 -1.0222 -2.6031 -4.2442
 9217SOL     OW39286   1.584   0.411   5.910 -0.1788 -0.2924  0.3437
 9217SOL    HW139287   1.595   0.428   5.816  1.0106  1.6755  0.8473
 9217SOL    HW239288   1.556   0.495   5.947  0.8679  0.1317  0.1784
 9218SOL     OW39289   3.355   4.600  12.774  0.2453 -0.5170  0.2819
 9218SOL    HW139290   3.277   4.654  12.785  0.0946 -0.4752 -1.0019
 9218SOL    HW239291   3.378   4.634  12.688  0.4085  1.6211  1.1723
 9219SOL     OW39292   0.642   0.948   5.274  0.1506  0.2977  0.2378
 9219SOL    HW139293   0.661   1.039   5.253 -1.7434  0.4156 -0.9846
 9219SOL    HW239294   0.622   0.906   5.191 -1.6360  0.1625  0.7302
 9220SOL     OW39295   4.107   4.196   5.528 -0.3169  0.4805 -0.0214
 9220SOL    HW139296   4.133   4.287   5.513 -1.2372  0.3761 -2.2258
 9220SOL    HW239297   4.194   4.157   5.517 -1.4842 -2.7128  2.0036
 9221SOL     OW39298   0.560   2.429   3.416  0.2861 -0.4477  0.1032
 9221SOL    HW139299   0.573   2.365   3.486 -1.2640 -1.4258 -0.4983
 9221SOL    HW239300   0.650   2.454   3.395  0.5517 -1.6760 -0.2449
 9222SOL     OW39301   0.777   2.570   3.254 -0.2396 -0.0383  0.6812
 9222SOL    HW139302   0.858   2.610   3.222 -0.0795 -0.3465  0.6954
 9222SOL    HW239303   0.779   2.595   3.346  0.0825  0.9207  0.4050
 9223SOL     OW39304   0.490   3.021   5.136  0.1715  0.3340 -0.2670
 9223SOL    HW139305   0.469   2.928   5.151  1.0570  0.2742  0.5928
 9223SOL    HW239306   0.468   3.070   5.215  1.2451 -1.9721  1.4713
 9224SOL     OW39307   1.233   1.519   2.295  0.1966  0.3034  0.3396
 9224SOL    HW139308   1.269   1.500   2.208  1.0098  1.1740  0.4918
 9224SOL    HW239309   1.174   1.589   2.268 -1.1172 -0.8560  0.2180
 9225SOL     OW39310   4.460   3.330   4.730 -0.2257  0.2258  0.2098
 9225SOL    HW139311   4.512   3.296   4.657 -0.3887 -1.9276  1.0761
 9225SOL    HW239312   4.386   3.269   4.723 -0.0774  0.2596 -1.6422
 9226SOL     OW39313   4.035   2.239   8.783 -0.1381  0.5395 -0.2975
 9226SOL    HW139314   3.972   2.239   8.855  0.8913 -0.8193  0.5975
 9226SOL    HW239315   4.043   2.334   8.779  0.2605  0.5597  1.1363
 9227SOL     OW39316   4.667   1.568   0.739  0.2502 -0.1347  0.5417
 9227SOL    HW139317   4.681   1.503   0.808 -4.5872 -0.9702  0.7834
 9227SOL    HW239318   4.584   1.541   0.699  1.1357 -1.5586 -0.3101
 9228SOL     OW39319   4.324   2.802   2.455  0.2406  0.2218 -0.4351
 9228SOL    HW139320   4.396   2.741   2.437 -0.6134 -0.5138 -1.2915
 9228SOL    HW239321   4.373   2.884   2.450 -1.3059  1.2110  0.5205
 9229SOL     OW39322   1.104   2.757   4.925 -0.3544 -0.3321 -0.3214
 9229SOL    HW139323   1.044   2.719   4.860 -0.6202  2.2292 -1.5677
 9229SOL    HW239324   1.032   2.799   4.973  0.5366 -0.4588  1.1280
 9230SOL     OW39325   4.108   4.217   4.451  0.2374 -0.0755  0.2194
 9230SOL    HW139326   4.084   4.270   4.526 -0.7514 -1.3847  0.8423
 9230SOL    HW239327   4.164   4.143   4.476 -1.4912 -1.8460 -1.1398
 9231SOL     OW39328   0.510   1.553   9.016 -0.2827 -0.2947 -0.1934
 9231SOL    HW139329   0.583   1.547   9.079  0.3286  1.1589 -0.7724
 9231SOL    HW239330   0.445   1.512   9.074 -0.6777  0.9551  0.2323
 9232SOL     OW39331   3.474   0.728  12.319  0.1487 -0.8057  0.5743
 9232SOL    HW139332   3.562   0.690  12.314  0.7613  0.4848  1.5951
 9232SOL    HW239333   3.490   0.822  12.320 -1.7828 -0.4771  0.8813
 9233SOL     OW39334   3.753   3.874   8.280  0.4330 -0.1443 -0.2447
 9233SOL    HW139335   3.842   3.861   8.311 -0.1500 -0.7304  1.1761
 9233SOL    HW239336   3.710   3.841   8.359 -0.2174 -0.2955 -0.6557
 9234SOL     OW39337   1.264   3.561   5.626  0.4265 -0.5597  0.0014
 9234SOL    HW139338   1.189   3.534   5.679  0.8872 -2.0394 -0.0916
 9234SOL    HW239339   1.246   3.500   5.554 -1.5052 -0.5952  0.5360
 9235SOL     OW39340   2.383   1.885   8.398 -0.4501  0.3065  0.2004
 9235SOL    HW139341   2.432   1.808   8.369  0.0635  0.0644  1.6777
 9235SOL    HW239342   2.434   1.954   8.355 -0.2708 -0.7704 -1.3158
 9236SOL     OW39343   3.322   4.083   1.262  0.0026  0.3057 -0.6789
 9236SOL    HW139344   3.259   4.109   1.195  0.1809 -1.8488 -1.6983
 9236SOL    HW239345   3.407   4.117   1.234  0.4522  1.3745  1.9873
 9237SOL     OW39346   4.551   3.008   3.581  0.5605  0.2726  0.3541
 9237SOL    HW139347   4.535   2.914   3.581 -0.2854  0.4175  0.9694
 9237SOL    HW239348   4.569   3.008   3.487  1.0405  0.4099  0.4473
 9238SOL     OW39349   0.874   2.924   0.173  0.2228  0.2326  0.3257
 9238SOL    HW139350   0.908   2.834   0.174  2.3477  1.0529  1.5371
 9238SOL    HW239351   0.961   2.962   0.169 -0.4490  1.6446 -0.9734
 9239SOL     OW39352   3.613   3.002   8.679 -0.2678 -0.3318  0.6292
 9239SOL    HW139353   3.580   2.917   8.709 -1.4656 -0.1784 -0.2482
 9239SOL    HW239354   3.563   3.022   8.600  1.1904 -2.1229 -0.7429
 9240SOL     OW39355   2.679   3.418   2.293  0.4756  0.3459  0.5196
 9240SOL    HW139356   2.598   3.467   2.280  0.3228 -0.0134  0.1258
 9240SOL    HW239357   2.655   3.331   2.260  2.2623  0.4251 -0.9842
 9241SOL     OW39358   0.875   4.533   7.693  0.1859 -0.7470  0.1083
 9241SOL    HW139359   0.883   4.611   7.747 -1.0571 -0.9443  0.5685
 9241SOL    HW239360   0.779   4.533   7.690  0.1501 -1.9628  1.3002
 9242SOL     OW39361   0.450   0.484  10.695  0.4950 -0.0459 -0.0475
 9242SOL    HW139362   0.461   0.578  10.681 -0.0295  0.4203  2.7235
 9242SOL    HW239363   0.528   0.458  10.744  0.5112  0.5634  0.2471
 9243SOL     OW39364   0.780   1.189   7.963 -0.5684  0.1309  0.5143
 9243SOL    HW139365   0.779   1.189   7.867  1.3456  1.3174  0.4833
 9243SOL    HW239366   0.708   1.128   7.974  0.4638 -1.0668  0.6195
 9244SOL     OW39367   3.912   1.020   6.606 -0.1825  0.2698  0.7597
 9244SOL    HW139368   3.920   1.114   6.586  2.2462  0.3645  2.1027
 9244SOL    HW239369   3.922   0.984   6.518  1.3272 -1.3115  1.5854
 9245SOL     OW39370   1.964   3.804   4.920  0.2564  0.0885 -0.2475
 9245SOL    HW139371   2.050   3.774   4.890  0.5266  2.2564 -1.6065
 9245SOL    HW239372   1.978   3.786   5.013 -0.3825 -1.2986 -0.4156
 9246SOL     OW39373   0.523   0.472  12.435  0.0297  0.3424 -0.0100
 9246SOL    HW139374   0.591   0.462  12.503  0.3152 -0.7717 -0.4640
 9246SOL    HW239375   0.449   0.416  12.460  1.1780 -1.9230 -1.6501
 9247SOL     OW39376   3.776   2.788   9.603 -0.0247 -0.3919  0.3015
 9247SOL    HW139377   3.844   2.789   9.536  0.5356 -0.1867  0.8704
 9247SOL    HW239378   3.818   2.744   9.678  2.7619 -0.4330 -1.2908
 9248SOL     OW39379   1.922   3.731   9.436 -0.0840 -0.0044  0.0582
 9248SOL    HW139380   1.920   3.637   9.420 -1.7159 -0.3659  2.3674
 9248SOL    HW239381   1.837   3.756   9.472 -1.0808 -1.8181 -1.0555
 9249SOL     OW39382   3.354   2.265  17.138  0.1750  0.4681  0.1394
 9249SOL    HW139383   3.280   2.204  17.134  0.5969  0.0082 -0.6605
 9249SOL    HW239384   3.428   2.223  17.181 -1.2358 -0.5294  1.5666
 9250SOL     OW39385   0.797   4.493   7.406  0.3618  0.4327  0.5567
 9250SOL    HW139386   0.831   4.466   7.492  1.5384 -0.3988 -0.1802
 9250SOL    HW239387   0.872   4.545   7.378  0.0050 -1.0068 -2.9816
 9251SOL     OW39388   1.107   3.417  17.743  0.2888 -0.0062  0.1372
 9251SOL    HW139389   1.151   3.444  17.663  2.9901 -1.8786  1.0137
 9251SOL    HW239390   1.060   3.496   0.010  0.3650  0.9472 -2.4665
 9252SOL     OW39391   1.650   2.075  14.689 -0.2449 -0.1667 -0.5440
 9252SOL    HW139392   1.744   2.054  14.689 -0.1287  0.3412 -0.6501
 9252SOL    HW239393   1.654   2.169  14.707  2.0645 -0.4814  0.5516
 9253SOL     OW39394   3.003   0.512   8.732  0.0447  0.1196 -0.2507
 9253SOL    HW139395   3.003   0.597   8.689 -0.7247  0.3889  0.2845
 9253SOL    HW239396   2.910   0.495   8.746  0.1920 -0.9485 -0.5542
 9254SOL     OW39397   3.408   2.161   7.780  0.3320  0.3941 -0.3347
 9254SOL    HW139398   3.451   2.235   7.738  2.2922 -0.0341  0.9290
 9254SOL    HW239399   3.429   2.084   7.729  0.2501 -0.8932  1.5810
 9255SOL     OW39400   3.324   1.166  15.229 -0.2939 -0.3532  0.3933
 9255SOL    HW139401   3.397   1.104  15.225  0.5703  0.8136 -1.7683
 9255SOL    HW239402   3.355   1.225  15.299 -0.2459 -0.2987  0.3262
 9256SOL     OW39403   2.666   0.960   2.547  0.1046  0.4592  0.1085
 9256SOL    HW139404   2.641   1.012   2.470  3.5960  1.1255 -0.5794
 9256SOL    HW239405   2.592   0.900   2.548  1.2108 -0.9155 -0.8891
 9257SOL     OW39406   1.287   2.359  17.157 -0.0733  0.3508  0.6159
 9257SOL    HW139407   1.252   2.273  17.179  0.4091 -0.3077 -1.2364
 9257SOL    HW239408   1.348   2.364  17.230  0.5314 -0.2065  0.1474
 9258SOL     OW39409   1.361   4.592   6.790  0.0306  0.2112  0.3619
 9258SOL    HW139410   1.283   4.608   6.843  0.2232 -0.2534  0.7756
 9258SOL    HW239411   1.413   4.553   6.860  2.2305  0.6365 -1.0283
 9259SOL     OW39412   4.518   3.131   9.933  0.4852 -0.3797  0.0535
 9259SOL    HW139413   4.599   3.175   9.961  0.5166 -0.4126  0.0147
 9259SOL    HW239414   4.501   3.086  10.016 -1.1588  0.2397  0.0408
 9260SOL     OW39415   2.364   0.799   2.973 -0.5148 -0.3459  0.2739
 9260SOL    HW139416   2.325   0.867   2.919 -1.4561 -0.6088  0.6075
 9260SOL    HW239417   2.291   0.784   3.034 -0.7872  1.0534  0.2891
 9261SOL     OW39418   3.815   4.699   6.203  0.9459  0.8481  0.3495
 9261SOL    HW139419   3.732   0.001   6.226  0.6057 -0.0203  0.7325
 9261SOL    HW239420   3.869   0.011   6.262  0.4142  0.7146  0.9643
 9262SOL     OW39421   3.567   0.611   8.827 -0.4246 -0.2338 -0.1065
 9262SOL    HW139422   3.477   0.599   8.798 -0.2720 -1.9255  0.1136
 9262SOL    HW239423   3.589   0.681   8.766 -0.7937 -1.4955 -1.7059
 9263SOL     OW39424   0.201   3.245   6.758 -0.3117 -0.6983  0.5660
 9263SOL    HW139425   0.214   3.314   6.692  0.9857 -1.6042 -0.1197
 9263SOL    HW239426   0.208   3.296   6.838  1.6930  0.9145 -0.6332
 9264SOL     OW39427   3.447   1.831   1.965 -0.4276  0.1140 -0.1205
 9264SOL    HW139428   3.360   1.795   1.985 -0.7496  0.5315 -0.7613
 9264SOL    HW239429   3.435   1.925   1.947 -0.5658 -0.0458 -0.8537
 9265SOL     OW39430   3.531   1.910   1.157  0.2423 -0.2072 -0.0127
 9265SOL    HW139431   3.559   1.913   1.248 -0.9237  0.6752  0.3167
 9265SOL    HW239432   3.561   1.825   1.125 -0.2845 -0.2617 -0.3661
 9266SOL     OW39433   1.207   3.948  17.731  0.4188 -0.2689  0.1058
 9266SOL    HW139434   1.148   3.942  17.656  1.4920 -2.6521 -0.5329
 9266SOL    HW239435   1.215   4.042  17.717  0.9668 -0.2768  0.3590
 9267SOL     OW39436   0.549   1.807  17.017  0.1847  0.3710 -0.2940
 9267SOL    HW139437   0.572   1.900  17.012  0.1402  0.3621 -0.7246
 9267SOL    HW239438   0.473   1.807  16.959  0.1629 -0.5766 -0.2753
 9268SOL     OW39439   4.410   2.660   8.857  0.2151  0.3385  0.3418
 9268SOL    HW139440   4.394   2.751   8.834 -1.4792 -0.3683 -1.2911
 9268SOL    HW239441   4.489   2.641   8.806  0.5018 -1.2471  1.3645
 9269SOL     OW39442   3.989   0.102   4.879 -0.4071  0.3400  0.4012
 9269SOL    HW139443   4.069   0.052   4.863 -0.4210  0.0587  1.2140
 9269SOL    HW239444   3.925   0.047   4.834 -0.0300 -1.8835  2.5979
 9270SOL     OW39445   3.141   1.404   1.454 -0.3644 -0.4477  0.2107
 9270SOL    HW139446   3.202   1.347   1.502  1.1918  0.8856 -0.1679
 9270SOL    HW239447   3.157   1.487   1.500  0.2041 -0.3891 -0.0929
 9271SOL     OW39448   4.740   4.576   3.133  0.1805  0.6419  0.2468
 9271SOL    HW139449   4.691   4.656   3.145 -1.8643 -0.8537  1.8981
 9271SOL    HW239450   0.056   4.592   3.209  0.8766 -0.2697 -0.0732
 9272SOL     OW39451   1.921   2.985   3.991 -0.6230  0.1143  0.1694
 9272SOL    HW139452   1.918   2.955   3.900  0.3751  1.9323 -0.4605
 9272SOL    HW239453   1.896   3.077   3.981  0.4908  0.3330 -0.6408
 9273SOL     OW39454   3.210   0.996   1.055 -0.3548 -0.3672  0.1220
 9273SOL    HW139455   3.201   1.057   1.129 -0.3732 -1.6489  1.1858
 9273SOL    HW239456   3.235   1.054   0.984 -0.4566 -0.5429 -0.0559
 9274SOL     OW39457   1.229   4.195   2.421  0.3131  0.3713 -0.1299
 9274SOL    HW139458   1.226   4.218   2.514  2.3130 -0.3501  0.1218
 9274SOL    HW239459   1.318   4.226   2.405  0.0698  0.9228 -0.4059
 9275SOL     OW39460   2.032   1.431   7.242  0.2917  0.3489 -0.4856
 9275SOL    HW139461   1.940   1.409   7.257  0.7481 -0.4588  1.1553
 9275SOL    HW239462   2.050   1.491   7.314 -1.2312 -0.5469  0.6444
 9276SOL     OW39463   2.479   0.435   6.945 -0.1196  0.2577 -0.1390
 9276SOL    HW139464   2.412   0.422   6.878  0.5826 -1.3706 -0.5436
 9276SOL    HW239465   2.551   0.459   6.886 -1.1247  2.2431 -0.5463
 9277SOL     OW39466   2.433   3.575  16.208  0.1362  0.9954 -0.6354
 9277SOL    HW139467   2.456   3.600  16.297 -1.5695  1.2372 -0.2550
 9277SOL    HW239468   2.457   3.656  16.162 -0.2750  0.5863 -1.5722
 9278SOL     OW39469   0.808   2.921   0.460 -0.8272 -0.3594  0.2769
 9278SOL    HW139470   0.824   2.935   0.554  1.9335  1.9433 -0.5146
 9278SOL    HW239471   0.838   3.000   0.415  1.7169 -2.0718 -1.0605
 9279SOL     OW39472   1.651   0.053  15.072 -0.0808 -0.7222  0.2046
 9279SOL    HW139473   1.607   4.721  15.114 -0.3472 -0.5745  0.1794
 9279SOL    HW239474   1.713   0.086  15.137 -0.4751  0.8998 -0.2344
 9280SOL     OW39475   2.040   0.562   8.801  0.2173 -1.2164  0.4303
 9280SOL    HW139476   2.033   0.564   8.705  0.2970 -0.7962  0.4327
 9280SOL    HW239477   1.951   0.587   8.827 -0.3301 -0.0841 -2.5535
 9281SOL     OW39478   4.219   1.893  12.123  0.4642 -0.6822  0.2361
 9281SOL    HW139479   4.141   1.838  12.131  0.4686 -1.1032 -2.7741
 9281SOL    HW239480   4.169   1.975  12.118 -0.0267 -1.0005 -0.0693
 9282SOL     OW39481   4.585   2.371   4.076 -0.1180 -0.3116 -0.7836
 9282SOL    HW139482   4.549   2.429   4.143  1.9804  0.8293 -0.6752
 9282SOL    HW239483   4.625   2.437   4.021 -1.4367  1.2663  0.1373
 9283SOL     OW39484   1.475   0.186   4.785  0.0102  0.0499  0.0785
 9283SOL    HW139485   1.547   0.228   4.738 -0.0271  0.1093  0.0749
 9283SOL    HW239486   1.507   0.180   4.875 -0.9293 -2.1572  0.2651
 9284SOL     OW39487   3.761   0.926  16.762  0.2236  0.2667  0.5218
 9284SOL    HW139488   3.712   0.870  16.821  0.8602  0.2539  1.0330
 9284SOL    HW239489   3.705   1.004  16.765 -0.9621 -0.4758 -1.7795
 9285SOL     OW39490   4.094   4.335   0.821  0.2174 -0.3642  0.3383
 9285SOL    HW139491   4.106   4.414   0.768  0.0623 -1.2767 -1.0658
 9285SOL    HW239492   4.138   4.368   0.900 -2.8112  0.7676  1.5715
 9286SOL     OW39493   4.297   3.528   7.800  0.0538 -0.1476 -0.2729
 9286SOL    HW139494   4.262   3.558   7.715 -1.0926  1.3791  0.7370
 9286SOL    HW239495   4.319   3.606   7.851  0.0985  0.3710 -1.0723
 9287SOL     OW39496   3.185   3.861   2.298 -0.4304 -0.0799 -0.5930
 9287SOL    HW139497   3.194   3.860   2.393  2.5122 -1.6291 -0.8913
 9287SOL    HW239498   3.257   3.807   2.266  0.3798  0.5378  0.1964
 9288SOL     OW39499   0.445   3.802  12.629  0.0253  0.1532  0.3688
 9288SOL    HW139500   0.399   3.725  12.663 -0.6915  1.3809  2.1888
 9288SOL    HW239501   0.532   3.791  12.669 -0.5516  0.2842  1.6698
 9289SOL     OW39502   2.029   0.741   4.195 -0.0248  0.6189 -0.4393
 9289SOL    HW139503   2.083   0.776   4.124  0.9837 -0.3067 -0.1406
 9289SOL    HW239504   1.958   0.711   4.139  0.4335 -1.9584  0.3616
 9290SOL     OW39505   4.526   1.429  13.113  0.1695  0.3499  0.3136
 9290SOL    HW139506   4.536   1.337  13.140 -1.0880  0.5698  1.5448
 9290SOL    HW239507   4.556   1.425  13.023  1.4038  0.2631  0.7214
 9291SOL     OW39508   1.891   1.478   7.901  0.4331 -0.5215  0.0455
 9291SOL    HW139509   1.905   1.452   7.811 -1.2098  1.3586 -0.7689
 9291SOL    HW239510   1.935   1.563   7.902 -2.4099  0.9784  2.1117
 9292SOL     OW39511   3.306   2.803   6.991  0.8516 -0.1119 -0.3267
 9292SOL    HW139512   3.332   2.730   6.936 -1.5191 -1.0149 -0.2520
 9292SOL    HW239513   3.316   2.757   7.074  0.3925  0.2558 -0.0648
 9293SOL     OW39514   1.697   0.819  17.553 -0.8312  0.3644  0.4229
 9293SOL    HW139515   1.753   0.838  17.478 -1.1121  0.1373  0.1555
 9293SOL    HW239516   1.752   0.840  17.629  0.4892  0.2233 -0.5070
 9294SOL     OW39517   4.289   0.939   8.623  0.5487 -0.3767 -0.1018
 9294SOL    HW139518   4.198   0.934   8.654  0.1810 -1.2862 -1.3212
 9294SOL    HW239519   4.318   1.029   8.631 -0.7650 -0.0086  0.4766
 9295SOL     OW39520   2.662   4.734   4.946 -0.3221  0.2123 -0.1005
 9295SOL    HW139521   2.698   0.079   4.924  1.2997 -0.5499 -0.4290
 9295SOL    HW239522   2.737   4.693   4.988 -0.3732  1.1447  0.9366
 9296SOL     OW39523   0.492   0.410   7.541  0.2049  0.0064 -0.6973
 9296SOL    HW139524   0.505   0.487   7.595 -3.3427 -0.9471  1.5735
 9296SOL    HW239525   0.585   0.387   7.536  0.3752  0.1973  1.6182
 9297SOL     OW39526   1.030   4.459  12.026  0.1480  0.1056 -0.0163
 9297SOL    HW139527   1.125   4.460  12.040  0.1557  1.0622 -0.1238
 9297SOL    HW239528   1.030   4.422  11.937 -2.0810 -0.0881  0.0796
 9298SOL     OW39529   2.666   0.880  12.924 -0.0442 -0.1441 -0.1295
 9298SOL    HW139530   2.628   0.860  13.010  0.2831 -2.9463 -0.6404
 9298SOL    HW239531   2.755   0.888  12.958 -0.1634 -0.3374  0.2274
 9299SOL     OW39532   2.424   3.054   5.116  0.0996 -0.1308 -0.2016
 9299SOL    HW139533   2.495   3.077   5.175 -0.7320  0.9610  0.3792
 9299SOL    HW239534   2.373   2.996   5.174  1.1349 -0.7832  0.0663
 9300SOL     OW39535   2.969   1.509   9.195 -0.0899  0.3071 -0.0069
 9300SOL    HW139536   2.893   1.566   9.183 -1.5401 -1.7401 -0.4067
 9300SOL    HW239537   2.971   1.504   9.291 -1.3558 -0.5402 -0.0309
 9301SOL     OW39538   1.464   4.287   2.335  0.1853  0.2055 -0.1107
 9301SOL    HW139539   1.478   4.382   2.341  3.5314 -0.3075  0.3297
 9301SOL    HW239540   1.456   4.285   2.239 -1.1812 -0.7547  0.0312
 9302SOL     OW39541   0.479   2.728   7.401 -0.1126  0.2334  0.0714
 9302SOL    HW139542   0.556   2.763   7.445 -1.1581 -0.2245  2.2435
 9302SOL    HW239543   0.489   2.747   7.308 -1.4092  2.1460  0.3216
 9303SOL     OW39544   0.415   0.672   3.542  0.0414  0.2814 -0.3956
 9303SOL    HW139545   0.408   0.641   3.632 -0.2695 -1.5607 -1.0475
 9303SOL    HW239546   0.322   0.689   3.528 -0.4237 -1.9160  0.0544
 9304SOL     OW39547   2.525   4.226   8.326 -0.2997 -0.6271 -0.5657
 9304SOL    HW139548   2.574   4.282   8.386  0.9988  0.4647 -2.6733
 9304SOL    HW239549   2.438   4.240   8.363  0.4333 -1.0452  1.3318
 9305SOL     OW39550   1.867   4.395   8.137  0.0514  0.0728 -0.1300
 9305SOL    HW139551   1.793   4.340   8.160  1.2997 -1.1887  0.8201
 9305SOL    HW239552   1.856   4.412   8.043 -1.6005  0.6792  0.1841
 9306SOL     OW39553   0.145   1.405   3.684  0.2833 -0.1513  0.3492
 9306SOL    HW139554   0.082   1.417   3.755  1.2260  1.3597  0.9200
 9306SOL    HW239555   0.199   1.483   3.695 -2.1749  1.3054  2.0410
 9307SOL     OW39556   4.064   1.925   3.943 -0.2267 -0.5789 -0.0496
 9307SOL    HW139557   4.035   1.999   3.890 -1.1023 -0.9811 -0.1300
 9307SOL    HW239558   3.999   1.920   4.013  0.0592 -0.6473  0.2121
 9308SOL     OW39559   2.989   3.339   3.077  0.5219 -0.5674  0.3727
 9308SOL    HW139560   2.976   3.266   3.016 -0.2857  0.3737 -0.5852
 9308SOL    HW239561   2.901   3.339   3.114  0.9381 -0.1695  1.3742
 9309SOL     OW39562   3.290   3.978   5.920  0.4640  0.2046 -0.1810
 9309SOL    HW139563   3.352   3.910   5.947 -0.2891 -0.3108  0.2502
 9309SOL    HW239564   3.281   3.974   5.825 -0.8041 -0.4109 -0.0369
 9310SOL     OW39565   2.857   1.438   2.443 -0.1408  0.1208  0.7070
 9310SOL    HW139566   2.929   1.500   2.450 -2.8006  3.0560  2.0175
 9310SOL    HW239567   2.914   1.361   2.442  0.5219  0.5933  2.2959
 9311SOL     OW39568   0.331   2.642   2.805 -0.1911  0.5393  0.3954
 9311SOL    HW139569   0.305   2.728   2.836 -4.5729 -0.1757 -1.3433
 9311SOL    HW239570   0.252   2.628   2.753 -0.1543  3.5493 -0.4770
 9312SOL     OW39571   2.351   1.248   2.326 -0.1652  0.4723 -0.0524
 9312SOL    HW139572   2.386   1.268   2.412  2.7001 -1.2950 -0.8330
 9312SOL    HW239573   2.290   1.323   2.324 -1.1092 -0.2895  0.0540
 9313SOL     OW39574   2.349   1.523   2.132 -0.6446 -0.2088  0.0855
 9313SOL    HW139575   2.430   1.473   2.142 -2.1438 -2.5889  0.2773
 9313SOL    HW239576   2.288   1.495   2.200 -0.6693 -0.2239  0.0574
 9314SOL     OW39577   2.645   4.347   8.552 -0.2196 -0.1046 -0.6521
 9314SOL    HW139578   2.611   4.433   8.529  0.6981  1.0946  2.5414
 9314SOL    HW239579   2.629   4.356   8.646  0.6652  1.1092 -0.6239
 9315SOL     OW39580   2.363   1.792   8.980 -0.1822  0.0931  0.0884
 9315SOL    HW139581   2.434   1.795   8.916 -0.0697  2.4245  0.3125
 9315SOL    HW239582   2.352   1.698   8.990 -1.1790  0.3775  1.7550
 9316SOL     OW39583   3.134   1.520  14.510 -0.2674  0.2095 -0.4168
 9316SOL    HW139584   3.138   1.523  14.605 -1.7308  0.8950 -0.3818
 9316SOL    HW239585   3.044   1.500  14.486  0.0462 -1.0265 -0.5421
 9317SOL     OW39586   3.095   3.368  12.421  0.3660  0.0701  0.0594
 9317SOL    HW139587   3.156   3.429  12.462  0.3590  0.0744  0.0637
 9317SOL    HW239588   3.156   3.339  12.352  0.9050  1.0535  0.1246
 9318SOL     OW39589   4.405   0.034   4.926  0.0977 -0.5576 -0.0158
 9318SOL    HW139590   4.322   0.000   4.892  0.2989 -1.3666  0.2869
 9318SOL    HW239591   4.456   0.047   4.846 -0.5615 -1.1927 -0.5308
 9319SOL     OW39592   4.270   0.655   1.950  0.6345 -0.2576  0.0712
 9319SOL    HW139593   4.250   0.586   1.887  2.2556 -0.9513  0.3152
 9319SOL    HW239594   4.218   0.635   2.027 -1.6869  2.2919 -0.8323
 9320SOL     OW39595   1.657   3.130   0.140 -0.5021 -0.2272 -0.2720
 9320SOL    HW139596   1.672   3.173   0.056 -2.2795 -1.4437 -1.2149
 9320SOL    HW239597   1.633   3.041   0.112  0.1571  0.0540 -1.6974
 9321SOL     OW39598   0.280   3.340   7.330  0.3743  0.0865  0.5687
 9321SOL    HW139599   0.326   3.405   7.277 -1.2969  1.2936  0.5887
 9321SOL    HW239600   0.195   3.339   7.287 -0.2569  0.1067  1.8083
 9322SOL     OW39601   3.096   0.557   2.218  0.6362  0.5888  0.0596
 9322SOL    HW139602   3.099   0.462   2.219  0.5769  0.5928  0.6937
 9322SOL    HW239603   3.077   0.583   2.308 -2.5261 -3.5234  0.5414
 9323SOL     OW39604   3.509   3.101  15.987 -0.0517 -0.4015  0.0442
 9323SOL    HW139605   3.520   3.142  16.073  0.5486  0.6205 -0.5124
 9323SOL    HW239606   3.599   3.067  15.986 -0.6444 -1.9048 -0.6488
 9324SOL     OW39607   0.735   3.261  17.265  0.3002 -0.1098 -0.2763
 9324SOL    HW139608   0.750   3.325  17.334 -1.4434 -1.2771  1.1858
 9324SOL    HW239609   0.787   3.306  17.199  1.4887  1.5268  1.7894
 9325SOL     OW39610   4.080   3.783  15.465  0.2619  0.6799  0.8987
 9325SOL    HW139611   4.055   3.862  15.416 -0.3676  0.4053  0.7821
 9325SOL    HW239612   4.002   3.778  15.521  0.7190  0.8437  1.5530
 9326SOL     OW39613   2.573   1.276  12.442  0.3621  0.1814  0.3043
 9326SOL    HW139614   2.654   1.230  12.420 -0.4256  0.1316 -2.5924
 9326SOL    HW239615   2.574   1.341  12.371 -0.0738 -0.2126 -0.0696
 9327SOL     OW39616   3.724   3.603   7.294 -0.0590  0.0384 -0.0975
 9327SOL    HW139617   3.706   3.614   7.388 -1.8209  0.5732 -0.4980
 9327SOL    HW239618   3.773   3.521   7.287 -0.7900 -0.3792 -0.2694
 9328SOL     OW39619   1.702   1.203   3.415  0.2228  0.1758 -0.1410
 9328SOL    HW139620   1.775   1.157   3.458 -0.5109 -1.4494 -0.6278
 9328SOL    HW239621   1.729   1.294   3.418  2.1611 -0.3820 -0.3934
 9329SOL     OW39622   3.697   0.141  14.719  0.0012  0.2434  0.2666
 9329SOL    HW139623   3.784   0.176  14.704  0.5864 -0.4675  1.9790
 9329SOL    HW239624   3.700   0.130  14.814  1.1154 -1.7436  0.0036
 9330SOL     OW39625   2.343   3.527   8.035 -0.1299 -0.0925 -0.4839
 9330SOL    HW139626   2.361   3.621   8.025  0.4038 -0.1961 -0.5372
 9330SOL    HW239627   2.362   3.503   8.126 -0.5327  0.8415 -0.1473
 9331SOL     OW39628   2.050   3.565  17.019  0.1474 -0.0536 -0.4261
 9331SOL    HW139629   2.030   3.655  16.993 -1.6497 -0.9685 -2.2519
 9331SOL    HW239630   2.140   3.571  17.052 -0.0335  0.1244  0.0453
 9332SOL     OW39631   0.769   4.372   6.576  0.2606 -0.1714  0.2503
 9332SOL    HW139632   0.787   4.427   6.500 -0.0336 -1.9047 -1.0618
 9332SOL    HW239633   0.675   4.360   6.563  0.4775 -1.9127  0.3294
 9333SOL     OW39634   1.886   3.968   7.490 -0.3953  0.0564 -0.2143
 9333SOL    HW139635   1.872   3.956   7.584  2.8697 -0.2275  0.2336
 9333SOL    HW239636   1.913   3.879   7.464 -0.8131  0.4360 -1.9699
 9334SOL     OW39637   2.574   3.540  11.638 -0.1776  0.1088  0.5386
 9334SOL    HW139638   2.493   3.591  11.645 -0.8578 -0.6239 -1.8220
 9334SOL    HW239639   2.633   3.584  11.577  0.9284 -0.6866  1.0229
 9335SOL     OW39640   4.080   0.293   5.271  0.3391  0.7206  0.4665
 9335SOL    HW139641   4.007   0.274   5.212 -0.3887  1.9600  0.9784
 9335SOL    HW239642   4.155   0.255   5.226 -0.2548 -1.6556  1.4357
 9336SOL     OW39643   3.584   3.500  16.602 -0.0717  0.2591  0.0857
 9336SOL    HW139644   3.523   3.521  16.674 -0.2058 -0.0459  0.0596
 9336SOL    HW239645   3.615   3.411  16.621  1.6843  0.8037 -0.2732
 9337SOL     OW39646   1.697   0.187   7.226  0.7536 -0.4460  0.3271
 9337SOL    HW139647   1.682   0.101   7.265  1.9121  0.0969  1.9739
 9337SOL    HW239648   1.772   0.219   7.277  1.4822  1.8031 -2.0847
 9338SOL     OW39649   4.253   4.119   6.937  0.5602 -0.1447 -0.3735
 9338SOL    HW139650   4.175   4.076   6.903 -0.4513  0.2444  1.4755
 9338SOL    HW239651   4.248   4.103   7.031 -0.3555  0.1878 -0.3637
 9339SOL     OW39652   3.513   1.934   7.359 -0.0367  0.5876  0.1394
 9339SOL    HW139653   3.441   1.911   7.417 -1.5888 -0.1981 -2.1370
 9339SOL    HW239654   3.528   1.862   7.298  0.2009  0.6224  0.1574
 9340SOL     OW39655   1.058   1.037  15.499 -0.1732 -0.0133 -0.3895
 9340SOL    HW139656   1.118   0.982  15.550  0.1566 -0.9271 -1.7505
 9340SOL    HW239657   0.996   0.973  15.465 -1.6567  1.5418 -0.5527
 9341SOL     OW39658   0.729   2.663   7.275 -0.5963  0.0929 -0.4548
 9341SOL    HW139659   0.678   2.622   7.204  2.0870 -0.4192 -2.1209
 9341SOL    HW239660   0.729   2.755   7.251 -0.7675  0.2474  0.1436
 9342SOL     OW39661   1.231   0.516   2.754 -0.4066  0.6659  0.2827
 9342SOL    HW139662   1.159   0.490   2.697  1.1466 -0.6789 -1.0524
 9342SOL    HW239663   1.186   0.559   2.827 -0.8359  1.3794 -0.4016
 9343SOL     OW39664   0.968   2.246   8.275 -0.5843  0.6351  0.4401
 9343SOL    HW139665   0.890   2.192   8.266 -1.1337  1.8686 -1.9789
 9343SOL    HW239666   1.021   2.195   8.214 -2.3873  3.1371 -3.1780
 9344SOL     OW39667   2.968   0.382   1.680 -0.6630  0.6568  0.0018
 9344SOL    HW139668   2.970   0.412   1.770  2.2886  0.6476 -0.0752
 9344SOL    HW239669   2.958   0.287   1.689 -0.4985  0.9147  2.7937
 9345SOL     OW39670   3.878   4.523   8.109 -0.0428  0.3108 -0.1851
 9345SOL    HW139671   3.956   4.554   8.156 -1.2152  0.8245  1.3979
 9345SOL    HW239672   3.821   4.544   8.182  1.5698  1.1006  0.8472
 9346SOL     OW39673   3.054   0.233  15.797  0.3430  0.5596 -0.1922
 9346SOL    HW139674   2.973   0.234  15.847  1.7184  0.2521  2.0589
 9346SOL    HW239675   3.107   0.285  15.858 -0.4279  0.3174  0.6744
 9347SOL     OW39676   0.965   2.909   5.634 -0.1398  0.0935  0.0322
 9347SOL    HW139677   1.012   2.896   5.717 -0.9102  0.1970  0.4801
 9347SOL    HW239678   1.039   2.907   5.574  0.3889 -1.6819  0.7438
 9348SOL     OW39679   0.956   3.750   2.635 -0.1029  0.5823 -0.3892
 9348SOL    HW139680   0.953   3.828   2.690  1.5528  0.4025 -0.0567
 9348SOL    HW239681   0.958   3.787   2.547 -0.6157 -1.5464 -1.2954
 9349SOL     OW39682   0.678   2.876   4.161 -0.0976  0.4720  0.0129
 9349SOL    HW139683   0.659   2.968   4.145  1.2993  0.5197 -1.3782
 9349SOL    HW239684   0.637   2.831   4.088 -1.3593  1.5749  0.0554
 9350SOL     OW39685   2.034   3.710   5.182 -0.2709  0.1559 -0.4781
 9350SOL    HW139686   2.098   3.769   5.221  1.7400 -0.9679 -2.1123
 9350SOL    HW239687   2.087   3.645   5.136 -0.3866  1.4246 -2.4033
 9351SOL     OW39688   0.322   2.391   7.999 -0.0197  0.1011  0.0492
 9351SOL    HW139689   0.393   2.371   8.059  2.7472  1.2345 -2.8231
 9351SOL    HW239690   0.313   2.311   7.948  0.8568  0.3744 -0.5362
 9352SOL     OW39691   4.740   1.417   9.246 -0.1705 -0.1337 -0.2405
 9352SOL    HW139692   4.645   1.417   9.230 -0.1881  0.3935 -0.1255
 9352SOL    HW239693   0.004   1.477   9.320  1.2611 -1.8097  1.0186
 9353SOL     OW39694   2.478   0.168   2.743 -0.4579  0.0117 -0.5238
 9353SOL    HW139695   2.383   0.158   2.751 -0.4803 -0.4984 -1.4616
 9353SOL    HW239696   2.492   0.198   2.833 -0.5161  1.9502 -1.1752
 9354SOL     OW39697   4.185   3.713  14.778  0.2117 -0.3398 -0.1123
 9354SOL    HW139698   4.117   3.676  14.721 -1.1481  0.0722  1.2284
 9354SOL    HW239699   4.230   3.633  14.805  2.0833  0.7442 -0.0383
 9355SOL     OW39700   2.494   3.856   9.982  0.8043 -0.3241 -0.4261
 9355SOL    HW139701   2.447   3.790  10.035 -2.7996  0.9754 -2.0127
 9355SOL    HW239702   2.577   3.811   9.969  0.3065 -0.9695 -1.3463
 9356SOL     OW39703   1.345   4.177  16.995 -0.1986 -0.2015 -0.0478
 9356SOL    HW139704   1.275   4.124  17.032 -0.8168  2.0297  1.9892
 9356SOL    HW239705   1.409   4.114  16.962 -0.4895 -0.0731 -0.8539
 9357SOL     OW39706   4.718   3.457   1.661 -0.4623 -0.0701  0.7975
 9357SOL    HW139707   4.718   3.414   1.747 -0.4308  1.7807  1.7404
 9357SOL    HW239708   0.044   3.526   1.661 -1.8778  1.3132  1.3983
 9358SOL     OW39709   4.646   1.383   1.481 -0.1680  0.2122 -0.6140
 9358SOL    HW139710   4.564   1.373   1.530  1.9302 -0.3031  2.8106
 9358SOL    HW239711   4.623   1.408   1.392 -0.2684 -0.5196 -0.7906
 9359SOL     OW39712   2.033   1.033   2.385  0.1338  0.4007 -0.4150
 9359SOL    HW139713   1.937   1.030   2.391  0.4071 -1.4775  3.0209
 9359SOL    HW239714   2.049   0.991   2.469 -0.1167 -0.0758 -0.6049
 9360SOL     OW39715   2.644   3.969   5.282  0.1689 -0.0375  0.1050
 9360SOL    HW139716   2.617   4.015   5.203  0.8104 -2.0611 -1.3193
 9360SOL    HW239717   2.716   3.915   5.248  0.5419 -0.0917  0.9711
 9361SOL     OW39718   1.581   0.342  15.122  0.1791  0.3277  0.7733
 9361SOL    HW139719   1.597   0.252  15.094  1.4488  0.5354  0.8314
 9361SOL    HW239720   1.591   0.342  15.217 -0.9341  2.6809  0.8821
 9362SOL     OW39721   1.830   4.478   7.469 -0.1627 -0.2863  1.0278
 9362SOL    HW139722   1.920   4.471   7.500 -0.4058 -0.5448  1.6692
 9362SOL    HW239723   1.805   4.385   7.461 -3.2693  0.7586 -1.3824
 9363SOL     OW39724   0.076   2.210   6.901 -0.0161  0.2207 -0.0177
 9363SOL    HW139725   0.112   2.128   6.935 -0.4896  0.1695  0.3636
 9363SOL    HW239726   4.736   2.184   6.856 -0.8892  0.7655  1.2147
 9364SOL     OW39727   2.209   0.783   6.523 -0.0358 -0.6164 -0.1180
 9364SOL    HW139728   2.191   0.782   6.618 -1.6354  0.0170 -0.4054
 9364SOL    HW239729   2.281   0.845   6.514  1.0849 -1.9611 -0.3108
 9365SOL     OW39730   3.364   0.480   2.866 -0.3600  0.3998 -0.4361
 9365SOL    HW139731   3.360   0.409   2.930  2.0219  0.4469 -0.2148
 9365SOL    HW239732   3.304   0.457   2.796 -0.1008 -0.3103 -0.4252
 9366SOL     OW39733   0.533   0.300   2.555  0.0121 -0.4292  0.2292
 9366SOL    HW139734   0.599   0.368   2.541 -1.1918  0.9378  1.2336
 9366SOL    HW239735   0.563   0.240   2.624  0.3100  1.2641  1.5629
 9367SOL     OW39736   3.098   4.216   4.565  0.4974  0.0535  0.3602
 9367SOL    HW139737   3.138   4.249   4.484 -0.5741 -0.3651 -0.3333
 9367SOL    HW239738   3.137   4.129   4.556 -0.2672 -0.5610  3.1940
 9368SOL     OW39739   4.006   2.406   6.292 -0.4979  0.5293 -0.4945
 9368SOL    HW139740   4.071   2.444   6.233  0.0152 -1.1017 -0.9844
 9368SOL    HW239741   3.999   2.313   6.271  0.2742 -0.0885  1.9722
 9369SOL     OW39742   4.295   2.645   2.711  0.3037 -0.3869 -0.2581
 9369SOL    HW139743   4.214   2.684   2.678  0.0017  0.5594  1.6496
 9369SOL    HW239744   4.369   2.691   2.672  1.6225  0.0938  2.7918
 9370SOL     OW39745   3.109   2.210   0.120 -0.3377 -0.0009  0.4585
 9370SOL    HW139746   3.196   2.190   0.155  1.0702  0.4340 -2.8345
 9370SOL    HW239747   3.065   2.210   0.206  0.0119 -1.5497  0.6506
 9371SOL     OW39748   3.515   0.150   5.986  0.3710 -0.5127  0.2760
 9371SOL    HW139749   3.507   0.244   5.969  0.2524 -0.5320  0.2266
 9371SOL    HW239750   3.527   0.115   5.898 -1.3919 -0.3877 -0.0137
 9372SOL     OW39751   4.528   1.431   3.309  0.0940  0.8009 -0.1826
 9372SOL    HW139752   4.612   1.437   3.354  0.0579 -1.6904  0.2325
 9372SOL    HW239753   4.491   1.361   3.363  0.2174  0.2355 -0.8306
 9373SOL     OW39754   0.320   0.641   2.308  0.6919  0.3523 -0.1688
 9373SOL    HW139755   0.351   0.635   2.399  2.2112  0.9021 -0.6531
 9373SOL    HW239756   0.230   0.669   2.324  1.0114  2.5515 -2.2179
 9374SOL     OW39757   3.498   0.418   7.340 -0.5311  0.0380  0.1466
 9374SOL    HW139758   3.518   0.506   7.307  1.1270  0.4133  2.1019
 9374SOL    HW239759   3.583   0.373   7.344  0.7262  2.4259  1.1169
 9375SOL     OW39760   0.476   3.592   3.032 -0.4955  0.6501  0.2291
 9375SOL    HW139761   0.438   3.562   2.949 -1.4496  1.8093  0.2400
 9375SOL    HW239762   0.567   3.568   3.015 -0.7480 -0.5510  0.5429
 9376SOL     OW39763   0.686   3.549  13.977  0.5724 -0.1556  0.4129
 9376SOL    HW139764   0.681   3.602  13.897  2.8494  0.6208  0.7872
 9376SOL    HW239765   0.671   3.470  13.926  1.2689  2.0071 -3.1873
 9377SOL     OW39766   0.861   2.005   0.341  0.2262  0.3514 -0.0637
 9377SOL    HW139767   0.774   1.973   0.363  0.3424  0.9876  1.3070
 9377SOL    HW239768   0.874   2.042   0.428 -0.6646  0.3011  0.0959
 9378SOL     OW39769   0.615   3.494  11.097  0.0392  0.4852 -0.2865
 9378SOL    HW139770   0.621   3.582  11.059  2.0430  0.0383 -1.0427
 9378SOL    HW239771   0.708   3.472  11.107 -0.6614 -1.8369  1.0742
 9379SOL     OW39772   4.465   0.265   6.941 -0.0086  0.0120  0.2602
 9379SOL    HW139773   4.552   0.295   6.916 -0.0843  0.2092  0.2327
 9379SOL    HW239774   4.474   0.177   6.977  1.4060 -0.2168 -0.6525
 9380SOL     OW39775   3.730   3.614  16.192 -0.0290 -0.0115 -0.1960
 9380SOL    HW139776   3.747   3.609  16.098  0.5768  0.0359 -0.0880
 9380SOL    HW239777   3.803   3.668  16.222  0.0364 -0.2056 -0.0076
 9381SOL     OW39778   0.599   0.017   7.314 -0.5679 -0.0753 -0.6603
 9381SOL    HW139779   0.558   0.003   7.399  0.7253 -2.9187 -0.5085
 9381SOL    HW239780   0.563   4.680   7.270  0.7579 -0.6123 -0.7963
 9382SOL     OW39781   1.406   2.922   0.480  0.3176 -0.1770 -0.0637
 9382SOL    HW139782   1.388   2.923   0.574 -2.2695  0.2917 -0.5599
 9382SOL    HW239783   1.407   3.016   0.463 -0.1592 -0.1355  0.1370
 9383SOL     OW39784   0.496   3.845   8.940  0.0635  0.0608 -0.1647
 9383SOL    HW139785   0.563   3.804   8.885  1.2454  0.5858  0.8781
 9383SOL    HW239786   0.465   3.781   9.005  0.3994 -0.3038 -0.3615
 9384SOL     OW39787   4.637   2.160   0.550 -0.3826 -0.4273 -0.1638
 9384SOL    HW139788   4.623   2.183   0.458  0.4953 -1.7128 -0.6205
 9384SOL    HW239789   4.731   2.150   0.563 -0.2012 -0.4643 -1.4647
 9385SOL     OW39790   4.115   4.266  15.738 -0.7333 -0.0458  0.4119
 9385SOL    HW139791   4.196   4.315  15.719 -2.0018  1.4702 -1.0974
 9385SOL    HW239792   4.145   4.224  15.818 -3.2159 -1.8310  0.3904
 9386SOL     OW39793   0.805   3.704   3.374  0.6686 -0.1695 -0.0684
 9386SOL    HW139794   0.725   3.756   3.364  0.7404 -0.0983 -0.2881
 9386SOL    HW239795   0.868   3.776   3.379  1.4509 -0.8147 -0.6635
 9387SOL     OW39796   4.476   1.381   7.125 -0.0585 -0.1688 -0.3245
 9387SOL    HW139797   4.410   1.435   7.083 -2.0918 -1.4335  1.2164
 9387SOL    HW239798   4.431   1.298   7.138  1.0223 -0.5477  1.0975
 9388SOL     OW39799   0.018   1.952   5.427 -0.1388 -0.7077  0.9752
 9388SOL    HW139800   4.713   2.010   5.366  2.5922  1.7122  1.1672
 9388SOL    HW239801   4.693   1.925   5.491 -1.6855  1.4016  0.2578
 9389SOL     OW39802   0.311   1.735   6.551 -0.0357  0.0837 -0.0738
 9389SOL    HW139803   0.225   1.708   6.519  0.1541  0.7989 -1.1605
 9389SOL    HW239804   0.374   1.709   6.483  0.4967  0.8017  0.1458
 9390SOL     OW39805   4.568   2.755  11.688  0.0272  0.5170 -0.1000
 9390SOL    HW139806   4.606   2.790  11.769  1.5241  0.8148 -0.9234
 9390SOL    HW239807   4.596   2.820  11.624 -0.9071  1.3670  0.3671
 9391SOL     OW39808   4.350   3.056   4.329 -0.6234  0.0457 -0.6417
 9391SOL    HW139809   4.334   3.141   4.288 -0.5177  0.1504 -0.4613
 9391SOL    HW239810   4.390   3.011   4.254  1.0556  0.5959 -0.0622
 9392SOL     OW39811   3.368   1.469   3.331  0.3905  0.1792  0.4001
 9392SOL    HW139812   3.457   1.503   3.342  1.0798 -0.4233 -3.3024
 9392SOL    HW239813   3.397   1.378   3.335 -1.5426 -0.4416 -0.0258
 9393SOL     OW39814   4.720   1.513  10.252 -0.0234  0.1136  0.2039
 9393SOL    HW139815   0.028   1.558  10.321 -0.0755  1.0488 -0.3810
 9393SOL    HW239816   4.652   1.579  10.238 -0.3060 -0.7081 -2.3239
 9394SOL     OW39817   4.474   2.031   5.363  0.3855  0.1231  0.3430
 9394SOL    HW139818   4.511   2.072   5.285  0.6962  0.6441  0.7664
 9394SOL    HW239819   4.388   2.000   5.332  0.3152  0.0996  0.5595
 9395SOL     OW39820   2.151   2.567  13.056  0.1328  0.2460 -0.0349
 9395SOL    HW139821   2.207   2.637  13.021  0.0763  0.3448  0.0699
 9395SOL    HW239822   2.195   2.553  13.140  0.0956 -0.5261 -0.1472
 9396SOL     OW39823   1.757   1.133   2.417 -0.0708  0.2723 -0.3287
 9396SOL    HW139824   1.689   1.197   2.437 -0.2065 -0.0657  0.2749
 9396SOL    HW239825   1.755   1.146   2.322 -1.4412 -0.7279 -0.4361
 9397SOL     OW39826   0.561   3.816   3.438  0.3719  0.6247 -0.3474
 9397SOL    HW139827   0.546   3.790   3.529  2.4711 -0.4221 -0.2960
 9397SOL    HW239828   0.475   3.845   3.409  0.7348  0.5682 -1.4996
 9398SOL     OW39829   3.948   1.249   9.535 -0.2012  0.3270  0.2008
 9398SOL    HW139830   3.879   1.217   9.594  1.2820  2.0184  2.8438
 9398SOL    HW239831   3.983   1.170   9.494  1.2261  1.0644  0.0102
 9399SOL     OW39832   1.735   4.261   4.565  0.0388  0.2192 -0.0726
 9399SOL    HW139833   1.667   4.254   4.498 -0.5920 -1.6678  0.7642
 9399SOL    HW239834   1.677   4.245   4.640  0.8635  2.5430  1.0567
 9400SOL     OW39835   0.235   1.865   9.472  0.1910 -0.2927  0.2631
 9400SOL    HW139836   0.141   1.854   9.453  0.5333  1.9567 -2.7035
 9400SOL    HW239837   0.255   1.954   9.443 -2.6420  0.4606  0.6235
 9401SOL     OW39838   4.252   2.620  17.745  0.6948 -0.1696 -0.3087
 9401SOL    HW139839   4.264   2.677   0.060  2.3117 -0.8783 -0.0270
 9401SOL    HW239840   4.272   2.682  17.674  0.5098  2.0578  1.6016
 9402SOL     OW39841   1.728   3.681   7.918  0.0697  0.2228  0.2265
 9402SOL    HW139842   1.753   3.749   7.981 -0.7951  0.4986  0.2783
 9402SOL    HW239843   1.650   3.722   7.880  0.3990  1.3582  0.7894
 9403SOL     OW39844   1.145   2.131   2.134 -1.1010 -0.3234 -0.6371
 9403SOL    HW139845   1.153   2.119   2.039 -1.1318  2.0690 -0.9279
 9403SOL    HW239846   1.054   2.101   2.141 -1.3248  0.4972 -0.1083
 9404SOL     OW39847   3.695   0.602   6.351 -0.0492  0.3547 -0.3543
 9404SOL    HW139848   3.731   0.686   6.379  1.2370 -0.2370 -0.2317
 9404SOL    HW239849   3.775   0.552   6.367 -0.3187  0.6477  1.9487
 9405SOL     OW39850   4.609   0.308   3.450 -0.2732 -0.2121 -0.2502
 9405SOL    HW139851   4.533   0.310   3.508 -0.6160  0.0833 -0.7088
 9405SOL    HW239852   4.647   0.222   3.471 -0.2918 -0.0941  0.2566
 9406SOL     OW39853   2.567   3.400   8.623  0.7430 -0.2895  0.2774
 9406SOL    HW139854   2.641   3.372   8.569  0.7710 -1.8988  1.1647
 9406SOL    HW239855   2.521   3.450   8.556 -1.3851 -0.3853  1.6594
 9407SOL     OW39856   3.913   1.878   6.747 -0.3660 -0.1835 -0.2513
 9407SOL    HW139857   3.962   1.891   6.666  1.0195 -0.3973  0.5490
 9407SOL    HW239858   3.944   1.794   6.780 -0.4299 -0.5546 -1.1393
 9408SOL     OW39859   0.173   1.711   8.614 -0.2155  0.2467 -0.2542
 9408SOL    HW139860   0.221   1.662   8.547 -0.9299  0.4699 -0.9272
 9408SOL    HW239861   0.221   1.688   8.693 -0.0654 -1.3509 -0.7995
 9409SOL     OW39862   2.100   1.723   4.744  0.0834 -0.1437 -0.1166
 9409SOL    HW139863   2.177   1.669   4.730 -1.2128 -1.9568 -0.2882
 9409SOL    HW239864   2.046   1.710   4.666 -0.8714 -0.5455  0.6126
 9410SOL     OW39865   1.254   2.293  11.910 -0.5308 -0.3064 -0.1669
 9410SOL    HW139866   1.344   2.276  11.881 -0.0499  2.0683 -0.0683
 9410SOL    HW239867   1.284   2.286  12.001  2.8790 -1.2418 -1.3721
 9411SOL     OW39868   2.452   3.579   2.238  0.0621 -0.0290 -0.1334
 9411SOL    HW139869   2.450   3.666   2.198 -0.4518  0.9933  2.1563
 9411SOL    HW239870   2.452   3.608   2.329  1.2965 -0.7478  0.0957
 9412SOL     OW39871   0.224   0.124   7.964 -0.4230  0.1881 -0.3964
 9412SOL    HW139872   0.245   0.138   8.056  1.2111 -0.4177 -0.6790
 9412SOL    HW239873   0.131   0.146   7.971 -0.3542  1.3112 -2.9321
 9413SOL     OW39874   3.584   3.968  12.373  0.1837 -0.4002 -0.3842
 9413SOL    HW139875   3.630   3.889  12.402  0.2969  0.0550  0.6874
 9413SOL    HW239876   3.586   4.023  12.452  0.8742  0.3975 -0.9531
 9414SOL     OW39877   1.613   2.172   8.113 -0.1801  0.2687  0.0453
 9414SOL    HW139878   1.676   2.185   8.043  0.0905 -3.2608 -0.3653
 9414SOL    HW239879   1.554   2.248   8.110 -0.7583 -0.1638  0.3297
 9415SOL     OW39880   2.661   0.289   5.655 -0.5269 -0.0263 -0.0929
 9415SOL    HW139881   2.672   0.202   5.616 -1.5427  1.0133 -2.7100
 9415SOL    HW239882   2.578   0.288   5.702 -2.0853 -0.1480 -2.8202
 9416SOL     OW39883   1.711   3.178   6.718 -0.4821  0.3427  0.2902
 9416SOL    HW139884   1.769   3.140   6.783  1.5896  0.9707 -1.1602
 9416SOL    HW239885   1.778   3.197   6.652 -1.8207  0.9986 -0.8880
 9417SOL     OW39886   2.508   2.416   9.124  0.4450  0.5396 -0.2494
 9417SOL    HW139887   2.541   2.469   9.052  0.5131  0.3343 -0.3690
 9417SOL    HW239888   2.488   2.333   9.082 -1.1819  2.0352 -2.4268
 9418SOL     OW39889   0.610   0.403   8.626  0.0459 -0.3047 -0.4881
 9418SOL    HW139890   0.529   0.417   8.579 -0.2013 -1.8035 -0.5281
 9418SOL    HW239891   0.639   0.319   8.589  0.6471 -0.8214  1.1001
 9419SOL     OW39892   0.527   0.571   5.899 -0.0798  0.2887  0.8571
 9419SOL    HW139893   0.561   0.553   5.811 -0.1117 -1.0155  1.1202
 9419SOL    HW239894   0.493   0.658   5.875 -0.1805 -0.0072 -0.0875
 9420SOL     OW39895   2.195   3.747   6.649  0.1927 -0.1190 -0.1219
 9420SOL    HW139896   2.217   3.659   6.679  0.2059 -0.7360 -1.9650
 9420SOL    HW239897   2.215   3.795   6.730  1.6329  1.8896 -1.6677
 9421SOL     OW39898   2.419   1.308   9.227 -0.2144 -0.0081  0.5180
 9421SOL    HW139899   2.388   1.221   9.202 -0.7064  0.5395 -0.7861
 9421SOL    HW239900   2.355   1.368   9.188 -0.4263 -0.1414  0.6624
 9422SOL     OW39901   1.364   2.208   0.805  0.1355  0.1124 -0.1138
 9422SOL    HW139902   1.389   2.203   0.713  3.3379 -0.0988  0.7407
 9422SOL    HW239903   1.429   2.271   0.838 -1.1324 -0.6190  3.7868
 9423SOL     OW39904   4.215   3.596   2.535  0.7196  0.6331 -0.0805
 9423SOL    HW139905   4.198   3.673   2.482 -1.6436  0.7007  0.7693
 9423SOL    HW239906   4.279   3.640   2.591 -1.0652 -0.6455  2.9540
 9424SOL     OW39907   2.674   2.124   4.296  0.0478  0.3774 -0.2542
 9424SOL    HW139908   2.590   2.170   4.303 -0.7564 -1.4023  1.8072
 9424SOL    HW239909   2.680   2.094   4.205 -0.6695  0.0593 -0.1981
 9425SOL     OW39910   3.113   2.009   2.059 -0.0071 -0.7829 -0.2784
 9425SOL    HW139911   3.053   2.069   2.014 -0.2137  1.1077  2.4983
 9425SOL    HW239912   3.056   1.932   2.057 -2.2547  0.8850 -0.9180
 9426SOL     OW39913   4.546   3.963   8.269  0.1612  0.1999  0.6459
 9426SOL    HW139914   4.573   4.053   8.249  1.6130 -0.4453 -0.3122
 9426SOL    HW239915   4.532   3.931   8.180  0.6050 -0.0316  0.6619
 9427SOL     OW39916   2.847   4.458   6.043  0.0511 -0.2699  0.3528
 9427SOL    HW139917   2.906   4.396   6.085  0.2803  0.4397  1.0677
 9427SOL    HW239918   2.772   4.399   6.049 -0.8504  0.9617  1.3481
 9428SOL     OW39919   1.485   4.456   4.327 -0.0536  0.1273  0.1400
 9428SOL    HW139920   1.410   4.468   4.268  0.2870 -0.0803 -0.3378
 9428SOL    HW239921   1.463   4.515   4.398  1.6851  0.4621  0.3911
 9429SOL     OW39922   2.734   3.207   9.142  0.2901  0.7286  0.0505
 9429SOL    HW139923   2.653   3.199   9.093 -0.6589 -1.0335  1.8819
 9429SOL    HW239924   2.710   3.254   9.222  2.0409 -1.9448  2.1744
 9430SOL     OW39925   4.108   1.635  15.659 -0.1695 -0.0909 -0.1320
 9430SOL    HW139926   4.198   1.668  15.664  0.1698 -0.6078 -3.0903
 9430SOL    HW239927   4.094   1.650  15.566  0.5040 -2.6896 -0.6422
 9431SOL     OW39928   1.667   3.044   6.251 -0.2785 -0.1728  0.0346
 9431SOL    HW139929   1.749   3.093   6.247 -0.7931  0.3080 -4.4519
 9431SOL    HW239930   1.694   2.956   6.224 -0.1918  0.1091 -0.8044
 9432SOL     OW39931   0.363   3.123   2.915 -0.6679 -1.0406  0.5737
 9432SOL    HW139932   0.422   3.053   2.942 -1.5106 -1.9857 -0.0315
 9432SOL    HW239933   0.386   3.190   2.979  1.5051 -0.9493 -0.2976
 9433SOL     OW39934   0.377   0.688   4.267  0.0746  0.2460  0.2454
 9433SOL    HW139935   0.445   0.626   4.240  0.9391  0.7085  1.3862
 9433SOL    HW239936   0.354   0.730   4.183 -1.6593 -0.0402  0.5738
 9434SOL     OW39937   4.576   1.774   1.507  0.0789  0.5308 -0.3320
 9434SOL    HW139938   4.644   1.707   1.510  0.7663  1.1944 -1.2966
 9434SOL    HW239939   4.611   1.799   1.421  3.3615 -0.3489  0.7710
 9435SOL     OW39940   0.639   4.239   8.649  0.1750  0.3341 -0.0128
 9435SOL    HW139941   0.592   4.317   8.680  1.7593  0.2722  2.4847
 9435SOL    HW239942   0.575   4.172   8.671 -2.5710  1.8798 -3.2113
 9436SOL     OW39943   0.722   0.608  11.757 -0.1029 -0.1512 -0.3799
 9436SOL    HW139944   0.626   0.598  11.754 -0.4973  3.2914  0.6713
 9436SOL    HW239945   0.728   0.625  11.851  1.3443  2.1881 -0.9005
 9437SOL     OW39946   4.071   2.762  16.687  0.5424 -0.6867  0.2137
 9437SOL    HW139947   4.099   2.806  16.768  0.0176  2.8521 -1.5387
 9437SOL    HW239948   4.065   2.670  16.712  0.8360 -1.5539 -3.0045
 9438SOL     OW39949   0.878   1.182   9.969  0.1767 -0.3048 -0.2822
 9438SOL    HW139950   0.788   1.151   9.968 -0.2224  0.8360 -0.7818
 9438SOL    HW239951   0.881   1.242  10.043  0.2973  0.8779 -1.2252
 9439SOL     OW39952   4.223   2.651   5.916 -0.0310  1.1567 -0.0745
 9439SOL    HW139953   4.211   2.591   5.842  1.2683 -0.0446  0.6944
 9439SOL    HW239954   4.299   2.701   5.887 -0.1249 -0.0387 -2.4068
 9440SOL     OW39955   0.649   2.755  10.623  0.3934 -0.2712 -0.3477
 9440SOL    HW139956   0.718   2.746  10.557  1.7105  1.2884  0.8168
 9440SOL    HW239957   0.652   2.666  10.658 -0.1659 -1.0384 -2.2241
 9441SOL     OW39958   1.573   0.644  15.952  0.3238 -0.4309 -0.5166
 9441SOL    HW139959   1.565   0.553  15.923  0.2501 -0.9805  1.1944
 9441SOL    HW239960   1.586   0.685  15.866 -1.7035 -2.5270 -1.8120
 9442SOL     OW39961   4.463   1.341   7.462  0.2824  0.2838 -0.3662
 9442SOL    HW139962   4.473   1.285   7.385 -2.0711 -0.3542 -0.2223
 9442SOL    HW239963   4.549   1.382   7.471 -1.1369  3.8937 -2.9363
 9443SOL     OW39964   2.935   3.543   9.215 -0.0065  0.2612 -0.4461
 9443SOL    HW139965   2.842   3.522   9.226  0.5054 -0.8026  1.7794
 9443SOL    HW239966   2.982   3.490   9.279  1.0809 -0.2228 -1.6657
 9444SOL     OW39967   1.002   2.103   4.900  0.7071 -0.1235  0.2490
 9444SOL    HW139968   0.967   2.052   4.827 -0.0298  0.8693 -0.0912
 9444SOL    HW239969   1.062   2.043   4.945  1.5107 -1.7026 -2.9031
 9445SOL     OW39970   3.652   3.239  16.722 -0.2014 -0.3983  0.4106
 9445SOL    HW139971   3.729   3.207  16.768 -0.0926 -1.7254 -0.6985
 9445SOL    HW239972   3.595   3.234  16.800 -1.3702  0.1625 -0.3984
 9446SOL     OW39973   0.654   4.008  16.257 -0.3595  0.0307 -0.7010
 9446SOL    HW139974   0.735   4.050  16.227 -1.7381  1.9086 -1.8652
 9446SOL    HW239975   0.649   4.037  16.348  2.5584  0.2104 -0.5918
 9447SOL     OW39976   1.321   0.429  15.160 -0.5680 -0.3804 -0.6323
 9447SOL    HW139977   1.371   0.348  15.156  1.1985  0.6626  0.0448
 9447SOL    HW239978   1.394   0.487  15.137  0.0091 -1.7666 -2.2726
 9448SOL     OW39979   2.537   3.870   4.937  0.1788  0.6107 -0.1908
 9448SOL    HW139980   2.605   3.803   4.948 -0.7756 -0.0221  1.9146
 9448SOL    HW239981   2.572   3.919   4.862  1.8951 -1.1245 -0.5102
 9449SOL     OW39982   0.545   2.452   1.881 -0.1830 -0.0801  0.0625
 9449SOL    HW139983   0.491   2.531   1.879 -0.6082 -0.3110  1.9410
 9449SOL    HW239984   0.523   2.407   1.799 -1.6526 -0.1169  0.4708
 9450SOL     OW39985   2.378   0.862  17.251 -0.0224 -0.0708  0.1340
 9450SOL    HW139986   2.409   0.772  17.259 -0.0966  0.1342  2.6863
 9450SOL    HW239987   2.334   0.856  17.166 -0.8755 -0.3835  0.5964
 9451SOL     OW39988   4.109   0.697   6.174  0.2031 -0.5569 -0.2542
 9451SOL    HW139989   4.043   0.701   6.104  1.9630  3.1126 -1.7704
 9451SOL    HW239990   4.191   0.667   6.134 -0.2714  1.5495 -2.8003
 9452SOL     OW39991   4.719   3.619   9.050  0.0856 -0.1060 -0.1875
 9452SOL    HW139992   4.686   3.700   9.012  0.3158 -0.0970 -0.3659
 9452SOL    HW239993   0.056   3.596   8.999 -0.8574 -1.1916 -1.1423
 9453SOL     OW39994   2.978   1.051   5.389 -0.3236  0.0178 -0.2375
 9453SOL    HW139995   3.048   0.985   5.397  0.2532  0.5194 -1.1075
 9453SOL    HW239996   2.937   1.048   5.476 -0.6652 -0.4881 -0.4144
 9454SOL     OW39997   3.895   3.273   5.118  0.2387  0.2579  0.4184
 9454SOL    HW139998   3.802   3.276   5.139 -0.0928  0.7208 -1.1241
 9454SOL    HW239999   3.932   3.310   5.198  1.2550 -0.8986  0.4723
 9455SOL     OW40000   3.571   3.193   2.089 -0.1285  0.5466 -0.4083
 9455SOL    HW140001   3.608   3.265   2.140  1.0313 -0.0960 -0.3404
 9455SOL    HW240002   3.505   3.233   2.033 -0.2395  0.4517 -0.3452
 9456SOL     OW40003   4.202   2.379   3.991  0.0100  0.2127 -0.3909
 9456SOL    HW140004   4.200   2.412   3.901  1.5853  1.7200  0.1412
 9456SOL    HW240005   4.127   2.428   4.026 -0.2368 -0.1196 -0.4508
 9457SOL     OW40006   3.117   2.404   5.259  0.9627  0.1584  0.2843
 9457SOL    HW140007   3.134   2.421   5.351 -1.2326  0.3558  0.6455
 9457SOL    HW240008   3.178   2.461   5.212 -0.3695  0.0443 -1.6117
 9458SOL     OW40009   2.356   4.067  12.806  0.1395 -0.5427  0.5527
 9458SOL    HW140010   2.393   4.016  12.878 -0.0588 -3.4127 -1.3968
 9458SOL    HW240011   2.297   4.121  12.859 -0.6213 -1.6702  0.8350
 9459SOL     OW40012   3.309   3.834   5.683  0.1728 -0.1181  0.9146
 9459SOL    HW140013   3.320   3.814   5.590  0.5335 -0.0038  0.9345
 9459SOL    HW240014   3.247   3.765   5.707 -1.5169  1.3180  0.6721
 9460SOL     OW40015   1.259   3.143  17.697 -0.0773  0.0645 -0.3105
 9460SOL    HW140016   1.195   3.154  17.626 -3.3882  0.2072  2.7173
 9460SOL    HW240017   1.286   3.052  17.706  0.9952  0.4340  0.2668
 9461SOL     OW40018   3.860   1.913   3.108 -0.5251 -0.2549  0.3152
 9461SOL    HW140019   3.786   1.949   3.156  1.1850  2.3552  0.9970
 9461SOL    HW240020   3.828   1.912   3.018  0.9991  0.8834 -0.2459
 9462SOL     OW40021   3.375   4.506   4.562  0.3982 -0.1382 -0.0209
 9462SOL    HW140022   3.419   4.505   4.478 -0.7778 -2.2400 -0.6160
 9462SOL    HW240023   3.396   4.595   4.589 -0.4957 -0.7942  2.9295
 9463SOL     OW40024   1.975   0.331  15.620 -0.1727  0.3119  0.2528
 9463SOL    HW140025   2.009   0.319  15.531 -1.0195 -0.5876  0.0476
 9463SOL    HW240026   1.913   0.401  15.602 -2.1951 -1.7001 -0.6243
 9464SOL     OW40027   0.462   1.215  13.597 -0.1746 -0.2071  0.1511
 9464SOL    HW140028   0.382   1.267  13.604  0.5243  0.5888  2.1968
 9464SOL    HW240029   0.438   1.128  13.629  0.5789 -0.4742 -0.0156
 9465SOL     OW40030   0.677   2.204   2.023 -0.0275 -0.9635 -0.4938
 9465SOL    HW140031   0.629   2.275   1.981  3.0261  1.9774  0.9810
 9465SOL    HW240032   0.602   2.163   2.066 -0.6989 -0.0731 -0.8184
 9466SOL     OW40033   2.604   4.670   2.661  1.4984 -0.1261 -0.5438
 9466SOL    HW140034   2.559   0.002   2.703  2.1059  0.3008 -0.6438
 9466SOL    HW240035   2.596   4.698   2.570 -1.0783  0.4784 -0.1459
 9467SOL     OW40036   2.062   2.490   1.590  0.4969 -0.1812 -0.4151
 9467SOL    HW140037   1.980   2.497   1.542  0.2169  1.4601  0.3002
 9467SOL    HW240038   2.078   2.580   1.619 -0.7870 -0.3996  1.0198
 9468SOL     OW40039   2.473   3.567   4.106  0.1604  0.6702 -0.0960
 9468SOL    HW140040   2.421   3.488   4.115  1.0789  0.0300 -0.4121
 9468SOL    HW240041   2.449   3.622   4.181  0.0182  1.5502 -0.7735
 9469SOL     OW40042   0.948   2.735   7.085  0.2005 -0.3073 -0.5879
 9469SOL    HW140043   0.960   2.817   7.038  3.7417 -1.0231 -0.9412
 9469SOL    HW240044   0.964   2.762   7.175 -0.2354  0.4869 -0.7491
 9470SOL     OW40045   4.111   2.775   3.975  0.1158 -0.1991  0.2800
 9470SOL    HW140046   4.139   2.857   4.015 -1.0881  1.2463 -1.8390
 9470SOL    HW240047   4.140   2.784   3.884 -1.1482 -0.0190 -0.1083
 9471SOL     OW40048   3.728   2.677   0.673  0.0594 -0.2689 -0.0476
 9471SOL    HW140049   3.703   2.658   0.763 -1.4904  0.5730 -0.2994
 9471SOL    HW240050   3.642   2.703   0.639  0.2564 -1.0464 -1.1298
 9472SOL     OW40051   0.134   3.642   2.195 -0.5207  0.1249 -0.5133
 9472SOL    HW140052   0.103   3.728   2.166  0.4517  0.6472  0.0123
 9472SOL    HW240053   0.174   3.668   2.278 -1.2025 -0.2550 -0.0581
 9473SOL     OW40054   0.270   3.895   1.748 -0.2480 -0.1991  0.0328
 9473SOL    HW140055   0.230   3.813   1.777 -0.0494 -0.4245 -0.3306
 9473SOL    HW240056   0.358   3.859   1.738  0.3947  1.5362 -0.6659
 9474SOL     OW40057   1.305   2.771   9.905  0.0439 -0.4049  0.2658
 9474SOL    HW140058   1.284   2.717   9.828  1.4302 -1.4157  0.5828
 9474SOL    HW240059   1.282   2.714   9.979 -0.6934 -0.2593  0.1513
 9475SOL     OW40060   3.899   2.418   7.539 -0.3469  0.1850 -0.4510
 9475SOL    HW140061   3.919   2.352   7.606 -0.6949  1.4162  0.8637
 9475SOL    HW240062   3.937   2.494   7.583 -0.2323 -0.1570  0.0402
 9476SOL     OW40063   2.538   0.088  15.364  0.1905  0.4559 -0.3463
 9476SOL    HW140064   2.520   0.181  15.373  3.1865  0.8958  0.9374
 9476SOL    HW240065   2.461   0.055  15.410  0.7889 -1.3341 -0.5917
 9477SOL     OW40066   1.535   3.997   5.885 -0.1802 -0.0604  0.0524
 9477SOL    HW140067   1.539   4.006   5.980  0.7184 -2.4764  0.2619
 9477SOL    HW240068   1.560   4.084   5.855 -1.3770 -0.2033 -1.3949
 9478SOL     OW40069   1.781   3.341   0.231 -0.3924 -0.3166  0.2428
 9478SOL    HW140070   1.748   3.256   0.201 -1.2819  0.1002  0.0506
 9478SOL    HW240071   1.757   3.392   0.153 -0.5031 -2.7544 -1.3084
 9479SOL     OW40072   3.909   1.887   6.168  0.4427  0.0024 -0.0393
 9479SOL    HW140073   3.835   1.827   6.175  1.7186 -1.5069  0.5469
 9479SOL    HW240074   3.974   1.827   6.132 -0.4545 -0.7832 -0.3536
 9480SOL     OW40075   4.540   3.009   3.304 -0.4520  0.3957  0.4796
 9480SOL    HW140076   4.481   2.972   3.239 -3.3582  0.7653  2.8705
 9480SOL    HW240077   4.620   2.961   3.284 -1.0771 -0.2137 -0.5300
 9481SOL     OW40078   2.614   0.013   2.388  0.3533  0.6108  0.0602
 9481SOL    HW140079   2.703   4.738   2.358 -0.5047  0.3704 -2.3167
 9481SOL    HW240080   2.618   0.109   2.395  1.2441  0.6685 -1.4294
 9482SOL     OW40081   1.862   3.478   3.486  0.1053 -0.3177 -0.2264
 9482SOL    HW140082   1.941   3.498   3.436  0.5912  0.4963  0.8640
 9482SOL    HW240083   1.798   3.477   3.414 -0.0246  0.1416 -0.1201
 9483SOL     OW40084   4.439   4.722   3.971 -0.3408  0.2879  0.3939
 9483SOL    HW140085   4.438   4.633   4.008  2.1216  0.2977  0.5151
 9483SOL    HW240086   4.344   4.731   3.961 -0.5770 -1.0560  1.3933
 9484SOL     OW40087   3.054   2.825   1.784  0.2307 -0.0732 -0.3602
 9484SOL    HW140088   3.053   2.781   1.870 -1.4300 -0.9527 -0.8302
 9484SOL    HW240089   3.009   2.774   1.717 -0.9050  1.3675 -0.6782
 9485SOL     OW40090   4.641   0.711   1.627 -0.1748  0.2093  0.0226
 9485SOL    HW140091   4.557   0.744   1.660  0.1797  1.1722 -0.0252
 9485SOL    HW240092   4.622   0.706   1.534  0.5842 -1.0923 -0.0565
 9486SOL     OW40093   3.216   1.217   7.528 -0.2652 -0.6776  0.3488
 9486SOL    HW140094   3.307   1.242   7.542 -0.7216  1.0590  0.2943
 9486SOL    HW240095   3.177   1.264   7.602 -1.7747 -0.0436 -0.8323
 9487SOL     OW40096   4.194   0.329   9.919 -0.4946 -0.0342  0.1962
 9487SOL    HW140097   4.179   0.259   9.983 -0.7575  0.6262  0.8614
 9487SOL    HW240098   4.158   0.410   9.955 -0.8414  1.4314 -3.5162
 9488SOL     OW40099   0.429   3.320   6.470 -0.0769 -0.3910 -0.2469
 9488SOL    HW140100   0.348   3.285   6.431  0.9303 -2.2894 -0.6051
 9488SOL    HW240101   0.435   3.255   6.540 -0.2347 -1.5632 -1.3264
 9489SOL     OW40102   2.033   3.964   3.024  0.3234 -0.2696 -0.6330
 9489SOL    HW140103   1.964   3.913   2.981 -0.3580  2.3431 -2.5813
 9489SOL    HW240104   1.979   4.032   3.063  0.8537 -1.2862  1.8981
 9490SOL     OW40105   2.125   4.327  12.676 -0.2520  0.2667 -0.8317
 9490SOL    HW140106   2.113   4.379  12.597 -2.2277  0.5736 -0.3124
 9490SOL    HW240107   2.039   4.292  12.698 -0.9729  1.9090 -1.0450
 9491SOL     OW40108   1.755   4.111   1.922  0.5282 -0.0487 -0.5105
 9491SOL    HW140109   1.736   4.060   1.843 -1.0436 -0.4198  0.0976
 9491SOL    HW240110   1.670   4.099   1.965  0.7117  2.6324  0.6326
 9492SOL     OW40111   4.543   2.528   6.059 -0.4623 -0.7715  0.1923
 9492SOL    HW140112   4.557   2.504   6.150 -1.7017  0.5959  0.7561
 9492SOL    HW240113   4.625   2.497   6.021 -0.6932 -1.0592 -0.0772
 9493SOL     OW40114   4.175   4.137   8.374  0.0538  0.0243 -0.4639
 9493SOL    HW140115   4.200   4.183   8.294  0.5670 -2.3586 -1.6834
 9493SOL    HW240116   4.251   4.159   8.427 -0.9801  0.7676  0.7104
 9494SOL     OW40117   1.479   1.931   6.781 -0.0960 -1.0940  0.0584
 9494SOL    HW140118   1.442   1.843   6.791  1.8370 -1.7373  1.4779
 9494SOL    HW240119   1.550   1.913   6.719  0.7085 -1.1108  1.0001
 9495SOL     OW40120   1.366   4.442   0.660  0.0481  0.4111  0.5215
 9495SOL    HW140121   1.437   4.454   0.596 -0.4190  1.6073  0.2249
 9495SOL    HW240122   1.381   4.348   0.671 -1.3860  0.1631  0.3475
 9496SOL     OW40123   3.609   2.319  11.250  0.4265 -0.3469 -0.4598
 9496SOL    HW140124   3.648   2.391  11.299 -0.9554 -0.7197  1.1917
 9496SOL    HW240125   3.520   2.354  11.247  0.7042  0.2915 -1.1860
 9497SOL     OW40126   4.228   1.009   5.484  0.5364 -0.8818 -0.0135
 9497SOL    HW140127   4.199   1.100   5.487  0.6756 -0.8930  1.9937
 9497SOL    HW240128   4.233   0.999   5.389  1.4208 -1.5552  0.1024
 9498SOL     OW40129   0.279   2.337   3.538 -0.0854 -0.1303  0.4362
 9498SOL    HW140130   0.209   2.308   3.480 -0.0259 -0.2551  0.4266
 9498SOL    HW240131   0.318   2.417   3.502  0.9930 -0.3315  1.1608
 9499SOL     OW40132   3.702   4.694   5.734 -0.8580 -0.4731  0.3892
 9499SOL    HW140133   3.790   4.681   5.770  0.2635  2.9908 -1.1507
 9499SOL    HW240134   3.643   4.636   5.782 -2.1993  0.6691  0.1173
 9500SOL     OW40135   1.180   1.137   5.490 -0.1484  0.4928  0.2026
 9500SOL    HW140136   1.265   1.153   5.531  0.0372  2.7315 -1.0631
 9500SOL    HW240137   1.157   1.228   5.476  1.9011  0.7108 -1.7177
 9501SOL     OW40138   2.078   4.570   5.043  0.4363  0.4273  0.2813
 9501SOL    HW140139   1.992   4.554   5.004  1.2527 -3.3860  0.0712
 9501SOL    HW240140   2.138   4.586   4.969 -0.0037  0.6345 -0.0308
 9502SOL     OW40141   1.446   4.013   7.193  0.2092  0.8933 -0.1635
 9502SOL    HW140142   1.472   3.930   7.152 -0.9610  0.4304  0.0450
 9502SOL    HW240143   1.390   4.039   7.121 -0.0908 -0.0910 -0.2902
 9503SOL     OW40144   1.413   2.150   5.620 -0.3457  1.0662 -0.2078
 9503SOL    HW140145   1.483   2.142   5.685  0.2758 -0.1603 -1.0267
 9503SOL    HW240146   1.386   2.242   5.631 -1.0145  0.6098  1.9268
 9504SOL     OW40147   2.802   0.215   5.260  0.0666  0.1103  1.0416
 9504SOL    HW140148   2.776   0.307   5.266  2.5180  0.8253  0.5421
 9504SOL    HW240149   2.871   0.208   5.326  0.2297 -1.4267  0.7158
 9505SOL     OW40150   1.155   2.368   2.609 -0.3954 -0.5977  0.1131
 9505SOL    HW140151   1.085   2.402   2.554 -0.6097 -0.2162  0.6310
 9505SOL    HW240152   1.179   2.288   2.562 -1.2165 -0.0274 -1.2651
 9506SOL     OW40153   2.089   0.080   4.062 -1.0158  0.2069  0.0994
 9506SOL    HW140154   2.083   4.732   4.026 -0.7957  0.2357 -0.0127
 9506SOL    HW240155   2.015   0.126   4.022 -2.0644 -0.4854  1.2483
 9507SOL     OW40156   2.413   0.476   4.767  0.3163 -0.5584 -0.1125
 9507SOL    HW140157   2.496   0.521   4.753  0.5448 -0.6264  1.0033
 9507SOL    HW240158   2.385   0.460   4.677 -0.8049  0.8743 -0.0257
 9508SOL     OW40159   1.400   3.211  16.606 -0.0374 -0.1126  0.1213
 9508SOL    HW140160   1.475   3.176  16.655  1.4462  0.6646 -1.6126
 9508SOL    HW240161   1.415   3.166  16.523 -0.5748  0.4061 -0.2512
 9509SOL     OW40162   3.458   0.172  12.308 -0.7427  0.4434  0.2780
 9509SOL    HW140163   3.372   0.215  12.309  0.1642  2.2357 -0.3669
 9509SOL    HW240164   3.445   0.104  12.374 -1.0671  0.7436  0.5190
 9510SOL     OW40165   3.705   3.487   2.917  0.2411  0.4706  1.2413
 9510SOL    HW140166   3.755   3.405   2.922  0.0094  0.3302  1.2350
 9510SOL    HW240167   3.638   3.452   2.859  1.7535 -0.6636  0.1740
 9511SOL     OW40168   0.665   0.345   8.275  0.1475 -0.1236  0.0457
 9511SOL    HW140169   0.747   0.325   8.228  0.9721  1.1454  0.9402
 9511SOL    HW240170   0.680   0.288   8.351  0.2266 -0.3931 -0.1715
 9512SOL     OW40171   4.729   1.328   7.795 -0.1556 -0.0311 -0.0488
 9512SOL    HW140172   4.679   1.360   7.870  0.3086  0.3207  0.1070
 9512SOL    HW240173   0.020   1.405   7.748  0.8281 -0.5401 -0.2143
 9513SOL     OW40174   0.042   1.720   3.920 -0.2479  0.9649 -0.0187
 9513SOL    HW140175   0.076   1.723   4.010  0.6447  1.1575 -0.3546
 9513SOL    HW240176   4.704   1.668   3.933  1.3504 -1.7334 -0.9159
 9514SOL     OW40177   0.165   2.754   9.918 -0.1536  0.3691  0.1248
 9514SOL    HW140178   0.103   2.826   9.927  1.7679  2.0447  0.0962
 9514SOL    HW240179   0.125   2.709   9.844  2.1463  2.1703 -2.2176
 9515SOL     OW40180   4.666   0.044  11.262 -0.2300 -0.3230 -0.1151
 9515SOL    HW140181   0.005   0.014  11.306 -1.0103  0.1319  1.6214
 9515SOL    HW240182   4.709   0.090  11.190 -1.5097  3.2679  1.3979
 9516SOL     OW40183   4.478   0.398   4.771  0.1242 -0.0401  0.0660
 9516SOL    HW140184   4.402   0.388   4.714  0.5773 -1.7844 -0.2276
 9516SOL    HW240185   4.534   0.323   4.754 -0.1925  0.2553 -2.2096
 9517SOL     OW40186   3.543   2.377   0.780 -0.2799  0.2366 -0.7464
 9517SOL    HW140187   3.487   2.300   0.783 -1.6964  1.2433 -1.1525
 9517SOL    HW240188   3.490   2.431   0.721 -0.9201  1.3758  0.8747
 9518SOL     OW40189   0.748   1.893  12.532  0.0672  0.1881  0.5599
 9518SOL    HW140190   0.680   1.856  12.476 -0.5484  0.7589  0.9299
 9518SOL    HW240191   0.821   1.836  12.510  1.1482  1.5932  0.5296
 9519SOL     OW40192   0.065   3.338   1.427 -0.3184 -0.1321  0.4435
 9519SOL    HW140193   0.032   3.387   1.503 -0.1193  0.4877  0.1250
 9519SOL    HW240194   0.114   3.280   1.486 -0.6590 -1.1554 -0.2754
 9520SOL     OW40195   3.302   2.998   7.816 -0.1883  0.2614  0.7039
 9520SOL    HW140196   3.273   3.023   7.729  0.7968  0.3941  0.4121
 9520SOL    HW240197   3.364   3.067   7.841  1.1748 -0.4136 -0.7979
 9521SOL     OW40198   3.273   2.328   3.351  0.1468 -0.4820 -0.2746
 9521SOL    HW140199   3.353   2.366   3.314 -1.8878  3.4823 -0.5272
 9521SOL    HW240200   3.230   2.310   3.267 -2.0248 -1.1590  0.9886
 9522SOL     OW40201   0.960   4.215  17.201  0.6073 -0.0253 -0.5304
 9522SOL    HW140202   0.966   4.217  17.297 -0.7863  0.4052 -0.4547
 9522SOL    HW240203   1.054   4.215  17.184  0.7973 -2.2056  0.4214
 9523SOL     OW40204   4.197   1.892   9.135 -0.3877 -0.2412 -0.2348
 9523SOL    HW140205   4.179   1.873   9.042  0.4541 -0.4433 -0.3493
 9523SOL    HW240206   4.197   1.803   9.170  1.7408  0.7012  2.1484
 9524SOL     OW40207   4.317   4.716   5.820 -0.4448 -0.1772 -0.0396
 9524SOL    HW140208   4.264   4.646   5.858 -2.7780  2.6428  1.9246
 9524SOL    HW240209   4.389   4.723   5.883  0.0540 -1.8509 -0.4175
 9525SOL     OW40210   2.221   2.845  12.989 -0.0728 -0.4505  0.0790
 9525SOL    HW140211   2.192   2.797  12.912  0.0412  1.4032 -1.1113
 9525SOL    HW240212   2.312   2.866  12.970 -0.8778  1.8237 -1.2586
 9526SOL     OW40213   2.350   3.124   4.125  0.1846 -0.4889 -0.2709
 9526SOL    HW140214   2.288   3.088   4.061 -2.0099  0.7210  1.1796
 9526SOL    HW240215   2.406   3.051   4.149 -0.8379 -0.9499  0.6769
 9527SOL     OW40216   1.299   0.487   3.806  0.0670  0.1502 -0.0024
 9527SOL    HW140217   1.247   0.443   3.873 -0.1911  1.3170  0.5741
 9527SOL    HW240218   1.367   0.536   3.853 -1.4676  0.2818  2.1287
 9528SOL     OW40219   2.484   3.376  14.730  0.4321 -0.6464 -0.3657
 9528SOL    HW140220   2.526   3.453  14.768 -0.0706  0.2505 -1.6326
 9528SOL    HW240221   2.565   3.344  14.689 -0.0003 -2.5820  0.2868
 9529SOL     OW40222   1.801   1.347   3.833  0.0990 -0.4331 -0.1733
 9529SOL    HW140223   1.828   1.436   3.857  1.5667 -0.7944 -0.4896
 9529SOL    HW240224   1.741   1.366   3.761  1.3171 -0.3032 -1.1404
 9530SOL     OW40225   2.405   0.406   8.348 -0.9010  0.4382 -0.4179
 9530SOL    HW140226   2.397   0.434   8.439 -0.6401 -0.2750 -0.1711
 9530SOL    HW240227   2.498   0.383   8.348 -0.1894  3.3434 -0.4772
 9531SOL     OW40228   2.159   1.336   4.477  0.2392 -0.2769  0.1633
 9531SOL    HW140229   2.209   1.315   4.556  1.2154 -4.0597 -1.4292
 9531SOL    HW240230   2.113   1.253   4.463 -0.4368 -0.0277  0.9313
 9532SOL     OW40231   2.714   4.668   3.347  0.0723  0.0300 -0.3537
 9532SOL    HW140232   2.785   4.676   3.284  1.1048  2.2443  1.0510
 9532SOL    HW240233   2.770   4.631   3.416 -2.0771 -1.7890  0.4164
 9533SOL     OW40234   2.820   0.930   5.829  0.0937  0.1564 -0.6633
 9533SOL    HW140235   2.749   0.890   5.880  0.0703  1.7838  0.5795
 9533SOL    HW240236   2.834   1.008   5.884  1.1930 -0.7340  0.3238
 9534SOL     OW40237   4.608   1.830  13.764  0.4885 -0.7026 -0.2644
 9534SOL    HW140238   4.602   1.924  13.780 -2.3772 -0.9692  0.2739
 9534SOL    HW240239   4.515   1.805  13.762  0.1886  0.4684 -0.6102
 9535SOL     OW40240   1.357   3.766   6.294 -0.4750 -0.3283 -0.0909
 9535SOL    HW140241   1.365   3.780   6.200 -0.7625  0.4930  0.0061
 9535SOL    HW240242   1.337   3.674   6.278 -1.1030  0.1091 -1.8630
 9536SOL     OW40243   2.270   3.371   5.491  0.2885 -0.0161  0.2246
 9536SOL    HW140244   2.296   3.400   5.578  2.2272 -1.3188  0.0699
 9536SOL    HW240245   2.330   3.421   5.435 -0.6578 -0.3022 -1.0620
 9537SOL     OW40246   1.185   4.113   3.996 -0.4511  0.5076 -0.7464
 9537SOL    HW140247   1.270   4.107   3.952 -1.5791  1.4908 -3.0660
 9537SOL    HW240248   1.128   4.119   3.920 -0.6756 -0.1261 -0.6203
 9538SOL     OW40249   3.816   1.921   9.594 -0.1028  0.2354  0.3369
 9538SOL    HW140250   3.892   1.979   9.594  0.7280 -0.8510 -2.4365
 9538SOL    HW240251   3.741   1.976   9.569 -0.7346 -0.3992  0.8311
 9539SOL     OW40252   0.052   3.041   7.496  0.0545 -0.4263  0.1617
 9539SOL    HW140253   0.146   3.031   7.484 -0.1084  0.1651 -1.6434
 9539SOL    HW240254   0.018   2.954   7.515 -1.4858  0.3337  0.9231
 9540SOL     OW40255   1.170   2.604   3.441 -0.2526  0.2901  0.2375
 9540SOL    HW140256   1.216   2.560   3.512  0.2520 -0.6271 -0.6579
 9540SOL    HW240257   1.105   2.651   3.493 -0.5117 -0.9805  1.0668
 9541SOL     OW40258   0.913   1.827  10.750  0.2130  0.3870 -0.0513
 9541SOL    HW140259   0.986   1.770  10.724 -0.9253 -1.5354  1.0018
 9541SOL    HW240260   0.961   1.907  10.727 -0.6932  1.0916  0.5306
 9542SOL     OW40261   0.413   1.003   5.662  0.2507  0.1323 -0.2401
 9542SOL    HW140262   0.396   1.086   5.618  2.7903  0.9664  0.3273
 9542SOL    HW240263   0.412   1.030   5.754  1.6192  0.0061 -0.1910
 9543SOL     OW40264   0.521   1.604  13.777 -0.0644  0.3933  0.0463
 9543SOL    HW140265   0.540   1.605  13.870  0.5922  4.6875 -0.1436
 9543SOL    HW240266   0.567   1.681  13.744  0.6198 -0.5113 -1.1235
 9544SOL     OW40267   0.375   2.128  11.784 -0.1419  0.1218  0.4589
 9544SOL    HW140268   0.313   2.070  11.738 -0.8136  0.1747  1.2834
 9544SOL    HW240269   0.423   2.069  11.842  0.5234  1.2001  0.9922
 9545SOL     OW40270   4.371   2.576  11.647  0.3123 -0.6256 -0.3257
 9545SOL    HW140271   4.410   2.658  11.680  1.3502 -1.1801 -0.1691
 9545SOL    HW240272   4.430   2.559  11.573 -0.5726 -1.4648 -0.8346
 9546SOL     OW40273   1.497   4.580  17.320  0.1729  0.0218  0.2307
 9546SOL    HW140274   1.482   4.562  17.412 -0.0665 -2.8359 -0.3830
 9546SOL    HW240275   1.444   4.509  17.284  0.5929 -0.6588  0.9744
 9547SOL     OW40276   3.916   4.287  14.051  0.5271 -0.1153 -0.6641
 9547SOL    HW140277   3.901   4.371  14.008 -2.4704 -0.5311 -0.4691
 9547SOL    HW240278   3.826   4.254  14.055  0.1799  1.1889  2.1893
 9548SOL     OW40279   3.928   3.565   7.897 -0.2921 -0.1086  0.0001
 9548SOL    HW140280   3.954   3.564   7.805 -2.2693  0.8631 -0.5635
 9548SOL    HW240281   3.939   3.660   7.905 -1.1245 -0.1869  2.1718
 9549SOL     OW40282   4.740   3.557   3.618 -0.0323  0.0036 -0.0934
 9549SOL    HW140283   4.739   3.560   3.522  1.8941 -0.1391 -0.1159
 9549SOL    HW240284   4.722   3.648   3.640 -0.5345 -0.0825 -0.1591
 9550SOL     OW40285   1.115   1.033   8.324  0.5274  0.4531 -0.0304
 9550SOL    HW140286   1.025   1.055   8.346  0.2284 -0.8915  0.0968
 9550SOL    HW240287   1.097   0.945   8.290  1.3561 -0.3341  1.5649
 9551SOL     OW40288   4.452   0.891   6.164 -0.5406 -0.2520  0.3416
 9551SOL    HW140289   4.386   0.825   6.146  1.7975 -1.6272 -3.1200
 9551SOL    HW240290   4.499   0.894   6.081 -2.2639  1.4615 -0.5427
 9552SOL     OW40291   3.344   0.379   3.678  0.4076 -0.0170 -0.0953
 9552SOL    HW140292   3.248   0.384   3.684  0.3795 -0.6572  0.0314
 9552SOL    HW240293   3.369   0.450   3.619 -0.7076 -1.1504 -1.9722
 9553SOL     OW40294   3.106   2.222   1.063 -0.4297  0.1974  0.4579
 9553SOL    HW140295   3.177   2.188   1.117  0.4902  0.3485 -0.6677
 9553SOL    HW240296   3.106   2.314   1.091  0.3667 -0.1916  1.7112
 9554SOL     OW40297   0.864   0.856  11.364  0.2735  0.2917  0.1250
 9554SOL    HW140298   0.901   0.944  11.363 -0.6266  0.6968  2.7717
 9554SOL    HW240299   0.946   0.808  11.352 -0.2405 -1.2015  2.8069
 9555SOL     OW40300   3.844   1.768  10.061  0.7207 -0.2233 -0.3120
 9555SOL    HW140301   3.870   1.771   9.969  1.6594  0.7591 -0.0084
 9555SOL    HW240302   3.900   1.696  10.089 -0.4332 -1.2107 -0.5216
 9556SOL     OW40303   3.931   4.585   1.739 -0.2566  0.4587  0.3566
 9556SOL    HW140304   3.984   4.648   1.788  1.5681 -0.0378 -0.9659
 9556SOL    HW240305   3.863   4.579   1.807  1.9999 -0.8057  2.5014
 9557SOL     OW40306   1.271   2.533   5.783  0.2283 -0.2301  0.3607
 9557SOL    HW140307   1.203   2.479   5.742 -0.6857  2.2018 -1.3156
 9557SOL    HW240308   1.220   2.586   5.844  1.3963  0.5103  0.6954
 9558SOL     OW40309   1.794   4.233  11.415  0.0473  0.4354  0.2617
 9558SOL    HW140310   1.733   4.306  11.427  1.6078  1.6034  0.9634
 9558SOL    HW240311   1.873   4.285  11.430  0.2710  0.6421 -1.5706
 9559SOL     OW40312   3.821   1.645  17.029  0.6365 -0.2947 -0.0108
 9559SOL    HW140313   3.805   1.581  16.960 -2.4069  0.3001  0.1321
 9559SOL    HW240314   3.729   1.662  17.051  0.1672 -3.5482  0.4555
 9560SOL     OW40315   3.804   2.665   5.061 -0.1077  0.2276  0.1505
 9560SOL    HW140316   3.769   2.581   5.030  1.2126 -0.4887  0.5852
 9560SOL    HW240317   3.847   2.695   4.981 -1.2628 -1.9462 -1.3093
 9561SOL     OW40318   1.165   1.700   4.904 -0.5373  0.2414  0.2103
 9561SOL    HW140319   1.149   1.783   4.949 -1.2736 -1.0002  2.2469
 9561SOL    HW240320   1.107   1.636   4.944 -1.2247  1.3739  1.0461
 9562SOL     OW40321   3.874   1.556  13.802  0.6480 -0.1543  0.8181
 9562SOL    HW140322   3.792   1.561  13.752  1.0098  0.5836  0.2908
 9562SOL    HW240323   3.858   1.478  13.855  0.7699 -0.0301  1.0390
 9563SOL     OW40324   1.371   3.789   9.302 -0.0439 -0.1715 -0.1146
 9563SOL    HW140325   1.410   3.711   9.262  2.1929 -0.5706  2.7542
 9563SOL    HW240326   1.335   3.750   9.382 -0.6341  1.3110  0.3433
 9564SOL     OW40327   3.226   4.092  16.709  1.0990 -0.3481 -0.1661
 9564SOL    HW140328   3.170   4.106  16.785  0.6682 -0.2294 -0.5076
 9564SOL    HW240329   3.182   4.018  16.667 -0.7036  0.7669 -0.2422
 9565SOL     OW40330   1.973   3.788   8.681  0.4298 -0.2537  0.0591
 9565SOL    HW140331   1.982   3.715   8.742  2.0687  1.6598  2.0790
 9565SOL    HW240332   1.951   3.851   8.749 -0.2223 -0.0985 -0.2954
 9566SOL     OW40333   2.651   3.381  11.848  0.4102 -0.2714  0.4645
 9566SOL    HW140334   2.714   3.338  11.790  2.5258  3.2434  0.2158
 9566SOL    HW240335   2.630   3.457  11.794  4.0470 -0.1520 -0.7529
 9567SOL     OW40336   2.701   1.147   8.403  0.1845 -0.5001 -0.0412
 9567SOL    HW140337   2.658   1.066   8.377  1.2708 -0.3302 -2.3576
 9567SOL    HW240338   2.794   1.124   8.399  0.1194 -0.4558 -1.7815
 9568SOL     OW40339   1.768   1.606  13.709  0.0660  0.3608 -0.0573
 9568SOL    HW140340   1.698   1.671  13.700  0.6787  1.1192  0.6884
 9568SOL    HW240341   1.761   1.586  13.802 -1.3289  0.1615 -0.2049
 9569SOL     OW40342   0.410   0.285   7.298 -0.2634  0.1903  0.2303
 9569SOL    HW140343   0.409   0.190   7.292 -3.1515  0.1587  1.3865
 9569SOL    HW240344   0.444   0.309   7.384 -0.6851 -0.3067  0.5326
   4.74083   4.74083  17.76071
