Membrane in water
40344
    1TMC1    C1    1   0.441   4.699  11.637 -0.2550 -0.6857 -0.3481
    1TMC1    C2    2   0.359   0.069  11.644  0.4786 -0.7275 -0.2042
    1TMC1    C3    3   0.385   0.166  11.544  0.4176 -0.0828  0.5758
    1TMC1    C4    4   0.561   4.700  11.559 -0.0323 -0.2013 -0.5625
    1TMC1    C5    5   0.582   0.066  11.478  0.0646 -0.3947 -0.9548
    1TMC1    C6    6   0.498   0.163  11.463 -0.1968  0.3377  0.2573
    1TMC1     C    7   0.406   4.587  11.718  0.2353 -0.1114 -0.2026
    1TMC1     O    8   0.319   4.607  11.805 -0.3417 -0.4670 -0.0519
    1TMC1     H    9   0.269   0.071  11.705  1.4271  1.2499  1.1070
    1TMC1    H1   10   0.644   4.632  11.576  0.2679  0.4007  0.4110
    1TMC1    H2   11   0.527   0.251  11.407 -1.4394 -1.1924 -2.7393
    1TMC1    C7   12   0.691   0.051  11.388  0.0592 -0.1012 -0.6800
    1TMC1    C8   13   0.285   0.256  11.511  0.5993  0.2597  0.2261
    1TMC1    O1   14   0.777   4.702  11.409 -0.6233 -0.4307  0.2470
    1TMC1    O2   15   0.189   0.277  11.586  0.4535 -0.3381  0.1675
    1TMC1    O3   16   0.660   0.088  11.263 -0.3708 -0.3545  0.1840
    1TMC1    H3   17   0.592   0.156  11.242  0.9266  1.4937  1.9647
    1TMC1    O5   18   0.278   0.268  11.371  0.3337  0.1331  0.1384
    1TMC1    H5   19   0.361   0.243  11.324  1.0627 -0.5739  1.7760
    2MPD2     C   20   0.377   4.086  11.817  0.0036  0.0901 -0.1286
    2MPD2    C1   21   0.311   4.191  11.875 -0.5367 -0.2189 -0.1981
    2MPD2    C2   22   0.337   4.319  11.830  0.6296  0.4814  0.2941
    2MPD2    C3   23   0.429   4.344  11.727  1.1011  0.0005  1.1941
    2MPD2    C4   24   0.489   4.240  11.669  0.0854  0.4192 -0.3096
    2MPD2    C5   25   0.473   4.117  11.722 -0.5122 -0.0948 -0.5243
    2MPD2     H   26   0.279   4.395  11.882  0.3979  1.6367 -1.6358
    2MPD2    H1   27   0.567   4.253  11.595  0.7328 -0.6100  0.1805
    2MPD2    H2   28   0.359   3.986  11.855  0.5878 -0.2314 -0.7120
    2MPD2    H3   29   0.527   4.029  11.687 -3.6996 -2.2076 -0.1108
    2MPD2     N   30   0.461   4.469  11.675 -0.7092 -0.6646  0.3743
    2MPD2    H5   31   0.510   4.463  11.586  0.7664 -1.1109  1.2076
    2MPD2    N1   32   0.218   4.177  11.974 -0.4336 -0.2123 -0.4565
    2MPD2    H7   33   0.173   4.266  11.995 -0.2762  0.1376 -1.5962
    3TMC1    C1   34   4.433   0.845  11.037 -0.5751  0.1417  0.0860
    3TMC1    C2   35   4.477   0.963  10.987  0.2689 -0.2517  0.0621
    3TMC1    C3   36   4.522   0.965  10.858 -0.3911 -0.6319  0.2770
    3TMC1    C4   37   4.422   0.731  10.957  0.2520  0.1191  0.2757
    3TMC1    C5   38   4.475   0.738  10.836  0.3388  0.0824  0.2415
    3TMC1    C6   39   4.510   0.853  10.779  0.2650 -0.2102 -0.0246
    3TMC1     C   40   4.360   0.821  11.163  0.7366  0.1347  0.2001
    3TMC1     O   41   4.363   0.710  11.209  0.5666  0.1212  0.3733
    3TMC1     H   42   4.467   1.054  11.044  1.0127 -0.8114  1.0883
    3TMC1    H1   43   4.391   0.637  11.002  1.0184 -0.5136 -0.5185
    3TMC1    H2   44   4.530   0.853  10.673 -0.2966  0.0366 -0.1357
    3TMC1    C7   45   4.458   0.623  10.756  0.1986  0.0970  0.5214
    3TMC1    C8   46   4.591   1.087  10.815 -0.3227  0.2322  0.9025
    3TMC1    O1   47   4.540   0.599  10.668 -0.2575 -0.7888  0.4201
    3TMC1    O2   48   4.597   1.185  10.889  0.5231  0.6869 -0.4009
    3TMC1    O3   49   4.327   0.647  10.722 -0.8497 -0.0035 -0.0707
    3TMC1    H3   50   4.280   0.702  10.788 -1.4324 -0.3187 -0.2321
    3TMC1    O5   51   4.678   1.057  10.718 -0.0343  0.1449  0.1757
    3TMC1    H5   52   4.652   0.979  10.664  0.9567  0.3771 -0.6425
    4MPD2     C   53   4.094   0.953  11.576 -0.4108  0.3450 -0.1804
    4MPD2    C1   54   4.184   1.056  11.544 -0.5638  0.4745 -0.0111
    4MPD2    C2   55   4.263   1.048  11.430 -0.6990  0.4686  0.5054
    4MPD2    C3   56   4.263   0.938  11.345 -0.6023 -0.1976  0.4434
    4MPD2    C4   57   4.174   0.839  11.378  0.6066  0.1964 -0.1885
    4MPD2    C5   58   4.091   0.844  11.489  0.6862  0.4353  0.1725
    4MPD2     H   59   4.339   1.120  11.402  0.9794 -1.9943 -1.2734
    4MPD2    H1   60   4.159   0.754  11.313 -0.4851 -0.8957  1.4919
    4MPD2    H2   61   4.027   0.962  11.660  0.5287 -0.2216  0.6390
    4MPD2    H3   62   4.021   0.764  11.507 -0.1056  0.5249 -2.6178
    4MPD2     N   63   4.334   0.937  11.225 -0.1116  0.4926 -0.3715
    4MPD2    H5   64   4.376   1.023  11.190 -1.2600  1.6330  1.0394
    4MPD2    N1   65   4.184   1.177  11.611 -0.4933  0.1229  0.2197
    4MPD2    H7   66   4.245   1.245  11.569 -0.8666  0.7719  0.7377
    5TCq1    O1   67   0.483   2.397  12.074 -0.3738 -0.3044 -0.0974
    5TCq1    C1   68   0.384   2.358  12.162 -0.8199 -0.3216  0.4909
    5TCq1    O2   69   0.393   2.334  12.283 -0.6778  0.4104  0.1252
    5TCq1    C2   70   0.257   2.405  12.105  0.2100  0.2669  0.5785
    5TCq1    C3   71   0.153   2.428  12.187  0.0976 -0.4983  0.2120
    5TCq1    C4   72   0.030   2.439  12.129 -0.0968 -0.7660  0.1266
    5TCq1    C5   73   0.007   2.421  11.992 -0.2444 -0.0261 -1.0402
    5TCq1    C6   74   0.117   2.395  11.916 -0.2008 -0.2667  0.0301
    5TCq1    C7   75   0.239   2.378  11.972 -0.6026  0.4836 -0.2800
    5TCq1    C8   76   0.095   2.390  11.772  0.7465 -0.1368  0.2332
    5TCq1    O4   77   0.182   2.338  11.707  0.6116  0.5205  0.0413
    5TCq1    C9   78   4.658   2.461  12.220  0.0154  1.0298 -0.3987
    5TCq1    O5   79   4.541   2.447  12.177 -0.1196 -0.0999 -0.4712
    5TCq1    O6   80   4.682   2.449  12.340 -0.5598 -0.0119 -0.5579
    5TCq1    H1   81   0.446   2.450  12.001 -0.2942 -2.3092 -1.5750
    5TCq1    H2   82   0.170   2.425  12.294  0.6814  0.2498  0.1382
    5TCq1    H3   83   4.641   2.427  11.957 -0.8526  1.0211  0.8904
    5TCq1    H4   84   0.321   2.335  11.916 -0.7592  0.8686 -0.8001
    6MPD2     C   85   4.630   2.637  11.600 -0.0727  0.1904 -0.0254
    6MPD2    C1   86   4.704   2.523  11.610 -0.1476 -0.4723  0.1427
    6MPD2    C2   87   4.734   2.445  11.495 -0.1992  0.1026 -0.4085
    6MPD2    C3   88   4.689   2.483  11.374  0.1618 -0.6097 -0.1825
    6MPD2    C4   89   4.606   2.598  11.361 -0.4586  0.1954  0.1173
    6MPD2    C5   90   4.584   2.678  11.479 -0.5083 -1.0152  0.2583
    6MPD2     H   91   0.068   2.363  11.501 -0.6788 -0.2917 -0.0986
    6MPD2    H1   92   4.575   2.633  11.263 -2.0596  0.4393  0.7040
    6MPD2    H2   93   4.618   2.694  11.691 -0.8105  1.2347 -0.7844
    6MPD2    H3   94   4.528   2.770  11.468 -1.7029 -1.5179  2.1259
    6MPD2     N   95   4.732   2.409  11.262  0.5423 -0.2569  0.3125
    6MPD2    H5   96   0.072   2.343  11.264  0.3207 -0.5123  0.3270
    6MPD2    N1   97   0.007   2.494  11.739  0.2207  0.0071 -0.1600
    6MPD2    H7   98   4.713   2.559  11.810 -1.3413  0.2919 -1.0924
    7TCq1    O1   99   1.668   2.055  13.874 -0.4120  0.7558  0.0060
    7TCq1    C1  100   1.577   1.977  13.937  0.0705  0.4516  0.1394
    7TCq1    O2  101   1.482   2.021  13.998  0.1042 -0.0512 -0.0323
    7TCq1    C2  102   1.628   1.845  13.964 -0.4571 -0.1170  0.6924
    7TCq1    C3  103   1.606   1.798  14.088  0.0890 -0.4557  0.2517
    7TCq1    C4  104   1.672   1.696  14.136  0.1898 -1.1950  0.2208
    7TCq1    C5  105   1.760   1.631  14.056 -0.4572 -0.1967 -1.0317
    7TCq1    C6  106   1.786   1.679  13.935 -0.0454  0.9068  0.2186
    7TCq1    C7  107   1.727   1.795  13.880  0.2199 -0.1598  0.2875
    7TCq1    C8  108   1.886   1.601  13.851  0.0186 -0.1497 -0.0941
    7TCq1    O4  109   1.935   1.498  13.890 -0.6274  0.3579  0.0308
    7TCq1    C9  110   1.634   1.643  14.258  1.1562  0.3354  0.0819
    7TCq1    O5  111   1.510   1.642  14.279 -0.2526 -0.2627 -0.8841
    7TCq1    O6  112   1.728   1.581  14.324 -0.0746 -0.1716 -0.6146
    7TCq1    H1  113   1.744   2.002  13.841  0.0433  2.5766 -1.8726
    7TCq1    H2  114   1.530   1.843  14.151  0.4117 -0.2108  0.4633
    7TCq1    H3  115   1.811   1.543  14.093 -1.0208  0.2762  0.8467
    7TCq1    H4  116   1.722   1.823  13.775  0.6716 -0.1141  0.2801
    8MPD2     C  117   2.100   1.507  13.394  0.5571  0.9000 -0.0543
    8MPD2    C1  118   2.087   1.422  13.502 -0.2872  0.8323  0.5156
    8MPD2    C2  119   2.031   1.471  13.615 -0.2639 -0.3874  0.4225
    8MPD2    C3  120   1.974   1.601  13.617  0.6158  0.4728  0.4388
    8MPD2    C4  121   1.977   1.678  13.504  0.6965  0.9776  0.0297
    8MPD2    C5  122   2.043   1.629  13.395  0.5014  0.2256 -0.3601
    8MPD2     H  123   2.021   1.412  13.705 -0.9426 -2.0371 -0.7250
    8MPD2    H1  124   1.934   1.778  13.499 -1.8167 -0.2091 -1.9222
    8MPD2    H2  125   2.153   1.481  13.303  1.7287 -0.6305  1.0731
    8MPD2    H3  126   2.034   1.686  13.303 -0.5227  2.0788  0.9078
    8MPD2     N  127   1.897   1.654  13.727 -0.1423 -0.7753 -0.1136
    8MPD2    H5  128   1.858   1.747  13.713  1.4800 -0.0604  0.1890
    8MPD2    N1  129   2.168   1.306  13.505  0.3464  0.8447 -0.7615
    8MPD2    H7  130   2.230   1.283  13.427 -0.6628  0.5807 -1.4871
    9TMC1    C1  131   0.089   0.641  11.407 -0.3620  0.5977 -0.8778
    9TMC1    C2  132   0.208   0.603  11.463 -0.2031 -0.9170 -0.3678
    9TMC1    C3  133   0.326   0.636  11.396  0.0345  0.0002 -0.2232
    9TMC1    C4  134   0.093   0.697  11.284  0.1517  0.2086  0.0482
    9TMC1    C5  135   0.206   0.729  11.222  0.2367  1.0239 -0.2788
    9TMC1    C6  136   0.322   0.702  11.276 -0.2269 -0.1840  0.2467
    9TMC1     C  137   4.706   0.572  11.443 -0.4750  0.3904  0.0026
    9TMC1     O  138   4.625   0.561  11.352  0.3650 -0.1159 -0.4373
    9TMC1     H  139   0.224   0.550  11.556  2.3726 -1.0048 -0.8526
    9TMC1    H1  140   0.002   0.710  11.226 -0.1981 -0.2899  0.4867
    9TMC1    H2  141   0.409   0.711  11.212 -0.7785 -2.4437 -0.8181
    9TMC1    C7  142   0.197   0.733  11.079 -0.2869 -0.1600 -0.4100
    9TMC1    C8  143   0.451   0.607  11.461  0.4687 -0.0484 -0.2059
    9TMC1    O1  144   0.097   0.772  11.023  0.0408 -0.3240 -0.5065
    9TMC1    O2  145   0.458   0.608  11.585 -0.0694  0.6872 -0.3408
    9TMC1    O3  146   0.285   0.638  11.034 -0.0273  0.0774  0.2443
    9TMC1    H3  147   0.343   0.597  11.101 -1.5026 -0.4091  1.2121
    9TMC1    O5  148   0.532   0.554  11.371  0.1238  0.4845  0.5913
    9TMC1    H5  149   0.491   0.527  11.287  1.0146  0.3058  0.2204
   10MPD2     C  150   4.581   0.329  11.537 -0.1053  0.3917 -0.1380
   10MPD2    C1  151   4.630   0.425  11.624 -0.1295  0.4784 -0.0551
   10MPD2    C2  152   4.601   0.425  11.762  0.2080  1.0511  0.2876
   10MPD2    C3  153   4.511   0.331  11.809  0.2729  0.0061  0.4024
   10MPD2    C4  154   4.457   0.236  11.721  0.2428 -0.4334  0.5439
   10MPD2    C5  155   4.500   0.233  11.587 -0.0323 -0.5786 -0.1945
   10MPD2     H  156   4.645   0.507  11.818  2.2787  0.4919 -0.5200
   10MPD2    H1  157   4.385   0.169  11.765  0.8228 -0.6695  1.1394
   10MPD2    H2  158   4.598   0.325  11.430  1.0740 -0.1371  0.0678
   10MPD2    H3  159   4.463   0.162  11.514  1.5685  1.3647 -2.8777
   10MPD2     N  160   4.471   0.320  11.944 -0.2424  0.4185  0.3120
   10MPD2    H5  161   4.425   0.232  11.965 -0.2199  0.1977 -0.5650
   10MPD2    N1  162   4.703   0.532  11.576 -0.8726 -0.3960 -0.5780
   10MPD2    H7  163   0.027   0.574  11.646 -1.5735 -0.7097  0.2125
   11TCq1    O1  164   0.747   4.209  14.592  0.0543 -0.4123  0.2188
   11TCq1    C1  165   0.710   4.319  14.649  0.4693  0.6195 -0.3126
   11TCq1    O2  166   0.766   4.383  14.737  0.1738  0.1257  0.1623
   11TCq1    C2  167   0.565   4.322  14.640  0.5225 -0.6919  0.8689
   11TCq1    C3  168   0.487   4.377  14.742 -0.0786  0.1917 -0.0960
   11TCq1    C4  169   0.352   4.375  14.720 -0.0693 -0.8153 -0.0770
   11TCq1    C5  170   0.297   4.315  14.616  0.2657 -0.2353  0.1175
   11TCq1    C6  171   0.375   4.246  14.536  0.0526  0.0874 -0.0000
   11TCq1    C7  172   0.513   4.249  14.534 -0.0227 -0.7438 -0.2193
   11TCq1    C8  173   0.303   4.200  14.426 -0.0837 -0.3040  0.2095
   11TCq1    O4  174   0.178   4.196  14.440 -0.1154  1.0727 -0.8750
   11TCq1    C9  175   0.271   4.421  14.830 -0.4519 -0.4928  0.0056
   11TCq1    O5  176   0.317   4.402  14.944  0.3084 -0.4356  0.3787
   11TCq1    O6  177   0.149   4.439  14.798 -0.2900 -0.0927  0.4113
   11TCq1    H1  178   0.684   4.157  14.538  2.6118 -1.2948 -1.9253
   11TCq1    H2  179   0.523   4.418  14.835 -0.7150 -1.7702  1.0215
   11TCq1    H3  180   0.190   4.321  14.602  0.5014 -0.4496 -1.8853
   11TCq1    H4  181   0.574   4.228  14.447  0.3064 -0.5198 -0.0441
   12MPD2     C  182   0.197   4.104  14.157 -0.2060 -0.2955  0.3256
   12MPD2    C1  183   0.328   4.084  14.205  0.4720  0.6168 -0.3400
   12MPD2    C2  184   0.412   3.991  14.145  0.0897  0.0075  0.3434
   12MPD2    C3  185   0.371   3.920  14.031 -0.6640 -0.3303  0.9432
   12MPD2    C4  186   0.245   3.945  13.984 -0.8175  0.2963 -0.1485
   12MPD2    C5  187   0.157   4.022  14.051 -0.0238  0.6400 -0.6556
   12MPD2     H  188   0.512   3.977  14.185 -0.1709 -4.1806 -0.4769
   12MPD2    H1  189   0.201   3.896  13.897  2.1927  2.7761 -3.0455
   12MPD2    H2  190   0.115   4.159  14.203 -0.7418 -2.0449  1.4844
   12MPD2    H3  191   0.055   4.032  14.018 -0.9783 -1.7773  1.5508
   12MPD2     N  192   0.447   3.827  13.961  0.5398  0.1577 -0.1841
   12MPD2    H5  193   0.399   3.798  13.876 -0.2105 -0.7754  0.5591
   12MPD2    N1  194   0.377   4.148  14.323 -0.0746 -0.0423  0.6417
   12MPD2    H7  195   0.476   4.134  14.340  0.0836 -2.4683 -2.3611
   13TCq1    O1  196   0.628   0.144  10.723  0.3738  0.9346  0.5513
   13TCq1    C1  197   0.497   0.115  10.715  0.2276  0.9180  0.6784
   13TCq1    O2  198   0.454   0.011  10.669 -0.7279 -0.2822 -0.5423
   13TCq1    C2  199   0.425   0.212  10.785  0.7819  0.0316 -0.1347
   13TCq1    C3  200   0.471   0.241  10.910  0.0518  0.1455  0.9135
   13TCq1    C4  201   0.397   0.302  11.003 -0.2404  0.0575  0.4638
   13TCq1    C5  202   0.269   0.333  10.979 -0.4066 -0.2148 -0.6742
   13TCq1    C6  203   0.217   0.301  10.858 -0.8935 -0.0373 -0.7571
   13TCq1    C7  204   0.290   0.219  10.770 -0.0670  0.2280 -0.8362
   13TCq1    C8  205   0.071   0.295  10.843 -0.6066  0.4811 -0.2161
   13TCq1    O4  206   0.033   0.217  10.756  0.1060  0.3936  0.0994
   13TCq1    C9  207   0.449   0.340  11.124 -0.2346  0.1422 -0.7693
   13TCq1    O5  208   0.466   0.241  11.200 -0.1832 -0.3257  0.4998
   13TCq1    O6  209   0.416   0.455  11.162 -0.0906 -0.2948 -0.6274
   13TCq1    H1  210   0.648   0.238  10.744  3.3797  0.2234  0.9182
   13TCq1    H2  211   0.579   0.232  10.924  0.0725  1.4475  1.6928
   13TCq1    H3  212   0.210   0.374  11.060  0.3527  2.5092 -1.4860
   13TCq1    H4  213   0.245   0.173  10.683  0.9070 -1.1664 -0.6089
   14MPD2     C  214   4.508   0.293  10.873 -0.0905  0.3057  0.7682
   14MPD2    C1  215   4.598   0.347  10.965  0.1856 -0.0308  0.4529
   14MPD2    C2  216   4.547   0.396  11.083  0.0468  0.1132 -0.3370
   14MPD2    C3  217   4.420   0.381  11.125 -0.2225 -0.9925  0.4434
   14MPD2    C4  218   4.340   0.312  11.041  0.4131  0.2702  0.1164
   14MPD2    C5  219   4.383   0.274  10.911 -0.1501  1.3810 -0.5750
   14MPD2     H  220   4.613   0.429  11.163 -1.4883 -1.8560  1.7290
   14MPD2    H1  221   4.237   0.283  11.061  0.6313 -1.3869 -1.2211
   14MPD2    H2  222   4.539   0.264  10.774 -0.8067  1.3663  0.2318
   14MPD2    H3  223   4.316   0.215  10.850  0.5840  2.6232 -2.5958
   14MPD2     N  224   4.390   0.430  11.251  0.4232 -0.5382 -0.4206
   14MPD2    H5  225   4.453   0.503  11.285 -0.1193  0.5045 -1.6653
   14MPD2    N1  226   0.004   0.361  10.944 -0.4906 -0.1882  0.2370
   14MPD2    H7  227   0.062   0.413  11.010 -3.1305  1.6055  1.1439
   15TCq1    O1  228   2.696   3.890   2.445 -0.3301 -0.4982 -0.4441
   15TCq1    C1  229   2.734   3.898   2.314  0.3802  0.8105  0.0582
   15TCq1    O2  230   2.840   3.852   2.281 -0.2470 -0.5209  0.2939
   15TCq1    C2  231   2.615   3.893   2.232  0.3198  0.2023  0.0958
   15TCq1    C3  232   2.506   3.976   2.251  0.2730  0.0449 -0.4708
   15TCq1    C4  233   2.393   3.954   2.189  0.1623 -0.9480  0.4684
   15TCq1    C5  234   2.391   3.849   2.098  0.1626 -0.1180  0.1092
   15TCq1    C6  235   2.497   3.766   2.080  0.5319  0.4176  0.0372
   15TCq1    C7  236   2.607   3.785   2.148  0.5994  1.0358 -0.2082
   15TCq1    C8  237   2.502   3.662   1.982  0.0885  0.0110  0.0547
   15TCq1    O4  238   2.614   3.631   1.942  0.7852  0.2467 -0.5229
   15TCq1    C9  239   2.269   4.026   2.200 -0.8709 -0.1973  0.5281
   15TCq1    O5  240   2.258   4.125   2.277 -0.5195  0.2743  0.0264
   15TCq1    O6  241   2.166   3.979   2.144  0.0235 -0.5755  0.2322
   15TCq1    H1  242   2.601   3.907   2.465  0.1056  0.8479  0.5410
   15TCq1    H2  243   2.514   4.044   2.334  1.8320 -0.1445 -0.4653
   15TCq1    H3  244   2.302   3.829   2.040  0.5112 -0.5850 -0.2635
   15TCq1    H4  245   2.684   3.708   2.149 -0.0497  0.4101  0.6953
   16MPD2     C  246   2.199   3.513   1.847 -0.7030 -0.1076  0.2925
   16MPD2    C1  247   2.331   3.540   1.849  0.4037 -0.3891 -0.5358
   16MPD2    C2  248   2.418   3.497   1.750  0.0560 -0.2369  0.1521
   16MPD2    C3  249   2.367   3.421   1.645 -0.1773  0.1754 -0.1923
   16MPD2    C4  250   2.236   3.380   1.645 -0.5682 -0.2295  0.1095
   16MPD2    C5  251   2.156   3.431   1.746  0.1862 -0.1239 -0.4457
   16MPD2     H  252   2.522   3.526   1.742  0.0036 -0.3882 -1.1350
   16MPD2    H1  253   2.193   3.310   1.574 -0.2854  0.6917 -0.9683
   16MPD2    H2  254   2.123   3.543   1.918  1.7392  1.5774  2.1824
   16MPD2    H3  255   2.050   3.409   1.741  0.2876 -0.7334  0.1453
   16MPD2     N  256   2.456   3.381   1.541  0.1935  0.4590  0.3492
   16MPD2    H5  257   2.552   3.408   1.559 -0.2820  2.2660  0.1732
   16MPD2    N1  258   2.370   3.615   1.957  0.0322 -0.6784 -0.0796
   16MPD2    H7  259   2.294   3.639   2.020  1.1011  0.8651  0.6183
   17TMC1    C1  260   0.138   4.076  11.463 -0.0800 -1.0867  0.3184
   17TMC1    C2  261   0.096   4.030  11.584  0.8056  0.1480 -0.0434
   17TMC1    C3  262   0.006   3.927  11.587 -0.5115  0.5718  0.5898
   17TMC1    C4  263   0.081   4.034  11.345 -0.8600  0.0713  0.4603
   17TMC1    C5  264   4.726   3.934  11.357  0.1380 -0.1233 -0.2405
   17TMC1    C6  265   4.698   3.864  11.472  0.2028  0.0131 -0.5798
   17TMC1     C  266   0.195   4.217  11.463  0.1262  0.0444  0.4026
   17TMC1     O  267   0.135   4.299  11.532  0.3855  0.1464  0.8129
   17TMC1     H  268   0.137   4.076  11.674  1.5181  0.3998 -0.4988
   17TMC1    H1  269   0.109   4.082  11.252  1.1759  2.1235  2.1706
   17TMC1    H2  270   4.616   3.793  11.464 -0.8040  1.1684 -0.5779
   17TMC1    C7  271   4.678   3.866  11.238 -0.2904  0.9306  0.0723
   17TMC1    C8  272   4.691   3.891  11.719 -0.6860 -0.1262  0.3846
   17TMC1    O1  273   4.656   3.747  11.241  0.5841  0.3702 -0.2452
   17TMC1    O2  274   4.670   3.981  11.803 -0.0624 -0.1886 -0.0817
   17TMC1    O3  275   4.699   3.935  11.123  0.0360 -0.2773  1.2426
   17TMC1    H3  276   4.706   4.031  11.142 -2.2060 -0.3120  2.2657
   17TMC1    O5  277   4.599   3.790  11.695 -0.6322 -0.8717 -0.2536
   17TMC1    H5  278   4.628   3.710  11.647 -2.1779 -0.7575 -1.3687
   18MPD2     C  279   0.281   4.473  11.357 -0.0989 -0.1698  0.6089
   18MPD2    C1  280   0.345   4.357  11.328  0.7048  0.7857  0.6986
   18MPD2    C2  281   0.449   4.365  11.234  0.2921 -0.2635  0.3284
   18MPD2    C3  282   0.492   4.490  11.188  0.1951 -0.7845 -0.3048
   18MPD2    C4  283   0.426   4.603  11.228 -0.5029 -0.1174  0.6060
   18MPD2    C5  284   0.327   4.593  11.319 -0.2899  0.0377 -0.4718
   18MPD2     H  285   0.503   4.271  11.225  0.1884 -0.7046  4.4234
   18MPD2    H1  286   0.452   4.700  11.187  2.6653 -1.2786 -0.1609
   18MPD2    H2  287   0.183   4.480  11.402 -0.6762  0.1165 -0.6986
   18MPD2    H3  288   0.263   4.679  11.339 -1.5493 -1.2831  1.2346
   18MPD2     N  289   0.604   4.515  11.102  0.0392 -0.4732  0.2958
   18MPD2    H5  290   0.624   4.612  11.082 -1.8395 -0.2727 -0.6362
   18MPD2    N1  291   0.297   4.229  11.368  0.1623  0.2192 -0.2704
   18MPD2    H7  292   0.338   4.141  11.337  0.8282  0.5001 -0.1939
   19TMC2    C1  293   1.681   0.032  14.023 -0.6007  0.7173  0.2210
   19TMC2    C2  294   1.583   0.115  13.965  0.4469 -0.3971 -0.2018
   19TMC2    C3  295   1.481   0.054  13.908  0.0079 -0.5412  0.3697
   19TMC2    C4  296   1.655   4.639  14.051 -0.0705 -0.1549 -0.6220
   19TMC2    C5  297   1.544   4.586  13.991  0.3378 -0.0471 -0.2991
   19TMC2    C6  298   1.462   4.658  13.910  0.4424  0.4051 -0.1675
   19TMC2     C  299   1.809   0.098  14.062  0.0975  0.4387  0.2443
   19TMC2     O  300   1.827   0.219  14.050 -0.3597  0.2021 -0.2536
   19TMC2     H  301   1.599   0.222  13.959  3.7911 -0.8906 -0.2489
   19TMC2    H1  302   1.705   4.585  14.130 -2.6406 -1.7907 -0.1238
   19TMC2    H2  303   1.383   4.625  13.844 -0.1237  0.0597  0.6769
   19TMC2    C7  304   1.519   4.445  14.015  0.2642 -0.9186 -0.4646
   19TMC2    C8  305   1.375   0.124  13.850  0.6003 -0.3568 -0.5582
   19TMC2    O1  306   1.602   4.395  14.092  0.1898 -0.0716  0.3232
   19TMC2    O2  307   1.267   0.072  13.832 -0.4642 -0.1841 -0.2660
   19TMC2    O5  308   1.394   0.255  13.863  0.1876 -0.0819 -0.1369
   19TMC2    H5  309   1.483   0.283  13.831 -0.6695  0.3292 -2.1267
   20MPD2     C  310   2.088   0.153  14.145  0.3784 -0.4444  0.1379
   20MPD2    C1  311   2.027   0.031  14.135 -0.2424  0.1246 -0.1395
   20MPD2    C2  312   2.109   4.658  14.157  0.6223 -0.4006  0.0924
   20MPD2    C3  313   2.245   4.665  14.195 -0.4808  0.6146  0.2090
   20MPD2    C4  314   2.302   0.048  14.208  0.4815 -0.0300  0.1618
   20MPD2    C5  315   2.223   0.157  14.185 -0.5970  0.8333 -0.5492
   20MPD2     H  316   2.064   4.560  14.165  0.2384 -0.1207  1.3955
   20MPD2    H1  317   2.408   0.059  14.227  0.5924 -0.1687 -0.3725
   20MPD2    H2  318   2.035   0.248  14.136  0.3944 -0.0970  3.5931
   20MPD2    H3  319   2.264   0.255  14.204  3.3589 -0.3447 -3.1085
   20MPD2     N  320   2.325   4.546  14.227  0.1988 -0.0981 -0.2798
   20MPD2    H5  321   2.413   4.556  14.276  0.1071  1.8094 -0.5132
   20MPD2    N1  322   1.897   0.004  14.098 -0.2053  0.4061  1.0714
   20MPD2    H7  323   1.881   4.641  14.097 -0.5265  0.4486  2.1884
   21TMC2    C1  324   4.008   0.098  14.870  0.0376 -0.3234 -0.2185
   21TMC2    C2  325   4.066   4.714  14.870  0.2900 -0.1564 -0.3759
   21TMC2    C3  326   3.988   4.606  14.882  0.0410 -0.0070 -0.6969
   21TMC2    C4  327   3.870   0.107  14.885  0.1835 -0.2429 -0.0033
   21TMC2    C5  328   3.793   4.728  14.886 -0.4492  0.6774  0.5446
   21TMC2    C6  329   3.851   4.599  14.883 -0.5285  0.8479  0.3243
   21TMC2     C  330   4.104   0.212  14.870  0.3740 -0.9957 -0.2261
   21TMC2     O  331   4.222   0.179  14.883  0.5521  0.1066  0.0935
   21TMC2     H  332   4.173   4.701  14.861 -0.1726 -4.0269 -0.5464
   21TMC2    H1  333   3.829   0.206  14.894 -0.5194 -0.4617 -0.8492
   21TMC2    H2  334   3.800   4.505  14.867 -1.7343  1.7148 -0.8925
   21TMC2    C7  335   3.662   4.727  14.839  1.1577 -0.6321 -0.0554
   21TMC2    C8  336   4.062   4.480  14.900  0.0853  0.1389  0.4626
   21TMC2    O1  337   3.597   4.629  14.863 -0.2596 -0.3134  0.1698
   21TMC2    O2  338   4.180   4.467  14.878 -0.4011 -0.3698  0.7013
   21TMC2    O5  339   3.985   4.403  14.981  0.0016 -0.1101  0.3492
   21TMC2    H5  340   3.900   4.442  15.012  0.4053 -0.2604  1.6753
   22MPD2     C  341   4.236   0.704  14.920 -0.7715  0.2767  0.3710
   22MPD2    C1  342   4.312   0.590  14.930 -0.2847 -0.0931  0.1173
   22MPD2    C2  343   4.259   0.464  14.904 -0.9433  0.1108  0.1953
   22MPD2    C3  344   4.121   0.456  14.878  0.0390  0.4110 -0.1758
   22MPD2    C4  345   4.043   0.568  14.873  0.3528  0.0572 -0.5429
   22MPD2    C5  346   4.098   0.692  14.892 -0.1736 -0.6355 -0.1183
   22MPD2     H  347   4.323   0.377  14.899  0.4093  1.0321  1.7885
   22MPD2    H1  348   3.937   0.556  14.852 -0.0115  2.8299 -0.3337
   22MPD2    H2  349   4.276   0.805  14.910 -0.5921  0.2818  1.1492
   22MPD2    H3  350   4.046   0.784  14.867  1.7127  0.8745  1.5345
   22MPD2     N  351   4.049   0.335  14.865  0.7389  0.1850  0.6792
   22MPD2    H5  352   3.948   0.337  14.856  0.8447  1.0346 -0.4461
   22MPD2    N1  353   4.452   0.597  14.948 -0.2204 -0.2558  0.8439
   22MPD2    H7  354   4.503   0.513  14.922  0.0914  0.4539 -0.7922
   23TMC2    C1  355   0.976   0.946  14.642 -0.1769  0.6231 -0.8172
   23TMC2    C2  356   0.952   1.015  14.526 -0.0940  0.4319 -0.3131
   23TMC2    C3  357   0.835   0.982  14.458 -0.7184  0.4977  0.1386
   23TMC2    C4  358   0.888   0.854  14.684  0.3580 -0.1144 -0.3142
   23TMC2    C5  359   0.777   0.825  14.610  0.5253  0.2724  0.2977
   23TMC2    C6  360   0.749   0.883  14.495 -0.1610  0.0785  0.7103
   23TMC2     C  361   1.042   1.016  14.752  0.4197 -0.0448  0.2048
   23TMC2     O  362   0.967   1.019  14.847 -0.6594  0.7629 -0.2692
   23TMC2     H  363   1.016   1.095  14.490 -0.8840  2.0052  1.8084
   23TMC2    H1  364   0.891   0.820  14.787 -1.2713 -1.2421 -0.6282
   23TMC2    H2  365   0.664   0.849  14.437 -1.4467  0.5178  2.3055
   23TMC2    C7  366   0.679   0.726  14.653 -0.2402 -0.2133 -0.5809
   23TMC2    C8  367   0.802   1.059  14.334 -0.0754 -0.2610  0.5170
   23TMC2    O1  368   0.716   0.624  14.714  0.1741  0.3727 -0.4525
   23TMC2    O2  369   0.887   1.119  14.270  0.6437  0.1802 -0.5815
   23TMC2    O5  370   0.681   1.023  14.280  0.0929 -0.0726  0.3856
   23TMC2    H5  371   0.613   1.015  14.350  0.5604 -2.4541  0.5482
   24MPD2     C  372   1.334   1.382  14.954 -0.1907 -0.1985  1.1567
   24MPD2    C1  373   1.265   1.278  15.012 -0.5170  0.1266  0.0418
   24MPD2    C2  374   1.205   1.183  14.927  0.2474 -0.2343  0.3187
   24MPD2    C3  375   1.208   1.197  14.794 -0.3608  0.3452  0.3387
   24MPD2    C4  376   1.279   1.298  14.740  0.0137 -0.2013  0.3699
   24MPD2    C5  377   1.341   1.390  14.818 -0.0670 -0.4476  0.6840
   24MPD2     H  378   1.127   1.123  14.973 -0.0548  0.6771  0.9850
   24MPD2    H1  379   1.288   1.308  14.633  1.5004 -0.4069  0.4773
   24MPD2    H2  380   1.385   1.459  15.010  2.6465 -0.6547 -0.8158
   24MPD2    H3  381   1.396   1.473  14.775  0.4975 -1.1432  0.0613
   24MPD2     N  382   1.138   1.108  14.707  0.4933  0.4063  0.0647
   24MPD2    H5  383   1.175   1.110  14.612 -0.6827  1.2105 -0.3830
   24MPD2    N1  384   1.239   1.267  15.148 -0.0868 -0.2670 -0.5727
   24MPD2    H7  385   1.188   1.190  15.190  2.3752 -0.9712  1.1170
   25TMC2    C1  386   4.341   4.138  11.667 -0.4267  0.2876 -0.2742
   25TMC2    C2  387   4.398   4.263  11.676 -0.1437 -0.2889  0.1869
   25TMC2    C3  388   4.354   4.343  11.777 -0.0598  0.0145 -0.1918
   25TMC2    C4  389   4.256   4.090  11.764 -0.1130 -0.6632  0.3808
   25TMC2    C5  390   4.216   4.176  11.859  0.1355 -0.5669  0.5381
   25TMC2    C6  391   4.268   4.297  11.871 -0.4892  0.1425 -0.5709
   25TMC2     C  392   4.357   4.067  11.539 -0.5802 -0.1080  0.3300
   25TMC2     O  393   4.423   4.125  11.456 -0.2532 -0.0818 -0.2682
   25TMC2     H  394   4.471   4.295  11.602 -1.7092 -0.3718 -1.3876
   25TMC2    H1  395   4.194   4.002  11.749  0.4598 -1.2925  1.7081
   25TMC2    H2  396   4.239   4.362  11.953  1.4184  1.0717 -0.6307
   25TMC2    C7  397   4.098   4.152  11.936 -0.3341 -0.5844 -0.4179
   25TMC2    C8  398   4.357   4.489  11.771 -0.5841  0.3655  0.0847
   25TMC2    O1  399   4.072   4.034  11.958  0.2142 -0.2067  0.1735
   25TMC2    O2  400   4.273   4.558  11.832  0.2028 -0.1412 -0.6453
   25TMC2    O5  401   4.414   4.518  11.647  0.0905 -0.5121  0.1676
   25TMC2    H5  402   4.488   4.458  11.624  0.2348  0.6481 -2.3448
   26MPD2     C  403   4.285   3.698  11.218  0.3533  0.1115 -0.1919
   26MPD2    C1  404   4.237   3.650  11.338 -0.5374  0.2333 -0.5661
   26MPD2    C2  405   4.250   3.731  11.455  0.3517  0.1051 -0.4124
   26MPD2    C3  406   4.303   3.857  11.431 -0.6399  0.2325 -0.1147
   26MPD2    C4  407   4.345   3.899  11.308 -0.4936 -0.0751  0.0006
   26MPD2    C5  408   4.342   3.822  11.201 -0.0814 -0.3810 -0.0892
   26MPD2     H  409   4.207   3.705  11.551 -0.0091 -0.9837 -0.8703
   26MPD2    H1  410   4.388   3.995  11.283  1.5036 -1.3944 -1.6656
   26MPD2    H2  411   4.292   3.638  11.128 -1.1370 -1.4388  0.7220
   26MPD2    H3  412   4.385   3.848  11.105 -0.0886  0.1506  0.0521
   26MPD2     N  413   4.305   3.941  11.539  0.3033  0.2724 -0.9158
   26MPD2    H5  414   4.267   3.913  11.629 -2.7416  2.6443 -1.4881
   26MPD2    N1  415   4.184   3.513  11.339 -0.4843 -0.3081 -0.1197
   26MPD2    H7  416   4.191   3.463  11.250 -1.6408  1.5410 -1.2525
   27TMC2    C1  417   3.542   1.191  12.621  0.1250 -0.2771 -0.4408
   27TMC2    C2  418   3.527   1.318  12.570 -0.4722  0.7613  0.5497
   27TMC2    C3  419   3.614   1.414  12.613 -0.5352  0.0486 -0.1205
   27TMC2    C4  420   3.648   1.166  12.702 -0.3408 -0.3793 -0.6215
   27TMC2    C5  421   3.725   1.270  12.755  0.2129 -0.4745 -0.3427
   27TMC2    C6  422   3.708   1.397  12.711 -0.7580  0.4841  0.1041
   27TMC2     C  423   3.451   1.083  12.594  0.5288 -0.6080 -0.3516
   27TMC2     O  424   3.494   0.969  12.605 -0.0765 -0.7718 -0.1941
   27TMC2     H  425   3.441   1.348  12.512 -0.1033  1.4055  0.3325
   27TMC2    H1  426   3.665   1.062  12.729 -2.5605 -0.9726 -1.4563
   27TMC2    H2  427   3.750   1.486  12.756 -1.8465 -0.0129  2.0801
   27TMC2    C7  428   3.736   1.254  12.898 -0.2910  0.1903  0.0024
   27TMC2    C8  429   3.587   1.555  12.575  0.4853  0.1054  0.9071
   27TMC2    O1  430   3.666   1.168  12.945 -0.1870  0.2870 -0.6616
   27TMC2    O2  431   3.479   1.590  12.524 -0.2902 -0.3891  0.2603
   27TMC2    O5  432   3.702   1.628  12.563  0.3073 -0.2615  0.6116
   27TMC2    H5  433   3.778   1.568  12.581  0.0569 -0.4911  0.9050
   28MPD2     C  434   2.992   0.903  12.578  0.6252  0.4077  0.3514
   28MPD2    C1  435   2.976   1.036  12.575 -0.4145 -0.2267 -0.2167
   28MPD2    C2  436   3.082   1.116  12.557 -0.4871 -0.2020  0.1057
   28MPD2    C3  437   3.204   1.051  12.548  0.6793  0.4015  0.0396
   28MPD2    C4  438   3.215   0.910  12.554  0.1753 -0.0175 -0.2250
   28MPD2    C5  439   3.110   0.836  12.574  0.4842  0.3551 -0.4949
   28MPD2     H  440   3.076   1.224  12.546  1.2216 -0.2869 -1.5633
   28MPD2    H1  441   3.308   0.855  12.562  1.2206  1.6605 -0.7949
   28MPD2    H2  442   2.901   0.844  12.587  0.6029  0.4500  0.3994
   28MPD2    H3  443   3.119   0.731  12.599 -1.6508  0.1666 -0.5676
   28MPD2     N  444   3.325   1.124  12.563 -0.4541 -0.1156  0.6423
   28MPD2    H5  445   3.316   1.224  12.578 -2.5112 -0.4824  1.7960
   28MPD2    N1  446   2.845   1.082  12.590  0.8079 -0.1299  0.3926
   28MPD2    H7  447   2.784   1.002  12.602 -1.0710  1.3351  0.5994
   29TMC2    C1  448   2.723   3.489  14.845  0.2717 -0.5482 -0.1026
   29TMC2    C2  449   2.688   3.458  14.972  0.0314 -0.3162 -0.0353
   29TMC2    C3  450   2.701   3.557  15.064  1.1756  0.4355 -0.0248
   29TMC2    C4  451   2.786   3.609  14.810 -0.5136 -0.5007  0.1637
   29TMC2    C5  452   2.811   3.697  14.911  0.2566  0.0532  0.0381
   29TMC2    C6  453   2.758   3.673  15.039 -0.1705  0.8270 -0.3356
   29TMC2     C  454   2.729   3.380  14.748  0.6611 -0.2300  0.5699
   29TMC2     O  455   2.690   3.267  14.782  0.1905  0.1294 -0.0251
   29TMC2     H  456   2.652   3.364  15.014  0.8789 -0.7175 -0.2280
   29TMC2    H1  457   2.825   3.640  14.714 -0.0517 -0.0792  0.4891
   29TMC2    H2  458   2.768   3.746  15.118 -0.1370  1.3845 -0.8540
   29TMC2    C7  459   2.839   3.831  14.868  0.0959 -0.7077 -0.0709
   29TMC2    C8  460   2.724   3.519  15.200  0.2264  0.2678  1.1413
   29TMC2    O1  461   2.791   3.872  14.763  0.1199 -0.0834 -0.2916
   29TMC2    O2  462   2.822   3.563  15.262  0.1198  0.7084  0.5297
   29TMC2    O5  463   2.598   3.509  15.248  0.1336 -0.2040 -0.1380
   29TMC2    H5  464   2.538   3.444  15.207 -0.6564 -0.7177  1.8193
   30MPD2     C  465   2.908   3.171  14.305  0.6400  0.2933  0.2640
   30MPD2    C1  466   2.851   3.113  14.411  0.2861  0.5601 -0.0479
   30MPD2    C2  467   2.802   3.193  14.510  0.1564 -0.0015  1.0219
   30MPD2    C3  468   2.816   3.329  14.514 -0.2934  0.4443 -0.5556
   30MPD2    C4  469   2.866   3.384  14.403  0.2483 -0.1227 -0.1983
   30MPD2    C5  470   2.912   3.304  14.303  0.2361 -0.1242 -0.6286
   30MPD2     H  471   2.755   3.133  14.587 -0.4955  2.1828  2.3375
   30MPD2    H1  472   2.874   3.492  14.398  1.3831 -0.3232 -2.6474
   30MPD2    H2  473   2.949   3.110  14.226  0.2327 -0.6043  0.7451
   30MPD2    H3  474   2.944   3.356  14.213 -0.5676  1.2354 -0.1183
   30MPD2     N  475   2.786   3.416  14.625  0.1492  0.4823  0.8748
   30MPD2    H5  476   2.800   3.516  14.613 -1.4440  0.4895 -0.9114
   30MPD2    N1  477   2.831   2.976  14.431  0.5082 -0.0091  0.1488
   30MPD2    H7  478   2.780   2.945  14.513  0.4049  2.5145  1.0376
   31TMC2    C1  479   0.328   2.037  14.999  0.1825  0.4964 -0.0766
   31TMC2    C2  480   0.230   2.132  14.976 -0.5579  0.1192 -0.3271
   31TMC2    C3  481   0.154   2.176  15.079  0.2017  0.2948 -0.1748
   31TMC2    C4  482   0.347   1.987  15.128 -0.0883 -0.3934  0.3465
   31TMC2    C5  483   0.272   2.040  15.230 -0.4799 -0.7297 -0.3698
   31TMC2    C6  484   0.180   2.141  15.210 -0.2926  0.7513  0.3295
   31TMC2     C  485   0.442   2.028  14.901  0.8782 -0.0355 -0.0628
   31TMC2     O  486   0.407   2.070  14.791 -0.0752 -0.0322 -0.0571
   31TMC2     H  487   0.220   2.184  14.881  0.1240  1.1641  0.1695
   31TMC2    H1  488   0.400   1.893  15.142  0.3097 -0.3112 -0.5789
   31TMC2    H2  489   0.130   2.189  15.293 -0.8328 -1.1329  1.0889
   31TMC2    C7  490   0.295   2.001  15.365 -0.0832  0.3173 -0.4673
   31TMC2    C8  491   0.046   2.272  15.060  0.3221  0.6122  0.5403
   31TMC2    O1  492   0.401   1.946  15.387  0.5094 -0.0824  0.0514
   31TMC2    O2  493   0.036   2.331  14.959 -0.0916 -0.6117 -0.0499
   31TMC2    O5  494   4.712   2.294  15.173  0.0152 -0.0398 -0.3153
   31TMC2    H5  495   4.707   2.215  15.230 -2.6882 -0.1400 -0.7113
   32MPD2     C  496   0.917   2.066  14.731 -0.1271  0.1530 -0.1762
   32MPD2    C1  497   0.799   2.086  14.669 -0.2369  0.2836 -0.5013
   32MPD2    C2  498   0.683   2.062  14.738 -0.2386  0.0734 -0.5028
   32MPD2    C3  499   0.683   2.022  14.872  0.1905  0.6013  0.3420
   32MPD2    C4  500   0.805   1.996  14.928  0.1103  0.2190 -0.2481
   32MPD2    C5  501   0.923   2.015  14.849 -0.2430 -0.6195  0.2982
   32MPD2     H  502   0.593   2.091  14.683 -0.7899 -0.2318  0.2369
   32MPD2    H1  503   0.822   1.961  15.029  2.3897 -1.9988 -1.3969
   32MPD2    H2  504   1.013   2.066  14.680  0.1417  2.3875  0.3372
   32MPD2    H3  505   1.023   2.003  14.890  0.4990 -2.1602 -1.9990
   32MPD2     N  506   0.568   2.005  14.958  0.0094 -0.1271 -0.3874
   32MPD2    H5  507   0.573   1.981  15.056 -0.5456 -1.0641 -0.5847
   32MPD2    N1  508   0.806   2.131  14.537 -0.8798  0.4563 -0.4732
   32MPD2    H7  509   0.900   2.164  14.520 -0.8913  0.3472 -0.7497
   33TMC2    C1  510   0.623   0.646  10.695 -0.1797 -0.1743 -0.1416
   33TMC2    C2  511   0.551   0.753  10.744 -0.3400  0.1232  0.4254
   33TMC2    C3  512   0.567   0.875  10.675 -0.1098  0.1504 -0.6357
   33TMC2    C4  513   0.718   0.654  10.595  0.2269 -0.8242 -0.0821
   33TMC2    C5  514   0.728   0.773  10.524  0.0377  0.5129 -1.2245
   33TMC2    C6  515   0.655   0.887  10.571  0.2765 -0.5962 -0.3828
   33TMC2     C  516   0.632   0.529  10.778 -0.0557  0.2866 -0.1439
   33TMC2     O  517   0.659   0.423  10.718  0.2193 -0.3475 -0.5818
   33TMC2     H  518   0.497   0.745  10.838  1.8507 -0.6113  1.6391
   33TMC2    H1  519   0.768   0.563  10.560  1.6949  0.9589 -2.6471
   33TMC2    H2  520   0.659   0.983  10.521  2.8055 -0.7786 -0.5535
   33TMC2    C7  521   0.843   0.792  10.438  0.3521  0.3522 -0.0478
   33TMC2    C8  522   0.532   0.993  10.744  0.3157 -0.6013 -0.5330
   33TMC2    O1  523   0.854   0.914  10.412  0.2586  0.3896  0.7892
   33TMC2    O2  524   0.612   1.087  10.767  0.2121 -0.2041  0.9639
   33TMC2    O5  525   0.410   0.976  10.805 -0.5279 -0.4395 -0.0668
   33TMC2    H5  526   0.361   0.902  10.763 -0.1684  0.0530 -1.3539
   34MPD2     C  527   0.856   0.326  11.196 -0.1683 -0.0590  0.4381
   34MPD2    C1  528   0.851   0.279  11.066  0.4250 -0.0917 -0.2198
   34MPD2    C2  529   0.787   0.348  10.966  0.3098  0.1256  0.2759
   34MPD2    C3  530   0.734   0.469  10.996 -0.1653  0.2889 -0.5565
   34MPD2    C4  531   0.742   0.521  11.124  0.1437 -0.3179 -0.0670
   34MPD2    C5  532   0.802   0.445  11.227 -0.0363 -0.2745 -0.1546
   34MPD2     H  533   0.788   0.311  10.864 -3.1384 -0.6601  0.5082
   34MPD2    H1  534   0.691   0.611  11.155 -1.2122 -0.2694 -2.4440
   34MPD2    H2  535   0.903   0.255  11.263 -0.3438 -2.3045 -1.8214
   34MPD2    H3  536   0.801   0.480  11.329 -0.8817 -0.3366 -0.1371
   34MPD2     N  537   0.668   0.552  10.905  0.8835  0.1132  0.2829
   34MPD2    H5  538   0.640   0.640  10.948 -1.5342  0.3630 -1.8565
   34MPD2    N1  539   0.914   0.157  11.039  0.5039 -0.2436 -0.0035
   34MPD2    H7  540   0.945   0.104  11.120 -1.0650  3.0773  2.7436
   35TMC2    C1  541   1.232   1.492  11.469 -0.2118  0.0729  0.0926
   35TMC2    C2  542   1.157   1.600  11.442 -0.7258 -0.0486  0.2205
   35TMC2    C3  543   1.020   1.598  11.458  0.1420  0.1131  1.1065
   35TMC2    C4  544   1.172   1.382  11.525  0.0288  0.0111  0.6489
   35TMC2    C5  545   1.036   1.381  11.543 -1.5214 -0.1476  0.7125
   35TMC2    C6  546   0.955   1.493  11.522 -0.2896  0.4496 -0.7853
   35TMC2     C  547   1.369   1.496  11.451  0.3084 -0.0659  0.2423
   35TMC2     O  548   1.400   1.578  11.369 -0.1887 -0.2040  0.2443
   35TMC2     H  549   1.204   1.694  11.414 -0.6636 -0.1192  0.0877
   35TMC2    H1  550   1.236   1.303  11.564  0.2382  0.5278  1.3647
   35TMC2    H2  551   0.849   1.509  11.540 -0.1361  0.0266  0.4594
   35TMC2    C7  552   0.983   1.262  11.600 -0.6716  0.8683 -0.2731
   35TMC2    C8  553   0.936   1.706  11.406 -0.0572  0.2878  0.5240
   35TMC2    O1  554   1.069   1.177  11.635 -0.0914 -0.5397 -0.2928
   35TMC2    O2  555   0.816   1.707  11.441  0.3660 -0.5691 -0.5102
   35TMC2    O5  556   0.979   1.719  11.279  0.2284  0.1121 -0.0259
   35TMC2    H5  557   1.077   1.720  11.279  0.2022  1.6776  2.2547
   36MPD2     C  558   1.852   1.508  11.605 -0.0094 -0.3447 -0.2693
   36MPD2    C1  559   1.776   1.479  11.714  0.5468  0.3962 -0.7910
   36MPD2    C2  560   1.641   1.456  11.702 -0.5088 -0.3351 -0.1004
   36MPD2    C3  561   1.588   1.468  11.574  0.4044  0.0995  0.5315
   36MPD2    C4  562   1.663   1.522  11.470  1.2598 -0.2126  0.8635
   36MPD2    C5  563   1.797   1.531  11.484  0.1164  0.3328 -0.2396
   36MPD2     H  564   1.576   1.443  11.788  0.5769  2.7560  1.1594
   36MPD2    H1  565   1.623   1.539  11.371  0.1603 -0.5126  1.2606
   36MPD2    H2  566   1.960   1.513  11.616  0.1664 -1.4950 -1.5676
   36MPD2    H3  567   1.860   1.564  11.403 -0.0707  0.4338 -0.3445
   36MPD2     N  568   1.445   1.444  11.556  0.0066  0.8438  0.6968
   36MPD2    H5  569   1.401   1.387  11.628  0.3340  0.2371  0.4147
   36MPD2    N1  570   1.845   1.481  11.839  0.3445  0.1391 -0.1035
   36MPD2    H7  571   1.943   1.508  11.839  0.1619  0.7971  0.0326
   37TMC2    C1  572   4.223   1.236  12.415  0.1450  0.2347  0.4395
   37TMC2    C2  573   4.103   1.287  12.386  0.0467  0.6152 -0.9586
   37TMC2    C3  574   4.087   1.332  12.261 -0.4622  0.5879  0.5403
   37TMC2    C4  575   4.327   1.222  12.323  0.5348  0.5071 -0.4999
   37TMC2    C5  576   4.302   1.266  12.192  0.4416 -0.4584 -0.0146
   37TMC2    C6  577   4.182   1.326  12.165  0.5367 -0.5819  0.2356
   37TMC2     C  578   4.257   1.234  12.556 -0.8635  0.3652  0.5567
   37TMC2     O  579   4.173   1.280  12.628  0.0620 -0.2389 -0.4244
   37TMC2     H  580   4.028   1.289  12.464  1.4146  1.0180  0.3419
   37TMC2    H1  581   4.418   1.165  12.337  1.7366  2.4057 -0.6308
   37TMC2    H2  582   4.172   1.392  12.080 -0.4835 -1.0495 -0.0000
   37TMC2    C7  583   4.414   1.301  12.105  0.1048 -0.0605 -0.7179
   37TMC2    C8  584   3.971   1.402  12.218  0.3290  0.1656 -0.0504
   37TMC2    O1  585   4.503   1.346  12.175  0.1107  0.4520 -0.0644
   37TMC2    O2  586   3.959   1.433  12.103 -0.2650 -0.9937 -0.0111
   37TMC2    O5  587   3.907   1.450  12.326  1.0650  0.3304 -0.6574
   37TMC2    H5  588   3.955   1.460  12.411 -0.5150 -1.3575  0.4200
   38MPD2     C  589   4.579   1.229  12.942 -1.0534  0.0517  0.6367
   38MPD2    C1  590   4.649   1.197  12.832 -0.1872 -0.3932 -0.6739
   38MPD2    C2  591   4.582   1.165  12.714 -0.2432 -0.2965  0.5630
   38MPD2    C3  592   4.446   1.180  12.706 -0.1321  0.3467 -0.6516
   38MPD2    C4  593   4.374   1.209  12.814  0.3747 -0.2170  0.1501
   38MPD2    C5  594   4.440   1.228  12.934 -1.1301  0.1647 -0.2189
   38MPD2     H  595   4.630   1.149  12.619  0.6490 -3.4030  1.5400
   38MPD2    H1  596   4.266   1.213  12.821  0.3506 -1.7381  0.7079
   38MPD2    H2  597   4.627   1.251  13.037  2.6374 -0.9147 -1.0093
   38MPD2    H3  598   4.390   1.262  13.024  1.6403  1.2394  0.9376
   38MPD2     N  599   4.383   1.187  12.577 -0.3917  0.1583  0.1274
   38MPD2    H5  600   4.442   1.159  12.499  1.8658  0.5920  1.6604
   38MPD2    N1  601   0.055   1.222  12.823  0.4897 -0.2660  0.1459
   38MPD2    H7  602   0.107   1.197  12.740 -1.5266 -2.2319 -0.5039
   39TMC2    C1  603   2.452   3.198   1.983  0.7482 -0.0202  0.2239
   39TMC2    C2  604   2.352   3.228   2.070 -0.0281 -0.5313  0.1821
   39TMC2    C3  605   2.377   3.313   2.176 -0.4548 -0.5946 -0.2768
   39TMC2    C4  606   2.573   3.268   1.995  0.5566 -0.0033 -0.0462
   39TMC2    C5  607   2.588   3.349   2.105 -0.0279  0.2575 -0.1008
   39TMC2    C6  608   2.487   3.381   2.191 -0.8689  0.8503  0.3132
   39TMC2     C  609   2.418   3.111   1.875  0.1149  0.3379  0.1148
   39TMC2     O  610   2.304   3.068   1.865  0.3108  0.2529 -0.1219
   39TMC2     H  611   2.254   3.181   2.067  0.3907 -1.5604  2.3514
   39TMC2    H1  612   2.659   3.241   1.936  2.5302 -1.4125  3.4896
   39TMC2    H2  613   2.501   3.438   2.283 -2.3179  0.2748  0.8894
   39TMC2    C7  614   2.701   3.434   2.126  0.5347 -0.2959  0.8575
   39TMC2    C8  615   2.263   3.360   2.249  0.3745  0.1644  0.0395
   39TMC2    O1  616   2.697   3.501   2.225  0.3004  0.4328 -0.3836
   39TMC2    O2  617   2.262   3.472   2.308  0.1022 -0.3027  0.2549
   39TMC2    O5  618   2.190   3.250   2.285 -0.4212  0.0805 -0.1719
   39TMC2    H5  619   2.236   3.170   2.253  1.4978  0.5687  1.3592
   40MPD2     C  620   2.647   2.971   1.612 -0.2150  0.0505  0.9161
   40MPD2    C1  621   2.528   2.999   1.681 -0.3621  0.0436 -0.0001
   40MPD2    C2  622   2.412   2.940   1.629  0.0650  0.0125  0.8973
   40MPD2    C3  623   2.408   2.867   1.509 -0.7808  0.7433  0.4531
   40MPD2    C4  624   2.530   2.845   1.446  0.7033 -0.2687  0.3323
   40MPD2    C5  625   2.646   2.900   1.494 -0.6788  0.3443 -0.0772
   40MPD2     H  626   2.320   2.962   1.681 -0.9605 -1.1367 -0.4501
   40MPD2    H1  627   2.519   2.806   1.345  0.3483 -0.4019  0.4215
   40MPD2    H2  628   2.745   3.002   1.648 -0.0740  1.1819 -0.4359
   40MPD2    H3  629   2.737   2.873   1.442 -2.0031 -0.7575 -1.8166
   40MPD2     N  630   2.284   2.813   1.455  0.3348 -0.6024  0.2276
   40MPD2    H5  631   2.288   2.784   1.358 -1.2969  3.0349 -0.9462
   40MPD2    N1  632   2.532   3.071   1.809 -0.6188 -0.0413 -0.4269
   40MPD2    H7  633   2.623   3.111   1.830 -1.9619  2.2396  1.0477
   41TMC2    C1  634   1.440   1.451  14.019 -0.2213 -0.3990 -0.3368
   41TMC2    C2  635   1.342   1.489  14.095  0.0149 -0.4506 -0.7776
   41TMC2    C3  636   1.280   1.607  14.054 -0.5508  0.4017 -0.0579
   41TMC2    C4  637   1.479   1.507  13.896  0.4631  0.3748  0.0984
   41TMC2    C5  638   1.403   1.620  13.858  0.2909 -0.9120 -0.0406
   41TMC2    C6  639   1.307   1.673  13.937  0.2697  0.0720  0.7627
   41TMC2     C  640   1.524   1.345  14.059 -0.2048  0.0848 -0.2160
   41TMC2     O  641   1.589   1.287  13.972  0.2377 -0.6755 -0.7808
   41TMC2     H  642   1.316   1.435  14.186  1.8186 -1.0714 -0.6432
   41TMC2    H1  643   1.565   1.472  13.841  0.5304  3.8130 -1.9555
   41TMC2    H2  644   1.269   1.774  13.930  0.2774  0.0452  0.3071
   41TMC2    C7  645   1.427   1.689  13.735 -0.4855  0.5744  0.0320
   41TMC2    C8  646   1.192   1.671  14.151  0.6577 -0.1926 -0.2483
   41TMC2    O1  647   1.407   1.809  13.737 -0.1255  0.0026  0.5661
   41TMC2    O2  648   1.073   1.665  14.156  0.1941  0.2812  0.1918
   41TMC2    O5  649   1.257   1.659  14.268 -0.2044  0.7910 -0.0857
   41TMC2    H5  650   1.354   1.650  14.260 -0.3485 -0.2047 -0.6707
   42MPD2     C  651   1.678   1.159  14.243 -0.1800 -0.4579 -0.1309
   42MPD2    C1  652   1.601   1.261  14.288 -0.4151 -0.3138  0.4621
   42MPD2    C2  653   1.605   1.286  14.425  0.4293  0.3678 -0.3746
   42MPD2    C3  654   1.664   1.206  14.516 -0.2596  0.1884 -0.2839
   42MPD2    C4  655   1.721   1.087  14.473  0.1274  1.3477 -0.1652
   42MPD2    C5  656   1.732   1.065  14.340  0.6016  0.8190  0.1775
   42MPD2     H  657   1.559   1.376  14.465  0.2111 -0.7670  1.9024
   42MPD2    H1  658   1.778   1.018  14.535  0.3997 -1.2871 -3.3780
   42MPD2    H2  659   1.700   1.142  14.138  0.0588 -0.9032 -0.0110
   42MPD2    H3  660   1.781   0.976  14.303  0.0151 -0.0900  1.6157
   42MPD2     N  661   1.660   1.239  14.648 -0.0836 -0.5036  0.1676
   42MPD2    H5  662   1.639   1.335  14.673 -0.2757 -0.5750  0.2806
   42MPD2    N1  663   1.530   1.344  14.197 -0.0759 -0.1110  0.6876
   42MPD2    H7  664   1.490   1.428  14.238 -2.0898 -0.9110  0.4029
   43TMC2    C1  665   2.813   3.899   0.986  0.8464 -0.3726 -0.5181
   43TMC2    C2  666   2.800   3.776   1.038  0.3222  0.6517  0.1024
   43TMC2    C3  667   2.854   3.749   1.159  0.7201 -0.1851  0.5052
   43TMC2    C4  668   2.886   3.999   1.054  0.6841 -0.5940  0.5081
   43TMC2    C5  669   2.940   3.957   1.172  0.1632  0.2371  0.1083
   43TMC2    C6  670   2.915   3.837   1.235 -0.5319 -0.0234  0.0687
   43TMC2     C  671   2.811   3.899   0.848  0.0550 -0.5454  0.5112
   43TMC2     O  672   2.835   3.787   0.809  0.0352 -0.0339 -0.0650
   43TMC2     H  673   2.744   3.697   0.988 -0.7454 -0.0403  2.3554
   43TMC2    H1  674   2.904   4.100   1.019 -1.2011 -0.1223  0.9014
   43TMC2    H2  675   2.959   3.799   1.326 -0.3159  0.0103 -0.0208
   43TMC2    C7  676   3.037   4.050   1.238 -0.1362 -0.2686  0.7364
   43TMC2    C8  677   2.841   3.615   1.225 -0.6530  0.1511  0.1533
   43TMC2    O1  678   3.074   4.135   1.167 -0.0589 -0.1873  0.2361
   43TMC2    O2  679   2.781   3.597   1.330  0.0117  0.7372 -0.2916
   43TMC2    O5  680   2.859   3.523   1.121 -0.8476 -0.0365 -0.5277
   43TMC2    H5  681   2.916   3.558   1.050  1.2253 -2.5812 -0.1259
   44MPD2     C  682   2.829   4.107   0.381  0.0660  0.7825  0.5047
   44MPD2    C1  683   2.896   3.993   0.431  0.0039  0.1981 -0.2388
   44MPD2    C2  684   2.884   3.962   0.566  0.6792 -0.7978 -0.2311
   44MPD2    C3  685   2.817   4.047   0.650  0.4653 -0.3571 -0.3577
   44MPD2    C4  686   2.752   4.158   0.598 -0.1076  0.1814  0.1776
   44MPD2    C5  687   2.749   4.186   0.466 -0.0533 -0.9207  0.4137
   44MPD2     H  688   2.918   3.863   0.594 -0.8068 -1.2013  0.1374
   44MPD2    H1  689   2.691   4.217   0.664  0.1252 -0.2505  0.7738
   44MPD2    H2  690   2.824   4.138   0.278  0.0858 -1.7062 -0.2399
   44MPD2    H3  691   2.686   4.263   0.423 -0.7627 -2.1731 -0.7979
   44MPD2     N  692   2.794   4.023   0.787  0.8202  0.1264 -0.0545
   44MPD2    H5  693   2.744   4.091   0.843  1.1222 -1.0297  1.6181
   44MPD2    N1  694   2.967   3.903   0.354 -0.3055  0.6803  0.2343
   44MPD2    H7  695   3.002   3.823   0.406 -2.6932 -0.0717  0.6963
   45TMC2    C1  696   4.410   1.316  10.005  0.0121 -0.1786 -0.2207
   45TMC2    C2  697   4.523   1.271   9.945  0.0815  0.3271  0.1676
   45TMC2    C3  698   4.628   1.360   9.961  0.0757 -0.5741  0.3364
   45TMC2    C4  699   4.386   1.430  10.077 -0.4293 -0.6204 -0.1772
   45TMC2    C5  700   4.495   1.509  10.091  0.4369  0.2163  0.1467
   45TMC2    C6  701   4.617   1.477  10.031  0.8410  0.8416 -0.1172
   45TMC2     C  702   4.289   1.243   9.967 -0.1177  0.0653 -0.1286
   45TMC2     O  703   4.313   1.129   9.933 -0.4224 -0.7298 -0.4327
   45TMC2     H  704   4.534   1.179   9.889 -1.8208  0.6580 -0.7377
   45TMC2    H1  705   4.289   1.461  10.115 -0.4762 -1.0502  0.0433
   45TMC2    H2  706   4.704   1.536  10.054  0.6421  1.0242  0.1610
   45TMC2    C7  707   4.489   1.646  10.152  0.4435 -0.6155 -0.3374
   45TMC2    C8  708   0.019   1.331   9.896 -0.0553 -0.0514 -0.2883
   45TMC2    O1  709   4.406   1.669  10.237  0.6740 -0.4348  0.1771
   45TMC2    O2  710   0.119   1.395   9.924  0.6268 -0.2270  0.4169
   45TMC2    O5  711   4.736   1.289   9.768 -0.4532 -0.0787 -0.1854
   45TMC2    H5  712   4.647   1.307   9.731  0.1941  0.9950 -1.2545
   46MPD2     C  713   4.026   1.115   9.926  0.0016 -0.0095 -0.5715
   46MPD2    C1  714   4.045   1.251   9.920 -0.3705  0.3722 -0.1995
   46MPD2    C2  715   3.941   1.326   9.880  0.2227 -0.3072 -0.1129
   46MPD2    C3  716   3.814   1.282   9.851 -0.5976  0.1625 -0.4249
   46MPD2    C4  717   3.794   1.147   9.857 -0.2471  0.6590  0.2320
   46MPD2    C5  718   3.904   1.066   9.894  0.0072 -0.1296  0.8488
   46MPD2     H  719   3.965   1.432   9.878 -0.9647 -0.0242  0.8431
   46MPD2    H1  720   3.701   1.093   9.852  1.0460 -1.6809  1.5066
   46MPD2    H2  721   4.092   1.036   9.957  2.1186  1.1546 -2.1388
   46MPD2    H3  722   3.885   0.960   9.904  1.3891 -0.3346  1.3390
   46MPD2     N  723   3.713   1.373   9.811  0.1892  0.0583 -0.9692
   46MPD2    H5  724   3.736   1.472   9.806  0.6304  0.0016 -0.1540
   46MPD2    N1  725   4.174   1.312   9.951 -0.4066 -0.5148  0.4805
   46MPD2    H7  726   4.172   1.413   9.956 -1.9133 -0.6117  2.1439
   47TMC2    C1  727   2.107   2.975   9.137  0.5959  0.2292 -0.1017
   47TMC2    C2  728   2.145   3.020   9.017  0.2660  0.6029  0.2584
   47TMC2    C3  729   2.280   3.025   8.987 -0.1044 -0.3574 -0.3770
   47TMC2    C4  730   2.194   2.953   9.243 -0.6181  0.4163 -0.3767
   47TMC2    C5  731   2.323   2.984   9.226  0.4890  0.0850  0.2138
   47TMC2    C6  732   2.371   3.012   9.094  0.1894 -0.0703 -0.5470
   47TMC2     C  733   1.961   2.937   9.161  0.3359 -0.1454 -0.2644
   47TMC2     O  734   1.880   2.987   9.085  1.0116 -0.2683 -0.4309
   47TMC2     H  735   2.076   3.039   8.936 -0.8147  2.3611  1.5868
   47TMC2    H1  736   2.155   2.912   9.336  4.1828  0.2344  1.5403
   47TMC2    H2  737   2.475   3.026   9.067  0.5133 -1.6784 -0.1231
   47TMC2    C7  738   2.427   2.925   9.316  0.7309  0.6822  0.2275
   47TMC2    C8  739   2.309   3.140   8.901  0.1827 -0.7288  0.4281
   47TMC2    O1  740   2.533   2.896   9.268 -0.1303 -0.6597 -0.2881
   47TMC2    O2  741   2.365   3.241   8.944 -0.1010  0.3177  0.0120
   47TMC2    O5  742   2.338   3.097   8.778  1.1552 -0.0730 -0.6845
   47TMC2    H5  743   2.312   3.003   8.766  0.2598 -0.0130  0.7165
   48MPD2     C  744   1.707   2.803   9.222 -0.2997  0.1648  0.5127
   48MPD2    C1  745   1.828   2.753   9.268  0.5156 -0.5645 -0.2239
   48MPD2    C2  746   1.834   2.633   9.336 -0.0069  0.2226 -0.2110
   48MPD2    C3  747   1.723   2.554   9.356  0.1802  0.2192  0.1383
   48MPD2    C4  748   1.604   2.601   9.302 -0.7279  0.0607  0.1994
   48MPD2    C5  749   1.597   2.724   9.246  0.2156  0.2645  0.1419
   48MPD2     H  750   1.929   2.614   9.384 -0.6944  1.3457  1.6108
   48MPD2    H1  751   1.511   2.547   9.315 -1.6163  2.1368  2.4259
   48MPD2    H2  752   1.694   2.902   9.180 -0.6827  0.1666  0.6326
   48MPD2    H3  753   1.500   2.759   9.214 -0.4433  1.3518  3.3849
   48MPD2     N  754   1.742   2.443   9.443 -0.0875 -0.3386 -0.0292
   48MPD2    H5  755   1.834   2.428   9.484 -0.1649  2.0443  0.9904
   48MPD2    N1  756   1.949   2.832   9.252 -0.6445 -0.2196  0.5525
   48MPD2    H7  757   2.031   2.809   9.307  0.0370  0.3058 -0.2387
   49TMC2    C1  758   0.110   4.346  10.888  0.0285  0.6187  0.0058
   49TMC2    C2  759   0.228   4.278  10.900 -0.1912 -0.1148 -0.1898
   49TMC2    C3  760   0.233   4.151  10.849 -0.5004  0.1666  0.1428
   49TMC2    C4  761   4.736   4.297  10.823 -0.1151  0.2509 -0.3923
   49TMC2    C5  762   0.012   4.176  10.768 -0.4564  0.5161  0.1606
   49TMC2    C6  763   0.122   4.094  10.794 -0.4234 -0.1301 -0.4029
   49TMC2     C  764   0.098   4.463  10.974 -0.5257  0.3690  0.5170
   49TMC2     O  765   0.202   4.510  11.013  0.4151  0.4223  0.1998
   49TMC2     H  766   0.306   4.316  10.965  0.9329 -3.0202  0.1551
   49TMC2    H1  767   4.639   4.341  10.802 -1.8834 -2.2912  2.5209
   49TMC2    H2  768   0.148   3.995  10.757  1.8962 -0.1399  1.2524
   49TMC2    C7  769   4.633   4.114  10.697  0.1073  0.4520 -1.1502
   49TMC2    C8  770   0.310   4.060  10.929  0.7153 -0.2704 -0.2101
   49TMC2    O1  771   4.619   3.994  10.700  0.5851  0.8220  0.5376
   49TMC2    O2  772   0.258   3.999  11.019  0.0707  0.0042  0.4329
   49TMC2    O5  773   0.428   4.120  10.943  0.3753 -0.6382 -0.4807
   49TMC2    H5  774   0.450   4.166  10.859 -0.5108  1.7635  0.5915
   50MPD2     C  775   4.736   4.690  11.140 -0.3749  0.2374 -0.1593
   50MPD2    C1  776   4.652   4.588  11.082  0.3273 -0.3152 -0.0062
   50MPD2    C2  777   4.514   4.597  11.100 -0.0147  0.1418 -0.6989
   50MPD2    C3  778   4.448   4.696  11.170 -0.1137 -0.5923 -0.0004
   50MPD2    C4  779   4.529   0.060  11.216  0.0400 -0.8446  0.4238
   50MPD2    C5  780   4.667   0.050  11.205  0.3737 -0.7591 -0.5425
   50MPD2     H  781   4.452   4.519  11.056  0.1476 -0.1511 -0.4113
   50MPD2    H1  782   4.495   0.150  11.266 -1.3431 -0.9636 -0.3157
   50MPD2    H2  783   0.108   4.688  11.133 -0.2261  1.9145  1.8944
   50MPD2    H3  784   4.725   0.134  11.242 -0.4499  0.0758 -1.1201
   50MPD2     N  785   4.305   4.702  11.196 -0.4438  0.1850 -0.7006
   50MPD2    H5  786   4.273   0.046  11.247 -0.2342 -0.8483  1.0694
   50MPD2    N1  787   4.706   4.484  11.003  0.0311 -0.2725  0.4670
   50MPD2    H7  788   4.638   4.416  10.972 -0.8976  1.2722 -0.8915
   51TMC2    C1  789   4.523   2.898   0.877  0.4348 -0.1449  0.2819
   51TMC2    C2  790   4.398   2.962   0.866 -1.0511  1.0207  0.6041
   51TMC2    C3  791   4.383   3.061   0.771 -0.2054 -0.0547 -0.2775
   51TMC2    C4  792   4.629   2.953   0.812 -1.6291 -0.2049  0.3146
   51TMC2    C5  793   4.608   3.063   0.725 -0.1124 -0.0139  0.7579
   51TMC2    C6  794   4.484   3.113   0.693 -0.9315  0.3531 -0.3619
   51TMC2     C  795   4.546   2.810   0.984  0.0912 -0.2975  0.1285
   51TMC2     O  796   4.603   2.704   0.958 -0.2557 -0.2749  0.3944
   51TMC2     H  797   4.317   2.920   0.924  1.4266 -1.4533  2.2708
   51TMC2    H1  798   4.731   2.917   0.821 -1.4011 -0.0810 -1.7895
   51TMC2    H2  799   4.465   3.199   0.630 -3.0423 -1.2234 -1.8889
   51TMC2    C7  800   4.729   3.108   0.650  0.6059  0.0180 -0.4254
   51TMC2    C8  801   4.249   3.129   0.755  0.5446  0.3346  0.0338
   51TMC2    O1  802   0.099   3.057   0.683 -0.6597  0.0613 -0.1926
   51TMC2    O2  803   4.208   3.187   0.653 -0.3308 -0.3037  0.5790
   51TMC2    O5  804   4.235   3.183   0.878 -0.1819  0.0767 -0.1271
   51TMC2    H5  805   4.279   3.122   0.941 -1.7059  0.3551  1.2233
   52MPD2     C  806   4.650   2.709   1.467  0.1629  0.2378  0.4683
   52MPD2    C1  807   4.734   2.699   1.358 -0.6402  0.0198  0.2549
   52MPD2    C2  808   4.687   2.746   1.239  0.3493  0.0415  0.1613
   52MPD2    C3  809   4.564   2.808   1.228  0.2664 -0.5774  0.0854
   52MPD2    C4  810   4.496   2.847   1.341  0.2142 -0.4436 -0.3507
   52MPD2    C5  811   4.545   2.794   1.459  0.1498  0.2769  0.4540
   52MPD2     H  812   0.010   2.739   1.149  0.1297 -2.0484  0.1762
   52MPD2    H1  813   4.409   2.912   1.340  1.2819  1.0095  1.1116
   52MPD2    H2  814   4.690   2.679   1.563  1.0358  1.5355  0.4987
   52MPD2    H3  815   4.497   2.820   1.552 -4.9326  1.8296 -2.5883
   52MPD2     N  816   4.513   2.862   1.102 -0.2131 -0.5075  0.6611
   52MPD2    H5  817   4.461   2.949   1.107 -0.2971 -0.5345  0.1916
   52MPD2    N1  818   0.126   2.652   1.353  0.0573  0.6350  0.0841
   52MPD2    H7  819   0.171   2.652   1.262  0.2159  1.8396  0.1516
   53TMC2    C1  820   0.312   1.556  11.797  0.2770 -0.6558 -0.2191
   53TMC2    C2  821   0.439   1.523  11.768 -0.2963 -0.7873  0.0087
   53TMC2    C3  822   0.535   1.536  11.867 -0.1975  0.9998 -0.8517
   53TMC2    C4  823   0.284   1.614  11.914  0.2018 -0.5083  0.5012
   53TMC2    C5  824   0.374   1.625  12.017  0.5405 -0.0647  0.0678
   53TMC2    C6  825   0.505   1.587  11.996  0.0684  0.1814 -0.2115
   53TMC2     C  826   0.210   1.469  11.741 -0.2546  0.3856 -0.2704
   53TMC2     O  827   0.230   1.431  11.627 -0.5875  0.9001 -0.3498
   53TMC2     H  828   0.455   1.476  11.672  0.4697 -1.8778  0.6609
   53TMC2    H1  829   0.185   1.650  11.941  1.7840  3.2057  1.3892
   53TMC2    H2  830   0.565   1.566  12.084 -0.9552 -1.6556  0.0498
   53TMC2    C7  831   0.324   1.611  12.156 -0.7116  0.3333 -0.1397
   53TMC2    C8  832   0.673   1.520  11.836  0.6610 -0.3357 -0.7098
   53TMC2    O1  833   0.212   1.555  12.166  0.0965 -1.1000 -0.0125
   53TMC2    O2  834   0.754   1.554  11.923 -0.1214  0.1279 -0.3519
   53TMC2    O5  835   0.684   1.546  11.709 -0.5020  0.0582 -0.0047
   53TMC2    H5  836   0.604   1.551  11.652 -0.6545 -1.1125  0.0938
   54MPD2     C  837   4.707   1.307  11.688 -0.1857  0.6481  0.2061
   54MPD2    C1  838   4.732   1.365  11.810 -0.4032 -0.5372 -0.4110
   54MPD2    C2  839   4.639   1.339  11.910 -0.5319 -0.3313 -0.7349
   54MPD2    C3  840   4.521   1.264  11.886  0.0611  0.0735 -0.1221
   54MPD2    C4  841   4.504   1.213  11.762  0.0688 -0.0497  0.4315
   54MPD2    C5  842   4.596   1.236  11.662 -0.6888  0.3618  0.1123
   54MPD2     H  843   4.659   1.388  12.005 -1.6587  0.6492 -1.0029
   54MPD2    H1  844   4.416   1.153  11.742  0.2317 -0.1613  0.0483
   54MPD2    H2  845   0.033   1.329  11.602  1.3526 -0.1526  1.1148
   54MPD2    H3  846   4.573   1.184  11.569 -1.0884  0.2074  0.2986
   54MPD2     N  847   4.412   1.251  11.977 -0.0865 -0.1210 -0.0052
   54MPD2    H5  848   4.338   1.185  11.953 -1.1344 -0.3310  3.8438
   54MPD2    N1  849   0.105   1.451  11.829 -0.1030 -0.1756  0.3996
   54MPD2    H7  850   0.105   1.496  11.920  1.5341 -0.9089  0.7554
   55TMC2    C1  851   1.384   4.145   0.006 -0.3895  0.4018 -0.0991
   55TMC2    C2  852   1.324   4.060  17.664  0.3189 -0.0853 -0.5546
   55TMC2    C3  853   1.307   3.930  17.706  0.3564 -0.1613 -0.3839
   55TMC2    C4  854   1.434   4.101   0.126  1.0278  0.2645 -0.3182
   55TMC2    C5  855   1.429   3.970   0.154 -0.7056  0.3758  0.9786
   55TMC2    C6  856   1.356   3.884   0.081 -0.1541 -0.5086  0.8634
   55TMC2     C  857   1.367   4.291   0.009  0.3989  0.3758  0.6765
   55TMC2     O  858   1.369   4.352   0.117  0.0019 -0.2333  0.5397
   55TMC2     H  859   1.293   4.098  17.568  0.3965 -0.4611 -0.7283
   55TMC2    H1  860   1.467   4.173   0.199 -0.0262  2.1656 -1.7237
   55TMC2    H2  861   1.349   3.779   0.104 -2.2198 -0.2512  1.3463
   55TMC2    C7  862   1.435   3.934   0.297 -0.0794  0.0478 -0.3339
   55TMC2    C8  863   1.257   3.828  17.616  0.0195  0.3909  0.1271
   55TMC2    O1  864   1.364   3.841   0.338  0.4404  0.2359 -0.6509
   55TMC2    O2  865   1.295   3.713  17.618 -0.1542 -0.1059 -0.3753
   55TMC2    O5  866   1.148   3.882  17.553  0.1057 -0.1743  0.4318
   55TMC2    H5  867   1.133   3.974  17.584 -0.3032 -0.6683  1.7133
   56MPD2     C  868   1.281   4.540  17.483 -0.5273  0.2727  0.0080
   56MPD2    C1  869   1.267   4.474  17.604  0.4656  0.1948  0.5957
   56MPD2    C2  870   1.197   4.545  17.699 -0.0301 -0.1858  0.3146
   56MPD2    C3  871   1.137   4.668  17.668 -0.5189 -0.4846 -0.4203
   56MPD2    C4  872   1.158   4.727  17.550 -0.4754  0.2284 -0.4698
   56MPD2    C5  873   1.236   4.664  17.459 -0.1331 -0.0106  0.1984
   56MPD2     H  874   1.182   4.503   0.052  1.5658 -1.3721  0.0482
   56MPD2    H1  875   1.122   0.090  17.527 -1.2615  0.0948  0.1905
   56MPD2    H2  876   1.325   4.487  17.399 -0.3072  0.3600  0.0669
   56MPD2    H3  877   1.257   4.711  17.364  0.3491  0.0586  0.3404
   56MPD2     N  878   1.064   4.722   0.017 -0.3795 -0.7643  0.0580
   56MPD2    H5  879   1.047   4.668   0.102  1.7682  0.4036  1.2047
   56MPD2    N1  880   1.336   4.344  17.629  0.3366  0.3598  0.0183
   56MPD2    H7  881   1.359   4.288  17.548 -0.6113  1.7548 -1.2091
   57TMC2    C1  882   0.263   4.680  13.550 -0.2215 -0.5326  0.3378
   57TMC2    C2  883   0.295   4.563  13.627  0.1482  1.2508  0.0667
   57TMC2    C3  884   0.432   4.535  13.651  0.0882  0.1809  0.2173
   57TMC2    C4  885   0.368   0.013  13.491 -0.3770  0.6984 -0.3650
   57TMC2    C5  886   0.500   4.707  13.505  0.2814 -0.1132 -0.5722
   57TMC2    C6  887   0.536   4.602  13.584  0.3269  0.0757  0.0054
   57TMC2     C  888   0.127   4.727  13.550  1.0628 -0.0845 -0.8256
   57TMC2     O  889   0.091   0.077  13.474  0.4356  0.3447 -0.5051
   57TMC2     H  890   0.224   4.500  13.679  0.2628  0.2199 -1.0112
   57TMC2    H1  891   0.337   0.094  13.426  1.0144  2.5092  1.2595
   57TMC2    H2  892   0.640   4.575  13.601  0.2813  2.1431  3.5338
   57TMC2    C7  893   0.597   0.025  13.413  0.2414 -0.2722 -0.8873
   57TMC2    C8  894   0.455   4.427  13.733  0.1883  0.2051  0.3775
   57TMC2    O1  895   0.583   0.142  13.383 -0.3393 -0.1755  0.2188
   57TMC2    O2  896   0.557   4.413  13.802 -0.2237 -0.0881  0.6419
   57TMC2    O5  897   0.409   4.324  13.658 -0.1242 -0.0038 -0.4125
   57TMC2    H5  898   0.326   4.345  13.610  0.1645 -1.2108 -1.4405
   58MPD2     C  899   4.378   4.697  13.730  0.5229  0.2150  0.2002
   58MPD2    C1  900   4.468   4.642  13.822  0.2523  0.9104 -0.2914
   58MPD2    C2  901   4.599   4.609  13.781  1.1468 -0.0052 -0.4913
   58MPD2    C3  902   4.645   4.672  13.664 -0.0850  0.3723 -0.2711
   58MPD2    C4  903   4.561   4.736  13.573 -0.0468 -0.6415 -0.4954
   58MPD2    C5  904   4.428   0.002  13.610  0.3686  0.1912  0.1129
   58MPD2     H  905   4.672   4.568  13.850  0.5347  1.6420  1.1078
   58MPD2    H1  906   4.589   0.035  13.475  1.8296 -3.2375 -0.8973
   58MPD2    H2  907   4.272   4.709  13.748  0.4659 -1.2055  0.8322
   58MPD2    H3  908   4.365   0.039  13.530 -1.3524 -0.1591  1.3101
   58MPD2     N  909   0.046   4.657  13.641  0.0526 -0.0342  0.0961
   58MPD2    H5  910   0.092   4.588  13.699 -0.7369 -1.0249 -0.4625
   58MPD2    N1  911   4.442   4.603  13.956 -0.1938 -0.3303  0.2582
   58MPD2    H7  912   4.520   4.570  14.012  1.5478  1.5694 -1.0241
   59TMC2    C1  913   2.611   0.660  12.646  0.6526 -0.0654 -0.7209
   59TMC2    C2  914   2.607   0.532  12.689  0.4715  0.4623  0.5727
   59TMC2    C3  915   2.537   0.436  12.623  0.3749 -0.3056  0.5263
   59TMC2    C4  916   2.536   0.697  12.538  0.1809 -0.0759 -0.0823
   59TMC2    C5  917   2.460   0.604  12.475 -0.5356  0.5599 -0.7578
   59TMC2    C6  918   2.469   0.473  12.510  0.3204 -0.2855  0.2262
   59TMC2     C  919   2.651   0.772  12.733  0.5047  0.4119  0.2897
   59TMC2     O  920   2.673   0.877  12.672  0.1188 -0.3101 -0.2229
   59TMC2     H  921   2.674   0.499  12.767  0.0372  1.0519  1.1967
   59TMC2    H1  922   2.540   0.798  12.498  0.3459 -1.0454 -2.4471
   59TMC2    H2  923   2.414   0.398  12.454  0.9405  0.1173 -0.9422
   59TMC2    C7  924   2.404   0.631  12.345  0.2787 -0.0993 -0.4258
   59TMC2    C8  925   2.536   0.302  12.677  0.7870 -0.2978 -1.4440
   59TMC2    O1  926   2.411   0.539  12.264  0.2252  0.1176 -0.0515
   59TMC2    O2  927   2.557   0.279  12.794  0.1309  0.4864  0.1584
   59TMC2    O5  928   2.474   0.222  12.589 -0.4078 -0.1143  0.0792
   59TMC2    H5  929   2.477   0.250  12.495  1.7811  1.1331  0.5145
   60MPD2     C  930   2.820   0.925  12.905 -0.8332 -0.0034 -0.0715
   60MPD2    C1  931   2.765   0.805  12.938  0.0151  0.2565 -0.5403
   60MPD2    C2  932   2.806   0.754  13.063 -0.4242  0.4773 -0.1817
   60MPD2    C3  933   2.899   0.819  13.142 -0.1441 -0.5212 -0.1607
   60MPD2    C4  934   2.925   0.953  13.115 -0.1463 -0.3558 -0.1753
   60MPD2    C5  935   2.889   1.003  12.992  0.6766 -0.7467  0.4909
   60MPD2     H  936   2.778   0.652  13.086  1.8495 -0.2696 -0.7626
   60MPD2    H1  937   2.992   1.009  13.180  0.2815  0.8462 -1.6574
   60MPD2    H2  938   2.794   0.979  12.814  1.9913  0.9414 -0.3196
   60MPD2    H3  939   2.919   1.103  12.962 -1.4210 -0.3915 -0.3973
   60MPD2     N  940   2.957   0.764  13.255 -0.2309  0.3321  0.4986
   60MPD2    H5  941   3.010   0.827  13.315  1.9423 -0.9807 -0.0596
   60MPD2    N1  942   2.686   0.724  12.856 -0.4242 -0.4792  0.2254
   60MPD2    H7  943   2.653   0.636  12.894  1.3787 -1.5853 -0.7841
   61TMC2    C1  944   2.011   1.527  15.232 -0.0081  0.6282 -0.4037
   61TMC2    C2  945   2.028   1.445  15.347  0.0372 -0.2238  0.4273
   61TMC2    C3  946   2.016   1.498  15.472 -0.4155  0.2998  0.2374
   61TMC2    C4  947   1.998   1.663  15.242  0.0804  0.4924 -0.1424
   61TMC2    C5  948   2.008   1.713  15.370 -0.5129  0.7373 -0.4670
   61TMC2    C6  949   2.014   1.634  15.488  0.0097 -0.1428 -0.8822
   61TMC2     C  950   2.068   1.465  15.110  0.2955  0.4477 -0.1792
   61TMC2     O  951   2.072   1.342  15.108  0.6666  0.1743  0.5233
   61TMC2     H  952   2.028   1.337  15.335 -1.2501 -0.0626 -1.0529
   61TMC2    H1  953   1.985   1.722  15.152 -0.4408 -2.2429 -1.8360
   61TMC2    H2  954   2.009   1.675  15.588  0.9853  0.0224 -0.9008
   61TMC2    C7  955   2.028   1.858  15.384 -0.0211  0.0146  0.1952
   61TMC2    C8  956   2.101   1.432  15.566  0.2885  1.5734 -0.2092
   61TMC2    O1  957   1.997   1.924  15.288 -0.4728  0.0565  0.2504
   61TMC2    O2  958   2.200   1.360  15.536 -0.1595  0.0035  0.0919
   61TMC2    O5  959   2.054   1.456  15.687 -0.0057 -0.5404 -0.9662
   61TMC2    H5  960   1.984   1.523  15.702  2.9453  2.1997  0.5901
   62MPD2     C  961   2.064   1.412  14.820 -0.6428  0.0611  0.0458
   62MPD2    C1  962   2.128   1.523  14.873  0.0686  0.3847 -0.4300
   62MPD2    C2  963   2.182   1.615  14.787 -0.7454  0.2039 -0.1334
   62MPD2    C3  964   2.197   1.577  14.657  0.2618  0.0533 -0.0563
   62MPD2    C4  965   2.151   1.458  14.608 -0.7967 -0.2278 -0.3213
   62MPD2    C5  966   2.078   1.380  14.687 -0.0715  0.1700 -0.5861
   62MPD2     H  967   2.226   1.705  14.829  2.5019 -1.3465 -0.2271
   62MPD2    H1  968   2.153   1.437  14.502 -1.3597  1.0503 -0.5822
   62MPD2    H2  969   2.020   1.333  14.879  0.7410 -0.5902  0.2231
   62MPD2    H3  970   2.035   1.296  14.635  0.1194  0.3992 -1.1190
   62MPD2     N  971   2.258   1.660  14.565  0.0543 -0.0451 -0.1477
   62MPD2    H5  972   2.255   1.617  14.473  1.3680 -0.3419 -0.0482
   62MPD2    N1  973   2.107   1.556  15.012 -0.5820  0.0254 -0.7980
   62MPD2    H7  974   2.120   1.655  15.030  0.1515 -0.8454  3.4252
   63TMC2    C1  975   1.986   2.221  10.975  0.0242  0.7719 -0.5152
   63TMC2    C2  976   2.117   2.210  10.985  0.6271 -0.4754  0.0581
   63TMC2    C3  977   2.199   2.264  10.888 -0.4925  0.4843  0.1309
   63TMC2    C4  978   1.933   2.281  10.866 -0.6978 -0.1237 -0.0619
   63TMC2    C5  979   2.016   2.334  10.761 -0.0410 -0.5831  0.4367
   63TMC2    C6  980   2.150   2.324  10.771 -0.3923  0.1592  0.5024
   63TMC2     C  981   1.900   2.165  11.076 -0.2826 -0.1285  0.1523
   63TMC2     O  982   1.958   2.163  11.187  0.0844 -0.3081 -0.5811
   63TMC2     H  983   2.166   2.153  11.064  2.4142 -0.3170 -0.9475
   63TMC2    H1  984   1.827   2.303  10.860 -0.9265 -1.3236 -0.4241
   63TMC2    H2  985   2.212   2.354  10.687 -2.1411  0.3853 -0.7071
   63TMC2    C7  986   1.951   2.342  10.636 -0.8333 -0.3577  0.0383
   63TMC2    C8  987   2.334   2.223  10.880 -0.0119  0.4877  0.0265
   63TMC2    O1  988   1.846   2.278  10.634  0.0757 -0.2868 -0.5076
   63TMC2    O2  989   2.371   2.119  10.929 -0.3206  0.0999  0.2614
   63TMC2    O5  990   2.417   2.316  10.834 -0.0772 -0.0878  0.2904
   63TMC2    H5  991   2.378   2.398  10.796 -0.1585 -0.2185  0.0888
   64MPD2     C  992   1.470   1.941  11.235  0.8777  0.0564  0.0873
   64MPD2    C1  993   1.471   1.940  11.093  0.3800 -0.6758  0.2444
   64MPD2    C2  994   1.581   2.001  11.034  0.0052  0.1549  0.7069
   64MPD2    C3  995   1.680   2.059  11.102  0.2261  0.2207 -0.4873
   64MPD2    C4  996   1.669   2.064  11.246 -0.0787  0.4703 -0.0030
   64MPD2    C5  997   1.577   1.993  11.306 -0.6369 -0.6207 -0.5918
   64MPD2     H  998   1.592   2.005  10.926  0.8697  0.3135  0.7971
   64MPD2    H1  999   1.750   2.119  11.293 -0.5261  0.9076  0.2497
   64MPD2    H2 1000   1.395   1.880  11.283  0.0957  0.5070 -0.5569
   64MPD2    H3 1001   1.578   1.979  11.414  0.3266 -0.5250 -0.5918
   64MPD2     N 1002   1.780   2.127  11.028  0.3562 -0.0470  0.6613
   64MPD2    H5 1003   1.765   2.119  10.928 -0.4851 -0.4531  0.8203
   64MPD2    N1 1004   1.385   1.862  11.012 -1.0889 -0.2416  0.3440
   64MPD2    H7 1005   1.410   1.843  10.915 -0.8074 -0.8924  0.5429
   65TMC2    C1 1006   2.441   1.398  15.919  0.1696 -0.6379  0.3828
   65TMC2    C2 1007   2.512   1.384  15.803 -0.2924  0.3750  0.0001
   65TMC2    C3 1008   2.482   1.468  15.705 -0.9681 -0.4857  0.3649
   65TMC2    C4 1009   2.360   1.506  15.944 -0.4491  0.9868 -0.6427
   65TMC2    C5 1010   2.334   1.589  15.837  0.7610  0.4652 -0.1244
   65TMC2    C6 1011   2.390   1.565  15.712  0.1417 -0.0814 -1.2432
   65TMC2     C 1012   2.431   1.284  16.007 -0.4610 -0.0017 -0.5194
   65TMC2     O 1013   2.367   1.306  16.109 -0.2593 -0.4838  0.2472
   65TMC2     H 1014   2.595   1.316  15.787 -0.3873  0.6585 -1.7997
   65TMC2    H1 1015   2.325   1.509  16.047  1.6130  1.3362  0.0343
   65TMC2    H2 1016   2.351   1.617  15.625  0.6033  5.2227  1.6890
   65TMC2    C7 1017   2.239   1.697  15.846  0.6293 -0.1221 -0.1897
   65TMC2    C8 1018   2.542   1.458  15.579  0.3532 -0.0257  0.0767
   65TMC2    O1 1019   2.179   1.725  15.740 -0.1350 -0.0313  0.1672
   65TMC2    O2 1020   2.601   1.358  15.540  0.3998 -0.1881  0.6461
   65TMC2    O5 1021   2.550   1.574  15.513 -0.0145  0.5563 -0.5579
   65TMC2    H5 1022   2.523   1.644  15.575 -0.2584 -0.3922  0.4075
   66MPD2     C 1023   2.427   1.026  16.148  0.4591  0.1738  0.3296
   66MPD2    C1 1024   2.457   1.039  16.012 -0.7101 -0.3967  0.9224
   66MPD2    C2 1025   2.476   0.920  15.946 -0.5771 -0.3228 -0.0866
   66MPD2    C3 1026   2.450   0.797  16.003 -0.0304 -0.1384  0.0332
   66MPD2    C4 1027   2.426   0.789  16.142  0.3498  0.2032  0.1403
   66MPD2    C5 1028   2.410   0.908  16.205 -0.8467  0.4138  0.3031
   66MPD2     H 1029   2.511   0.931  15.844 -0.4530 -2.4939 -0.2794
   66MPD2    H1 1030   2.390   0.696  16.186 -0.6847  0.5211 -0.0338
   66MPD2    H2 1031   2.413   1.110  16.216 -0.7999  1.5445 -1.6031
   66MPD2    H3 1032   2.371   0.906  16.306  0.7498 -0.3323  0.8952
   66MPD2     N 1033   2.459   0.674  15.933 -0.5481 -0.2777  0.1855
   66MPD2    H5 1034   2.416   0.598  15.984 -0.4395 -0.3303  0.1993
   66MPD2    N1 1035   2.470   1.166  15.952  0.4660  0.1985 -0.2406
   66MPD2    H7 1036   2.498   1.162  15.854  0.5284  2.2838 -0.3079
   67TMC2    C1 1037   2.889   0.508  14.548 -0.4424 -0.5954  0.5433
   67TMC2    C2 1038   2.785   0.597  14.544  0.3080  0.3068  0.0542
   67TMC2    C3 1039   2.754   0.658  14.661 -0.1902  0.7215 -0.0605
   67TMC2    C4 1040   2.951   0.481  14.672 -0.3840  0.1990  0.8190
   67TMC2    C5 1041   2.921   0.555  14.786 -0.1885  0.3567  0.5625
   67TMC2    C6 1042   2.814   0.641  14.787  0.3741 -0.3109 -0.3946
   67TMC2     C 1043   2.964   0.470  14.431 -0.2697  0.6648 -0.4454
   67TMC2     O 1044   3.085   0.464  14.446  0.0255  0.2744  0.0630
   67TMC2     H 1045   2.734   0.628  14.454 -0.6996  0.3159  0.6262
   67TMC2    H1 1046   3.032   0.409  14.666  0.9081  1.6038  1.6808
   67TMC2    H2 1047   2.787   0.709  14.868  1.8145  0.2399 -0.3792
   67TMC2    C7 1048   3.017   0.550  14.899 -0.6542  0.5140 -0.2159
   67TMC2    C8 1049   2.652   0.759  14.650  0.9469 -0.6075  0.2162
   67TMC2    O1 1050   3.125   0.502  14.863 -0.1696  0.7237 -0.4099
   67TMC2    O2 1051   2.566   0.759  14.562  0.4996  0.1777  0.6564
   67TMC2    O5 1052   2.736   0.866  14.678  0.1484  0.0526  0.6047
   67TMC2    H5 1053   2.817   0.828  14.718 -0.2024 -1.4670 -0.1330
   68MPD2     C 1054   3.086   0.459  14.154 -0.4771  0.0985 -0.0171
   68MPD2    C1 1055   2.947   0.459  14.183  0.3089 -0.5468  0.0397
   68MPD2    C2 1056   2.865   0.458  14.075  0.3589 -0.1935  0.0568
   68MPD2    C3 1057   2.923   0.456  13.948  0.4455 -0.2854 -0.3360
   68MPD2    C4 1058   3.057   0.459  13.914  1.1801 -0.1934 -0.3276
   68MPD2    C5 1059   3.136   0.458  14.025 -0.6553 -0.3238 -0.7680
   68MPD2     H 1060   2.761   0.453  14.104  0.0810  0.5641 -0.8088
   68MPD2    H1 1061   3.095   0.454  13.813  1.7547 -0.2183 -0.1074
   68MPD2    H2 1062   3.153   0.465  14.239  1.3481 -2.0477 -1.3055
   68MPD2    H3 1063   3.242   0.472  14.007 -0.4488 -0.0915  0.6011
   68MPD2     N 1064   2.839   0.440  13.835 -0.0391  0.0351 -0.5966
   68MPD2    H5 1065   2.888   0.412  13.751  0.9687 -1.8556  0.6212
   68MPD2    N1 1066   2.896   0.468  14.314  0.1262 -0.0780  0.5099
   68MPD2    H7 1067   2.795   0.471  14.322  0.1762 -0.5304  1.3697
   69TMC2    C1 1068   0.140   2.154  12.789  0.4896  0.0234 -0.1104
   69TMC2    C2 1069   0.024   2.222  12.785 -0.2195 -0.8783  0.0375
   69TMC2    C3 1070   4.707   2.247  12.665 -0.3226  0.2677  0.0479
   69TMC2    C4 1071   0.203   2.114  12.676 -0.4869  0.0722  0.3375
   69TMC2    C5 1072   0.155   2.152  12.557  0.3621 -0.0573 -0.2008
   69TMC2    C6 1073   0.036   2.225  12.545 -0.3471  0.2977 -0.2818
   69TMC2     C 1074   0.184   2.100  12.916  0.5746  0.1833 -0.0048
   69TMC2     O 1075   0.101   2.049  12.992 -0.6699 -0.0431 -0.0725
   69TMC2     H 1076   4.704   2.243  12.876  0.6374  2.1767 -0.1326
   69TMC2    H1 1077   0.276   2.034  12.672 -0.1921  0.3380  0.4911
   69TMC2    H2 1078   4.727   2.246  12.450 -2.2858 -0.5645  0.4698
   69TMC2    C7 1079   0.209   2.094  12.436  0.2291 -0.5052 -0.6244
   69TMC2    C8 1080   4.577   2.314  12.671 -0.2538  0.1303  0.1495
   69TMC2    O1 1081   0.316   2.034  12.449  0.6126  0.2237  0.5191
   69TMC2    O2 1082   4.507   2.318  12.769  0.0329  0.0529  0.5724
   69TMC2    O5 1083   4.555   2.371  12.551  0.1827  0.2951  0.0489
   69TMC2    H5 1084   4.617   2.379  12.476  0.9194  1.8310  0.8216
   70MPD2     C 1085   0.532   2.098  13.016 -0.3269  0.6673  0.0666
   70MPD2    C1 1086   0.400   2.065  13.019  0.5011  0.5059 -0.5511
   70MPD2    C2 1087   0.362   1.963  13.105 -0.0190 -0.1397 -0.0570
   70MPD2    C3 1088   0.464   1.899  13.175 -0.4752  0.1519 -0.3726
   70MPD2    C4 1089   0.598   1.932  13.164 -0.2507  0.5982  0.5891
   70MPD2    C5 1090   0.625   2.037  13.090  0.1281  0.1655 -0.2794
   70MPD2     H 1091   0.258   1.934  13.113 -0.1794  0.4982  0.2386
   70MPD2    H1 1092   0.676   1.891  13.227 -0.5775 -1.0907 -0.1271
   70MPD2    H2 1093   0.569   2.179  12.955  0.8155 -0.7808 -1.1667
   70MPD2    H3 1094   0.731   2.056  13.081  0.1883  0.8812  2.0211
   70MPD2     N 1095   0.438   1.790  13.264  0.1500  0.4547  0.7175
   70MPD2    H5 1096   0.525   1.754  13.301  0.4182  1.0133  0.6245
   70MPD2    N1 1097   0.316   2.119  12.922  0.9431 -0.4061  0.3830
   70MPD2    H7 1098   0.355   2.175  12.848  2.6101 -1.6448  0.3354
   71TMC2    C1 1099   2.996   2.509   1.206  0.3509  0.6111 -0.6210
   71TMC2    C2 1100   3.108   2.582   1.218  0.0455 -0.3223  0.7098
   71TMC2    C3 1101   3.175   2.564   1.338 -0.1493 -0.7567  0.2674
   71TMC2    C4 1102   2.943   2.429   1.302  0.0432  0.9058 -0.2914
   71TMC2    C5 1103   3.012   2.418   1.419  0.0095  0.0481  0.0616
   71TMC2    C6 1104   3.134   2.482   1.436 -0.1982 -0.7299  0.5319
   71TMC2     C 1105   2.921   2.516   1.085  0.0154 -0.7671  0.2661
   71TMC2     O 1106   2.895   2.625   1.045 -0.2941  0.0832  0.2038
   71TMC2     H 1107   3.160   2.628   1.135  1.1248 -1.2837  0.8470
   71TMC2    H1 1108   2.850   2.377   1.288  0.7768 -0.3914 -0.2977
   71TMC2    H2 1109   3.201   2.457   1.518  0.8588  0.1044 -0.0844
   71TMC2    C7 1110   2.971   2.333   1.527  0.2507 -0.3611  0.3811
   71TMC2    C8 1111   3.320   2.599   1.328 -0.1336 -0.4610 -0.4529
   71TMC2    O1 1112   3.052   2.292   1.606  0.3486 -0.4548  0.1935
   71TMC2    O2 1113   3.377   2.591   1.217  0.1427 -0.0611 -0.2989
   71TMC2    O5 1114   3.386   2.596   1.445 -0.3373  0.6321  0.3833
   71TMC2    H5 1115   3.307   2.613   1.502 -0.1462  1.3741  0.4232
   72MPD2     C 1116   2.692   2.317   0.662  0.0530  0.2367  0.1520
   72MPD2    C1 1117   2.718   2.449   0.698  0.5126 -0.5336  0.2880
   72MPD2    C2 1118   2.778   2.477   0.824 -0.5733  0.3731  0.2819
   72MPD2    C3 1119   2.829   2.376   0.902  0.0221  0.3783 -0.3287
   72MPD2    C4 1120   2.807   2.246   0.859  0.1592 -0.7083  0.4856
   72MPD2    C5 1121   2.740   2.218   0.741  0.5014 -1.1549  0.3702
   72MPD2     H 1122   2.792   2.582   0.849  1.8883  0.2523 -0.5544
   72MPD2    H1 1123   2.836   2.167   0.927 -1.6809 -1.7002  0.1414
   72MPD2    H2 1124   2.642   2.291   0.570  0.1546 -0.3562  0.2658
   72MPD2    H3 1125   2.723   2.116   0.708 -1.0699 -1.1329  1.1055
   72MPD2     N 1126   2.897   2.394   1.025 -0.4621 -0.4454 -1.2221
   72MPD2    H5 1127   2.932   2.312   1.072 -0.5671  2.2422  3.5755
   72MPD2    N1 1128   2.676   2.561   0.617 -0.1628  0.0259  0.3418
   72MPD2    H7 1129   2.671   2.654   0.658  0.8129  0.2988 -0.1534
   73TMC2    C1 1130   2.106   4.121  13.793  0.0865 -0.3351 -0.1460
   73TMC2    C2 1131   2.053   4.097  13.920 -0.6822  0.1680 -0.4197
   73TMC2    C3 1132   2.146   4.108  14.020  0.3723 -0.3637  0.2831
   73TMC2    C4 1133   2.241   4.143  13.772 -0.3723  0.0363  0.1025
   73TMC2    C5 1134   2.329   4.135  13.875  0.7897  0.2775  0.7456
   73TMC2    C6 1135   2.280   4.120  13.997 -0.4390  0.2538 -0.1471
   73TMC2     C 1136   2.028   4.212  13.712  0.3071  0.0890 -0.9200
   73TMC2     O 1137   2.092   4.302  13.664  0.5454  0.3217 -0.2451
   73TMC2     H 1138   1.949   4.070  13.933  0.2335 -0.9450  4.5552
   73TMC2    H1 1139   2.275   4.167  13.671  0.2421 -1.6927 -0.1071
   73TMC2    H2 1140   2.356   4.116  14.074 -1.9314  2.4647  1.4111
   73TMC2    C7 1141   2.429   4.242  13.883  0.5489  0.2354  0.3345
   73TMC2    C8 1142   2.119   4.059  14.153  0.2475  0.1714 -0.3538
   73TMC2    O1 1143   2.532   4.246  13.951 -0.1500 -0.0058  0.3112
   73TMC2    O2 1144   2.203   4.026  14.230  0.3807 -0.0377  0.1530
   73TMC2    O5 1145   1.995   4.091  14.197  0.0513  0.3949  0.4621
   73TMC2    H5 1146   1.942   4.141  14.132 -1.5545  0.6791  1.9836
   74MPD2     C 1147   1.603   4.487  13.675  0.3743 -0.0675  0.2387
   74MPD2    C1 1148   1.735   4.519  13.690  0.7519  0.2996 -0.6584
   74MPD2    C2 1149   1.833   4.420  13.698 -0.2275 -0.3669 -0.4760
   74MPD2    C3 1150   1.802   4.291  13.704  0.8842 -0.3809 -0.1726
   74MPD2    C4 1151   1.668   4.263  13.695  0.3951  0.5596  0.5124
   74MPD2    C5 1152   1.573   4.357  13.670  0.0072 -0.0305 -0.3876
   74MPD2     H 1153   1.936   4.452  13.692 -0.1100 -0.4445  1.0387
   74MPD2    H1 1154   1.631   4.161  13.695  0.8792  0.3879 -1.7596
   74MPD2    H2 1155   1.520   4.556  13.665  0.6225  0.2447  0.3636
   74MPD2    H3 1156   1.468   4.332  13.672  0.0961 -0.2811  0.9606
   74MPD2     N 1157   1.895   4.182  13.718  1.3284 -0.0543 -0.0638
   74MPD2    H5 1158   1.863   4.089  13.742 -0.9445  0.9370  0.7985
   74MPD2    N1 1159   1.764   4.659  13.692 -0.3284  0.0278 -0.3441
   74MPD2    H7 1160   1.692   4.717  13.650 -0.0078  1.4333  1.0354
   75TMC2    C1 1161   2.662   0.419  13.679 -0.0865 -0.1949 -0.4113
   75TMC2    C2 1162   2.745   0.368  13.586 -0.3460  0.7748 -0.2702
   75TMC2    C3 1163   2.686   0.353  13.460  0.1226 -0.3252  0.4265
   75TMC2    C4 1164   2.533   0.465  13.663 -0.4109 -0.4102  0.2374
   75TMC2    C5 1165   2.493   0.474  13.532 -0.2541  0.5480  0.5674
   75TMC2    C6 1166   2.569   0.413  13.436  0.1349  0.6378  0.2038
   75TMC2     C 1167   2.697   0.434  13.821 -0.5804  0.2652 -0.5932
   75TMC2     O 1168   2.612   0.446  13.906  0.5820  0.0886  0.4606
   75TMC2     H 1169   2.842   0.335  13.622 -1.4360 -1.4336  0.6277
   75TMC2    H1 1170   2.474   0.501  13.747 -0.0302 -0.3594  0.4820
   75TMC2    H2 1171   2.533   0.413  13.334 -1.0827 -0.3260  0.6341
   75TMC2    C7 1172   2.353   0.486  13.505 -0.3112  0.6126  0.1931
   75TMC2    C8 1173   2.749   0.284  13.353 -0.0545 -0.0793 -0.6051
   75TMC2    O1 1174   2.315   0.437  13.402 -0.8030  0.4447 -0.3528
   75TMC2    O2 1175   2.713   0.300  13.238  0.1341  0.0933  0.1902
   75TMC2    O5 1176   2.823   0.179  13.404  0.3177 -0.7088 -0.6363
   75TMC2    H5 1177   2.804   0.168  13.500  1.2026 -0.1429 -0.3998
   76TMC2    C1 1178   1.092   1.093  12.048 -0.2993 -0.8234 -0.5296
   76TMC2    C2 1179   1.011   0.994  12.010  0.2274 -0.5565 -0.3180
   76TMC2    C3 1180   1.032   0.870  12.074  0.2983  0.3236  0.7282
   76TMC2    C4 1181   1.204   1.071  12.120 -0.7951 -0.4979 -0.4316
   76TMC2    C5 1182   1.230   0.946  12.164  0.1726  0.1751 -0.7010
   76TMC2    C6 1183   1.148   0.840  12.141  0.4256  0.4353  0.4866
   76TMC2     C 1184   1.069   1.221  11.991 -1.0270  0.0403  0.5699
   76TMC2     O 1185   0.954   1.243  11.963 -0.3538 -0.2944 -0.4995
   76TMC2     H 1186   0.922   1.000  11.948 -1.0134  1.2022  1.6288
   76TMC2    H1 1187   1.260   1.158  12.154 -1.0528 -0.3322 -0.4343
   76TMC2    H2 1188   1.151   0.747  12.197 -2.1797  0.2283  0.2865
   76TMC2    C7 1189   1.361   0.912  12.212  0.4606  0.5010 -0.3569
   76TMC2    C8 1190   0.975   0.757  12.002 -0.8483 -1.0267  0.2538
   76TMC2    O1 1191   1.418   0.807  12.190  0.3579 -0.3576  0.5927
   76TMC2    O2 1192   1.035   0.658  11.967  0.6086  0.0855  0.2954
   76TMC2    O5 1193   0.842   0.774  11.999  0.7573  0.2930  0.2479
   76TMC2    H5 1194   0.817   0.855  12.047 -1.0024 -0.7187  1.0412
   77MPD2     C 1195   1.203   1.687  11.836  0.0454  0.0552 -0.6417
   77MPD2    C1 1196   1.073   1.631  11.855  0.1697 -0.3290 -0.0444
   77MPD2    C2 1197   1.066   1.501  11.898  0.2648  0.4713  0.4429
   77MPD2    C3 1198   1.184   1.427  11.920  0.3797 -0.2161 -0.6702
   77MPD2    C4 1199   1.305   1.481  11.890 -0.5517 -0.2981  0.1541
   77MPD2    C5 1200   1.319   1.610  11.844  0.1228  0.1080 -0.2218
   77MPD2     H 1201   0.971   1.454  11.919  0.0969  0.8892  0.6058
   77MPD2    H1 1202   1.398   1.424  11.895  0.2586  0.9709 -0.3359
   77MPD2    H2 1203   1.229   1.787  11.805  0.4474 -0.1043 -0.8253
   77MPD2    H3 1204   1.416   1.650  11.820  0.2045  1.4005  2.3118
   77MPD2     N 1205   1.182   1.298  11.974  0.0273 -0.3010 -0.2810
   77MPD2    H5 1206   1.271   1.254  11.997 -0.7958 -1.6007  0.4741
   77MPD2    N1 1207   0.954   1.712  11.859  0.2936  0.2650  0.1691
   77MPD2    H7 1208   0.867   1.663  11.877  0.2624  0.1954 -0.1707
   78TMC2    C1 1209   3.564   0.333   1.514  0.6406 -0.5507  0.1368
   78TMC2    C2 1210   3.687   0.305   1.450 -0.0321 -0.5215 -0.5879
   78TMC2    C3 1211   3.777   0.394   1.429  0.8938 -1.0494 -0.7170
   78TMC2    C4 1212   3.526   0.459   1.552 -0.5630  0.1326  0.1523
   78TMC2    C5 1213   3.625   0.550   1.523 -0.6759  0.5540  0.0792
   78TMC2    C6 1214   3.745   0.524   1.461 -0.4657  0.9188 -0.2903
   78TMC2     C 1215   3.465   0.229   1.512  0.4020 -1.2142 -1.0355
   78TMC2     O 1216   3.478   0.144   1.424  0.5650 -0.0312  0.0262
   78TMC2     H 1217   3.721   0.207   1.417  1.3550 -0.5204  0.8379
   78TMC2    H1 1218   3.427   0.486   1.587 -0.7910 -1.3673  0.6746
   78TMC2    H2 1219   3.820   0.601   1.475  0.5733 -0.0116 -0.6981
   78TMC2    C7 1220   3.601   0.692   1.553 -0.0315 -0.4118  0.0883
   78TMC2    C8 1221   3.915   0.349   1.449 -0.2640  0.2038 -0.2685
   78TMC2    O1 1222   3.656   0.771   1.479 -0.3118 -0.1104 -0.0656
   78TMC2    O2 1223   3.941   0.235   1.478  0.6782 -0.3693 -0.6902
   78TMC2    O5 1224   3.997   0.448   1.414 -0.2098 -0.2022  0.3129
   78TMC2    H5 1225   3.953   0.522   1.368 -3.3144 -0.7305  2.4311
   79MPD1     C 1226   3.083   4.705   1.713 -0.0541 -0.0271  0.1577
   79MPD1    C1 1227   3.184   4.666   1.633 -0.4991 -0.2281 -0.5022
   79MPD1    C2 1228   3.287   0.011   1.615 -0.0521 -0.1767 -0.6466
   79MPD1    C3 1229   3.283   0.143   1.659 -0.7543 -0.0933 -0.3904
   79MPD1    C4 1230   3.179   0.188   1.741 -0.1554 -0.6774 -0.0098
   79MPD1    C5 1231   3.089   0.092   1.773 -0.1705  0.0511 -0.4625
   79MPD1     H 1232   3.376   4.710   1.565 -0.0926  2.2555 -2.5458
   79MPD1    H1 1233   3.168   0.287   1.782  2.1646  0.2406 -1.6132
   79MPD1    H2 1234   3.006   4.632   1.735 -0.1783 -0.1324 -0.5951
   79MPD1    H3 1235   3.015   0.113   1.850 -0.1131  0.6998 -0.5864
   79MPD1     N 1236   3.374   0.240   1.619  0.4292 -0.3362  0.4653
   79MPD1    H5 1237   3.362   0.332   1.659  0.0476 -0.7575  1.3032
   79MPD1    N1 1238   3.180   4.535   1.590 -0.0123 -0.6226 -0.2838
   79MPD1    H6 1239   3.084   4.505   1.571 -0.1338 -2.5307  3.4000
   79MPD1    H7 1240   3.231   4.534   1.501  1.3979 -0.2077  0.5273
   80TMC2    C1 1241   4.557   0.870  12.192  0.6080  0.3198  1.0183
   80TMC2    C2 1242   4.486   0.929  12.091  0.3815 -0.5446 -0.0701
   80TMC2    C3 1243   4.364   0.875  12.069  0.2079  0.2767  0.6666
   80TMC2    C4 1244   4.517   0.761  12.272 -0.3520  0.8290 -0.5503
   80TMC2    C5 1245   4.392   0.719  12.243  0.1975 -0.3307  0.2747
   80TMC2    C6 1246   4.320   0.766  12.138  0.1647  0.5983  0.4801
   80TMC2     C 1247   4.666   0.947  12.254 -0.0835 -0.3591  0.0489
   80TMC2     O 1248   4.653   0.953  12.374 -0.1763 -0.2279  0.2035
   80TMC2     H 1249   4.514   1.023  12.043  0.6272 -1.3045 -1.4101
   80TMC2    H1 1250   4.592   0.734  12.346 -3.6744  0.3161  2.6230
   80TMC2    H2 1251   4.228   0.714  12.114 -0.9379  1.3708  3.0722
   80TMC2    C7 1252   4.310   0.644  12.336 -0.4197 -1.3091  1.0183
   80TMC2    C8 1253   4.264   0.955  12.000  0.1112 -0.0283 -0.4032
   80TMC2    O1 1254   4.193   0.623  12.311  0.2295  0.0594 -0.2236
   80TMC2    O2 1255   4.190   1.037  12.054 -0.1017  0.1541 -0.7171
   80TMC2    O5 1256   4.319   0.976  11.882  0.7309  0.5436 -0.2763
   80TMC2    H5 1257   4.352   0.893  11.840 -1.0654  0.3635 -1.3471
   81MPD2     C 1258   0.216   1.117  12.095  0.2326  0.3693  0.0002
   81MPD2    C1 1259   0.140   1.066  12.200 -1.0057 -0.6868  0.0243
   81MPD2    C2 1260   0.178   1.079  12.328 -0.2550 -0.0951 -0.5377
   81MPD2    C3 1261   0.287   1.163  12.355 -0.3203  0.7195  0.0886
   81MPD2    C4 1262   0.347   1.232  12.250 -0.5739  1.4817  1.0736
   81MPD2    C5 1263   0.314   1.207  12.121  0.4034  0.1421  0.4583
   81MPD2     H 1264   0.141   1.016  12.408  0.0519  1.9014  1.1864
   81MPD2    H1 1265   0.431   1.299  12.264 -1.3394  2.1285  2.6243
   81MPD2    H2 1266   0.185   1.106  11.992  1.6852 -0.9719 -0.2982
   81MPD2    H3 1267   0.363   1.264  12.043 -0.4225  2.0273  1.2961
   81MPD2     N 1268   0.311   1.176  12.497  0.4796  0.0317  0.7463
   81MPD2    H5 1269   0.256   1.122  12.563  1.2588  0.7003  1.9502
   81MPD2    N1 1270   0.018   0.999  12.163 -0.6211 -0.0767 -0.1129
   81MPD2    H7 1271   4.737   0.967  12.069  0.7043 -2.0075  0.2872
   82TMC2    C1 1272   3.341   0.459  11.452  0.1186  0.2887 -0.1475
   82TMC2    C2 1273   3.357   0.393  11.568 -0.3796  0.0350 -0.1680
   82TMC2    C3 1274   3.291   0.273  11.570  0.2115  0.3782  0.2932
   82TMC2    C4 1275   3.253   0.430  11.350 -0.4397  0.2972  0.0752
   82TMC2    C5 1276   3.180   0.308  11.364  0.2469  0.3512  0.4704
   82TMC2    C6 1277   3.205   0.231  11.473  0.7335  0.5199  1.0399
   82TMC2     C 1278   3.386   0.597  11.445 -0.0269 -0.2798  0.1236
   82TMC2     O 1279   3.349   0.674  11.535  0.5004 -0.4648 -0.4149
   82TMC2     H 1280   3.433   0.425  11.639  0.7863  0.4903 -1.6241
   82TMC2    H1 1281   3.241   0.491  11.261 -0.5393 -0.9019 -0.7459
   82TMC2    H2 1282   3.162   0.132  11.485 -0.8115  1.3255  2.1923
   82TMC2    C7 1283   3.088   0.243  11.258  0.2928 -0.0630  0.0337
   82TMC2    C8 1284   3.282   0.193  11.689 -0.0129 -0.2002  0.0664
   82TMC2    O1 1285   3.017   0.148  11.283  0.4321 -0.6215  0.1301
   82TMC2    O2 1286   3.187   0.124  11.732  0.0931 -0.4419  0.2851
   82TMC2    O5 1287   3.413   0.188  11.736  0.3080  0.1196  0.5867
   82TMC2    H5 1288   3.482   0.221  11.674  0.7400 -1.1640  0.3814
   83MPD2     C 1289   3.399   0.894  11.039 -0.0372  0.6197 -0.2098
   83MPD2    C1 1290   3.317   0.909  11.149  0.5296  0.0234  0.0276
   83MPD2    C2 1291   3.343   0.821  11.255 -0.0695 -0.4845 -0.2393
   83MPD2    C3 1292   3.447   0.727  11.244 -0.2660  0.4010 -0.6269
   83MPD2    C4 1293   3.526   0.718  11.131 -0.0358  0.7008 -0.1223
   83MPD2    C5 1294   3.504   0.798  11.026 -0.4069  0.0511 -0.2776
   83MPD2     H 1295   3.281   0.820  11.343  0.7722  1.7972  0.3855
   83MPD2    H1 1296   3.592   0.632  11.127 -1.6255 -0.6435  2.1360
   83MPD2    H2 1297   3.388   0.961  10.954 -0.0369  1.8499  0.7517
   83MPD2    H3 1298   3.554   0.778  10.932  1.9079 -0.5609  1.1064
   83MPD2     N 1299   3.454   0.613  11.325  0.6178 -0.2999  0.1145
   83MPD2    H5 1300   3.496   0.527  11.291 -0.2754  0.0160 -1.8207
   83MPD2    N1 1301   3.212   0.996  11.139 -0.0762 -0.3708 -0.4663
   83MPD2    H7 1302   3.190   1.029  11.045  2.5658  3.7591  0.3580
   84TMC2    C1 1303   3.935   0.084  11.283 -0.4773  0.6559  0.5125
   84TMC2    C2 1304   3.851   4.728  11.333  0.3735  0.4100  0.1989
   84TMC2    C3 1305   3.875   4.597  11.300 -0.7888  0.5247 -0.0282
   84TMC2    C4 1306   4.051   0.046  11.224 -0.2363  0.1156 -0.1193
   84TMC2    C5 1307   4.085   4.649  11.233 -0.3792 -0.6548 -0.7490
   84TMC2    C6 1308   3.996   4.552  11.263 -0.9859  0.6461  0.4022
   84TMC2     C 1309   3.893   0.223  11.283 -0.2798 -0.0854 -0.0103
   84TMC2     O 1310   3.806   0.254  11.363 -0.2382  0.1842 -0.4487
   84TMC2     H 1311   3.757   0.033  11.367  0.6867 -0.4702  2.1622
   84TMC2    H1 1312   4.122   0.120  11.188 -0.2483  0.5543  0.7519
   84TMC2    H2 1313   4.005   4.448  11.232 -2.2392  0.2325  1.4174
   84TMC2    C7 1314   4.215   4.601  11.180  0.1044  0.1031 -0.4897
   84TMC2    C8 1315   3.809   4.502  11.386 -0.2612 -0.9918 -0.3810
   84TMC2    O1 1316   4.231   4.486  11.139  0.2720 -0.3343 -0.2118
   84TMC2    O2 1317   3.758   4.530  11.494  0.2467  0.3344 -0.5281
   84TMC2    O5 1318   3.744   4.418  11.307  0.1436  0.2564 -0.1092
   84TMC2    H5 1319   3.770   4.422  11.212 -0.5294  3.0915 -0.1806
   85TMC2    C1 1320   0.251   2.425  15.888  0.0811 -0.1111 -0.2246
   85TMC2    C2 1321   0.189   2.359  15.788 -0.2555  0.0385  0.1285
   85TMC2    C3 1322   0.206   2.412  15.666 -0.4157 -0.2726 -0.3130
   85TMC2    C4 1323   0.308   2.547  15.876  0.7362  1.0949  0.2259
   85TMC2    C5 1324   0.300   2.612  15.752  0.2701  0.3188  0.4056
   85TMC2    C6 1325   0.260   2.539  15.643 -0.2404  0.3417  0.0564
   85TMC2     C 1326   0.226   2.386  16.030  0.1043 -0.0325  0.6388
   85TMC2     O 1327   0.302   2.438  16.112 -0.1621  0.3251 -0.2099
   85TMC2     H 1328   0.161   2.255  15.799 -2.7015  0.5288 -1.2875
   85TMC2    H1 1329   0.350   2.598  15.962  1.1240 -0.0744  0.7214
   85TMC2    H2 1330   0.263   2.564  15.538  2.0693  1.9548  0.5003
   85TMC2    C7 1331   0.362   2.746  15.742 -0.2232 -0.4344 -0.0708
   85TMC2    C8 1332   0.116   2.377  15.562 -0.2424  0.5795 -0.0731
   85TMC2    O1 1333   0.441   2.773  15.830 -0.6623  0.2556  0.5902
   85TMC2    O2 1334   0.003   2.331  15.584  0.1730 -0.2279 -0.5294
   85TMC2    O5 1335   0.169   2.391  15.439 -0.1980 -0.1444  0.5796
   85TMC2    H5 1336   0.267   2.393  15.431 -0.2283 -1.1611 -0.0982
   86MPD2     C 1337   0.001   2.111  16.393  0.2051  0.1457 -1.0712
   86MPD2    C1 1338   4.685   2.069  16.277 -0.1534  0.1432 -0.3375
   86MPD2    C2 1339   4.732   2.122  16.161 -0.4217 -0.3796 -0.0046
   86MPD2    C3 1340   0.092   2.222  16.158 -0.0505  0.1029  0.6166
   86MPD2    C4 1341   0.145   2.264  16.278  0.0015 -0.2259 -0.0940
   86MPD2    C5 1342   0.100   2.205  16.392  0.2049  1.1966 -1.0408
   86MPD2     H 1343   4.690   2.087  16.068  0.4219  2.2869 -1.4114
   86MPD2    H1 1344   0.222   2.341  16.280 -0.2204 -0.0156  0.2861
   86MPD2    H2 1345   4.706   2.072  16.489 -1.4681 -0.4051 -1.8491
   86MPD2    H3 1346   0.144   2.224  16.489 -2.3101  0.6961  0.1789
   86MPD2     N 1347   0.130   2.290  16.039  1.0123  0.3365  0.7450
   86MPD2    H5 1348   0.078   2.274  15.953 -0.2901 -1.6763  1.9086
   86MPD2    N1 1349   4.580   1.974  16.276 -0.4486 -0.2732 -0.0221
   86MPD2    H7 1350   4.552   1.938  16.185 -0.6064  1.5006 -0.6705
   87TMC2    C1 1351   2.951   0.027   1.161 -0.0504  0.1517 -0.7005
   87TMC2    C2 1352   2.888   4.685   1.253 -0.1763 -0.6465  0.2848
   87TMC2    C3 1353   2.887   4.726   1.386 -0.2261 -0.2182 -0.0505
   87TMC2    C4 1354   3.018   0.139   1.190  0.4658  0.5090  0.3420
   87TMC2    C5 1355   3.027   0.168   1.326 -0.1259 -0.0128 -0.0914
   87TMC2    C6 1356   2.965   0.097   1.425  0.0706  0.1411 -0.7363
   87TMC2     C 1357   2.940   4.726   1.021 -0.2108  0.0457 -0.3047
   87TMC2     O 1358   2.920   0.079   0.940 -0.1168 -0.4233  0.5905
   87TMC2     H 1359   2.808   4.621   1.217 -0.4737 -0.6075  0.8769
   87TMC2    H1 1360   3.064   0.204   1.117  1.0302 -0.4839 -0.1938
   87TMC2    H2 1361   2.965   0.139   1.525 -2.2846 -1.6226 -0.0199
   87TMC2    C7 1362   3.083   0.295   1.359  0.8172  0.5259 -0.1757
   87TMC2    C8 1363   2.807   4.646   1.486  0.1824  0.0033 -0.0046
   87TMC2    O1 1364   3.041   0.348   1.457 -0.2508  0.0674  0.2490
   87TMC2    O2 1365   2.783   4.705   1.590  0.0235 -0.3788 -0.1984
   87TMC2    O5 1366   2.857   4.514   1.483  0.4599 -0.1037  0.4854
   87TMC2    H5 1367   2.887   4.488   1.394  0.6484  1.9200 -0.0442
   88MPD2     C 1368   3.365   0.469   1.219  0.2636 -0.0001  0.1496
   88MPD2    C1 1369   3.251   0.455   1.282  0.1078  0.3589  0.3930
   88MPD2    C2 1370   3.191   0.565   1.344  0.4153 -0.3048 -0.5188
   88MPD2    C3 1371   3.260   0.683   1.337 -0.1427  0.0486  0.1919
   88MPD2    C4 1372   3.375   0.694   1.265  0.3809  0.1786 -0.0805
   88MPD2    C5 1373   3.425   0.586   1.201  0.4778  0.1413  0.4290
   88MPD2     H 1374   3.092   0.546   1.383  0.3571  0.6284 -0.2322
   88MPD2    H1 1375   3.428   0.788   1.256  0.8747 -0.0599  0.3345
   88MPD2    H2 1376   3.411   0.381   1.175 -0.1512 -0.5626  0.8495
   88MPD2    H3 1377   3.511   0.589   1.135 -0.5968 -0.5819 -0.9754
   88MPD2     N 1378   3.231   0.798   1.418  0.3039  0.2675 -0.3145
   88MPD2    H5 1379   3.282   0.884   1.401  0.6316  0.2649  0.6016
   88MPD2    N1 1380   3.187   0.333   1.275  0.0634  0.0067  0.5087
   88MPD2    H7 1381   3.225   0.268   1.208  1.5069  0.9790  0.3900
   89TMC2    C1 1382   3.410   3.636   1.714 -0.8382  0.2666  0.3895
   89TMC2    C2 1383   3.548   3.605   1.686  0.2335 -0.7950 -0.0112
   89TMC2    C3 1384   3.593   3.594   1.557  0.3370 -0.3102  0.3490
   89TMC2    C4 1385   3.329   3.658   1.603  0.2537 -0.0220  0.1487
   89TMC2    C5 1386   3.382   3.644   1.482  0.2434  0.0889 -0.2465
   89TMC2    C6 1387   3.509   3.614   1.450 -0.3768  0.0094 -0.6004
   89TMC2     C 1388   3.362   3.606   1.845  0.3476  0.2049 -0.0497
   89TMC2     O 1389   3.442   3.609   1.935  0.0873  0.0169  0.1436
   89TMC2     H 1390   3.614   3.582   1.769 -0.0101 -0.3080  0.3191
   89TMC2    H1 1391   3.235   3.710   1.613 -0.3097 -0.7904 -1.2056
   89TMC2    H2 1392   3.553   3.620   1.351  1.7035  0.4650  0.3433
   89TMC2    C7 1393   3.300   3.701   1.364 -0.7892 -0.0105  0.4737
   89TMC2    C8 1394   3.726   3.557   1.531 -0.3362 -0.6413 -0.4580
   89TMC2    O1 1395   3.177   3.694   1.375 -0.0387 -0.5782  0.2592
   89TMC2    O2 1396   3.785   3.469   1.589  0.0409 -0.2667 -0.0543
   89TMC2    O5 1397   3.787   3.649   1.448  0.3028  0.1472 -0.8373
   89TMC2    H5 1398   3.730   3.727   1.433  0.3555  0.0542 -1.5336
   90MPD2     C 1399   2.986   3.484   2.176 -0.3292 -0.4667 -0.0309
   90MPD2    C1 1400   2.938   3.469   2.049  0.0324  0.0678  0.6812
   90MPD2    C2 1401   3.023   3.494   1.943 -0.4069  0.2347  0.0043
   90MPD2    C3 1402   3.151   3.549   1.965 -0.1273  0.0290 -0.5338
   90MPD2    C4 1403   3.190   3.567   2.094 -0.1215 -0.0699 -0.2431
   90MPD2    C5 1404   3.107   3.532   2.192  0.2881  0.0881 -0.1636
   90MPD2     H 1405   2.978   3.483   1.845 -0.7357 -2.1623  0.4252
   90MPD2    H1 1406   3.285   3.610   2.123 -0.6100  0.7992  0.0761
   90MPD2    H2 1407   2.921   3.466   2.261  1.5467 -0.1086  1.4674
   90MPD2    H3 1408   3.137   3.549   2.295 -0.6826  0.5969  0.0322
   90MPD2     N 1409   3.227   3.588   1.851 -0.1397 -0.8445 -0.1071
   90MPD2    H5 1410   3.176   3.575   1.765 -1.4792  2.5734  0.1659
   90MPD2    N1 1411   2.801   3.424   2.028  0.4112 -0.2169  0.6040
   90MPD2    H7 1412   2.780   3.388   1.936  1.6242  0.3228  0.1149
   91TMC2    C1 1413   0.243   3.338  16.473  0.1235 -0.0141 -0.2555
   91TMC2    C2 1414   0.283   3.393  16.595 -0.6767 -0.2866 -0.4503
   91TMC2    C3 1415   0.224   3.341  16.709  1.0556 -0.1517 -0.5829
   91TMC2    C4 1416   0.157   3.232  16.463  0.0013 -0.1875  0.1337
   91TMC2    C5 1417   0.101   3.189  16.580 -0.7120  0.0492 -0.8652
   91TMC2    C6 1418   0.138   3.234  16.703 -0.1336  0.5323  0.0028
   91TMC2     C 1419   0.280   3.401  16.341 -0.2791  0.1269 -0.4678
   91TMC2     O 1420   0.227   3.360  16.237  0.6306 -0.3231  0.1283
   91TMC2     H 1421   0.357   3.472  16.602  0.3826 -1.0792 -2.7011
   91TMC2    H1 1422   0.140   3.193  16.364  0.7085  0.9116 -0.4264
   91TMC2    H2 1423   0.095   3.200  16.796 -0.5986  0.8885 -0.0821
   91TMC2    C7 1424   4.723   3.097  16.571 -0.2765  0.2875  0.0923
   91TMC2    C8 1425   0.285   3.381  16.828 -0.7933 -0.5629 -0.9047
   91TMC2    O1 1426   4.683   3.053  16.680  0.8889 -0.0365  0.0737
   91TMC2    O2 1427   0.383   3.447  16.840  0.2925  0.4778  0.3178
   91TMC2    O5 1428   0.175   3.399  16.905  0.3040  0.0622  0.0859
   91TMC2    H5 1429   0.092   3.384  16.855 -0.3220  0.1828  1.0889
   92MPD2     C 1430   0.386   3.607  16.162  0.7495 -0.4909  0.4254
   92MPD2    C1 1431   0.455   3.564  16.272 -0.5658 -0.3153  0.0207
   92MPD2    C2 1432   0.587   3.596  16.292 -0.1119 -0.7577 -0.5802
   92MPD2    C3 1433   0.650   3.669  16.195  0.0806 -0.0814  0.1565
   92MPD2    C4 1434   0.581   3.719  16.090 -0.6804  0.5013 -0.0353
   92MPD2    C5 1435   0.448   3.686  16.068  0.5865  0.1627  0.5335
   92MPD2     H 1436   0.642   3.553  16.375  2.1545  0.1899 -1.6007
   92MPD2    H1 1437   0.614   3.782  16.008  1.4113 -1.0539 -0.3731
   92MPD2    H2 1438   0.287   3.567  16.138  1.4392 -2.1667  0.3604
   92MPD2    H3 1439   0.396   3.723  15.980  1.0234 -0.9925 -0.2131
   92MPD2     N 1440   0.786   3.701  16.209  0.1686  0.1929  0.1533
   92MPD2    H5 1441   0.826   3.682  16.300  0.4766  2.1474  0.4370
   92MPD2    N1 1442   0.390   3.483  16.360 -0.1520 -0.6276  0.5525
   92MPD2    H7 1443   0.438   3.459  16.446 -1.6265 -0.1093  1.5268
   93TMC2    C1 1444   2.058   3.407  13.905  0.7615 -0.0491 -0.3156
   93TMC2    C2 1445   1.953   3.491  13.925  0.6650 -0.2806 -0.4579
   93TMC2    C3 1446   1.987   3.622  13.956  0.5099  0.3932  0.6925
   93TMC2    C4 1447   2.188   3.451  13.915  0.1135 -0.0895 -0.1707
   93TMC2    C5 1448   2.214   3.573  13.961  0.6866  0.2549  0.1863
   93TMC2    C6 1449   2.110   3.666  13.983  0.4846  0.3155 -0.1311
   93TMC2     C 1450   2.034   3.271  13.872  0.0901 -0.3379 -0.1055
   93TMC2     O 1451   2.137   3.212  13.849  0.6098 -0.6609 -0.3928
   93TMC2     H 1452   1.848   3.463  13.918  0.1495  0.8516  2.8927
   93TMC2    H1 1453   2.273   3.385  13.900 -0.2981 -1.1174  2.0260
   93TMC2    H2 1454   2.138   3.770  13.996  1.7967  0.1168 -1.3627
   93TMC2    C7 1455   2.343   3.620  13.933 -0.0609  0.6812 -0.0200
   93TMC2    C8 1456   1.892   3.726  13.938 -0.0732  0.4396  0.5773
   93TMC2    O1 1457   2.398   3.558  13.842  0.4314  0.1140 -0.1515
   93TMC2    O2 1458   1.894   3.839  13.987 -0.0458  0.0865  0.1851
   93TMC2    O5 1459   1.792   3.684  13.865 -0.1998 -0.1041 -0.3469
   93TMC2    H5 1460   1.820   3.623  13.794  0.0551  0.0787 -0.4015
   94MPD2     C 1461   1.936   2.998  13.827 -0.9744  0.0903  0.3049
   94MPD2    C1 1462   1.850   3.103  13.843 -0.2379 -0.2343 -0.1457
   94MPD2    C2 1463   1.717   3.087  13.817 -0.2876 -0.0983 -0.1445
   94MPD2    C3 1464   1.674   2.972  13.748  0.3246 -0.2624 -0.0523
   94MPD2    C4 1465   1.765   2.871  13.733 -0.2196 -0.3767 -0.2802
   94MPD2    C5 1466   1.897   2.888  13.769  0.3354 -0.6404 -0.0637
   94MPD2     H 1467   1.645   3.167  13.830 -2.3670 -1.7066 -1.6778
   94MPD2    H1 1468   1.753   2.781  13.674  1.1623  1.0077 -2.6691
   94MPD2    H2 1469   2.043   3.008  13.839 -0.8742 -0.1728 -0.3500
   94MPD2    H3 1470   1.975   2.817  13.743 -1.7372 -3.1955  0.7614
   94MPD2     N 1471   1.552   2.959  13.690 -0.0444 -0.8237 -0.0604
   94MPD2    H5 1472   1.530   2.896  13.613 -0.0981  1.5730 -2.0342
   94MPD2    N1 1473   1.899   3.234  13.873  0.5512 -0.5450  0.6261
   94MPD2    H7 1474   1.835   3.312  13.887 -0.5046 -1.3854  0.5235
   95TMC2    C1 1475   1.579   0.717  15.746 -0.6570 -0.2233 -0.7619
   95TMC2    C2 1476   1.477   0.685  15.832 -0.8576  0.2503  0.6431
   95TMC2    C3 1477   1.420   0.793  15.899 -0.2110  0.4687  0.3311
   95TMC2    C4 1478   1.631   0.840  15.728  0.1917  0.6768  0.4753
   95TMC2    C5 1479   1.566   0.936  15.799 -0.1524  0.0054  0.6720
   95TMC2    C6 1480   1.454   0.918  15.882  0.1449  0.3702 -0.0425
   95TMC2     C 1481   1.669   0.611  15.704 -0.0425 -0.4180 -1.1069
   95TMC2     O 1482   1.710   0.530  15.788 -0.1581 -0.2931 -0.5538
   95TMC2     H 1483   1.439   0.584  15.848  0.7767 -0.7540 -1.7492
   95TMC2    H1 1484   1.718   0.853  15.665  0.2097  1.0570  0.5751
   95TMC2    H2 1485   1.404   0.999  15.934 -1.4512 -0.0317 -0.9422
   95TMC2    C7 1486   1.624   1.069  15.821  0.0355  0.1311  0.1640
   95TMC2    C8 1487   1.305   0.775  15.979  0.9148 -0.0038  0.8304
   95TMC2    O1 1488   1.538   1.152  15.847 -0.3578 -0.8022  0.0309
   95TMC2    O2 1489   1.284   0.682  16.056  0.3726 -0.3861  0.4236
   95TMC2    O5 1490   1.209   0.840  15.918 -0.4963  0.7712  0.0787
   95TMC2    H5 1491   1.241   0.889  15.839  0.4731  0.2679  0.1588
   96MPD2     C 1492   1.974   0.434  15.346 -0.1166 -0.5719  0.4077
   96MPD2    C1 1493   1.997   0.441  15.482  0.4028  0.8519  0.2786
   96MPD2    C2 1494   1.896   0.481  15.570  0.4606 -0.1178  0.0673
   96MPD2    C3 1495   1.790   0.542  15.499  0.8069  1.0503  0.1417
   96MPD2    C4 1496   1.772   0.539  15.360 -0.3176 -0.0103  0.6210
   96MPD2    C5 1497   1.861   0.475  15.284  0.4210  0.1920 -0.5106
   96MPD2     H 1498   1.915   0.488  15.677 -0.3732 -2.7845  0.3843
   96MPD2    H1 1499   1.685   0.586  15.315  0.9872 -0.0710 -1.9752
   96MPD2    H2 1500   2.055   0.401  15.281  0.5257  0.7999  0.5081
   96MPD2    H3 1501   1.852   0.460  15.177 -0.9852  0.5862 -0.4366
   96MPD2     N 1502   1.686   0.608  15.570 -0.2707  0.1333  0.5410
   96MPD2    H5 1503   1.617   0.663  15.519  1.4187  0.9646 -0.8684
   96MPD2    N1 1504   2.124   0.414  15.529 -0.3215  0.8655  0.3028
   96MPD2    H7 1505   2.196   0.405  15.458 -1.5767 -1.0341 -0.7252
   97TMC2    C1 1506   4.349   3.167  17.461  0.2773  0.9306 -0.9204
   97TMC2    C2 1507   4.242   3.183  17.376 -0.6747  0.0342  0.1883
   97TMC2    C3 1508   4.210   3.310  17.344  0.4881  0.4014  1.1071
   97TMC2    C4 1509   4.414   3.269  17.517  0.2800  0.1341 -0.5744
   97TMC2    C5 1510   4.371   3.394  17.489  0.3094  0.4285 -0.7205
   97TMC2    C6 1511   4.270   3.419  17.398 -0.1628  0.0789 -0.1717
   97TMC2     C 1512   4.362   3.040  17.530  0.2498 -0.1663 -0.0930
   97TMC2     O 1513   4.414   3.033  17.641 -0.0103  0.4208 -0.0555
   97TMC2     H 1514   4.183   3.103  17.331  1.4541 -2.0235  1.0232
   97TMC2    H1 1515   4.489   3.250  17.593  1.8685  2.0200 -1.6496
   97TMC2    H2 1516   4.244   3.522  17.375 -1.3879  0.3303  2.3177
   97TMC2    C7 1517   4.409   3.493  17.589 -0.8616 -0.4775 -0.2725
   97TMC2    C8 1518   4.094   3.325  17.257 -0.3012 -0.8495 -0.2499
   97TMC2    O1 1519   4.509   3.473  17.662  0.5426  0.1143 -0.4203
   97TMC2    O2 1520   4.054   3.230  17.191  0.7147 -0.1102 -0.3678
   97TMC2    O5 1521   4.052   3.451  17.246 -0.1019 -0.4073 -0.3833
   97TMC2    H5 1522   4.117   3.509  17.293 -0.4034  0.5280 -1.1213
   98MPD2     C 1523   4.230   2.547  17.556 -0.6379 -0.3454  0.1682
   98MPD2    C1 1524   4.231   2.646  17.655 -0.5760  0.5788  1.4478
   98MPD2    C2 1525   4.268   2.777  17.623  0.1573  0.7495 -0.1474
   98MPD2    C3 1526   4.294   2.809  17.492 -0.0040 -0.0194 -0.1609
   98MPD2    C4 1527   4.283   2.706  17.398  0.2173  0.1212  0.3294
   98MPD2    C5 1528   4.252   2.577  17.420 -0.1600  0.3712 -0.3473
   98MPD2     H 1529   4.255   2.857  17.696 -0.4493  0.5274 -0.0105
   98MPD2    H1 1530   4.298   2.737  17.295 -1.0002  2.4325  0.8582
   98MPD2    H2 1531   4.201   2.444  17.570  1.5966 -0.8991  0.7814
   98MPD2    H3 1532   4.241   2.509  17.337  0.1620  1.4704 -1.2966
   98MPD2     N 1533   4.310   2.944  17.450  0.6142 -0.0293 -0.1470
   98MPD2    H5 1534   4.298   2.976  17.355 -2.7264  0.8978  0.5698
   98MPD2    N1 1535   4.197   2.608   0.044 -0.3494  0.4373  0.0654
   98MPD2    H7 1536   4.191   2.508   0.061  1.3560  0.5111  1.1047
   99TMC2    C1 1537   3.406   3.982   1.983  0.6600 -0.0259 -0.3145
   99TMC2    C2 1538   3.487   3.901   2.058  0.0283  0.3409  0.6214
   99TMC2    C3 1539   3.446   3.875   2.185 -0.3273  0.2420  0.0728
   99TMC2    C4 1540   3.286   4.033   2.032  0.7538  0.0628 -0.3789
   99TMC2    C5 1541   3.257   3.997   2.165  0.0482 -0.7853 -0.3267
   99TMC2    C6 1542   3.333   3.912   2.238  0.5268  0.4809 -1.0093
   99TMC2     C 1543   3.445   3.994   1.840 -0.5447 -0.0609  0.0655
   99TMC2     O 1544   3.562   3.995   1.806  0.1195  0.2974  0.0263
   99TMC2     H 1545   3.583   3.862   2.026 -0.9042  0.3067 -2.1447
   99TMC2    H1 1546   3.225   4.097   1.970  0.4293  0.1587  0.0406
   99TMC2    H2 1547   3.312   3.877   2.338 -1.6477  1.8411 -0.9812
   99TMC2    C7 1548   3.158   4.069   2.236  0.0871 -0.3258 -1.0338
   99TMC2    C8 1549   3.528   3.788   2.271 -0.7233 -0.1167  0.2922
   99TMC2    O1 1550   3.167   4.093   2.356  0.4801 -0.0271  0.5577
   99TMC2    O2 1551   3.507   3.798   2.392 -0.8259 -0.5182 -0.1291
   99TMC2    O5 1552   3.558   3.672   2.208 -0.0555  0.2784  0.0980
   99TMC2    H5 1553   3.540   3.670   2.112 -4.0865 -0.3348  0.8628
  100MPD2     C 1554   3.434   4.105   1.576  0.1446 -0.4160 -0.4035
  100MPD2    C1 1555   3.327   4.039   1.634  0.6242  0.4170 -0.4216
  100MPD2    C2 1556   3.208   4.016   1.565  0.0381  0.8934 -0.3582
  100MPD2    C3 1557   3.189   4.054   1.432 -0.4239 -0.0489  0.8208
  100MPD2    C4 1558   3.290   4.136   1.379  0.5948  0.8858 -0.7399
  100MPD2    C5 1559   3.408   4.155   1.450  0.3651 -0.6269 -0.4536
  100MPD2     H 1560   3.123   3.981   1.623  0.1747 -1.8685 -1.7995
  100MPD2    H1 1561   3.284   4.161   1.274 -0.2836 -1.9744 -1.3638
  100MPD2    H2 1562   3.528   4.130   1.624 -0.2255  0.6961 -0.2458
  100MPD2    H3 1563   3.494   4.202   1.404  0.4094 -0.3579 -0.1079
  100MPD2     N 1564   3.071   4.011   1.362 -0.5106 -0.0541  0.2885
  100MPD2    H5 1565   3.010   3.945   1.408 -0.8969  0.9535  1.2300
  100MPD2    N1 1566   3.329   3.998   1.767  0.3919 -0.2332  0.3446
  100MPD2    H7 1567   3.245   3.964   1.814 -0.3667  0.9167 -0.1812
  101TMC2    C1 1568   4.022   1.062  13.629  0.0145  0.0278 -0.2192
  101TMC2    C2 1569   4.063   1.053  13.760  0.2113  0.0790  0.0646
  101TMC2    C3 1570   4.153   1.149  13.806 -0.1176  0.1784 -0.1188
  101TMC2    C4 1571   4.066   1.170  13.546  0.2475 -0.4393  0.1920
  101TMC2    C5 1572   4.161   1.252  13.595  0.6073  0.8816  0.7005
  101TMC2    C6 1573   4.202   1.246  13.730  0.3770  0.6059  0.2429
  101TMC2     C 1574   3.918   0.966  13.584  0.1702  0.2138  0.0775
  101TMC2     O 1575   3.832   0.942  13.664 -0.1176 -0.1866  0.2142
  101TMC2     H 1576   4.030   0.967  13.818 -1.7023  0.9185  0.2279
  101TMC2    H1 1577   4.034   1.175  13.442  0.1867 -0.4348  0.2110
  101TMC2    H2 1578   4.283   1.307  13.768  1.4512 -0.9421  0.4207
  101TMC2    C7 1579   4.231   1.335  13.500 -0.2116  0.0755 -0.5263
  101TMC2    C8 1580   4.249   1.115  13.908  0.9716 -0.5448 -0.0832
  101TMC2    O1 1581   4.194   1.308  13.389  0.1965  0.5238 -0.1764
  101TMC2    O2 1582   4.369   1.125  13.890  0.1067  0.1341 -0.0918
  101TMC2    O5 1583   4.193   1.025  13.988 -0.4280 -0.1541  0.9998
  101TMC2    H5 1584   4.099   1.052  13.993 -0.1200  0.9798  0.7443
  102MPD2     C 1585   3.889   0.757  13.285 -0.1871 -0.2869  0.2416
  102MPD2    C1 1586   3.849   0.807  13.403 -0.3486  0.2222  0.4420
  102MPD2    C2 1587   3.728   0.762  13.455 -0.5639 -0.8069  0.6766
  102MPD2    C3 1588   3.645   0.680  13.381 -0.0612  0.7969 -0.4053
  102MPD2    C4 1589   3.690   0.631  13.262 -0.4219 -0.0205 -0.2054
  102MPD2    C5 1590   3.809   0.671  13.214 -0.5421  0.1367  0.2171
  102MPD2     H 1591   3.703   0.801  13.554  0.7214  1.8862 -0.0482
  102MPD2    H1 1592   3.630   0.570  13.195 -1.8850  1.3804 -0.1741
  102MPD2    H2 1593   3.986   0.770  13.239  0.1268  1.0500  1.3094
  102MPD2    H3 1594   3.833   0.641  13.113 -2.6130  0.6136 -0.4316
  102MPD2     N 1595   3.524   0.636  13.436 -0.0249  0.1574 -0.0442
  102MPD2    H5 1596   3.500   0.673  13.527 -2.4082  1.9489 -1.3774
  102MPD2    N1 1597   3.938   0.901  13.461  0.4363  0.0866 -0.2786
  102MPD2    H7 1598   4.022   0.925  13.409  1.7869 -3.6166  0.1670
  103TMC2    C1 1599   1.693   1.253  12.843  0.2724  0.8799 -0.8769
  103TMC2    C2 1600   1.829   1.235  12.858 -0.6567 -0.9352  0.0591
  103TMC2    C3 1601   1.892   1.292  12.966  0.0965 -0.3775 -0.0156
  103TMC2    C4 1602   1.614   1.312  12.943  0.3179 -0.4312  0.0412
  103TMC2    C5 1603   1.693   1.369  13.042 -0.2091  0.1907 -0.2537
  103TMC2    C6 1604   1.820   1.358  13.062  0.5746 -0.3726 -0.1816
  103TMC2     C 1605   1.639   1.223  12.716  0.4419  0.0825 -0.7413
  103TMC2     O 1606   1.514   1.223  12.718 -0.4418 -0.4450 -0.0874
  103TMC2     H 1607   1.877   1.161  12.795  0.3676 -0.8959  0.7891
  103TMC2    H1 1608   1.506   1.321  12.947  0.5594  1.2490  3.6376
  103TMC2    H2 1609   1.870   1.405  13.145  0.3267 -0.8915  0.2583
  103TMC2    C7 1610   1.623   1.414  13.164 -0.6401 -0.0433 -0.7582
  103TMC2    C8 1611   2.026   1.253  13.010 -0.3319 -0.2309  0.4901
  103TMC2    O1 1612   1.531   1.357  13.223 -0.2576  0.2525  0.4025
  103TMC2    O2 1613   2.067   1.278  13.121  0.3529  0.2565 -0.8186
  103TMC2    O5 1614   2.095   1.216  12.900 -0.1124 -0.3842  0.1685
  103TMC2    H5 1615   2.045   1.215  12.816  1.2375 -1.1956 -0.6137
  104MPD2     C 1616   1.793   1.085  12.418 -0.2666  0.2737  0.3536
  104MPD2    C1 1617   1.693   1.129  12.497 -0.3170 -0.2161  0.0454
  104MPD2    C2 1618   1.564   1.094  12.458  0.0355 -0.0861 -0.3944
  104MPD2    C3 1619   1.545   1.020  12.338  0.2399  0.1138  0.3308
  104MPD2    C4 1620   1.650   0.973  12.261  0.7236  0.0945  0.1321
  104MPD2    C5 1621   1.776   1.009  12.304 -0.6086  0.3487  0.9721
  104MPD2     H 1622   1.476   1.126  12.513  0.8819  0.0983  0.8557
  104MPD2    H1 1623   1.637   0.923  12.165  3.8613 -1.9098  0.7506
  104MPD2    H2 1624   1.898   1.109  12.428  0.2624 -1.8960  0.0416
  104MPD2    H3 1625   1.861   0.979  12.245  0.4341  2.5983  1.3487
  104MPD2     N 1626   1.412   1.006  12.299 -0.4239 -0.8401 -0.6712
  104MPD2    H5 1627   1.347   1.075  12.337 -1.3589 -1.7817 -0.5506
  104MPD2    N1 1628   1.724   1.198  12.607 -0.7954  0.5066 -0.1882
  104MPD2    H7 1629   1.821   1.224  12.615 -0.8508  0.8670 -0.6375
  105TMC2    C1 1630   2.953   0.075   0.128  0.4177  0.1002  0.8585
  105TMC2    C2 1631   2.912   0.195   0.183  0.4701  0.1249 -0.3021
  105TMC2    C3 1632   2.866   0.194   0.312  0.0635  0.3773 -0.0528
  105TMC2    C4 1633   2.932   4.696   0.191 -0.5390  0.3875 -0.5982
  105TMC2    C5 1634   2.874   4.694   0.309  0.2469 -0.1675  0.8217
  105TMC2    C6 1635   2.845   0.071   0.377 -0.0078  0.3244 -0.0769
  105TMC2     C 1636   2.969   0.073  17.734 -0.2072 -0.6055  0.3485
  105TMC2     O 1637   2.956   4.702  17.679 -0.4419 -0.2315  0.1241
  105TMC2     H 1638   2.900   0.279   0.116  1.6000 -0.4220 -1.1947
  105TMC2    H1 1639   2.947   4.597   0.148  0.2009 -0.0575  0.6949
  105TMC2    H2 1640   2.801   0.075   0.476  1.4979  0.9675  0.5540
  105TMC2    C7 1641   2.918   4.580   0.399 -0.3549  0.0037  0.7974
  105TMC2    C8 1642   2.815   0.315   0.372  0.6899  0.2658 -0.9497
  105TMC2    O1 1643   2.933   4.469   0.349  0.5443 -0.9817 -0.2038
  105TMC2    O2 1644   2.802   0.333   0.490 -0.2656 -0.2533  0.1679
  105TMC2    O5 1645   2.729   0.368   0.278 -0.2453 -0.1328 -0.4499
  105TMC2    H5 1646   2.746   0.327   0.190  0.3523 -0.8270 -0.0133
  106MPD2     C 1647   3.185   0.202  17.300 -0.4068 -0.6656  0.1150
  106MPD2    C1 1648   3.245   0.277  17.404 -0.6064  0.2837 -0.4114
  106MPD2    C2 1649   3.185   0.270  17.527  0.5957  0.4467  0.2796
  106MPD2    C3 1650   3.076   0.188  17.551  0.1294  0.1383 -0.6873
  106MPD2    C4 1651   3.020   0.118  17.450  0.0342 -0.1343  0.4066
  106MPD2    C5 1652   3.073   0.131  17.327 -0.3960  0.0425  0.4095
  106MPD2     H 1653   3.238   0.319  17.608  0.3668 -1.7241  1.7583
  106MPD2    H1 1654   2.928   0.062  17.466 -0.6805  0.3127 -2.1123
  106MPD2    H2 1655   3.241   0.163  17.216  1.6635  0.8260  0.7949
  106MPD2    H3 1656   3.032   0.064  17.252 -0.2141  2.0125 -1.4796
  106MPD2     N 1657   3.036   0.178  17.685 -0.3616  0.1501  0.1341
  106MPD2    H5 1658   3.087   0.236   0.005  0.1102  0.1874 -0.2654
  106MPD2    N1 1659   3.371   0.346  17.399  0.0298  1.2096 -0.3255
  106MPD2    H7 1660   3.404   0.383  17.488  1.9321  1.2404 -1.0465
  107TMC2    C1 1661   3.668   0.990  11.591  0.2950  0.5130 -0.1165
  107TMC2    C2 1662   3.692   1.130  11.594  0.2600 -0.6488 -0.4833
  107TMC2    C3 1663   3.735   1.185  11.475  0.0319 -0.0242 -0.1199
  107TMC2    C4 1664   3.675   0.912  11.483 -0.8592  0.0325 -0.0461
  107TMC2    C5 1665   3.724   0.973  11.371 -0.6909 -0.0055  0.1320
  107TMC2    C6 1666   3.756   1.102  11.366 -0.6789  0.6311 -0.2227
  107TMC2     C 1667   3.654   0.933  11.725  0.1206  0.0355  0.0952
  107TMC2     O 1668   3.709   0.994  11.812 -0.5974  0.2207 -0.0289
  107TMC2     H 1669   3.699   1.186  11.686 -3.5844 -0.6488 -0.1891
  107TMC2    H1 1670   3.642   0.809  11.478  0.8437 -0.4869 -0.4251
  107TMC2    H2 1671   3.802   1.147  11.278  1.3300  0.1050  0.5609
  107TMC2    C7 1672   3.787   0.892  11.270 -0.0085  0.8461 -0.0394
  107TMC2    C8 1673   3.769   1.325  11.472  0.0594  0.0746 -0.6828
  107TMC2    O1 1674   3.844   0.953  11.181 -0.3201 -0.0909 -0.3635
  107TMC2    O2 1675   3.838   1.382  11.390 -0.1344  0.1510  0.0732
  107TMC2    O5 1676   3.696   1.385  11.570 -0.5297 -0.4088 -0.1861
  107TMC2    H5 1677   3.627   1.323  11.603  0.8098 -1.7968  0.0084
  108MPD2     C 1678   3.580   0.784  11.968  0.2342 -0.4970 -0.7066
  108MPD2    C1 1679   3.517   0.759  11.853  0.2291  0.0304  0.4648
  108MPD2    C2 1680   3.409   0.670  11.854 -0.3369  0.6187  0.1728
  108MPD2    C3 1681   3.382   0.587  11.961  0.1988  0.3557 -0.3421
  108MPD2    C4 1682   3.465   0.596  12.072 -0.7674 -0.0118  0.1600
  108MPD2    C5 1683   3.559   0.700  12.074  0.0716  0.2138 -0.5554
  108MPD2     H 1684   3.346   0.663  11.766 -1.7068 -1.0469  1.2768
  108MPD2    H1 1685   3.437   0.554  12.168  1.5827 -1.2642  0.2812
  108MPD2    H2 1686   3.657   0.859  11.979 -1.1990  1.1814 -2.0739
  108MPD2    H3 1687   3.615   0.712  12.165  1.8838  0.1037 -1.6553
  108MPD2     N 1688   3.275   0.505  11.977  0.4153  0.0740 -0.0326
  108MPD2    H5 1689   3.267   0.464  12.070  0.3462  1.6192  0.6522
  108MPD2    N1 1690   3.562   0.828  11.733 -0.4846 -0.0279  0.7264
  108MPD2    H7 1691   3.502   0.805  11.654 -0.5374  2.8538 -0.0669
  109TMC2    C1 1692   3.485   1.630   0.422  0.7335 -0.0692  0.3304
  109TMC2    C2 1693   3.456   1.617   0.286 -0.9469 -0.2538 -0.5324
  109TMC2    C3 1694   3.518   1.703   0.203  0.0913  0.0401 -0.7877
  109TMC2    C4 1695   3.563   1.736   0.468 -0.3777 -0.1927 -0.3006
  109TMC2    C5 1696   3.626   1.812   0.374 -0.4414 -0.2515  0.9735
  109TMC2    C6 1697   3.595   1.805   0.246  0.4743 -0.2206 -0.1012
  109TMC2     C 1698   3.423   1.536   0.510  0.4622 -1.0867 -0.4882
  109TMC2     O 1699   3.339   1.459   0.464  0.0770  0.3355  0.2881
  109TMC2     H 1700   3.402   1.531   0.248 -1.4667 -0.2061  0.0974
  109TMC2    H1 1701   3.553   1.759   0.573 -1.3523 -0.1997 -0.3893
  109TMC2    H2 1702   3.651   1.858   0.170 -0.1037  1.2422  0.5002
  109TMC2    C7 1703   3.709   1.922   0.415  0.7218 -0.0263 -0.0509
  109TMC2    C8 1704   3.490   1.702   0.059 -0.1255 -0.3797 -0.4656
  109TMC2    O1 1705   3.736   2.001   0.329 -0.0408 -0.1314  0.6214
  109TMC2    O2 1706   3.530   1.790  17.729 -0.0735 -0.3569 -0.6660
  109TMC2    O5 1707   3.465   1.573   0.023 -0.6796 -0.8044  0.5880
  109TMC2    H5 1708   3.501   1.513   0.092 -0.1406 -1.2232 -0.0537
  110MPD2     C 1709   3.346   1.291   0.943 -0.1418  0.4108  0.2948
  110MPD2    C1 1710   3.410   1.408   0.980 -0.0401  0.2794  0.2701
  110MPD2    C2 1711   3.460   1.486   0.878 -0.7961 -0.7795  0.1866
  110MPD2    C3 1712   3.434   1.453   0.742 -0.5808  0.0960 -0.3926
  110MPD2    C4 1713   3.380   1.329   0.714  0.3787 -0.4153  0.5395
  110MPD2    C5 1714   3.331   1.252   0.814 -0.3519  0.2980  0.2474
  110MPD2     H 1715   3.509   1.581   0.896 -0.3253 -0.2998 -3.6012
  110MPD2    H1 1716   3.354   1.288   0.617 -3.1972  1.6505  0.6193
  110MPD2    H2 1717   3.304   1.226   1.019  1.3740 -0.9143 -0.0099
  110MPD2    H3 1718   3.279   1.162   0.784 -1.9643  1.0666  0.7156
  110MPD2     N 1719   3.474   1.543   0.641  0.4337  0.4800 -0.4628
  110MPD2    H5 1720   3.540   1.617   0.662  0.4152  0.8258 -1.6000
  110MPD2    N1 1721   3.444   1.429   1.118  0.6494  0.0528 -0.6459
  110MPD2    H7 1722   3.410   1.352   1.175  1.3284  1.0163  1.0482
  111TMC2    C1 1723   3.595   1.864  12.140  0.5012 -0.9322  0.2911
  111TMC2    C2 1724   3.516   1.889  12.247 -0.4983  0.5788 -0.6067
  111TMC2    C3 1725   3.563   1.874  12.374 -0.2218 -0.1475 -0.2019
  111TMC2    C4 1726   3.729   1.836  12.161 -0.1353 -0.0593 -0.0690
  111TMC2    C5 1727   3.775   1.837  12.288 -0.1643 -0.1622 -0.4954
  111TMC2    C6 1728   3.699   1.869  12.395  0.6168  0.0870 -0.3835
  111TMC2     C 1729   3.550   1.918  12.013  0.4306 -0.3207 -0.0924
  111TMC2     O 1730   3.637   1.956  11.938 -0.1041  0.6930 -0.3911
  111TMC2     H 1731   3.411   1.913  12.236 -0.5402  0.9833  0.7483
  111TMC2    H1 1732   3.788   1.791  12.082 -3.0891 -1.5455 -1.4306
  111TMC2    H2 1733   3.742   1.875  12.495 -0.2971 -0.0010  0.0169
  111TMC2    C7 1734   3.911   1.810  12.318 -0.3319  0.6101 -0.0961
  111TMC2    C8 1735   3.478   1.918  12.475 -0.2740  0.6434  0.0314
  111TMC2    O1 1736   3.944   1.804  12.438  1.1082  0.6833 -0.3598
  111TMC2    O2 1737   3.383   1.996  12.456 -0.0256  0.1016 -0.0683
  111TMC2    O5 1738   3.520   1.874  12.595 -0.0397 -0.4281  0.5666
  111TMC2    H5 1739   3.599   1.817  12.583  1.0214  1.2509 -0.4708
  112MPD2     C 1740   3.216   2.104  11.679  0.0783 -0.3813 -0.9801
  112MPD2    C1 1741   3.352   2.100  11.678  0.4859  0.3377 -0.6903
  112MPD2    C2 1742   3.415   2.039  11.782 -0.6616 -0.0642  0.1925
  112MPD2    C3 1743   3.343   1.989  11.886 -0.6261 -0.1096 -0.0390
  112MPD2    C4 1744   3.208   2.012  11.900 -0.2492 -0.4782 -0.6066
  112MPD2    C5 1745   3.150   2.063  11.789 -0.0742 -0.2957  0.6389
  112MPD2     H 1746   3.519   2.017  11.765 -0.9303 -2.1904  1.3322
  112MPD2    H1 1747   3.147   1.981  11.984 -0.3952  1.1491 -0.1070
  112MPD2    H2 1748   3.155   2.140  11.598  1.6560 -0.7672 -2.3304
  112MPD2    H3 1749   3.044   2.081  11.788  0.1326  0.9016  0.2506
  112MPD2     N 1750   3.411   1.934  11.998  0.0576 -0.2945 -0.0446
  112MPD2    H5 1751   3.353   1.898  12.073 -0.5833  0.9383  0.0457
  112MPD2    N1 1752   3.432   2.137  11.568  0.1571  0.0455  0.4072
  112MPD2    H7 1753   3.533   2.133  11.576  0.2315  0.4683 -0.2900
  113TMC2    C1 1754   2.109   4.313   1.431 -0.2146  0.4042  0.4892
  113TMC2    C2 1755   2.009   4.390   1.489  1.0321 -0.3290 -0.0006
  113TMC2    C3 1756   1.883   4.340   1.498  0.0656  0.2057 -0.0464
  113TMC2    C4 1757   2.070   4.189   1.374  0.4513 -0.3273  0.4814
  113TMC2    C5 1758   1.942   4.149   1.387 -0.0405  0.2445  0.2414
  113TMC2    C6 1759   1.847   4.219   1.452 -0.3836  0.2296 -0.3042
  113TMC2     C 1760   2.251   4.329   1.461  0.0285 -0.1119 -0.5905
  113TMC2     O 1761   2.282   4.413   1.546  0.3985 -0.1543 -0.1863
  113TMC2     H 1762   2.036   4.484   1.536  2.6729 -1.3170  1.0466
  113TMC2    H1 1763   2.136   4.126   1.316  1.1360  0.6544  0.1798
  113TMC2    H2 1764   1.740   4.203   1.455 -0.6556  1.8170 -1.4922
  113TMC2    C7 1765   1.913   4.021   1.315 -0.0504  0.3355  0.0129
  113TMC2    C8 1766   1.788   4.405   1.586  0.3397 -0.4720 -0.0797
  113TMC2    O1 1767   1.993   3.981   1.229 -0.2833 -0.6020  0.0390
  113TMC2    O2 1768   1.804   4.520   1.616  0.2608 -0.0291 -0.0702
  113TMC2    O5 1769   1.744   4.307   1.672 -0.5480  0.2389 -0.3591
  113TMC2    H5 1770   1.760   4.214   1.645  0.5101  0.4684 -0.5355
  114MPD2     C 1771   2.735   4.150   1.455 -0.2946 -0.6873 -0.5270
  114MPD2    C1 1772   2.673   4.241   1.538  0.0144  0.5102 -0.0084
  114MPD2    C2 1773   2.547   4.280   1.512  0.6561 -0.1392 -0.3696
  114MPD2    C3 1774   2.476   4.227   1.411  0.1336 -0.2107  0.3439
  114MPD2    C4 1775   2.540   4.143   1.319  0.2106  0.4509  0.4749
  114MPD2    C5 1776   2.669   4.105   1.348 -0.1090  1.1710 -0.1554
  114MPD2     H 1777   2.497   4.346   1.582  0.9156 -1.9408  1.4975
  114MPD2    H1 1778   2.488   4.100   1.235  1.9722 -1.0907  0.1688
  114MPD2    H2 1779   2.837   4.114   1.465  0.1478  0.6352 -0.2991
  114MPD2    H3 1780   2.723   4.049   1.272 -1.9857  0.4758 -0.9695
  114MPD2     N 1781   2.336   4.247   1.390 -0.5368 -0.3265  0.3841
  114MPD2    H5 1782   2.293   4.196   1.314  1.7739 -0.0874 -1.0627
  114MPD2    N1 1783   2.736   4.294   1.650  0.4508  0.7163 -0.1064
  114MPD2    H7 1784   2.694   4.378   1.688 -0.9586 -0.7736  1.6176
  115TMC2    C1 1785   2.955   2.237   0.398  0.1800  0.8628  0.1296
  115TMC2    C2 1786   3.033   2.172   0.488  0.3235 -0.5112  0.0222
  115TMC2    C3 1787   3.100   2.244   0.584  0.8448 -0.1734  0.2721
  115TMC2    C4 1788   2.959   2.375   0.392 -0.5337 -0.7846 -0.3274
  115TMC2    C5 1789   3.011   2.439   0.502  0.0814 -0.1310 -0.6183
  115TMC2    C6 1790   3.095   2.380   0.591 -0.0585 -0.2580 -0.4538
  115TMC2     C 1791   2.854   2.165   0.328  0.5002 -0.2135  0.5205
  115TMC2     O 1792   2.807   2.222   0.231 -0.2996  0.2440  0.1202
  115TMC2     H 1793   3.049   2.065   0.480  2.6468 -0.1450 -0.2602
  115TMC2    H1 1794   2.886   2.414   0.322 -1.0266 -1.1759 -0.0389
  115TMC2    H2 1795   3.129   2.429   0.681  0.2828 -1.0600 -0.1465
  115TMC2    C7 1796   2.992   2.586   0.527  0.4225  0.0836  0.0505
  115TMC2    C8 1797   3.160   2.179   0.702 -0.1861  0.3193 -0.7233
  115TMC2    O1 1798   3.011   2.625   0.644 -0.5265 -0.3884  0.0058
  115TMC2    O2 1799   3.180   2.234   0.813 -0.5882  0.5574  0.2954
  115TMC2    O5 1800   3.248   2.086   0.654  0.2185  0.2069  0.1262
  115TMC2    H5 1801   3.237   2.078   0.557  0.9875  0.4797  0.0130
  116MPD2     C 1802   2.584   1.736   0.218  0.3061  0.1896  0.3726
  116MPD2    C1 1803   2.624   1.835   0.139 -0.0045  0.0064  0.6369
  116MPD2    C2 1804   2.696   1.944   0.189  0.2834 -0.5075 -0.3749
  116MPD2    C3 1805   2.744   1.940   0.324 -0.3872 -0.2632  0.8285
  116MPD2    C4 1806   2.700   1.840   0.409 -0.2865  0.0914  0.3719
  116MPD2    C5 1807   2.620   1.742   0.354  0.3830  0.4907  1.0510
  116MPD2     H 1808   2.716   2.028   0.125 -1.7178  0.1912 -0.0985
  116MPD2    H1 1809   2.729   1.831   0.513 -1.8328 -0.8066  0.7192
  116MPD2    H2 1810   2.541   1.647   0.174  2.3302 -0.0444 -1.1069
  116MPD2    H3 1811   2.602   1.657   0.419 -2.7792  0.7333  0.4989
  116MPD2     N 1812   2.819   2.045   0.386  0.0866  0.2687  0.4516
  116MPD2    H5 1813   2.843   2.032   0.484 -1.9761 -1.3174  0.7504
  116MPD2    N1 1814   2.593   1.809   0.001 -0.8918  0.2151  0.1320
  116MPD2    H7 1815   2.551   1.722  17.715 -0.6176 -0.8917  2.8050
  117TMC2    C1 1816   1.597   3.558  14.160  0.1498  1.2462  0.3007
  117TMC2    C2 1817   1.712   3.552  14.232 -0.4632  0.1269 -0.9728
  117TMC2    C3 1818   1.762   3.664  14.288 -0.4344  0.2006  0.1517
  117TMC2    C4 1819   1.529   3.680  14.139 -0.4716  0.1434 -0.3734
  117TMC2    C5 1820   1.590   3.795  14.195 -0.6254  0.1730 -0.4691
  117TMC2    C6 1821   1.705   3.789  14.263  0.7633  0.2040 -0.3065
  117TMC2     C 1822   1.580   3.449  14.063 -0.2753  0.4189  0.1741
  117TMC2     O 1823   1.668   3.367  14.032  0.3851 -0.6342  0.0421
  117TMC2     H 1824   1.753   3.454  14.256  1.7636  1.3094  0.0683
  117TMC2    H1 1825   1.471   3.698  14.049  0.0155 -1.9725 -1.1128
  117TMC2    H2 1826   1.742   3.883  14.302 -1.3880  1.0622 -0.3592
  117TMC2    C7 1827   1.552   3.927  14.150 -0.5789 -0.2263  0.4524
  117TMC2    C8 1828   1.894   3.666  14.353  0.8060  0.1306 -0.8875
  117TMC2    O1 1829   1.620   4.021  14.188  0.1338  0.0703  0.3197
  117TMC2    O2 1830   1.946   3.576  14.417  0.3212  0.1093 -0.2219
  117TMC2    O5 1831   1.952   3.771  14.301 -0.7743 -0.0249  0.0700
  117TMC2    H5 1832   1.887   3.827  14.254 -0.0431 -0.9348 -2.0029
  118MPD2     C 1833   1.263   4.001  13.935 -0.0469 -0.0803 -0.2431
  118MPD2    C1 1834   1.371   4.037  14.013  0.0398  0.2948 -0.1847
  118MPD2    C2 1835   1.425   4.162  14.015  0.3325 -0.6624  0.6135
  118MPD2    C3 1836   1.362   4.265  13.946 -0.0419  0.0640  0.2211
  118MPD2    C4 1837   1.253   4.233  13.867 -0.5385  1.2797  0.2030
  118MPD2    C5 1838   1.204   4.106  13.864  0.5712  0.2496  0.3729
  118MPD2     H 1839   1.509   4.179  14.082  1.8768 -1.0286 -1.2218
  118MPD2    H1 1840   1.211   4.320  13.816 -1.4297  2.4217  2.8873
  118MPD2    H2 1841   1.233   3.897  13.923 -1.2440  0.0271  1.7904
  118MPD2    H3 1842   1.124   4.074  13.798 -0.0305 -1.5416  1.9488
  118MPD2     N 1843   1.403   4.400  13.948 -0.1811  0.3056  0.0725
  118MPD2    H5 1844   1.353   4.472  13.897 -1.5610  0.8070  2.1428
  118MPD2    N1 1845   1.432   3.938  14.084  0.2501 -1.2361  0.1217
  118MPD2    H7 1846   1.379   3.851  14.092 -0.5946 -0.6514  0.9139
  119TMC2    C1 1847   0.038   0.317  13.716 -0.3899 -0.1823 -0.5415
  119TMC2    C2 1848   0.117   0.429  13.741  0.6747  0.0623  0.6268
  119TMC2    C3 1849   0.082   0.550  13.689 -0.0849  0.2396  0.1366
  119TMC2    C4 1850   4.655   0.335  13.656  0.3027 -0.1755  0.5368
  119TMC2    C5 1851   4.616   0.460  13.617 -0.5686  1.0495  0.1173
  119TMC2    C6 1852   4.699   0.566  13.623  0.1944  0.8183 -0.4126
  119TMC2     C 1853   0.032   0.231  13.829 -0.3599  0.3377 -1.0660
  119TMC2     O 1854   4.668   0.237  13.902  0.3160  0.1082 -0.0136
  119TMC2     H 1855   0.201   0.415  13.809 -0.7450 -1.2540  2.1146
  119TMC2    H1 1856   4.582   0.256  13.648 -0.2846  0.4604 -0.4269
  119TMC2    H2 1857   4.670   0.668  13.601  1.3207  1.1756 -0.2291
  119TMC2    C7 1858   4.481   0.495  13.594  0.0537  0.0873  0.4553
  119TMC2    C8 1859   0.140   0.664  13.753  0.5163 -0.6164 -0.3098
  119TMC2    O1 1860   4.463   0.583  13.508 -0.3702 -0.1688  0.4148
  119TMC2    O2 1861   0.165   0.770  13.696 -0.2289 -0.2463 -0.4156
  119TMC2    O5 1862   0.124   0.655  13.886 -0.6588  0.1070  0.2936
  119TMC2    H5 1863   0.063   0.581  13.905 -0.7202  0.0674 -0.0592
  120MPD2     C 1864   0.233   4.580  14.113 -0.4667  0.7008  0.4916
  120MPD2    C1 1865   0.108   4.653  14.119 -0.2955  0.1095 -0.5071
  120MPD2    C2 1866   0.091   0.026  14.043  0.6742  0.4278 -0.5181
  120MPD2    C3 1867   0.177   0.059  13.945  0.1039 -0.3099 -0.0928
  120MPD2    C4 1868   0.301   4.728  13.938  0.4398 -0.5537 -0.1631
  120MPD2    C5 1869   0.321   4.622  14.021  1.1174 -0.5744  0.4959
  120MPD2     H 1870   0.002   0.087  14.051 -1.1212 -2.4504  1.4227
  120MPD2    H1 1871   0.372   0.019  13.861  0.4594 -3.8288 -1.3449
  120MPD2    H2 1872   0.254   4.492  14.173 -0.0120  0.9176  0.6469
  120MPD2    H3 1873   0.413   4.566  14.016  0.0268 -2.3751  0.4809
  120MPD2     N 1874   0.152   0.166  13.853  0.1034 -0.9409 -0.1212
  120MPD2    H5 1875   0.224   0.187  13.785  0.7776 -0.7373  0.6526
  120MPD2    N1 1876   0.018   4.623  14.228  0.1711 -0.1002  0.2527
  120MPD2    H7 1877   4.736   4.528  14.258 -0.5229 -0.8257 -2.4363
  121TMC2    C1 1878   0.761   2.240  13.767 -0.9785  0.2253  1.3322
  121TMC2    C2 1879   0.821   2.151  13.677  0.3054 -0.5457  0.2537
  121TMC2    C3 1880   0.753   2.032  13.662  0.2214 -0.1822  0.9131
  121TMC2    C4 1881   0.649   2.209  13.840  0.0082 -0.5301  0.2732
  121TMC2    C5 1882   0.594   2.086  13.823 -0.2304 -0.0849 -0.3148
  121TMC2    C6 1883   0.649   1.995  13.739  0.1394 -0.2037  0.8713
  121TMC2     C 1884   0.805   2.380  13.766  0.3192 -0.3137  1.0764
  121TMC2     O 1885   0.774   2.443  13.868  0.2825  0.3768  0.8567
  121TMC2     H 1886   0.902   2.177  13.611 -0.5924  0.7660 -0.3307
  121TMC2    H1 1887   0.604   2.276  13.912 -1.9188 -1.5028 -0.0349
  121TMC2    H2 1888   0.616   1.893  13.746  0.7662 -0.4502  0.1968
  121TMC2    C7 1889   0.491   2.039  13.915  0.2018  0.1178  0.0885
  121TMC2    C8 1890   0.799   1.939  13.560 -0.3420  0.0352 -0.4355
  121TMC2    O1 1891   0.494   1.925  13.954 -0.4310  0.0240  0.1790
  121TMC2    O2 1892   0.910   1.954  13.505  0.4283 -0.0310  0.0191
  121TMC2    O5 1893   0.684   1.891  13.517  0.3103 -0.2627  0.3472
  121TMC2    H5 1894   0.608   1.913  13.576  1.0506  0.4391  1.0505
  122MPD2     C 1895   0.858   2.661  13.703 -0.6548 -0.3535 -0.5773
  122MPD2    C1 1896   0.864   2.556  13.612  0.0458 -0.6057  0.0937
  122MPD2    C2 1897   0.910   2.578  13.488  0.6605  0.4964 -0.3375
  122MPD2    C3 1898   0.922   2.706  13.436  0.1319  0.3818  0.5302
  122MPD2    C4 1899   0.900   2.808  13.528  0.4168  0.6452  0.1470
  122MPD2    C5 1900   0.881   2.789  13.661  0.7086  0.5323  0.0481
  122MPD2     H 1901   0.919   2.492  13.423 -0.3414 -1.0599  1.5965
  122MPD2    H1 1902   0.921   2.910  13.499 -0.9904  1.1407  0.8721
  122MPD2    H2 1903   0.827   2.640  13.805 -1.5195 -1.5319 -1.0836
  122MPD2    H3 1904   0.878   2.870  13.732  1.4088 -0.8171  1.5962
  122MPD2     N 1905   0.960   2.742  13.308  0.2279  0.4001  0.1837
  122MPD2    H5 1906   0.970   2.839  13.281 -3.1756  0.9568  0.9882
  122MPD2    N1 1907   0.854   2.420  13.649 -0.2064  0.2850  0.1206
  122MPD2    H7 1908   0.852   2.353  13.573 -0.9871  1.0172 -0.5122
  123TMC2    C1 1909   0.614   0.045  10.328  0.8913  0.1882  0.5390
  123TMC2    C2 1910   0.655   4.700  10.430 -0.1765 -0.2509  0.2769
  123TMC2    C3 1911   0.608   4.574  10.439  0.1322  0.0473  0.4558
  123TMC2    C4 1912   0.531   4.732  10.236  0.3937  0.6958  0.7939
  123TMC2    C5 1913   0.481   4.611  10.252 -0.4006 -0.1940  0.5312
  123TMC2    C6 1914   0.513   4.527  10.349  0.7326 -0.0464 -0.3047
  123TMC2     C 1915   0.571   0.174  10.368  0.3666 -0.9769 -0.1389
  123TMC2     O 1916   0.652   0.254  10.407  0.0290 -0.0872 -0.2748
  123TMC2     H 1917   0.726   0.002  10.501  0.5670 -3.4932  1.3191
  123TMC2    H1 1918   0.501   0.049  10.146  2.8120  0.5273 -0.1144
  123TMC2    H2 1919   0.478   4.424  10.359  1.7342 -0.5712 -2.0835
  123TMC2    C7 1920   0.343   4.614  10.213 -0.0867  0.9670  0.3253
  123TMC2    C8 1921   0.658   4.480  10.536  0.0996  0.1704  0.0768
  123TMC2    O1 1922   0.290   4.724  10.206  0.1392 -0.0083 -0.2003
  123TMC2    O2 1923   0.665   4.357  10.516 -0.0850  0.2953 -1.4219
  123TMC2    O5 1924   0.617   4.535  10.655 -0.3889  0.2424 -0.5544
  123TMC2    H5 1925   0.576   4.624  10.648  0.9131  0.8372 -0.6597
  124MPD2     C 1926   0.189   0.502  10.475 -0.1627  0.0036 -0.2133
  124MPD2    C1 1927   0.128   0.383  10.442 -0.3403  0.0590  0.1435
  124MPD2    C2 1928   0.219   0.274  10.409  0.1344 -0.3359 -0.1884
  124MPD2    C3 1929   0.359   0.293  10.403 -0.4767 -0.5406 -0.0731
  124MPD2    C4 1930   0.405   0.421  10.424  0.5532  0.2636 -0.2239
  124MPD2    C5 1931   0.326   0.521  10.467  0.3812  0.4786 -0.5623
  124MPD2     H 1932   0.183   0.173  10.397  0.6137 -0.4019 -1.1043
  124MPD2    H1 1933   0.510   0.444  10.415  0.8715 -0.9630  0.3222
  124MPD2    H2 1934   0.134   0.592  10.500 -1.4045 -0.5680 -0.8621
  124MPD2    H3 1935   0.366   0.621  10.480  2.0453 -0.2755  0.1040
  124MPD2     N 1936   0.435   0.183  10.382 -0.4603 -0.4057  0.2457
  124MPD2    H5 1937   0.384   0.099  10.357 -1.8460 -0.3409  2.9034
  124MPD2    N1 1938   4.725   0.362  10.464  0.7157 -0.5856  0.5803
  124MPD2    H7 1939   4.667   0.442  10.483 -2.7985 -3.0512  0.2086
  125TMC2    C1 1940   3.173   2.721   9.570  0.3186  0.3225  0.3818
  125TMC2    C2 1941   3.231   2.596   9.579  0.1716  0.0971 -0.1578
  125TMC2    C3 1942   3.160   2.497   9.636  0.3730 -0.3747  0.2192
  125TMC2    C4 1943   3.052   2.739   9.633  0.1137  0.3854 -0.6305
  125TMC2    C5 1944   2.991   2.635   9.688 -0.3709 -0.7996 -0.4390
  125TMC2    C6 1945   3.033   2.506   9.689 -0.2022 -0.5573 -0.1619
  125TMC2     C 1946   3.250   2.830   9.519 -0.1506  0.4128 -0.0171
  125TMC2     O 1947   3.366   2.809   9.493 -0.4522 -0.0753 -0.1586
  125TMC2     H 1948   3.322   2.576   9.523 -0.2707 -1.9200 -0.1411
  125TMC2    H1 1949   3.025   2.844   9.639 -1.1001 -0.0768  2.2167
  125TMC2    H2 1950   2.962   2.425   9.699  0.1768 -0.7173  1.1390
  125TMC2    C7 1951   2.852   2.661   9.732 -0.3631 -0.1731  0.0367
  125TMC2    C8 1952   3.217   2.372   9.606 -0.3355  0.1551 -0.2595
  125TMC2    O1 1953   2.818   2.585   9.820 -0.5962 -0.1355  0.1046
  125TMC2    O2 1954   3.286   2.353   9.504 -0.1529 -0.4888 -0.4727
  125TMC2    O5 1955   3.154   2.274   9.678  0.0520  0.0847 -0.6029
  125TMC2    H5 1956   3.116   2.307   9.762 -2.6262 -1.8196 -1.0662
  126MPD1     C 1957   3.245   3.280   9.266  0.8078 -0.2804 -0.5876
  126MPD1    C1 1958   3.115   3.233   9.278 -0.3522  0.1270 -0.1202
  126MPD1    C2 1959   3.096   3.107   9.330  0.2204  0.6965 -0.1640
  126MPD1    C3 1960   3.206   3.043   9.396  0.8190 -0.1401 -0.2810
  126MPD1    C4 1961   3.334   3.100   9.397 -0.4481 -0.2670  0.0336
  126MPD1    C5 1962   3.349   3.214   9.321 -0.7321 -0.2358 -0.2341
  126MPD1     H 1963   3.000   3.058   9.332  0.7324 -0.2485  1.3881
  126MPD1    H1 1964   3.417   3.054   9.449  0.2779  0.6367 -0.3397
  126MPD1    H2 1965   3.253   3.377   9.219  0.9619  0.2039  0.4315
  126MPD1    H3 1966   3.450   3.251   9.315 -0.9849  0.2259 -1.8208
  126MPD1     N 1967   3.168   2.923   9.463  0.7705 -0.6811 -0.1216
  126MPD1    H5 1968   3.069   2.901   9.470  0.8145 -1.2222 -1.2208
  126MPD1    N1 1969   3.001   3.288   9.216  0.5782 -0.0294  0.0124
  126MPD1    H6 1970   2.914   3.260   9.261  0.6865  0.7475  0.7118
  126MPD1    H7 1971   2.995   3.388   9.200 -3.0099  0.0329  1.9431
  127TMC2    C1 1972   1.543   1.350  10.120  0.4848  0.4544 -0.2359
  127TMC2    C2 1973   1.524   1.412  10.246 -0.1685 -0.2191  0.6330
  127TMC2    C3 1974   1.446   1.347  10.333 -0.6743 -0.2639  0.9464
  127TMC2    C4 1975   1.499   1.222  10.101 -0.2353 -0.2755 -0.2180
  127TMC2    C5 1976   1.428   1.158  10.197  0.3194  0.4123  0.2831
  127TMC2    C6 1977   1.408   1.215  10.317  0.2307  0.2875 -0.2285
  127TMC2     C 1978   1.585   1.440  10.018  0.3844 -0.2036  0.5764
  127TMC2     O 1979   1.634   1.544  10.057 -0.4553  0.4889  0.1501
  127TMC2     H 1980   1.544   1.517  10.264 -1.2897 -0.2963  2.3538
  127TMC2    H1 1981   1.511   1.170  10.007  0.2585  0.6338 -0.6464
  127TMC2    H2 1982   1.385   1.155  10.404  0.5824 -0.2025 -0.4696
  127TMC2    C7 1983   1.407   1.015  10.185 -0.4174 -0.5087  0.4034
  127TMC2    C8 1984   1.430   1.424  10.459 -0.1255  0.1208 -0.0745
  127TMC2    O1 1985   1.496   0.952  10.133 -0.3163 -0.2536  0.2762
  127TMC2    O2 1986   1.475   1.537  10.480  0.2996 -0.0684 -0.1995
  127TMC2    O5 1987   1.356   1.352  10.553 -0.4767 -0.2040 -0.1166
  127TMC2    H5 1988   1.307   1.274  10.518  1.8180 -2.5071  1.7970
  128MPD2     C 1989   1.572   1.402   9.658  0.2098 -0.7869 -0.2301
  128MPD2    C1 1990   1.593   1.465   9.781 -0.2130 -0.1040  0.6117
  128MPD2    C2 1991   1.641   1.592   9.778 -0.7552  0.3944  0.6198
  128MPD2    C3 1992   1.669   1.656   9.656 -0.8109  0.4651  0.3757
  128MPD2    C4 1993   1.649   1.589   9.543  0.6139  0.8184 -0.7466
  128MPD2    C5 1994   1.602   1.461   9.543  0.7018 -0.8011  0.2498
  128MPD2     H 1995   1.651   1.652   9.868  2.3848 -1.0165  1.1890
  128MPD2    H1 1996   1.656   1.633   9.444 -2.8839  0.0928 -1.3323
  128MPD2    H2 1997   1.532   1.301   9.653  1.8012 -1.3820 -0.9064
  128MPD2    H3 1998   1.574   1.404   9.455 -1.9169  1.1452 -0.1873
  128MPD2     N 1999   1.696   1.793   9.654  0.4574 -0.0681  0.2116
  128MPD2    H5 2000   1.732   1.828   9.742 -1.7236 -1.4318  1.6586
  128MPD2    N1 2001   1.562   1.395   9.894  0.3942  0.3001 -0.3695
  128MPD2    H7 2002   1.524   1.301   9.881  2.2092 -0.0974 -2.9015
  129TMC2    C1 2003   0.299   1.590   1.619 -0.3509 -0.0400  0.1601
  129TMC2    C2 2004   0.191   1.662   1.643 -0.2274  0.2610  0.1002
  129TMC2    C3 2005   0.081   1.600   1.694 -0.3905 -0.1447 -0.4704
  129TMC2    C4 2006   0.294   1.451   1.634 -0.0133  0.6084  0.0278
  129TMC2    C5 2007   0.174   1.393   1.677 -0.3053 -0.0224 -0.6611
  129TMC2    C6 2008   0.064   1.463   1.705  0.2191  0.1363 -0.2049
  129TMC2     C 2009   0.427   1.655   1.579 -0.2359 -0.1167 -0.5203
  129TMC2     O 2010   0.531   1.594   1.595  0.1349 -0.1895 -0.3306
  129TMC2     H 2011   0.199   1.770   1.638 -0.7343  0.4145  2.3807
  129TMC2    H1 2012   0.383   1.398   1.602  0.0347  0.5643  0.2343
  129TMC2    H2 2013   4.708   1.423   1.746  0.2911 -1.3478 -1.5140
  129TMC2    C7 2014   0.166   1.243   1.689  0.3121 -0.6206 -0.6264
  129TMC2    C8 2015   4.706   1.691   1.721  0.5092  0.5591  0.2294
  129TMC2    O1 2016   0.053   1.198   1.705  0.1766  0.2347 -0.0281
  129TMC2    O2 2017   4.706   1.809   1.682  0.3915  0.1199 -0.1584
  129TMC2    O5 2018   4.673   1.655   1.844  0.5897  0.2823  0.1133
  129TMC2    H5 2019   4.709   1.569   1.875 -0.0643  0.3440  1.0649
  130MPD2     C 2020   0.621   1.816   1.423  0.2334 -0.3712 -0.0597
  130MPD2    C1 2021   0.511   1.869   1.474 -0.0076 -0.0620 -0.0044
  130MPD2    C2 2022   0.482   2.001   1.466 -0.1767 -0.3689  0.1943
  130MPD2    C3 2023   0.559   2.088   1.397 -0.7496  0.2782 -0.0623
  130MPD2    C4 2024   0.674   2.039   1.335  0.0663 -0.3886  0.5618
  130MPD2    C5 2025   0.691   1.905   1.343 -0.2570 -0.1932  0.3995
  130MPD2     H 2026   0.396   2.045   1.516 -0.2660 -0.7687  0.3929
  130MPD2    H1 2027   0.740   2.088   1.265 -0.7623 -1.2933 -0.8448
  130MPD2    H2 2028   0.649   1.712   1.431  0.1178 -0.3069  1.0663
  130MPD2    H3 2029   0.763   1.859   1.276 -2.0220 -0.5172 -1.2484
  130MPD2     N 2030   0.521   2.225   1.391 -0.7417  0.4515  1.2456
  130MPD2    H5 2031   0.431   2.250   1.430 -1.3637  0.1094  0.0193
  130MPD2    N1 2032   0.409   1.786   1.532  0.2325  0.4717 -0.3701
  130MPD2    H7 2033   0.313   1.819   1.533  1.1880  3.2416  0.1681
  131TMC2    C1 2034   4.427   1.245  10.511  0.4401  1.2079 -0.1088
  131TMC2    C2 2035   4.313   1.319  10.510  0.5551  0.2357  0.8000
  131TMC2    C3 2036   4.325   1.455  10.507  0.5931  0.3021  0.4913
  131TMC2    C4 2037   4.550   1.303  10.520 -0.9157  0.0381  0.1761
  131TMC2    C5 2038   4.553   1.439  10.509 -0.9861  0.2231 -0.2066
  131TMC2    C6 2039   4.442   1.519  10.495 -0.2575 -0.7419  0.7218
  131TMC2     C 2040   4.418   1.110  10.470  0.0013 -0.5315 -0.0009
  131TMC2     O 2041   4.502   1.033  10.514  0.8555  0.3554 -0.2975
  131TMC2     H 2042   4.214   1.275  10.508  0.2952  0.7994  1.0831
  131TMC2    H1 2043   4.646   1.251  10.522 -1.8066 -1.5823  1.1618
  131TMC2    H2 2044   4.443   1.626  10.478  0.4313 -1.3398 -2.9840
  131TMC2    C7 2045   4.671   1.491  10.442 -0.0180 -0.3614 -0.6637
  131TMC2    C8 2046   4.199   1.521  10.496 -0.2135  0.2374  0.2267
  131TMC2    O1 2047   4.712   1.427  10.348  0.6086 -0.1004 -0.1696
  131TMC2    O2 2048   4.092   1.473  10.537  0.2443  0.3669  0.6131
  131TMC2    O5 2049   4.204   1.618  10.400  0.4250  0.2345  0.6228
  131TMC2    H5 2050   4.286   1.645  10.353 -0.8591 -1.2574 -2.5111
  132MPD2     C 2051   4.251   0.957  10.184 -0.1918  0.9468 -0.1291
  132MPD2    C1 2052   4.310   0.961  10.313 -0.2938  0.2460 -0.0279
  132MPD2    C2 2053   4.327   0.838  10.382 -0.8445 -0.2500  0.2647
  132MPD2    C3 2054   4.280   0.726  10.321 -0.1483 -0.2890 -0.1870
  132MPD2    C4 2055   4.214   0.727  10.201  0.1233  0.0654  0.0790
  132MPD2    C5 2056   4.207   0.838  10.131 -0.5514 -0.4063 -0.3384
  132MPD2     H 2057   4.358   0.833  10.486  1.4562 -0.2782 -0.4075
  132MPD2    H1 2058   4.184   0.644  10.138  2.5063 -0.4414 -0.3872
  132MPD2    H2 2059   4.217   1.045  10.131  1.9985  2.1075  0.3929
  132MPD2    H3 2060   4.154   0.837  10.036  1.7664 -0.5861 -1.6421
  132MPD2     N 2061   4.284   0.605  10.396 -0.1069 -0.7001 -0.4315
  132MPD2    H5 2062   4.338   0.617  10.482  0.0420  0.6570 -0.7215
  132MPD2    N1 2063   4.333   1.090  10.363  0.2176 -0.3231  0.2130
  132MPD2    H7 2064   4.288   1.168  10.317  0.7327 -0.3936 -0.4146
  133TMC2    C1 2065   4.186   2.221   9.733 -0.3160 -0.5026 -0.1630
  133TMC2    C2 2066   4.281   2.132   9.694  0.2372  0.0956 -0.7295
  133TMC2    C3 2067   4.410   2.173   9.670 -0.5343  0.7732 -0.7668
  133TMC2    C4 2068   4.217   2.354   9.742  0.0375 -0.1621  0.3114
  133TMC2    C5 2069   4.342   2.390   9.706 -0.0915  0.3149  0.2272
  133TMC2    C6 2070   4.443   2.302   9.670  0.3005 -0.2791  0.0742
  133TMC2     C 2071   4.053   2.175   9.735 -0.0889 -0.0878  0.2696
  133TMC2     O 2072   4.048   2.052   9.735 -0.2497  0.4898  0.6615
  133TMC2     H 2073   4.265   2.026   9.679 -1.1313 -0.0918  2.0628
  133TMC2    H1 2074   4.158   2.431   9.790  0.3593 -0.3408  0.9976
  133TMC2    H2 2075   4.544   2.335   9.647 -0.4433  2.4504  0.6755
  133TMC2    C7 2076   4.362   2.526   9.701  1.4867  0.4825  0.2700
  133TMC2    C8 2077   4.497   2.056   9.653 -0.0040 -0.1009  0.3654
  133TMC2    O1 2078   4.268   2.598   9.697  0.2373  0.1056 -0.3034
  133TMC2    O2 2079   4.477   1.947   9.604  0.3447  0.4370  0.0996
  133TMC2    O5 2080   4.614   2.111   9.632  0.1355 -0.1598 -0.2265
  133TMC2    H5 2081   4.647   2.190   9.680  0.6504 -0.4070 -0.1644
  134MPD2     C 2082   3.720   2.335   9.673  0.6114 -0.3087 -0.1551
  134MPD2    C1 2083   3.812   2.236   9.709  0.5475  0.1114 -0.0872
  134MPD2    C2 2084   3.764   2.104   9.734  0.2060  0.6963 -0.0737
  134MPD2    C3 2085   3.628   2.072   9.717  0.2359  0.0969 -0.1923
  134MPD2    C4 2086   3.543   2.174   9.683 -0.0408  0.1208 -0.0728
  134MPD2    C5 2087   3.587   2.305   9.666  0.0007  0.1331 -0.0773
  134MPD2     H 2088   3.829   2.020   9.758 -0.8762 -0.4304 -1.1107
  134MPD2    H1 2089   3.435   2.158   9.681  0.0317 -0.6526  2.4894
  134MPD2    H2 2090   3.756   2.433   9.645  2.4564 -1.5730 -2.1596
  134MPD2    H3 2091   3.526   2.393   9.650  1.0956  0.7572 -0.8193
  134MPD2     N 2092   3.565   1.945   9.728  0.1683  0.1333  0.1110
  134MPD2    H5 2093   3.465   1.930   9.724  0.1593  0.0297  0.7553
  134MPD2    N1 2094   3.954   2.270   9.726  0.3411  0.0867  0.1813
  134MPD2    H7 2095   3.978   2.366   9.703 -0.3738 -0.1126 -1.4033
  135TMC2    C1 2096   1.136   3.044   9.675  0.1783  0.1802  1.0648
  135TMC2    C2 2097   1.016   3.099   9.711  0.2160 -0.2584  0.0967
  135TMC2    C3 2098   0.946   3.039   9.808 -0.0775  0.3732  0.5539
  135TMC2    C4 2099   1.191   2.935   9.745 -0.5713 -0.4925  0.0883
  135TMC2    C5 2100   1.122   2.891   9.854 -0.2205 -0.6689 -0.1160
  135TMC2    C6 2101   1.001   2.946   9.889 -0.6840  0.3977 -0.3340
  135TMC2     C 2102   1.163   3.049   9.534 -0.1194  0.9015  0.1054
  135TMC2     O 2103   1.072   3.061   9.460  0.3588  0.4035  0.1074
  135TMC2     H 2104   0.977   3.183   9.655  0.9848 -0.7745 -1.2036
  135TMC2    H1 2105   1.288   2.891   9.723 -1.1957 -0.9007 -1.7510
  135TMC2    H2 2106   0.947   2.907   9.974  0.5458  1.4079  0.9150
  135TMC2    C7 2107   1.172   2.764   9.915 -0.8461 -0.3535  0.1838
  135TMC2    C8 2108   0.864   3.121   9.885  0.4390  0.0706  0.9563
  135TMC2    O1 2109   1.277   2.726   9.875 -0.2109 -0.7347  0.0392
  135TMC2    O2 2110   0.850   3.240   9.861  0.5508 -0.1268 -0.5582
  135TMC2    O5 2111   0.772   3.044   9.941 -0.7240  0.1863  0.1625
  135TMC2    H5 2112   0.778   2.952   9.906  0.6793 -1.3285  4.3147
  136MPD2     C 2113   1.260   2.978   9.266  0.9275 -0.6340  1.0958
  136MPD2    C1 2114   1.342   3.026   9.369 -0.5442  0.5460  0.2185
  136MPD2    C2 2115   1.469   3.069   9.337  0.1686  0.3380  0.0534
  136MPD2    C3 2116   1.508   3.077   9.205 -0.3941 -0.0312 -0.2420
  136MPD2    C4 2117   1.421   3.038   9.102  0.4430 -0.2310  0.1703
  136MPD2    C5 2118   1.295   2.987   9.137 -0.0507 -0.4116 -0.6114
  136MPD2     H 2119   1.532   3.102   9.419 -1.5979 -0.0269  1.5620
  136MPD2    H1 2120   1.448   3.032   8.998 -0.9018  0.6649 -0.2345
  136MPD2    H2 2121   1.166   2.933   9.295  0.6764  0.3678  1.8234
  136MPD2    H3 2122   1.236   2.946   9.056  0.0098 -0.7992 -0.4623
  136MPD2     N 2123   1.636   3.140   9.173  0.2233 -0.1383 -0.2175
  136MPD2    H5 2124   1.653   3.151   9.074  1.6948  1.0269  0.1657
  136MPD2    N1 2125   1.293   3.025   9.503 -0.5963  0.0206 -0.2951
  136MPD2    H7 2126   1.363   3.022   9.576  0.4705 -1.1103 -1.3641
  137TMC2    C1 2127   0.855   2.366   9.806 -0.1939  0.4297 -0.2671
  137TMC2    C2 2128   0.957   2.404   9.724  0.8428  0.0601 -0.1262
  137TMC2    C3 2129   0.960   2.533   9.679 -0.2496 -0.2016  0.4075
  137TMC2    C4 2130   0.751   2.447   9.847  0.6660 -0.1239  0.1447
  137TMC2    C5 2131   0.765   2.577   9.812 -0.0610  0.1048  0.0317
  137TMC2    C6 2132   0.863   2.622   9.728 -0.3078  0.0181  0.1164
  137TMC2     C 2133   0.853   2.226   9.842 -0.4800 -0.0703  0.2248
  137TMC2     O 2134   0.773   2.201   9.933 -0.6284  0.3919  0.2169
  137TMC2     H 2135   1.044   2.342   9.708 -1.5712 -3.1618 -0.6671
  137TMC2    H1 2136   0.663   2.414   9.902 -0.2403  1.2173 -0.5044
  137TMC2    H2 2137   0.862   2.724   9.691  1.6666  0.2831  0.7573
  137TMC2    C7 2138   0.682   2.680   9.877  0.3553  0.2377  0.1004
  137TMC2    C8 2139   1.084   2.574   9.617  0.6519  0.3249  0.1622
  137TMC2    O1 2140   0.732   2.796   9.874 -0.2302 -0.2630 -0.5354
  137TMC2    O2 2141   1.178   2.501   9.604 -0.1266  0.2642 -0.0061
  137TMC2    O5 2142   1.065   2.677   9.528  0.0230  0.1111 -0.3604
  137TMC2    H5 2143   0.973   2.698   9.502  0.1549  1.1430  0.0039
  138MPD2     C 2144   0.994   1.936   9.661 -0.1463 -0.0599  0.5878
  138MPD2    C1 2145   0.943   2.007   9.767 -0.2550 -0.2637  0.9291
  138MPD2    C2 2146   0.908   1.942   9.886  0.3328 -0.4756 -0.0179
  138MPD2    C3 2147   0.915   1.805   9.893 -0.6641  0.6974 -0.2156
  138MPD2    C4 2148   0.942   1.732   9.777 -0.5607  0.2248 -0.2374
  138MPD2    C5 2149   0.986   1.802   9.660 -0.4484 -0.1473 -0.2625
  138MPD2     H 2150   0.890   2.001   9.975  0.4130  1.0148 -0.9989
  138MPD2    H1 2151   0.951   1.625   9.766  0.0708  0.0472  2.1558
  138MPD2    H2 2152   1.024   1.993   9.574  1.1022 -0.8600  0.5103
  138MPD2    H3 2153   1.008   1.740   9.574 -2.5352 -0.9829 -0.1893
  138MPD2     N 2154   0.901   1.734  10.016  0.0183  0.1438 -0.4385
  138MPD2    H5 2155   0.898   1.796  10.096 -1.7934 -0.0968 -0.3159
  138MPD2    N1 2156   0.919   2.148   9.752  0.3909  0.7137  1.1378
  138MPD2    H7 2157   0.946   2.187   9.662  0.3554 -0.0891  0.7807
  139TMC2    C1 2158   1.180   0.046  13.470 -0.5047  0.3005 -0.5475
  139TMC2    C2 2159   1.266   0.152  13.442  0.3422 -0.1213 -0.8801
  139TMC2    C3 2160   1.231   0.270  13.501  0.6715  0.0289  0.7298
  139TMC2    C4 2161   1.069   0.056  13.549  0.1750  0.3382  0.4953
  139TMC2    C5 2162   1.053   0.173  13.613  0.6885 -0.5159  0.2903
  139TMC2    C6 2163   1.124   0.288  13.585 -0.6324 -0.3428  0.0130
  139TMC2     C 2164   1.253   4.651  13.468  0.0057  0.0314 -0.4721
  139TMC2     O 2165   1.369   4.652  13.431  0.2602  0.7638 -0.4911
  139TMC2     H 2166   1.361   0.148  13.390  1.7757 -0.5267  1.7289
  139TMC2    H1 2167   0.988   4.721  13.556  0.7197 -0.4020 -0.8530
  139TMC2    H2 2168   1.122   0.380  13.643  0.2887  0.7583 -1.6980
  139TMC2    C7 2169   0.943   0.185  13.709 -0.2026 -0.6376 -0.1131
  139TMC2    C8 2170   1.338   0.368  13.503 -0.2981 -0.1717 -0.1463
  139TMC2    O1 2171   0.913   0.304  13.712  0.5523 -0.3281 -0.2192
  139TMC2    O2 2172   1.454   0.342  13.521 -0.5827  0.0187  0.1295
  139TMC2    O5 2173   1.284   0.489  13.482 -0.0471  0.4370  0.2940
  139TMC2    H5 2174   1.188   0.474  13.463 -0.0925  0.2747  0.6672
  140MPD2     C 2175   1.094   4.320  13.463  0.6001 -0.5083 -0.4479
  140MPD2    C1 2176   1.198   4.404  13.467  0.7422 -0.1590 -0.1095
  140MPD2    C2 2177   1.327   4.357  13.445  1.0287  0.1737 -0.7066
  140MPD2    C3 2178   1.343   4.223  13.424 -0.1659 -0.4394 -0.4360
  140MPD2    C4 2179   1.234   4.139  13.425 -0.1387 -0.4491  0.0793
  140MPD2    C5 2180   1.105   4.189  13.436  0.1092  0.0779 -0.5510
  140MPD2     H 2181   1.418   4.415  13.441 -0.5465  2.6574 -0.4757
  140MPD2    H1 2182   1.249   4.032  13.411  0.7380 -0.5561  1.8730
  140MPD2    H2 2183   0.998   4.363  13.489  0.6107 -0.1034 -1.0824
  140MPD2    H3 2184   1.021   4.120  13.435  0.3737 -0.2443 -0.6931
  140MPD2     N 2185   1.480   4.179  13.408  0.2465 -0.2351  0.3044
  140MPD2    H5 2186   1.554   4.245  13.390 -0.3927  0.4196  0.1091
  140MPD2    N1 2187   1.174   4.538  13.500  0.4971  0.6852  0.0391
  140MPD2    H7 2188   1.079   4.552  13.531  0.2510  1.2531 -0.9628
  141TMC2    C1 2189   1.709   1.253  14.867  0.2212 -0.1805  1.0983
  141TMC2    C2 2190   1.671   1.189  14.981  0.2242 -0.2999 -0.1945
  141TMC2    C3 2191   1.647   1.273  15.086 -0.1198  0.0739  0.1454
  141TMC2    C4 2192   1.725   1.383  14.853 -0.1527  0.7448  0.5155
  141TMC2    C5 2193   1.700   1.465  14.958 -0.2782 -0.4192 -0.2048
  141TMC2    C6 2194   1.663   1.409  15.070  0.3189  0.3731  0.1286
  141TMC2     C 2195   1.712   1.167  14.748 -0.2912 -0.0073 -0.5548
  141TMC2     O 2196   1.731   1.046  14.756  0.0553 -0.2709 -0.3154
  141TMC2     H 2197   1.680   1.083  15.004  0.1303 -0.5144 -1.1411
  141TMC2    H1 2198   1.776   1.427  14.767 -0.6895 -1.4022 -0.8947
  141TMC2    H2 2199   1.645   1.469  15.158 -1.9262 -0.4292  0.2276
  141TMC2    C7 2200   1.745   1.606  14.963 -0.0112 -0.4411 -0.0428
  141TMC2    C8 2201   1.614   1.221  15.208  0.6890 -0.3216  0.1308
  141TMC2    O1 2202   1.739   1.660  15.073 -0.5738  0.7251 -0.3468
  141TMC2    O2 2203   1.640   1.282  15.314 -0.1179 -0.5195 -0.0058
  141TMC2    O5 2204   1.517   1.127  15.191 -0.0230  0.0139 -0.1024
  141TMC2    H5 2205   1.516   1.087  15.101  0.7072 -1.1795  0.4225
  142TMC2    C1 2206   4.397   3.856  10.281  0.1173  0.3027 -0.8328
  142TMC2    C2 2207   4.426   3.785  10.395 -0.3681 -0.9221 -0.0233
  142TMC2    C3 2208   4.555   3.796  10.437  0.4247  0.5095 -0.0719
  142TMC2    C4 2209   4.480   3.958  10.245  1.0293 -0.1059  0.1332
  142TMC2    C5 2210   4.603   3.978  10.313  0.7394  0.1606 -0.4500
  142TMC2    C6 2211   4.646   3.893  10.412  0.0515 -0.3592  0.3079
  142TMC2     C 2212   4.255   3.866  10.259 -0.3675  0.3134  0.5989
  142TMC2     O 2213   4.188   3.780  10.316 -0.3891  0.6046 -0.3785
  142TMC2     H 2214   4.366   3.700  10.423 -2.5444  1.2339  1.8524
  142TMC2    H1 2215   4.466   4.001  10.147  0.3751 -1.3989 -0.3277
  142TMC2    H2 2216   0.011   3.892  10.451 -0.3648 -1.8130  1.3301
  142TMC2    C7 2217   4.690   4.084  10.281  0.1131 -0.4731 -0.4275
  142TMC2    C8 2218   4.586   3.706  10.540  0.4655  0.7603 -0.1020
  142TMC2    O1 2219   0.071   4.088  10.321  0.1194  0.1080 -0.1010
  142TMC2    O2 2220   4.548   3.589  10.540 -0.1556 -0.5376  0.0099
  142TMC2    O5 2221   4.675   3.758  10.621  0.2692 -0.4248 -0.0474
  142TMC2    H5 2222   4.657   3.852  10.643 -2.5933 -1.3383  1.4709
  143MPD2     C 2223   3.826   4.086  10.078  0.5121 -0.1611  0.8418
  143MPD2    C1 2224   3.847   3.958  10.126  0.1491  0.4591 -0.0859
  143MPD2    C2 2225   3.976   3.921  10.168 -0.5042 -0.6073 -0.3205
  143MPD2    C3 2226   4.082   4.006  10.148 -0.3613 -1.1274  0.1074
  143MPD2    C4 2227   4.060   4.130  10.103  0.3882 -0.5197 -0.5046
  143MPD2    C5 2228   3.937   4.170  10.071  0.3627 -0.4002 -0.1606
  143MPD2     H 2229   4.004   3.820  10.197  0.8033 -0.1592 -0.0154
  143MPD2    H1 2230   4.136   4.201  10.072 -2.6472  3.0264  0.1327
  143MPD2    H2 2231   3.730   4.127  10.047  0.5016 -0.1648  0.8692
  143MPD2    H3 2232   3.929   4.272  10.037 -1.7302 -0.8041 -0.9454
  143MPD2     N 2233   4.217   3.969  10.185 -0.2881  0.4035  0.5893
  143MPD2    H5 2234   4.290   4.030  10.148  0.6672  0.9704  3.4371
  143MPD2    N1 2235   3.732   3.881  10.144  0.4889 -0.0204 -0.1354
  143MPD2    H7 2236   3.646   3.926  10.115  0.6409 -0.4571 -1.2806
  144TMC2    C1 2237   2.115   3.382   1.086  0.6088  0.5060 -0.9403
  144TMC2    C2 2238   2.157   3.252   1.088 -0.2029 -0.0965  0.2531
  144TMC2    C3 2239   2.100   3.175   1.183 -0.0416  0.4887 -0.5504
  144TMC2    C4 2240   2.030   3.431   1.181 -0.1700 -0.1680 -0.3125
  144TMC2    C5 2241   2.002   3.353   1.289 -0.4503  0.2038 -0.5395
  144TMC2    C6 2242   2.029   3.221   1.282  0.0300 -0.6936  0.6953
  144TMC2     C 2243   2.144   3.453   0.962  0.1091 -0.1422 -0.4561
  144TMC2     O 2244   2.171   3.395   0.858 -0.4271 -0.0958 -0.3602
  144TMC2     H 2245   2.220   3.206   1.013 -0.0202  1.6332 -0.6714
  144TMC2    H1 2246   1.993   3.533   1.179  1.0717  0.2764 -0.6301
  144TMC2    H2 2247   2.029   3.153   1.367  1.4764  0.7859  1.8681
  144TMC2    C7 2248   1.943   3.407   1.409  0.6101 -0.6026  0.2970
  144TMC2    C8 2249   2.136   3.038   1.187  0.0670 -0.1373 -0.0205
  144TMC2    O1 2250   1.861   3.333   1.459 -0.0030  0.5629  0.1299
  144TMC2    O2 2251   2.115   2.954   1.100  0.0171  0.3188  0.1673
  144TMC2    O5 2252   2.234   3.042   1.279 -0.0974 -0.6194  0.6727
  144TMC2    H5 2253   2.246   3.133   1.314  0.1737 -1.0991  1.8207
  145MPD2     C 2254   2.061   3.895   0.707 -0.4557 -0.2849  0.2351
  145MPD2    C1 2255   2.093   3.770   0.660  0.2143 -0.7513  0.4227
  145MPD2    C2 2256   2.132   3.675   0.750 -0.4847 -0.0024 -0.5617
  145MPD2    C3 2257   2.129   3.698   0.885  0.1360 -0.3403 -0.1424
  145MPD2    C4 2258   2.095   3.826   0.928  0.0698 -0.1515  0.0964
  145MPD2    C5 2259   2.069   3.927   0.837 -0.9061  0.4557  0.0045
  145MPD2     H 2260   2.166   3.580   0.710  1.2154  0.0259  0.8285
  145MPD2    H1 2261   2.077   3.849   1.033 -1.2618 -0.0300 -0.1649
  145MPD2    H2 2262   2.011   3.969   0.646 -1.6119 -3.0876 -2.2273
  145MPD2    H3 2263   2.043   4.026   0.872  0.8207  1.2394 -0.9305
  145MPD2     N 2264   2.137   3.593   0.982 -0.1834 -0.3079 -0.7510
  145MPD2    H5 2265   2.109   3.619   1.076  0.1555 -1.3653 -0.3521
  145MPD2    N1 2266   2.060   3.726   0.529  0.8427 -0.3223 -0.0697
  145MPD2    H7 2267   2.071   3.630   0.499  3.3711 -0.6264  1.8644
  146TMC2    C1 2268   3.144   2.557  12.693 -0.1309 -0.1033 -0.1328
  146TMC2    C2 2269   3.039   2.602  12.615  0.1162  0.1263 -0.3477
  146TMC2    C3 2270   3.044   2.586  12.478  0.6294  0.1546  0.1222
  146TMC2    C4 2271   3.262   2.515  12.642  0.2945  0.0273 -0.4241
  146TMC2    C5 2272   3.258   2.504  12.506  0.1733  0.5271 -0.6645
  146TMC2    C6 2273   3.155   2.535  12.422 -0.5127  0.5954 -0.7408
  146TMC2     C 2274   3.157   2.625  12.825  0.5428  0.2556  0.9399
  146TMC2     O 2275   3.095   2.727  12.845 -0.1353  0.4475 -0.0233
  146TMC2     H 2276   2.942   2.630  12.654  1.4782  2.8102  1.1645
  146TMC2    H1 2277   3.354   2.525  12.699 -1.0023  0.4978  1.6190
  146TMC2    H2 2278   3.159   2.523  12.315  0.6203  1.1957 -0.7741
  146TMC2    C7 2279   3.368   2.434  12.435 -0.2662 -0.3399 -0.2994
  146TMC2    C8 2280   2.921   2.620  12.406  0.1386 -0.2820 -0.3491
  146TMC2    O1 2281   3.384   2.459  12.316 -0.0592  0.4524  0.0907
  146TMC2    O2 2282   2.844   2.708  12.435  0.5316 -0.4520 -0.3782
  146TMC2    O5 2283   2.908   2.537  12.303 -0.4312 -0.4938  0.4033
  146TMC2    H5 2284   2.935   2.446  12.325 -0.8040 -1.1153 -1.6447
  147MPD2     C 2285   3.809   2.155  12.441  0.3189  0.1323  0.2126
  147MPD2    C1 2286   3.755   2.160  12.570 -0.5888 -0.1716  0.5137
  147MPD2    C2 2287   3.633   2.229  12.592  0.5118 -0.3476 -0.3524
  147MPD2    C3 2288   3.564   2.283  12.480  1.1726 -0.2739 -0.2266
  147MPD2    C4 2289   3.613   2.262  12.354  0.1330  0.0019 -0.4424
  147MPD2    C5 2290   3.733   2.203  12.340 -0.1935  0.1466 -0.5185
  147MPD2     H 2291   3.604   2.250  12.694  0.6688  0.3366 -0.4426
  147MPD2    H1 2292   3.564   2.296  12.264 -0.6225  1.4523  0.5231
  147MPD2    H2 2293   3.906   2.106  12.436 -0.3302 -1.3120  1.7219
  147MPD2    H3 2294   3.765   2.187  12.238 -0.5974 -0.2925 -0.5775
  147MPD2     N 2295   3.446   2.354  12.511  0.3059 -0.1091 -0.5156
  147MPD2    H5 2296   3.421   2.336  12.608  1.3329  0.1193 -0.2054
  147MPD2    N1 2297   3.831   2.103  12.676  0.0446  0.9649 -0.1581
  147MPD2    H7 2298   3.917   2.059  12.648 -1.0530 -0.8833 -0.6496
  148TMC2    C1 2299   3.924   1.800  10.590  0.1383 -0.0661  0.1084
  148TMC2    C2 2300   4.035   1.868  10.533  0.0642 -0.3168 -0.2654
  148TMC2    C3 2301   4.153   1.860  10.599 -0.4350  0.1910 -0.6739
  148TMC2    C4 2302   3.934   1.724  10.702 -0.0758 -0.4954 -0.3506
  148TMC2    C5 2303   4.051   1.731  10.776 -0.1105  0.2793  0.2923
  148TMC2    C6 2304   4.163   1.805  10.723 -0.5333  0.2602  0.4238
  148TMC2     C 2305   3.793   1.838  10.524  0.0170  0.1806 -0.1108
  148TMC2     O 2306   3.801   1.924  10.436  0.3221 -0.1986 -0.3060
  148TMC2     H 2307   4.031   1.907  10.432 -1.1989  0.9903  0.3002
  148TMC2    H1 2308   3.842   1.681  10.740 -0.1262  0.3413  0.4805
  148TMC2    H2 2309   4.264   1.772  10.747 -0.9085  0.2260  1.9983
  148TMC2    C7 2310   4.084   1.628  10.872 -0.0297 -0.8180  0.2757
  148TMC2    C8 2311   4.280   1.889  10.525  0.3216  0.1152 -0.7790
  148TMC2    O1 2312   4.187   1.646  10.933 -0.5029  0.2828 -0.0438
  148TMC2    O2 2313   4.390   1.834  10.540 -0.0818 -0.3236 -0.2670
  148TMC2    O5 2314   4.258   2.009  10.469 -0.2654  0.6191  0.2229
  148TMC2    H5 2315   4.169   2.049  10.472 -1.1810 -1.2082 -1.9038
  149MPD2     C 2316   3.504   1.876  10.467  0.6649 -0.1059 -0.3247
  149MPD2    C1 2317   3.554   1.763  10.524  0.2599 -0.3468  0.5198
  149MPD2    C2 2318   3.485   1.647  10.548  0.4644 -0.3226 -0.1833
  149MPD2    C3 2319   3.360   1.642  10.497 -0.6329  0.1605 -0.0429
  149MPD2    C4 2320   3.313   1.749  10.420 -0.2294 -0.0787  0.3164
  149MPD2    C5 2321   3.381   1.862  10.414  0.0718  0.0406 -0.5350
  149MPD2     H 2322   3.519   1.562  10.607 -1.3082 -0.7459  0.2110
  149MPD2    H1 2323   3.218   1.735  10.370 -0.3261 -0.1794  0.5289
  149MPD2    H2 2324   3.549   1.974  10.454  3.9098 -1.6578 -0.7715
  149MPD2    H3 2325   3.343   1.949  10.363 -0.7411  0.3116  0.5403
  149MPD2     N 2326   3.271   1.537  10.512 -0.0542  0.4244  0.2027
  149MPD2    H5 2327   3.181   1.557  10.471 -1.0969  0.0316  2.2927
  149MPD2    N1 2328   3.689   1.755  10.563  0.2583 -0.0298  0.3476
  149MPD2    H7 2329   3.713   1.673  10.616  0.1441  1.0928  2.1261
  150TMC2    C1 2330   0.650   0.363  12.435 -0.2090  0.0885  0.1791
  150TMC2    C2 2331   0.587   0.383  12.317 -0.2297  0.6574  0.1398
  150TMC2    C3 2332   0.629   0.487  12.244  0.1292  0.2912  0.1902
  150TMC2    C4 2333   0.752   0.442  12.481 -0.7488  0.5460  0.7057
  150TMC2    C5 2334   0.785   0.547  12.399  0.0921  0.2034  0.7511
  150TMC2    C6 2335   0.729   0.567  12.274 -0.1237 -0.0481 -0.4651
  150TMC2     C 2336   0.587   0.287  12.543  0.6946 -0.6066  0.3580
  150TMC2     O 2337   0.651   0.240  12.636  0.0921  0.1727  0.0800
  150TMC2     H 2338   0.506   0.322  12.279 -0.3275  0.8202  0.0873
  150TMC2    H1 2339   0.800   0.431  12.577  2.8419  0.1386 -1.1580
  150TMC2    H2 2340   0.744   0.661  12.222 -2.1008  0.8811  0.6413
  150TMC2    C7 2341   0.891   0.634  12.426 -0.5153 -0.1340  0.4663
  150TMC2    C8 2342   0.528   0.540  12.155 -0.6861 -0.7779 -0.3602
  150TMC2    O1 2343   0.884   0.745  12.377  0.2349  0.1786 -0.1131
  150TMC2    O2 2344   0.414   0.498  12.166 -0.3563  0.1469 -0.2132
  150TMC2    O5 2345   0.591   0.569  12.040  0.1628 -0.3036  0.1058
  150TMC2    H5 2346   0.688   0.553  12.034  0.7669  2.5773  2.2803
  151MPD2     C 2347   0.104   0.188  12.735 -0.2574  0.1683  0.7275
  151MPD2    C1 2348   0.095   0.261  12.617  0.2203 -1.2114 -0.4002
  151MPD2    C2 2349   0.216   0.296  12.557  0.7090  0.4528 -0.0071
  151MPD2    C3 2350   0.335   0.257  12.603  0.0747 -0.4000  0.1344
  151MPD2    C4 2351   0.346   0.192  12.719 -0.9302  0.3964  0.8234
  151MPD2    C5 2352   0.225   0.171  12.786 -0.0350  0.0969 -0.1685
  151MPD2     H 2353   0.218   0.358  12.469  0.8640 -0.5087 -0.6864
  151MPD2    H1 2354   0.437   0.162  12.769  0.9737  2.5307 -1.3720
  151MPD2    H2 2355   0.018   0.171  12.798  0.0122 -2.3847  0.3980
  151MPD2    H3 2356   0.241   0.122  12.881 -0.3585  1.5461  0.6413
  151MPD2     N 2357   0.449   0.299  12.519 -0.0716  0.9096 -0.5468
  151MPD2    H5 2358   0.425   0.355  12.438  1.8182 -0.1351 -1.8342
  151MPD2    N1 2359   4.699   0.289  12.567 -0.2721 -0.7549  0.4217
  151MPD2    H7 2360   4.614   0.256  12.611  0.3386 -0.8221  1.5530
  152TMC2    C1 2361   0.694   4.681  12.965 -0.8141 -0.4124 -0.4999
  152TMC2    C2 2362   0.717   4.560  12.897 -0.4561  0.0541 -0.0765
  152TMC2    C3 2363   0.835   4.566  12.828  0.1729 -0.7153 -0.4380
  152TMC2    C4 2364   0.771   0.058  12.955  0.7761 -0.9613 -0.5450
  152TMC2    C5 2365   0.879   0.050  12.874  0.6993  0.1934 -0.6422
  152TMC2    C6 2366   0.919   4.673  12.816  0.1079 -0.3678 -0.3631
  152TMC2     C 2367   0.556   4.710  13.004 -0.3747  0.4400 -0.5498
  152TMC2     O 2368   0.523   0.088  12.980  0.1015  0.1757  0.2404
  152TMC2     H 2369   0.646   4.479  12.893 -1.8497  1.4284 -2.8972
  152TMC2    H1 2370   0.727   0.139  13.012  2.7549 -1.4261  1.6119
  152TMC2    H2 2371   1.014   4.666  12.765  0.4190  0.0011  0.1594
  152TMC2    C7 2372   0.966   0.158  12.877 -0.2164 -0.9266 -0.8137
  152TMC2    C8 2373   0.901   4.444  12.788  0.0302  0.0658  0.7494
  152TMC2    O1 2374   1.084   0.134  12.861 -0.2161  0.8752  0.2303
  152TMC2    O2 2375   0.959   4.431  12.684  0.0977 -0.0381  0.2286
  152TMC2    O5 2376   0.834   4.342  12.846 -0.2133  0.4633 -0.1340
  152TMC2    H5 2377   0.789   4.371  12.928 -1.5469  0.8568 -1.0092
  153MPD2     C 2378   0.300   4.491  13.148 -0.7231  0.0264  0.3670
  153MPD2    C1 2379   0.353   4.609  13.103  0.1317 -0.0333 -0.3814
  153MPD2    C2 2380   0.287   4.723  13.130 -0.6842 -0.3401 -0.0150
  153MPD2    C3 2381   0.152   4.724  13.173  0.8824 -0.2307 -0.2740
  153MPD2    C4 2382   0.086   4.606  13.192  0.4537 -0.3395 -0.1239
  153MPD2    C5 2383   0.168   4.488  13.187  0.1648 -0.2953 -0.4257
  153MPD2     H 2384   0.328   0.086  13.116 -2.5798  0.3542 -0.7243
  153MPD2    H1 2385   4.722   4.589  13.228  0.3264 -0.7194 -0.6580
  153MPD2    H2 2386   0.359   4.401  13.133  1.8256  1.3990  2.0398
  153MPD2    H3 2387   0.122   4.391  13.204 -0.6537  0.7292  3.2361
  153MPD2     N 2388   0.083   0.104  13.186  0.8851 -0.0831  0.2285
  153MPD2    H5 2389   0.149   0.178  13.163  0.5197  0.6361  1.5219
  153MPD2    N1 2390   0.487   4.604  13.057 -0.2446  0.5634  0.0020
  153MPD2    H7 2391   0.545   4.524  13.082  0.4501  1.1330  0.2097
  154TMC2    C1 2392   2.371   4.539   0.967 -0.1383  0.4240 -0.0351
  154TMC2    C2 2393   2.439   4.442   1.041 -0.2024  0.5537 -0.0796
  154TMC2    C3 2394   2.537   4.380   0.966  0.8471 -0.0734 -0.3473
  154TMC2    C4 2395   2.400   4.580   0.840 -0.6592 -0.0265  0.5321
  154TMC2    C5 2396   2.518   4.527   0.777 -0.3983  0.0666  0.7201
  154TMC2    C6 2397   2.585   4.426   0.845 -0.4446  0.0593  0.3935
  154TMC2     C 2398   2.302   4.632   1.057  0.1446  0.2402 -0.7709
  154TMC2     O 2399   2.337   4.624   1.177 -0.2382 -0.1690  0.1750
  154TMC2     H 2400   2.398   4.391   1.128 -0.1682 -0.0655 -0.4249
  154TMC2    H1 2401   2.351   4.668   0.799  1.4321  0.9248  0.0706
  154TMC2    H2 2402   2.666   4.372   0.797 -0.9839  1.5749 -2.2055
  154TMC2    C7 2403   2.531   4.523   0.625 -0.4751 -0.6250  0.0737
  154TMC2    C8 2404   2.620   4.286   1.033  0.1306  0.2797  0.1328
  154TMC2    O1 2405   2.593   4.429   0.573 -0.1480 -0.7054  0.0448
  154TMC2    O2 2406   2.680   4.199   0.972 -0.1572  0.3201  0.2680
  154TMC2    O5 2407   2.673   4.368   1.126  0.1497 -0.1621  0.0895
  154TMC2    H5 2408   2.621   4.441   1.165  2.2079  0.2440  2.0349
  155MPD2     C 2409   2.026   0.118   1.015 -0.8419 -0.1033 -0.0041
  155MPD2    C1 2410   2.143   0.084   1.078  0.4733  0.2140 -0.1148
  155MPD2    C2 2411   2.179   0.124   1.208  0.8204  0.5617  0.5936
  155MPD2    C3 2412   2.094   0.203   1.276 -0.1514 -0.2522  0.2564
  155MPD2    C4 2413   1.969   0.231   1.218 -0.2935  0.2208 -0.2375
  155MPD2    C5 2414   1.942   0.197   1.087  0.1779 -0.3058  0.2949
  155MPD2     H 2415   2.271   0.101   1.260 -0.0432  0.8412  2.2692
  155MPD2    H1 2416   1.893   0.281   1.277  0.2179  0.9000 -0.1513
  155MPD2    H2 2417   2.006   0.088   0.913 -0.8959  1.9168 -0.6004
  155MPD2    H3 2418   1.844   0.228   1.054  0.1964  0.4642  0.9699
  155MPD2     N 2419   2.134   0.242   1.406  0.5461  0.3442 -0.7102
  155MPD2    H5 2420   2.223   0.208   1.441  0.8434 -0.1206 -1.9166
  155MPD2    N1 2421   2.212   4.720   1.001  0.2685  0.7828  0.3714
  155MPD2    H7 2422   2.170   4.698   0.911 -1.6728  0.8045  1.2532
  156TMC2    C1 2423   0.679   2.559  11.482  0.3034 -0.4389  0.1389
  156TMC2    C2 2424   0.751   2.485  11.389  0.2574  0.5177 -0.7667
  156TMC2    C3 2425   0.754   2.532  11.264 -0.2640 -1.0930 -0.2323
  156TMC2    C4 2426   0.604   2.667  11.451 -0.2445 -0.6101 -0.0588
  156TMC2    C5 2427   0.591   2.701  11.317  0.0578 -0.0057 -0.2393
  156TMC2    C6 2428   0.666   2.636  11.226 -0.2713 -0.0489  0.9367
  156TMC2     C 2429   0.689   2.531  11.622 -0.3882  0.7227 -0.1317
  156TMC2     O 2430   0.604   2.567  11.703  0.0825 -0.2283  0.7132
  156TMC2     H 2431   0.814   2.402  11.418 -2.8767 -0.9649  1.7930
  156TMC2    H1 2432   0.561   2.720  11.535 -1.4878 -2.6468  0.5750
  156TMC2    H2 2433   0.672   2.683  11.128  0.9296 -1.4117  0.3478
  156TMC2    C7 2434   0.550   2.835  11.295  1.1548 -0.2408  0.5706
  156TMC2    C8 2435   0.829   2.472  11.161  0.2781 -0.1860 -0.0264
  156TMC2    O1 2436   0.612   2.905  11.215 -0.2974 -0.1416  0.4988
  156TMC2    O2 2437   0.806   2.491  11.042  0.0612  0.0181  0.6910
  156TMC2    O5 2438   0.950   2.459  11.214  0.7119 -0.1059  0.3249
  156TMC2    H5 2439   0.976   2.477  11.306  1.3002 -1.3502  0.4042
  157MPD2     C 2440   0.992   2.406  11.780  0.3537 -0.6998 -0.0381
  157MPD2    C1 2441   0.862   2.449  11.771 -0.3768  0.0327 -0.1607
  157MPD2    C2 2442   0.788   2.458  11.889 -0.2540  0.1010 -0.1467
  157MPD2    C3 2443   0.849   2.443  12.016 -0.2624  0.3150  0.0786
  157MPD2    C4 2444   0.977   2.397  12.020  0.3854 -0.2793 -0.4095
  157MPD2    C5 2445   1.045   2.386  11.902 -0.2324 -1.0131  0.0741
  157MPD2     H 2446   0.685   2.493  11.889  0.2538  1.5661 -1.2926
  157MPD2    H1 2447   1.038   2.377  12.108  0.0359  0.3113 -0.0282
  157MPD2    H2 2448   1.055   2.398  11.692  1.4995  0.3253  0.6932
  157MPD2    H3 2449   1.152   2.366  11.900  0.0923  0.4760  1.5303
  157MPD2     N 2450   0.774   2.467  12.133 -0.4684 -0.2126  0.5015
  157MPD2    H5 2451   0.672   2.469  12.129 -0.4887 -1.1476  0.5261
  157MPD2    N1 2452   0.811   2.483  11.645  0.0837  0.2771  0.4356
  157MPD2    H7 2453   0.873   2.476  11.565 -0.5688 -0.9460  0.0345
  158TMC2    C1 2454   1.034   1.321  13.865 -0.8232 -0.6312  0.9368
  158TMC2    C2 2455   1.064   1.422  13.780 -0.6914 -0.3985 -0.3806
  158TMC2    C3 2456   0.974   1.520  13.757 -0.2734 -0.0046 -0.0779
  158TMC2    C4 2457   0.915   1.325  13.939 -0.3184 -0.9215 -0.2289
  158TMC2    C5 2458   0.832   1.429  13.917  0.1351  0.4751 -0.3206
  158TMC2    C6 2459   0.857   1.533  13.828  0.2176  0.2052 -0.1993
  158TMC2     C 2460   1.133   1.223  13.907 -0.4516 -0.8346 -0.2244
  158TMC2     O 2461   1.247   1.253  13.866  0.0400  0.4890  0.4771
  158TMC2     H 2462   1.154   1.428  13.721 -0.4553  2.7194  0.3151
  158TMC2    H1 2463   0.900   1.268  14.029  1.2581 -0.1935  0.4934
  158TMC2    H2 2464   0.787   1.616  13.821 -0.8460 -0.5484  1.5221
  158TMC2    C7 2465   0.702   1.412  13.972 -0.0778 -0.0667  0.2962
  158TMC2    C8 2466   1.009   1.640  13.693 -0.0982 -0.1265 -0.4587
  158TMC2    O1 2467   0.626   1.507  13.967 -0.2710 -0.6864  0.6180
  158TMC2    O2 2468   0.974   1.751  13.725 -0.2559  0.2323  0.3624
  158TMC2    O5 2469   1.078   1.605  13.586  0.0204  0.1763  0.3603
  158TMC2    H5 2470   1.064   1.513  13.557 -1.7937  0.7404 -0.4994
  159MPD2     C 2471   1.337   0.854  14.209 -0.2679  0.0351  0.1676
  159MPD2    C1 2472   1.201   0.848  14.211  0.7894  0.0203  0.8338
  159MPD2    C2 2473   1.121   0.949  14.157  0.1229 -0.1289  0.8454
  159MPD2    C3 2474   1.179   1.044  14.078 -0.1858 -0.0187  0.5086
  159MPD2    C4 2475   1.317   1.038  14.063 -0.1379 -0.1945 -0.5483
  159MPD2    C5 2476   1.391   0.950  14.134  0.4215  0.7041  0.1885
  159MPD2     H 2477   1.013   0.947  14.162  0.0620 -0.0446 -0.3533
  159MPD2    H1 2478   1.369   1.112  14.004  1.0525  0.6625  1.5570
  159MPD2    H2 2479   1.397   0.784  14.266 -1.3460 -1.1568 -0.1585
  159MPD2    H3 2480   1.499   0.952  14.130  0.4493  1.3850  1.5540
  159MPD2     N 2481   1.097   1.144  14.015 -0.1307 -0.2753  1.0022
  159MPD2    H5 2482   0.997   1.129  14.006  0.4495 -2.9351 -1.0096
  159MPD2    N1 2483   1.150   0.733  14.281  0.4424  0.6270 -0.3552
  159MPD2    H7 2484   1.223   0.668  14.309  0.8823  1.4664  0.4491
  160TMC2    C1 2485   1.101   3.966   1.392 -0.5830  0.1459 -0.2467
  160TMC2    C2 2486   1.023   3.984   1.504  0.2979  0.4089 -0.3851
  160TMC2    C3 2487   1.095   4.034   1.609 -0.8531  0.6764 -0.0143
  160TMC2    C4 2488   1.227   4.008   1.375 -0.4791 -0.4393 -0.3297
  160TMC2    C5 2489   1.283   4.073   1.483 -0.4524  0.3838  0.0866
  160TMC2    C6 2490   1.223   4.083   1.602 -0.0868  0.0072 -0.1593
  160TMC2     C 2491   1.026   3.947   1.273  0.0641  0.2332  0.3154
  160TMC2     O 2492   1.073   3.871   1.189  0.2278  0.4017 -0.2514
  160TMC2     H 2493   0.922   3.945   1.506  0.5210 -0.1268  1.0265
  160TMC2    H1 2494   1.265   4.005   1.273 -0.2036 -1.4161 -0.1923
  160TMC2    H2 2495   1.266   4.129   1.690 -2.5321  1.4609  0.2765
  160TMC2    C7 2496   1.375   4.179   1.455  0.6491  0.0236  0.1352
  160TMC2    C8 2497   1.017   4.066   1.733 -0.3704 -0.2335  0.1055
  160TMC2    O1 2498   1.363   4.270   1.533  0.0877 -0.0934  0.1959
  160TMC2    O2 2499   0.896   4.088   1.730  0.2283  0.5379 -0.5533
  160TMC2    O5 2500   1.079   4.015   1.840  0.0174 -0.3051  0.1572
  160TMC2    H5 2501   1.169   3.987   1.812 -0.7363 -2.1154 -0.4549
  161MPD2     C 2502   0.778   3.909   1.116 -0.3545 -0.4294  0.7605
  161MPD2    C1 2503   0.815   4.030   1.176  0.3547  0.0179  0.0070
  161MPD2    C2 2504   0.740   4.136   1.157  0.2230  0.1578  0.7178
  161MPD2    C3 2505   0.629   4.130   1.075 -0.1971  0.4217 -0.1874
  161MPD2    C4 2506   0.597   4.006   1.008  0.0491  0.2575 -0.3825
  161MPD2    C5 2507   0.674   3.896   1.027 -0.1268 -0.2061  0.1750
  161MPD2     H 2508   0.754   4.213   1.232  0.2856  1.1843 -0.3591
  161MPD2    H1 2509   0.510   3.999   0.944 -0.1784  2.5239 -0.3330
  161MPD2    H2 2510   0.840   3.824   1.140  2.1542  1.5368  1.2815
  161MPD2    H3 2511   0.658   3.802   0.975  0.6983 -0.7091  0.8191
  161MPD2     N 2512   0.559   4.250   1.050  0.3124 -0.2021  0.1091
  161MPD2    H5 2513   0.468   4.247   1.006 -0.2420  2.1053  1.1433
  161MPD2    N1 2514   0.917   4.039   1.267  0.5688 -0.7941  0.4310
  161MPD2    H7 2515   0.912   4.101   1.347 -0.9246 -2.8856  1.9361
  162TMC2    C1 2516   3.911   1.082   1.567 -0.6554 -0.2432 -0.0826
  162TMC2    C2 2517   3.894   1.177   1.668 -0.5193  0.3397 -0.1035
  162TMC2    C3 2518   3.875   1.136   1.796 -0.3990 -0.3367 -0.2821
  162TMC2    C4 2519   3.898   0.950   1.599  0.1666  0.0272 -0.2073
  162TMC2    C5 2520   3.874   0.912   1.729 -0.7257 -0.6089 -0.3746
  162TMC2    C6 2521   3.866   1.005   1.833  0.0369 -0.5468  0.8572
  162TMC2     C 2522   3.931   1.114   1.426  0.1528 -0.4064  0.1552
  162TMC2     O 2523   3.930   1.022   1.344  0.0031 -0.6408  0.1165
  162TMC2     H 2524   3.901   1.283   1.647 -1.0615  0.6788  1.4304
  162TMC2    H1 2525   3.889   0.870   1.526 -2.2633  0.5598 -0.4994
  162TMC2    H2 2526   3.869   0.965   1.934  1.1718 -1.8825  0.2936
  162TMC2    C7 2527   3.891   0.777   1.774 -0.5320  0.4259  0.1484
  162TMC2    C8 2528   3.809   1.228   1.885  0.3343 -0.2704 -0.8035
  162TMC2    O1 2529   3.818   0.730   1.863  0.1389  0.6980  0.1275
  162TMC2    O2 2530   3.781   1.334   1.842 -0.3807 -0.1484  0.0050
  162TMC2    O5 2531   3.843   1.197   2.013 -0.3842  0.2127 -0.8807
  162TMC2    H5 2532   3.881   1.106   2.016  0.9359  0.8955  2.3153
  163MPD2     C 2533   3.895   1.496   1.085 -0.9140 -0.5523 -0.3063
  163MPD2    C1 2534   3.855   1.358   1.076 -0.9824  0.2426 -0.1141
  163MPD2    C2 2535   3.887   1.270   1.184 -0.6791  0.3051  0.4859
  163MPD2    C3 2536   3.952   1.318   1.295 -0.5686 -0.2129  0.0731
  163MPD2    C4 2537   3.993   1.445   1.298  0.2540  0.3759 -0.4430
  163MPD2    C5 2538   3.952   1.533   1.204  0.0207  0.3810 -0.6084
  163MPD2     H 2539   3.848   1.169   1.186  0.7847 -0.2326  2.0399
  163MPD2    H1 2540   4.053   1.490   1.376  0.0734 -0.4402  0.1720
  163MPD2    H2 2541   3.883   1.568   1.005  2.3933  1.2872  0.8440
  163MPD2    H3 2542   3.984   1.636   1.218 -0.7445  0.2948  1.8084
  163MPD2     N 2543   3.969   1.242   1.408  0.6730 -0.6041 -0.0415
  163MPD2    H5 2544   4.000   1.287   1.494 -0.1340 -0.7557  0.3301
  163MPD2    N1 2545   3.782   1.338   0.959 -0.1093 -0.4077  0.3394
  163MPD2    H7 2546   3.764   1.411   0.891  0.6902 -2.2040 -1.7830
  164TMC2    C1 2547   4.125   1.354  11.755  0.4296  0.2478  0.1615
  164TMC2    C2 2548   4.241   1.421  11.713 -0.4761 -0.3284 -0.5939
  164TMC2    C3 2549   4.228   1.559  11.717 -0.0500  0.5102 -0.7737
  164TMC2    C4 2550   4.013   1.416  11.810 -0.4250 -0.5347  0.2196
  164TMC2    C5 2551   4.010   1.551  11.815 -0.0662  0.3336  0.0546
  164TMC2    C6 2552   4.109   1.617  11.751  0.8486 -0.8118  0.0565
  164TMC2     C 2553   4.104   1.215  11.716  0.2325  0.5703 -0.1841
  164TMC2     O 2554   4.011   1.158  11.769 -0.2338  0.2589 -0.2951
  164TMC2     H 2555   4.334   1.376  11.679 -0.3175 -0.1837 -0.3516
  164TMC2    H1 2556   3.928   1.353  11.835  0.2642 -0.6178  2.3292
  164TMC2    H2 2557   4.104   1.724  11.737 -1.6426 -0.7733  1.1353
  164TMC2    C7 2558   3.874   1.613  11.813  0.2227  0.3975  0.3722
  164TMC2    C8 2559   4.333   1.643  11.660 -0.0828 -0.1395 -0.0005
  164TMC2    O1 2560   3.862   1.726  11.770  0.0004  0.3892 -0.1849
  164TMC2    O2 2561   4.353   1.760  11.705 -0.6308 -0.4108  0.2783
  164TMC2    O5 2562   4.423   1.587  11.566 -0.4729  0.2154  0.3742
  164TMC2    H5 2563   4.394   1.507  11.518  1.7099 -0.2431 -0.1744
  165TMC2    C1 2564   0.605   3.354   0.728  0.0005 -0.4326 -0.5422
  165TMC2    C2 2565   0.699   3.323   0.635 -0.1517 -0.7528 -0.0637
  165TMC2    C3 2566   0.825   3.299   0.678  0.5191  0.2017  0.6139
  165TMC2    C4 2567   0.634   3.374   0.860  0.2062  0.5448 -0.3459
  165TMC2    C5 2568   0.765   3.365   0.895  0.5039 -0.0733 -0.6617
  165TMC2    C6 2569   0.862   3.336   0.805  1.2137 -0.1641 -0.0534
  165TMC2     C 2570   0.462   3.340   0.696 -0.5125  0.1630 -0.8050
  165TMC2     O 2571   0.380   3.328   0.782  0.9118 -0.5975 -0.4647
  165TMC2     H 2572   0.665   3.285   0.539 -1.3153 -0.9009  0.4030
  165TMC2    H1 2573   0.566   3.377   0.944  0.4332 -1.8897 -0.0791
  165TMC2    H2 2574   0.963   3.347   0.843  0.4794  2.2454  1.1864
  165TMC2    C7 2575   0.811   3.427   1.016 -0.9478 -0.0385 -0.2847
  165TMC2    C8 2576   0.924   3.304   0.572  0.3180 -0.2916  0.3252
  165TMC2    O1 2577   0.910   3.372   1.068 -0.1912 -0.0699  0.4070
  165TMC2    O2 2578   1.026   3.370   0.568  0.1735 -0.0387 -0.1160
  165TMC2    O5 2579   0.891   3.211   0.479 -0.3128  0.1643 -0.3016
  165TMC2    H5 2580   0.814   3.152   0.493  0.6246 -0.5782  1.8277
  166MPD2     C 2581   0.065   3.310   0.362  0.3474  0.8981  0.5059
  166MPD2    C1 2582   0.086   3.263   0.488  0.3454 -0.4028 -1.2022
  166MPD2    C2 2583   0.204   3.284   0.559 -0.3265  0.2112  0.6928
  166MPD2    C3 2584   0.307   3.361   0.501  0.1403  0.6193 -0.1664
  166MPD2    C4 2585   0.289   3.415   0.372 -1.1098 -0.4135 -0.4403
  166MPD2    C5 2586   0.167   3.384   0.306  0.5376  0.7680 -0.1442
  166MPD2     H 2587   0.212   3.240   0.657  0.2050  0.9485  0.9754
  166MPD2    H1 2588   0.358   3.481   0.319 -0.8904 -0.2309  0.0786
  166MPD2    H2 2589   4.711   3.295   0.306 -1.5924  4.2395  2.7698
  166MPD2    H3 2590   0.142   3.428   0.210  0.1547 -1.7653 -1.1999
  166MPD2     N 2591   0.437   3.373   0.558 -0.0682  0.2443 -0.0510
  166MPD2    H5 2592   0.509   3.424   0.508  0.0135 -2.1554 -2.3913
  166MPD2    N1 2593   4.712   3.194   0.550 -0.1180 -0.2607  0.2143
  166MPD2    H7 2594   4.621   3.205   0.507 -0.8194  1.2211  2.0747
  167TMC2    C1 2595   3.585   1.128  13.565 -0.2934  0.2452 -0.2149
  167TMC2    C2 2596   3.493   1.171  13.655 -0.1230  0.1484  0.0439
  167TMC2    C3 2597   3.360   1.136  13.641  0.0805  0.6434 -0.9495
  167TMC2    C4 2598   3.545   1.055  13.454  0.2801 -0.2592  0.0808
  167TMC2    C5 2599   3.407   1.028  13.441 -0.0270 -0.3186 -0.3241
  167TMC2    C6 2600   3.311   1.067  13.537  0.0884 -0.7593 -0.1926
  167TMC2     C 2601   3.667   1.237  13.525 -0.0564 -0.4293  0.1593
  167TMC2     O 2602   3.710   1.317  13.607 -0.2893 -0.8486  0.3902
  167TMC2     H 2603   3.523   1.231  13.740  2.5532 -0.4057 -0.4983
  167TMC2    H1 2604   3.623   1.022  13.387 -0.3473 -1.7256  0.0861
  167TMC2    H2 2605   3.203   1.063  13.531 -0.0004 -1.2290  1.5742
  167TMC2    C7 2606   3.356   0.935  13.341  0.5230 -0.1446  0.1507
  167TMC2    C8 2607   3.247   1.176  13.726  0.4457 -0.0300  0.3083
  167TMC2    O1 2608   3.239   0.900  13.359  0.3413  0.3301 -0.0233
  167TMC2    O2 2609   3.164   1.255  13.685  0.1429  0.2254 -0.3854
  167TMC2    O5 2610   3.304   1.187  13.850 -0.7118 -0.4424 -0.2987
  167TMC2    H5 2611   3.349   1.103  13.871  0.4918 -0.3953 -2.6697
  168MPD2     C 2612   3.846   1.415  13.359  0.2965  0.5941 -0.1002
  168MPD2    C1 2613   3.745   1.338  13.311 -0.4501  0.0819 -0.1121
  168MPD2    C2 2614   3.720   1.339  13.172 -0.1247 -0.4400  0.0811
  168MPD2    C3 2615   3.806   1.395  13.091 -0.0170  0.5749  0.1224
  168MPD2    C4 2616   3.908   1.473  13.134 -0.8283  0.4591 -0.3193
  168MPD2    C5 2617   3.920   1.487  13.268 -0.1941 -0.7556 -0.0652
  168MPD2     H 2618   3.632   1.282  13.145  0.4780 -0.5226 -1.6974
  168MPD2    H1 2619   3.986   1.500  13.063 -0.8993 -0.9181 -0.9231
  168MPD2    H2 2620   3.868   1.430  13.464 -0.2324 -0.9214  0.2188
  168MPD2    H3 2621   3.991   1.559  13.308 -0.2064 -1.1984  0.7359
  168MPD2     N 2622   3.808   1.361  12.953 -0.3253 -0.5521 -0.0915
  168MPD2    H5 2623   3.880   1.405  12.897  1.1673 -1.7188  0.9127
  168MPD2    N1 2624   3.662   1.253  13.390 -0.3699 -0.6290  0.2836
  168MPD2    H7 2625   3.604   1.186  13.341 -1.6005 -0.2889  1.2942
  169MPD1     C 2626   0.819   1.100  10.005  0.1601  0.5819 -0.1662
  169MPD1    C1 2627   0.917   1.155   9.924 -0.2715 -0.6027  0.0076
  169MPD1    C2 2628   1.027   1.088   9.892 -0.1392 -0.2761 -0.3353
  169MPD1    C3 2629   1.067   0.970   9.955 -0.3163  0.3975 -0.0162
  169MPD1    C4 2630   0.973   0.915  10.040  0.6817 -0.7055  0.1157
  169MPD1    C5 2631   0.850   0.980  10.059  0.0103  0.8788 -0.7053
  169MPD1     H 2632   1.091   1.146   9.826 -0.9557  0.9121 -0.0863
  169MPD1    H1 2633   0.982   0.815  10.081 -0.7836 -1.6125 -1.7758
  169MPD1    H2 2634   0.731   1.159  10.031  0.8251  1.0089  1.1320
  169MPD1    H3 2635   0.769   0.922  10.103  0.0947  1.8383  0.7135
  169MPD1     N 2636   1.188   0.906   9.900 -0.4916  0.5205  0.6538
  169MPD1    H5 2637   1.244   0.952   9.829 -0.8255  1.1512  0.8009
  169MPD1    N1 2638   0.892   1.267   9.846 -0.0902  0.4283 -0.3045
  169MPD1    H6 2639   0.827   1.336   9.884 -1.1109 -0.2218 -0.8564
  169MPD1    H7 2640   0.976   1.311   9.811  1.2788 -1.2677  0.8534
  170MPD1     C 2641   4.412   3.387  12.917 -0.0224 -0.2641  0.0767
  170MPD1    C1 2642   4.277   3.372  12.941  0.0124 -0.8982 -0.6812
  170MPD1    C2 2643   4.218   3.400  13.064 -0.1040 -0.1218  0.3902
  170MPD1    C3 2644   4.300   3.420  13.168  0.2799 -0.1925  0.2980
  170MPD1    C4 2645   4.433   3.429  13.152 -0.3710  0.5578  0.0839
  170MPD1    C5 2646   4.492   3.424  13.029 -0.3591  0.9294 -0.6151
  170MPD1     H 2647   4.111   3.414  13.074 -0.2537 -1.5192  0.6889
  170MPD1    H1 2648   4.497   3.442  13.239 -0.5673  1.2418  0.1306
  170MPD1    H2 2649   4.462   3.389  12.821 -1.9374  1.0734 -0.8928
  170MPD1    H3 2650   4.596   3.449  13.009  0.4049 -1.6771  0.0087
  170MPD1     N 2651   4.237   3.455  13.291  0.2250  0.2449 -0.0707
  170MPD1    H5 2652   4.137   3.437  13.294  0.7240 -2.2364  1.3676
  170MPD1    N1 2653   4.195   3.350  12.830  0.4795  0.2604  0.2094
  170MPD1    H6 2654   4.111   3.298  12.855 -0.1733  1.8408  1.2910
  170MPD1    H7 2655   4.246   3.298  12.758 -0.2775 -0.0099 -0.1320
  171MPD1     C 2656   2.816   4.588  15.603 -0.1489  0.7389  0.6479
  171MPD1    C1 2657   2.839   4.477  15.528  0.4087  0.7825 -0.0189
  171MPD1    C2 2658   2.879   4.356  15.594  0.6368 -0.1683 -0.3300
  171MPD1    C3 2659   2.901   4.354  15.728  0.1561 -0.1284 -0.0646
  171MPD1    C4 2660   2.886   4.472  15.796 -0.4251  0.0347 -0.2264
  171MPD1    C5 2661   2.839   4.587  15.739  0.5435 -0.1842 -0.7513
  171MPD1     H 2662   2.892   4.271  15.528 -0.9249 -1.2226  0.7307
  171MPD1    H1 2663   2.889   4.479  15.904 -0.4307 -1.3093 -0.1423
  171MPD1    H2 2664   2.774   4.677  15.557  1.6086  1.5336  0.6097
  171MPD1    H3 2665   2.823   4.677  15.798 -1.2056 -1.2676  0.4229
  171MPD1     N 2666   2.914   4.235  15.804 -0.8939 -0.0684 -0.1088
  171MPD1    H5 2667   2.955   4.243  15.897 -1.4342 -0.0721  0.1341
  171MPD1    N1 2668   2.798   4.473  15.394  0.4107  0.0277  0.2056
  171MPD1    H6 2669   2.839   4.393  15.346 -1.3712 -2.0717  2.1361
  171MPD1    H7 2670   2.838   4.550  15.341 -3.2282  1.3337 -0.6314
  172MPD1     C 2671   2.459   3.636   1.171  0.2926 -0.0365  0.0103
  172MPD1    C1 2672   2.448   3.772   1.185  0.4297 -0.1013 -0.1810
  172MPD1    C2 2673   2.433   3.852   1.074  0.0017 -0.5169  0.4938
  172MPD1    C3 2674   2.455   3.794   0.952  0.0319 -0.3503  0.3859
  172MPD1    C4 2675   2.474   3.655   0.938 -0.3625 -0.4015  0.0532
  172MPD1    C5 2676   2.487   3.573   1.047 -0.6112  0.0719  0.2763
  172MPD1     H 2677   2.413   3.957   1.092 -0.7127 -0.4443 -0.7262
  172MPD1    H1 2678   2.477   3.610   0.839 -1.6389  4.0301 -1.9900
  172MPD1    H2 2679   2.460   3.584   1.266 -0.3189  0.7452  0.4478
  172MPD1    H3 2680   2.506   3.467   1.041 -0.2331 -0.0028  2.5699
  172MPD1     N 2681   2.452   3.862   0.829 -0.3254 -0.2421 -0.9374
  172MPD1    H5 2682   2.471   3.803   0.749 -1.7443 -0.4795 -1.0950
  172MPD1    N1 2683   2.417   3.815   1.313 -0.0628 -0.3031  0.0911
  172MPD1    H6 2684   2.457   3.767   1.394  1.7311  1.8701  0.5060
  172MPD1    H7 2685   2.450   3.911   1.326  2.3812 -1.1315  0.1382
  173MPD1     C 2686   3.415   4.212  13.893 -0.1706  0.1892  0.4057
  173MPD1    C1 2687   3.516   4.168  13.978 -0.3618  0.1623 -0.4349
  173MPD1    C2 2688   3.494   4.071  14.074  0.0561 -0.1534  0.2386
  173MPD1    C3 2689   3.368   4.019  14.082  1.0268  0.1978  0.6623
  173MPD1    C4 2690   3.265   4.056  13.991 -0.4265 -0.2418  0.4839
  173MPD1    C5 2691   3.280   4.168  13.907 -0.3472  0.3620  0.1597
  173MPD1     H 2692   3.581   4.042  14.133 -0.0696 -1.3826 -0.1627
  173MPD1    H1 2693   3.165   4.013  13.998 -1.1504  1.4398  0.3499
  173MPD1    H2 2694   3.440   4.294  13.827  0.5051 -0.9067 -0.6865
  173MPD1    H3 2695   3.189   4.196  13.855 -0.5840  1.9382  1.4138
  173MPD1     N 2696   3.348   3.915  14.168  0.2391 -0.0380 -0.8829
  173MPD1    H5 2697   3.438   3.885  14.206  0.3675 -0.9363 -1.9065
  173MPD1    N1 2698   3.629   4.247  13.975 -0.5720  0.0549  0.2266
  173MPD1    H6 2699   3.628   4.291  13.884 -3.1201  1.0966  0.7478
  173MPD1    H7 2700   3.715   4.198  13.998 -1.6786 -2.1560 -0.2876
  174MPD1     C 2701   3.964   3.314  14.091 -0.3529  0.2033 -0.3477
  174MPD1    C1 2702   3.886   3.244  14.180  0.3486  0.1346  0.5673
  174MPD1    C2 2703   3.757   3.296  14.199 -0.3182 -0.0011  0.5890
  174MPD1    C3 2704   3.728   3.420  14.158  0.2588  0.1630 -0.1356
  174MPD1    C4 2705   3.809   3.488  14.074  0.2193 -0.3968  0.4714
  174MPD1    C5 2706   3.933   3.436  14.048 -0.2154  0.1331  0.5508
  174MPD1     H 2707   3.682   3.243  14.257 -0.2968  1.4358  1.9126
  174MPD1    H1 2708   3.782   3.583  14.029 -2.5150 -0.8578  1.0954
  174MPD1    H2 2709   4.057   3.276  14.051  0.0746  0.8297  0.0486
  174MPD1    H3 2710   4.003   3.502  13.999  1.0069 -1.8166 -0.3195
  174MPD1     N 2711   3.598   3.475  14.172  0.0469  0.1406  0.2654
  174MPD1    H5 2712   3.575   3.556  14.117  1.1276  0.0255 -0.3454
  174MPD1    N1 2713   3.915   3.107  14.210  0.5179 -0.5795  0.3823
  174MPD1    H6 2714   3.860   3.091  14.294 -0.0403 -0.9647 -0.0638
  174MPD1    H7 2715   4.010   3.079  14.234  0.8371 -0.3055 -0.5625
  175MPD1     C 2716   1.768   4.392  15.122 -0.2101 -0.0541 -0.4843
  175MPD1    C1 2717   1.761   4.512  15.198  0.0398  0.1873  0.0446
  175MPD1    C2 2718   1.744   4.513  15.329  0.0610 -0.1349 -0.1268
  175MPD1    C3 2719   1.733   4.397  15.398  0.5209 -1.0896 -0.3610
  175MPD1    C4 2720   1.731   4.279  15.319 -0.2580  0.2868 -0.1365
  175MPD1    C5 2721   1.757   4.274  15.185  0.5306 -0.3483 -0.1171
  175MPD1     H 2722   1.724   4.603  15.386  0.0250 -0.2647  0.0675
  175MPD1    H1 2723   1.687   4.189  15.359  0.0571  0.6726  1.0568
  175MPD1    H2 2724   1.768   4.389  15.013 -0.5234  3.2685 -0.5593
  175MPD1    H3 2725   1.737   4.176  15.144  0.2997 -0.2917 -0.1389
  175MPD1     N 2726   1.721   4.397  15.539 -0.8710 -0.4697 -0.2883
  175MPD1    H5 2727   1.720   4.492  15.576 -0.5515 -0.6261  0.1211
  175MPD1    N1 2728   1.754   4.637  15.130 -0.1308 -0.0948  0.1294
  175MPD1    H6 2729   1.781   4.710  15.196 -1.8825 -0.3699  1.1694
  175MPD1    H7 2730   1.801   4.648  15.041 -1.9166 -0.2469 -0.8210
  176MPD1     C 2731   2.942   1.668   0.237  0.0239  0.4583  0.3408
  176MPD1    C1 2732   2.964   1.725   0.113 -0.2265 -0.1796 -0.0378
  176MPD1    C2 2733   3.058   1.829   0.103  0.4336 -1.0553  0.0665
  176MPD1    C3 2734   3.128   1.877   0.206  0.0090  0.0086 -0.4367
  176MPD1    C4 2735   3.111   1.819   0.329 -0.6273  0.1096  0.0481
  176MPD1    C5 2736   3.019   1.716   0.342 -1.3782 -0.0345 -0.1776
  176MPD1     H 2737   3.079   1.881   0.010  1.0843 -0.2629  0.6519
  176MPD1    H1 2738   3.157   1.854   0.421  1.1712 -1.3090 -0.3189
  176MPD1    H2 2739   2.874   1.585   0.251  0.5042 -0.0504 -0.3638
  176MPD1    H3 2740   3.007   1.663   0.436 -1.0686 -1.2433 -0.8114
  176MPD1     N 2741   3.227   1.978   0.183  0.0755 -0.2712  0.2662
  176MPD1    H5 2742   3.242   2.011   0.088 -0.3232  0.5467  0.4835
  176MPD1    N1 2743   2.898   1.676   0.003  0.1354 -0.5986  0.0482
  176MPD1    H6 2744   2.803   1.643   0.018 -0.4528  0.9658 -0.2944
  176MPD1    H7 2745   2.884   1.739  17.670  0.0090 -1.2880 -0.4911
  177MPD1     C 2746   2.342   2.039  10.108 -0.4517 -0.3376  0.1452
  177MPD1    C1 2747   2.225   1.966  10.124  0.0671  0.0685  0.2186
  177MPD1    C2 2748   2.128   1.972  10.030 -0.0889  0.5519 -0.2721
  177MPD1    C3 2749   2.130   2.076   9.934  0.1895 -0.0033  0.1185
  177MPD1    C4 2750   2.245   2.147   9.916  0.1930 -0.0416 -0.2056
  177MPD1    C5 2751   2.351   2.124  10.004  0.6013  0.6898  0.3086
  177MPD1     H 2752   2.048   1.899  10.029  0.0634  0.4058 -2.4113
  177MPD1    H1 2753   2.254   2.219   9.835  2.2810 -0.9459 -0.7737
  177MPD1    H2 2754   2.427   2.010  10.168  0.5779  1.5595 -0.4109
  177MPD1    H3 2755   2.446   2.175   9.999  0.8254  0.3427  0.9862
  177MPD1     N 2756   2.014   2.079   9.848  0.0902  0.3870  0.2331
  177MPD1    H5 2757   1.935   2.017   9.861 -0.5126  1.5716  2.4027
  177MPD1    N1 2758   2.228   1.860  10.214  0.1788 -0.4634 -0.4072
  177MPD1    H6 2759   2.133   1.847  10.249 -0.6828  1.6393 -1.9747
  177MPD1    H7 2760   2.294   1.878  10.289 -0.9304 -0.6319  0.6075
  178MPD1     C 2761   4.555   2.659   0.588 -0.3092 -0.3360  0.2756
  178MPD1    C1 2762   4.570   2.527   0.537  1.0380 -0.0634  0.7194
  178MPD1    C2 2763   4.549   2.508   0.408  0.0641  0.4370 -0.3727
  178MPD1    C3 2764   4.542   2.615   0.320 -0.1661 -0.3798  0.1337
  178MPD1    C4 2765   4.554   2.742   0.366 -0.4267 -0.0905  1.0581
  178MPD1    C5 2766   4.555   2.760   0.501  0.0460  0.0319  0.5635
  178MPD1     H 2767   4.546   2.409   0.364 -1.0504  0.1386  0.3664
  178MPD1    H1 2768   4.541   2.826   0.299  3.4344 -0.7385 -0.4961
  178MPD1    H2 2769   4.548   2.696   0.690  2.6991  4.3378 -1.2125
  178MPD1    H3 2770   4.544   2.857   0.547  0.1015 -0.5260  1.7616
  178MPD1     N 2771   4.530   2.594   0.179  0.0425  0.5422 -0.1856
  178MPD1    H5 2772   4.522   2.677   0.122  0.7926  0.9807  0.3376
  178MPD1    N1 2773   4.585   2.421   0.626  0.6005 -0.3730 -0.2443
  178MPD1    H6 2774   4.652   2.351   0.592  0.1617 -0.8443 -0.1371
  178MPD1    H7 2775   4.625   2.456   0.713  1.7625 -1.3648 -0.3620
  179MPD1     C 2776   3.769   0.790  15.257  0.4989 -0.6296  0.5338
  179MPD1    C1 2777   3.873   0.766  15.339 -0.3703  0.7193 -0.1895
  179MPD1    C2 2778   3.851   0.681  15.446  0.0277  0.5990 -0.2757
  179MPD1    C3 2779   3.727   0.625  15.481  0.1839 -0.1912 -0.2225
  179MPD1    C4 2780   3.625   0.654  15.394  1.1168  0.0841  0.5667
  179MPD1    C5 2781   3.645   0.736  15.282 -0.0020  0.1042  0.2163
  179MPD1     H 2782   3.940   0.660  15.505 -0.7056  1.1576  1.0157
  179MPD1    H1 2783   3.526   0.618  15.421  0.6349  0.6131 -0.5296
  179MPD1    H2 2784   3.783   0.853  15.171  0.2856  1.0444  1.7220
  179MPD1    H3 2785   3.567   0.769  15.215 -0.3580 -3.5343 -1.1577
  179MPD1     N 2786   3.705   0.541  15.586  0.6748 -0.7716  0.7179
  179MPD1    H5 2787   3.608   0.517  15.605 -0.6760  1.9404 -2.7546
  179MPD1    N1 2788   3.991   0.837  15.320  0.1120 -0.0657  0.1254
  179MPD1    H6 2789   4.018   0.839  15.222  0.5514  0.1698  0.2524
  179MPD1    H7 2790   4.069   0.810  15.379  0.3170 -0.1562 -0.1933
  180MPD1     C 2791   3.454   1.525  15.696  0.5030  0.0965 -0.6477
  180MPD1    C1 2792   3.349   1.491  15.614 -0.3201  0.8327  0.2270
  180MPD1    C2 2793   3.376   1.474  15.480  1.0732 -0.9096 -0.2412
  180MPD1    C3 2794   3.502   1.460  15.429 -0.2028  0.9378 -0.1587
  180MPD1    C4 2795   3.610   1.478  15.517  0.1269  0.2197 -0.2517
  180MPD1    C5 2796   3.585   1.519  15.644 -0.5634 -0.2367  0.4747
  180MPD1     H 2797   3.293   1.468  15.411  2.0664 -1.6517 -1.3761
  180MPD1    H1 2798   3.713   1.469  15.485  0.6338  0.2785  1.3287
  180MPD1    H2 2799   3.434   1.553  15.799 -0.5178 -1.1659 -0.5048
  180MPD1    H3 2800   3.672   1.528  15.707  0.6397 -0.9393 -1.0833
  180MPD1     N 2801   3.535   1.444  15.288 -0.5786 -0.5338 -0.0418
  180MPD1    H5 2802   3.634   1.437  15.271 -0.7294 -0.4384 -0.9675
  180MPD1    N1 2803   3.220   1.506  15.658  0.3236 -0.1160  0.3101
  180MPD1    H6 2804   3.216   1.470  15.754 -1.4149 -0.8876 -0.0564
  180MPD1    H7 2805   3.163   1.445  15.601 -0.6680 -0.2762  1.4642
  181MPD1     C 2806   0.373   3.764   9.926  0.0186  0.8335 -0.0596
  181MPD1    C1 2807   0.414   3.894   9.890 -0.4397 -0.5685  0.1027
  181MPD1    C2 2808   0.502   3.964   9.971 -0.2473  0.1937  0.2437
  181MPD1    C3 2809   0.569   3.903  10.077  0.1897 -0.2580 -0.1416
  181MPD1    C4 2810   0.518   3.781  10.124  0.3375 -0.1821 -0.2724
  181MPD1    C5 2811   0.426   3.711  10.042  0.1059 -0.1474  0.8940
  181MPD1     H 2812   0.537   4.064   9.950 -1.0729 -0.0816 -2.4767
  181MPD1    H1 2813   0.548   3.730  10.215  1.7548 -1.7006 -1.6026
  181MPD1    H2 2814   0.289   3.716   9.876 -0.9750  0.1795  2.2162
  181MPD1    H3 2815   0.386   3.617  10.078 -0.1108 -0.3170  0.2162
  181MPD1     N 2816   0.665   3.969  10.158 -0.5458 -0.0697  0.3648
  181MPD1    H5 2817   0.707   3.912  10.230  0.7307  1.5139  0.8669
  181MPD1    N1 2818   0.332   3.965   9.800  0.3750 -0.0748  0.1665
  181MPD1    H6 2819   0.385   4.034   9.746  0.4518 -0.1929  0.0893
  181MPD1    H7 2820   0.298   3.900   9.730 -0.5303 -1.4820  1.9176
  182MPD1     C 2821   1.911   1.883   0.305  0.4088 -0.7904 -0.0618
  182MPD1    C1 2822   1.911   1.908   0.438 -0.0463 -0.2964  0.1894
  182MPD1    C2 2823   1.944   2.034   0.489 -0.5408  0.3377  0.1683
  182MPD1    C3 2824   1.944   2.144   0.401 -0.8262  0.2696  0.2431
  182MPD1    C4 2825   1.942   2.117   0.261 -0.2856 -0.3484 -0.1267
  182MPD1    C5 2826   1.917   1.988   0.217 -0.7308 -0.0583  0.7069
  182MPD1     H 2827   1.971   2.043   0.593  0.3119  0.1027 -0.0346
  182MPD1    H1 2828   1.944   2.199   0.191 -0.2828  0.4242  0.7839
  182MPD1    H2 2829   1.902   1.783   0.264  0.6904 -1.9254  2.6623
  182MPD1    H3 2830   1.929   1.969   0.111 -0.1944 -0.0846  0.7764
  182MPD1     N 2831   1.949   2.282   0.437  0.0780 -0.1292 -0.8538
  182MPD1    H5 2832   1.924   2.346   0.362 -1.2695 -0.7093 -0.8996
  182MPD1    N1 2833   1.912   1.800   0.532  0.1850  0.0261 -0.1107
  182MPD1    H6 2834   1.884   1.824   0.627  0.1300 -1.5918  0.2827
  182MPD1    H7 2835   1.862   1.715   0.506 -0.1720  0.0520  0.4959
  183MPD1     C 2836   3.393   4.430  10.144 -0.6994  0.3031  0.1439
  183MPD1    C1 2837   3.338   4.318  10.207 -0.4769 -0.1152 -0.5530
  183MPD1    C2 2838   3.211   4.285  10.167  0.0268  0.2375 -0.8471
  183MPD1    C3 2839   3.130   4.355  10.084  0.0631 -0.6407  0.2878
  183MPD1    C4 2840   3.185   4.476  10.030  0.3855 -0.0784  0.8206
  183MPD1    C5 2841   3.317   4.510  10.066 -0.1216  0.7199 -0.4005
  183MPD1     H 2842   3.171   4.196  10.213  1.9451  0.6699  1.6662
  183MPD1    H1 2843   3.128   4.542   9.966 -0.8298 -1.2163  0.7312
  183MPD1    H2 2844   3.501   4.442  10.146 -0.7764  1.1706 -1.1414
  183MPD1    H3 2845   3.373   4.593  10.024  0.2011  0.4806 -0.4423
  183MPD1     N 2846   2.999   4.313  10.066 -0.1200  0.3416  0.3089
  183MPD1    H5 2847   2.975   4.220  10.097  2.0274 -1.0994 -2.4704
  183MPD1    N1 2848   3.420   4.230  10.281 -0.1437  1.1092  0.2146
  183MPD1    H6 2849   3.377   4.165  10.346 -0.3426  2.2424  1.2080
  183MPD1    H7 2850   3.497   4.279  10.326  1.0309 -0.0527 -0.5327
  184MPD1     C 2851   1.119   1.396  10.307  0.0992 -0.1646 -0.5638
  184MPD1    C1 2852   1.116   1.318  10.199  0.0026  0.4766  0.0360
  184MPD1    C2 2853   1.175   1.366  10.084  0.1968 -0.0677 -0.3442
  184MPD1    C3 2854   1.222   1.498  10.079  0.1312  0.2611  0.5145
  184MPD1    C4 2855   1.215   1.581  10.184 -0.1962 -0.3698  0.7696
  184MPD1    C5 2856   1.169   1.525  10.307 -0.3219  1.0988  1.1246
  184MPD1     H 2857   1.187   1.304   9.996  1.0661  1.1803 -1.1059
  184MPD1    H1 2858   1.232   1.686  10.165 -1.2061  0.1586  2.7667
  184MPD1    H2 2859   1.076   1.359  10.399 -0.1147  1.0065 -0.1926
  184MPD1    H3 2860   1.157   1.594  10.389  0.3133  1.9143  0.5328
  184MPD1     N 2861   1.272   1.551   9.957  1.1874 -0.0174  0.5213
  184MPD1    H5 2862   1.328   1.635   9.968  1.6949 -0.5186  1.7583
  184MPD1    N1 2863   1.065   1.188  10.210  0.2912 -0.3370  0.9040
  184MPD1    H6 2864   0.995   1.172  10.282 -1.5937  1.6806 -0.5091
  184MPD1    H7 2865   1.023   1.148  10.126  2.8992  1.3522 -1.2001
  185MPD1     C 2866   1.537   1.674   8.912  0.2913  0.2647 -0.0644
  185MPD1    C1 2867   1.436   1.596   8.951  0.2532  0.6670 -0.1904
  185MPD1    C2 2868   1.392   1.608   9.084 -0.2049 -0.2664 -0.3881
  185MPD1    C3 2869   1.445   1.703   9.168 -0.0285  0.1595 -0.2658
  185MPD1    C4 2870   1.546   1.786   9.119  0.0082  0.1756  0.0548
  185MPD1    C5 2871   1.590   1.773   8.991 -0.5534  0.8140  0.8212
  185MPD1     H 2872   1.305   1.549   9.109  1.1266  0.1300  5.1492
  185MPD1    H1 2873   1.604   1.857   9.176 -0.5328  1.6217 -1.1918
  185MPD1    H2 2874   1.581   1.673   8.813  0.7348 -1.2538  0.1337
  185MPD1    H3 2875   1.677   1.829   8.959 -0.3798 -0.6840 -1.3109
  185MPD1     N 2876   1.428   1.708   9.308 -0.0097 -0.5798 -0.3551
  185MPD1    H5 2877   1.488   1.777   9.352 -1.3845 -0.1211  0.7775
  185MPD1    N1 2878   1.387   1.487   8.878 -0.4217 -0.4741 -0.7279
  185MPD1    H6 2879   1.287   1.469   8.889 -0.4177 -0.4561 -0.6574
  185MPD1    H7 2880   1.398   1.495   8.777  2.4568 -2.0247 -0.5355
  186MPD1     C 2881   4.049   0.908  16.093  0.9032  0.3338  0.2170
  186MPD1    C1 2882   4.115   0.805  16.154 -0.1083  0.4348 -0.7817
  186MPD1    C2 2883   4.208   0.835  16.250  0.4787  0.0036  0.3069
  186MPD1    C3 2884   4.245   0.967  16.283  0.0072  0.3418  0.3358
  186MPD1    C4 2885   4.177   1.068  16.217  0.4778 -0.5793 -0.1402
  186MPD1    C5 2886   4.075   1.039  16.126  0.0207 -0.3105 -0.3271
  186MPD1     H 2887   4.259   0.754  16.301  1.3322  1.2672  1.4566
  186MPD1    H1 2888   4.193   1.175  16.229  2.0473 -0.8705  0.4071
  186MPD1    H2 2889   3.980   0.883  16.012  0.1123 -0.2653  1.0781
  186MPD1    H3 2890   4.025   1.115  16.068  0.5414 -0.6791 -1.2674
  186MPD1     N 2891   4.340   1.004  16.381 -0.3617 -0.3535 -0.1764
  186MPD1    H5 2892   4.343   1.104  16.400  1.8079 -0.2464 -1.1430
  186MPD1    N1 2893   4.079   0.676  16.123  0.1297 -0.7451 -0.2886
  186MPD1    H6 2894   4.044   0.664  16.028 -5.3792  3.0784  1.2779
  186MPD1    H7 2895   4.134   0.599  16.160 -0.9982 -1.9659 -1.1711
  187MPD1     C 2896   3.818   2.550   0.665 -0.1733 -0.1755  0.3619
  187MPD1    C1 2897   3.805   2.442   0.577  0.3423  0.5495  0.2280
  187MPD1    C2 2898   3.824   2.474   0.441 -0.5760  0.6088  0.2030
  187MPD1    C3 2899   3.839   2.608   0.399  0.5469 -0.6944  0.0808
  187MPD1    C4 2900   3.833   2.704   0.492 -0.0603  0.1713 -0.2429
  187MPD1    C5 2901   3.822   2.683   0.623  0.0622 -0.4787  0.5554
  187MPD1     H 2902   3.821   2.397   0.364 -0.0085 -1.1342  1.9179
  187MPD1    H1 2903   3.831   2.805   0.454 -2.9688 -1.2179 -3.8190
  187MPD1    H2 2904   3.819   2.545   0.774 -0.3197  1.2832  0.4308
  187MPD1    H3 2905   3.824   2.764   0.695 -0.9979  1.2334 -1.3407
  187MPD1     N 2906   3.849   2.656   0.271  0.6229 -0.5035  0.0042
  187MPD1    H5 2907   3.841   2.757   0.266  0.3668 -0.4469  1.8188
  187MPD1    N1 2908   3.773   2.317   0.624  0.6291  0.3874  0.3816
  187MPD1    H6 2909   3.824   2.240   0.581  1.6029  0.5997  1.1427
  187MPD1    H7 2910   3.805   2.297   0.718  1.7985 -0.9955 -0.3115
  188MPD1     C 2911   4.402   3.351   9.983  0.2969 -0.3742 -0.0156
  188MPD1    C1 2912   4.303   3.325   9.893 -0.0964 -0.5061  0.1553
  188MPD1    C2 2913   4.234   3.205   9.925 -0.1790 -0.0369  0.5171
  188MPD1    C3 2914   4.254   3.127  10.038  0.1739 -0.0348  0.2538
  188MPD1    C4 2915   4.350   3.168  10.128 -0.4096  0.1071  0.1549
  188MPD1    C5 2916   4.431   3.273  10.091 -0.1735  0.5155  0.3942
  188MPD1     H 2917   4.163   3.164   9.854 -0.0881  0.3959  0.1819
  188MPD1    H1 2918   4.375   3.113  10.218 -0.0219  1.6891  1.0124
  188MPD1    H2 2919   4.467   3.437   9.968  1.1293 -1.5440 -3.1119
  188MPD1    H3 2920   4.512   3.305  10.156  0.3772  1.9454 -0.9735
  188MPD1     N 2921   4.191   3.001  10.050 -0.3667  0.2904 -0.1673
  188MPD1    H5 2922   4.210   2.950  10.135  2.3457  0.3540 -0.7355
  188MPD1    N1 2923   4.284   3.401   9.774 -0.3131 -0.3252 -0.6575
  188MPD1    H6 2924   4.276   3.500   9.796  0.3672 -0.2574 -0.6868
  188MPD1    H7 2925   4.195   3.377   9.731 -0.5617 -0.4783 -0.0521
  189MPD1     C 2926   0.770   3.581   0.409 -0.1798  0.0442  0.3130
  189MPD1    C1 2927   0.689   3.519   0.322 -0.2517 -0.4466 -0.5380
  189MPD1    C2 2928   0.592   3.596   0.265 -0.2174 -0.4208  0.0328
  189MPD1    C3 2929   0.583   3.731   0.275 -0.5569  0.0467 -0.7383
  189MPD1    C4 2930   0.675   3.794   0.351  0.0331  0.2476  0.0391
  189MPD1    C5 2931   0.767   3.719   0.415  0.6143  0.1382 -0.7159
  189MPD1     H 2932   0.519   3.542   0.205  1.9663 -1.7634 -1.4326
  189MPD1    H1 2933   0.694   3.900   0.356 -2.9674  0.7895  0.0908
  189MPD1    H2 2934   0.846   3.532   0.469  0.4937  0.1083 -0.4795
  189MPD1    H3 2935   0.828   3.767   0.491  0.4992 -0.7904 -0.0484
  189MPD1     N 2936   0.483   3.808   0.211  0.4764  0.7757  0.2954
  189MPD1    H5 2937   0.409   3.760   0.160 -0.1287  0.8848  1.0608
  189MPD1    N1 2938   0.684   3.380   0.318 -0.1936 -0.5530 -0.1364
  189MPD1    H6 2939   0.781   3.350   0.318 -0.1580 -0.4183  0.6672
  189MPD1    H7 2940   0.642   3.346   0.231  0.1593  1.1458 -0.9773
  190MPD1     C 2941   3.718   1.732  15.276 -0.1110  0.7170 -0.4695
  190MPD1    C1 2942   3.850   1.706  15.239  0.6907  0.4802  0.0295
  190MPD1    C2 2943   3.940   1.698  15.349 -0.5688 -0.3106 -0.2401
  190MPD1    C3 2944   3.910   1.733  15.481 -0.0178 -0.6817 -0.3512
  190MPD1    C4 2945   3.776   1.768  15.502 -0.1113  0.5210  0.5065
  190MPD1    C5 2946   3.686   1.767  15.400  0.4305  0.2663  0.1017
  190MPD1     H 2947   4.042   1.663  15.336 -0.5536 -1.2692  2.5310
  190MPD1    H1 2948   3.739   1.804  15.597 -3.4379  2.1992 -1.4169
  190MPD1    H2 2949   3.640   1.726  15.200  0.9973 -1.5223 -1.4228
  190MPD1    H3 2950   3.581   1.783  15.421  0.6242  0.7030  0.7342
  190MPD1     N 2951   4.014   1.734  15.577  0.0171  0.2009 -0.1371
  190MPD1    H5 2952   4.107   1.734  15.537 -0.0692 -0.1681 -0.3373
  190MPD1    N1 2953   3.888   1.667  15.115 -0.1535 -0.1670  0.2000
  190MPD1    H6 2954   3.983   1.691  15.089 -0.2522 -1.8178 -1.7089
  190MPD1    H7 2955   3.815   1.700  15.052 -0.4282  1.4837  1.3976
  191MPD1     C 2956   2.585   4.318  12.924 -0.2935 -0.8937  0.5252
  191MPD1    C1 2957   2.552   4.424  12.843 -0.1385 -0.4032  0.7790
  191MPD1    C2 2958   2.639   4.462  12.748 -0.0062  0.4147  0.4771
  191MPD1    C3 2959   2.765   4.409  12.744  0.7215  0.4354  0.0711
  191MPD1    C4 2960   2.802   4.312  12.837 -0.4320 -0.7034 -0.0414
  191MPD1    C5 2961   2.710   4.261  12.929  0.0880  0.4071  0.2037
  191MPD1     H 2962   2.611   4.536  12.675 -2.5238 -0.1164  0.8862
  191MPD1    H1 2963   2.897   4.261  12.835 -0.6675 -1.2127  1.7419
  191MPD1    H2 2964   2.506   4.278  12.987  0.7079 -3.7311 -0.0353
  191MPD1    H3 2965   2.725   4.173  12.990 -0.5445  1.3310  1.6905
  191MPD1     N 2966   2.845   4.446  12.638  0.4213  0.1051 -0.8196
  191MPD1    H5 2967   2.800   4.511  12.574 -0.6628  1.9378  1.8530
  191MPD1    N1 2968   2.424   4.469  12.832  0.6966  0.0427 -0.6160
  191MPD1    H6 2969   2.412   4.556  12.781  0.7851  0.7265  0.5367
  191MPD1    H7 2970   2.388   4.470  12.927  2.3384  1.3480 -0.0079
  192MPD1     C 2971   2.734   4.616  11.680  0.1958 -0.1341 -0.5062
  192MPD1    C1 2972   2.655   4.564  11.781 -0.1602  0.2550  0.7083
  192MPD1    C2 2973   2.719   4.561  11.905  0.0550  0.1027  0.6191
  192MPD1    C3 2974   2.857   4.599  11.914 -0.8853 -0.1665 -0.4067
  192MPD1    C4 2975   2.929   4.656  11.816  0.0414  0.1576  0.8217
  192MPD1    C5 2976   2.862   4.668  11.695  0.1569  0.2593  0.1402
  192MPD1     H 2977   2.670   4.526  11.996  0.7647 -0.5199  0.7568
  192MPD1    H1 2978   3.037   4.667  11.823 -0.3545  1.9548  3.9759
  192MPD1    H2 2979   2.688   4.626  11.583  0.5268  3.6880 -0.2709
  192MPD1    H3 2980   2.911   4.711  11.608  1.0955  2.2291  1.6425
  192MPD1     N 2981   2.927   4.590  12.037  0.3442  0.8472 -0.7148
  192MPD1    H5 2982   3.015   4.641  12.039  0.1860  1.1063 -0.4520
  192MPD1    N1 2983   2.532   4.495  11.742  0.0601  0.1530 -0.0131
  192MPD1    H6 2984   2.472   4.497  11.825 -0.0552  2.2022 -0.1564
  192MPD1    H7 2985   2.482   4.537  11.664  0.2706 -0.0264 -0.2397
  193MPD1     C 2986   2.705   4.176  16.210 -0.0601 -0.4958 -0.0147
  193MPD1    C1 2987   2.761   4.085  16.304  0.2286 -0.1630 -0.0671
  193MPD1    C2 2988   2.851   4.149  16.395  0.0080 -0.3234 -1.1593
  193MPD1    C3 2989   2.890   4.280  16.397 -0.6696  0.0799 -0.2769
  193MPD1    C4 2990   2.826   4.350  16.304 -0.1869  0.2127 -0.5537
  193MPD1    C5 2991   2.740   4.304  16.218  0.1002  0.4411 -0.5620
  193MPD1     H 2992   2.895   4.094  16.478  0.5154  0.2399 -1.0509
  193MPD1    H1 2993   2.841   4.457  16.294  0.9650  0.2880  1.9788
  193MPD1    H2 2994   2.629   4.149  16.137 -1.1482  1.4436  0.4239
  193MPD1    H3 2995   2.699   4.372  16.145  0.4826  1.0381 -0.2252
  193MPD1     N 2996   2.983   4.337  16.490 -0.1417  0.0707 -0.3401
  193MPD1    H5 2997   2.986   4.438  16.487  4.5683 -0.1103 -0.5692
  193MPD1    N1 2998   2.722   3.950  16.311  0.7648  0.3691  0.3148
  193MPD1    H6 2999   2.784   3.884  16.357  0.2962 -1.0590 -1.1524
  193MPD1    H7 3000   2.682   3.910  16.227  1.4471 -1.8277  1.0374
  194MPD1     C 3001   0.728   1.515  17.332  0.1248 -0.3745 -0.0457
  194MPD1    C1 3002   0.679   1.452  17.445  0.6107 -0.7032  1.1324
  194MPD1    C2 3003   0.702   1.316  17.464  0.4133 -0.2432  0.0987
  194MPD1    C3 3004   0.762   1.237  17.362  0.5889  0.1137  0.2351
  194MPD1    C4 3005   0.798   1.306  17.250  0.0811  0.1726  0.1939
  194MPD1    C5 3006   0.794   1.445  17.238  0.6661  0.0590 -0.0865
  194MPD1     H 3007   0.659   1.267  17.550  0.7361  0.3962  0.6244
  194MPD1    H1 3008   0.839   1.250  17.166 -0.5531  2.3957 -1.6012
  194MPD1    H2 3009   0.713   1.621  17.317 -0.7044 -0.7309 -1.7874
  194MPD1    H3 3010   0.812   1.486  17.139 -1.4843  0.1708 -0.4529
  194MPD1     N 3011   0.771   1.091  17.355  0.0014  0.6943 -0.2873
  194MPD1    H5 3012   0.803   1.054  17.266  0.0036  0.4732 -0.1935
  194MPD1    N1 3013   0.626   1.524  17.555  0.4763  0.1765  0.8007
  194MPD1    H6 3014   0.574   1.611  17.544 -0.5276 -0.8789 -2.8153
  194MPD1    H7 3015   0.555   1.470  17.602  1.0230  0.1382  1.5799
  195MPD1     C 3016   3.026   2.937   1.550 -0.4497 -0.1639  0.7177
  195MPD1    C1 3017   3.152   2.920   1.607  0.1736  0.2888 -0.3818
  195MPD1    C2 3018   3.258   2.912   1.515  0.7898 -0.3203  0.4506
  195MPD1    C3 3019   3.242   2.942   1.378  0.0395  0.4296  0.3914
  195MPD1    C4 3020   3.110   2.970   1.334 -0.3977  0.9735 -0.2011
  195MPD1    C5 3021   3.006   2.951   1.417  0.3677 -0.4421 -0.2533
  195MPD1     H 3022   3.353   2.882   1.557  1.0287 -0.2473 -0.0337
  195MPD1    H1 3023   3.089   2.976   1.227 -0.0545  1.2334 -0.2543
  195MPD1    H2 3024   2.938   2.929   1.614 -1.9780  0.1006 -1.3560
  195MPD1    H3 3025   2.904   2.948   1.381  0.1799 -1.9735  0.4041
  195MPD1     N 3026   3.343   2.944   1.281 -0.2692  0.0877  0.0490
  195MPD1    H5 3027   3.303   2.935   1.188 -0.4239 -0.6200  0.1842
  195MPD1    N1 3028   3.173   2.881   1.743  0.4896  0.0445  0.4773
  195MPD1    H6 3029   3.258   2.915   1.786  0.1550  1.0612  0.3312
  195MPD1    H7 3030   3.094   2.904   1.803  0.4880 -0.1244  0.5396
  196MPD1     C 3031   2.869   3.100  17.444  0.6731 -0.6255  0.7085
  196MPD1    C1 3032   2.915   2.978  17.491 -0.2458 -0.1579  1.0631
  196MPD1    C2 3033   2.841   2.918  17.588  0.2520 -0.4615  0.3852
  196MPD1    C3 3034   2.730   2.984  17.650  0.7330  0.1542 -0.0413
  196MPD1    C4 3035   2.694   3.106  17.597  0.2755 -0.0345  0.5647
  196MPD1    C5 3036   2.761   3.168  17.503 -0.2089  0.3788  0.1542
  196MPD1     H 3037   2.862   2.818  17.623  2.8719 -0.9907 -2.7219
  196MPD1    H1 3038   2.608   3.163  17.632  0.2047  0.7025 -0.8083
  196MPD1    H2 3039   2.915   3.148  17.358 -1.8880 -0.0737 -0.3450
  196MPD1    H3 3040   2.747   3.268  17.465 -0.8472  0.5518  0.8547
  196MPD1     N 3041   2.656   2.936   0.017  0.6033  0.1422 -0.3903
  196MPD1    H5 3042   2.603   3.003   0.071  0.5257  1.4133 -2.0668
  196MPD1    N1 3043   3.024   2.916  17.435 -0.6289  0.0052  0.2645
  196MPD1    H6 3044   3.094   2.978  17.394 -1.3511 -0.6290 -1.9058
  196MPD1    H7 3045   3.071   2.846  17.492 -0.7439 -0.9765 -0.8398
  197MPD1     C 3046   1.982   3.782  17.543 -0.4171  0.1954  0.0934
  197MPD1    C1 3047   2.090   3.859  17.585  0.0492 -0.1581  0.8273
  197MPD1    C2 3048   2.100   3.986  17.529  0.3250  0.3760  0.8072
  197MPD1    C3 3049   2.019   4.026  17.420 -0.1886  0.5590 -0.4349
  197MPD1    C4 3050   1.923   3.943  17.377  0.1640 -0.2813  0.0200
  197MPD1    C5 3051   1.913   3.819  17.432  0.8588 -0.0304  0.0604
  197MPD1     H 3052   2.177   4.057  17.559 -0.9255  1.5598  1.1920
  197MPD1    H1 3053   1.851   3.963  17.298 -0.3740  1.6869  1.0208
  197MPD1    H2 3054   1.970   3.683  17.586 -1.5560 -0.7663 -2.4495
  197MPD1    H3 3055   1.845   3.739  17.404  0.9502  0.1101 -0.5627
  197MPD1     N 3056   2.038   4.147  17.348 -0.3115 -0.1101  0.0628
  197MPD1    H5 3057   1.983   4.154  17.262 -0.2620 -0.6626 -0.0129
  197MPD1    N1 3058   2.154   3.840  17.706 -0.8103 -0.5850  0.2822
  197MPD1    H6 3059   2.168   3.742  17.730 -2.9515 -0.8660  0.3829
  197MPD1    H7 3060   2.247   3.881  17.718 -0.8292 -0.5525  0.3201
  198MPD1     C 3061   3.769   2.798  15.240 -0.1939  0.2072 -0.0977
  198MPD1    C1 3062   3.894   2.794  15.180 -0.1049  0.4172 -0.0318
  198MPD1    C2 3063   3.999   2.789  15.270 -0.4910  0.9116  0.0893
  198MPD1    C3 3064   3.982   2.791  15.411 -0.1746  0.0989 -0.1425
  198MPD1    C4 3065   3.851   2.801  15.465 -0.4418 -0.0205 -0.3094
  198MPD1    C5 3066   3.748   2.804  15.375 -0.7254 -0.0760  0.9175
  198MPD1     H 3067   4.104   2.795  15.242 -0.1207 -0.4584  1.2161
  198MPD1    H1 3068   3.821   2.802  15.569 -1.2306  0.8575 -0.5488
  198MPD1    H2 3069   3.678   2.807  15.181 -0.8035 -0.6635  0.7078
  198MPD1    H3 3070   3.647   2.803  15.415 -1.4391 -1.2950 -0.8794
  198MPD1     N 3071   4.099   2.783  15.490 -0.3154  0.7778 -0.1095
  198MPD1    H5 3072   4.186   2.770  15.439  0.4879 -1.7634  1.9543
  198MPD1    N1 3073   3.923   2.820  15.042 -0.2723  0.5676  0.1298
  198MPD1    H6 3074   3.844   2.783  14.990 -1.7879  1.7456  1.5898
  198MPD1    H7 3075   4.010   2.777  15.011  0.5229  1.8337  0.6039
  199MPD1     C 3076   0.969   3.721   9.910 -0.2703  0.2111 -0.6532
  199MPD1    C1 3077   1.066   3.798   9.968 -0.4403 -0.6066 -0.2062
  199MPD1    C2 3078   1.057   3.934   9.943  0.6236  0.1641  0.3345
  199MPD1    C3 3079   0.951   4.001   9.885 -0.2487 -0.7369 -0.1490
  199MPD1    C4 3080   0.848   3.922   9.842 -0.0717  0.0463 -0.1707
  199MPD1    C5 3081   0.857   3.781   9.857  1.0618 -0.8673  0.5924
  199MPD1     H 3082   1.145   3.988   9.974  0.4103 -0.3986  1.9334
  199MPD1    H1 3083   0.759   3.962   9.795 -0.9334  2.3420  3.4271
  199MPD1    H2 3084   0.975   3.613   9.912 -1.5210  0.1740  1.4003
  199MPD1    H3 3085   0.777   3.714   9.830 -0.7263  0.7805  1.7909
  199MPD1     N 3086   0.942   4.142   9.870 -0.2627 -0.6321  0.2539
  199MPD1    H5 3087   0.860   4.181   9.825  1.0742  1.4478 -0.3786
  199MPD1    N1 3088   1.183   3.728  10.010 -0.3524 -0.3668 -0.0006
  199MPD1    H6 3089   1.145   3.650  10.063 -0.8638 -0.9731 -1.2598
  199MPD1    H7 3090   1.247   3.790  10.059  1.1109  0.8143 -3.4509
  200MPD1     C 3091   0.578   4.398  15.854  0.8188  0.9043 -0.5192
  200MPD1    C1 3092   0.693   4.370  15.786 -0.0574  0.3446  0.1369
  200MPD1    C2 3093   0.740   4.466  15.702 -0.0680  0.6426 -0.3751
  200MPD1    C3 3094   0.685   4.594  15.694  0.4560  0.1974 -0.5508
  200MPD1    C4 3095   0.582   4.622  15.784 -0.0916  0.1250  0.0409
  200MPD1    C5 3096   0.534   4.525  15.863  0.1975 -0.1028 -0.3063
  200MPD1     H 3097   0.829   4.441  15.645  0.8329  0.1191  1.2727
  200MPD1    H1 3098   0.540   4.722  15.790  0.3700  0.2957  0.4069
  200MPD1    H2 3099   0.523   4.322  15.909 -1.1445  4.0805  1.8850
  200MPD1    H3 3100   0.453   4.548  15.931  1.3027  4.9107 -0.6461
  200MPD1     N 3101   0.743   4.686  15.598 -0.3205  0.1810  0.5293
  200MPD1    H5 3102   0.828   4.652  15.555 -1.4475 -1.0076 -0.7397
  200MPD1    N1 3103   0.743   4.236  15.785 -0.0840  0.0639  0.4781
  200MPD1    H6 3104   0.844   4.224  15.776  0.1415  2.0785  0.2594
  200MPD1    H7 3105   0.724   4.182  15.869  4.0352 -0.7036  0.8947
  201MPD1     C 3106   2.563   3.652  13.089  0.1992 -0.1887  0.8194
  201MPD1    C1 3107   2.488   3.542  13.083 -0.2043 -0.3792  0.7614
  201MPD1    C2 3108   2.539   3.440  13.006 -0.3972  0.2058 -0.1139
  201MPD1    C3 3109   2.655   3.447  12.935 -0.3556  0.6423  0.2174
  201MPD1    C4 3110   2.726   3.565  12.938  0.7058  0.6521 -0.1322
  201MPD1    C5 3111   2.674   3.669  13.013  0.5586  0.2050 -0.4628
  201MPD1     H 3112   2.492   3.343  13.014  0.5582 -0.3779 -1.6974
  201MPD1    H1 3113   2.815   3.579  12.877  2.2023 -0.6064  1.7463
  201MPD1    H2 3114   2.532   3.741  13.143 -0.3254  0.4643 -0.5707
  201MPD1    H3 3115   2.723   3.765  13.021  0.6233  0.1484 -0.1807
  201MPD1     N 3116   2.711   3.327  12.880 -0.1402  0.9210 -0.0379
  201MPD1    H5 3117   2.658   3.244  12.904  1.2374 -0.1028 -0.5118
  201MPD1    N1 3118   2.380   3.518  13.171  0.1684 -0.0364 -0.2553
  201MPD1    H6 3119   2.336   3.609  13.180 -0.7576 -0.3122 -1.9911
  201MPD1    H7 3120   2.321   3.449  13.125  0.6255  0.4068 -1.5182
  202MPD1     C 3121   3.548   3.882   9.698  0.2262 -0.0789 -1.0838
  202MPD1    C1 3122   3.614   3.802   9.791 -0.5687  0.0514 -0.1541
  202MPD1    C2 3123   3.560   3.680   9.813 -0.7467  0.3008 -0.2075
  202MPD1    C3 3124   3.427   3.662   9.785 -0.5475 -0.3697  1.0563
  202MPD1    C4 3125   3.353   3.755   9.714 -1.1881  0.3363 -0.0194
  202MPD1    C5 3126   3.416   3.866   9.667 -0.2833 -0.2588  0.0647
  202MPD1     H 3127   3.618   3.616   9.878 -0.3511  1.0096  0.1367
  202MPD1    H1 3128   3.246   3.742   9.706 -1.0206  0.3876 -2.4726
  202MPD1    H2 3129   3.595   3.970   9.654 -3.2447  3.1106  1.5280
  202MPD1    H3 3130   3.358   3.932   9.604  0.1723 -1.0257 -1.1512
  202MPD1     N 3131   3.342   3.562   9.843 -0.2946 -0.2106 -0.2539
  202MPD1    H5 3132   3.249   3.571   9.804 -0.7239  0.2702  0.8594
  202MPD1    N1 3133   3.756   3.819   9.808 -0.6605  0.2921 -0.3068
  202MPD1    H6 3134   3.776   3.919   9.806  1.7355 -0.1846 -0.4319
  202MPD1    H7 3135   3.793   3.772   9.890 -0.9026 -1.3707 -1.1516
  203MPD1     C 3136   1.706   4.330  12.759 -0.5277  0.2601 -0.1219
  203MPD1    C1 3137   1.653   4.285  12.644 -0.0039  0.0283 -1.2726
  203MPD1    C2 3138   1.623   4.154  12.630  0.2590 -0.1919 -0.2598
  203MPD1    C3 3139   1.672   4.068  12.729 -0.1504  0.2419 -0.8125
  203MPD1    C4 3140   1.733   4.113  12.844 -0.6789 -0.6375  0.1951
  203MPD1    C5 3141   1.752   4.246  12.850  0.0414 -0.1550 -0.5020
  203MPD1     H 3142   1.566   4.123  12.543 -0.1765  0.6277 -0.2626
  203MPD1    H1 3143   1.781   4.053  12.921 -0.8453 -0.0411  0.7598
  203MPD1    H2 3144   1.737   4.433  12.770  0.2071 -0.0055  0.3042
  203MPD1    H3 3145   1.815   4.287  12.928  1.7798 -1.4040 -1.2479
  203MPD1     N 3146   1.655   3.925  12.704 -0.3470 -0.3614  0.5947
  203MPD1    H5 3147   1.622   3.901  12.611  1.6968 -1.9111  0.2699
  203MPD1    N1 3148   1.611   4.385  12.550  0.0852 -0.4411 -0.0413
  203MPD1    H6 3149   1.646   4.476  12.580 -0.2503 -0.3886  0.1866
  203MPD1    H7 3150   1.511   4.397  12.537  0.0175 -2.2384 -1.2531
  204MPD1     C 3151   0.335   0.235  17.504 -0.2005  0.7409  0.3203
  204MPD1    C1 3152   0.425   0.239  17.397 -0.0902 -0.2940 -0.0700
  204MPD1    C2 3153   0.546   0.164  17.406  0.3137  0.0239 -0.3607
  204MPD1    C3 3154   0.561   0.060  17.498 -0.4657  0.5119  0.1933
  204MPD1    C4 3155   0.463   0.042  17.594  1.1111 -0.1801 -0.6026
  204MPD1    C5 3156   0.359   0.134  17.594 -0.0181 -0.2278  0.0081
  204MPD1     H 3157   0.626   0.175  17.334  1.7158 -1.1564  1.0100
  204MPD1    H1 3158   0.466   4.700  17.668  2.4930 -0.2735 -0.7593
  204MPD1    H2 3159   0.251   0.303  17.515 -0.3823  0.4292  0.8576
  204MPD1    H3 3160   0.278   0.122  17.665 -1.4201  0.0202 -1.5445
  204MPD1     N 3161   0.686   4.729  17.500  0.3480  0.3305  1.1182
  204MPD1    H5 3162   0.744   0.012  17.420  0.2430 -0.4706  0.8445
  204MPD1    N1 3163   0.414   0.337  17.297  0.4393 -0.1638 -0.3125
  204MPD1    H6 3164   0.469   0.314  17.214 -0.1065  1.5807 -1.1786
  204MPD1    H7 3165   0.320   0.355  17.261  0.4584  2.4387  0.9064
  205MPD1     C 3166   1.812   3.169   0.387  0.4428  0.2993 -0.3160
  205MPD1    C1 3167   1.725   3.091   0.321 -0.3384  0.6867 -0.3832
  205MPD1    C2 3168   1.613   3.152   0.270  0.0173  0.2511 -0.4788
  205MPD1    C3 3169   1.584   3.284   0.278 -0.1358 -0.3851  0.0898
  205MPD1    C4 3170   1.679   3.360   0.342  0.0585 -0.2928  0.0303
  205MPD1    C5 3171   1.789   3.304   0.405 -0.3044  0.2665 -0.2158
  205MPD1     H 3172   1.534   3.104   0.214  1.4452  0.5139 -2.7389
  205MPD1    H1 3173   1.663   3.467   0.348  2.9204  0.0850  0.7305
  205MPD1    H2 3174   1.904   3.135   0.433  0.6203  2.4252  0.8828
  205MPD1    H3 3175   1.859   3.361   0.466 -0.7208  0.6840 -0.1308
  205MPD1     N 3176   1.474   3.330   0.215  0.0621 -0.0944 -0.1189
  205MPD1    H5 3177   1.405   3.258   0.191  0.8534 -0.2245 -2.0405
  205MPD1    N1 3178   1.729   2.953   0.332  0.7423 -0.1019  0.3330
  205MPD1    H6 3179   1.828   2.926   0.336  0.5624 -0.7697  0.3859
  205MPD1    H7 3180   1.693   2.900   0.253  2.1619  2.4532 -2.0278
  206MPD1     C 3181   0.843   2.232  16.785  0.1419  0.4617  0.1563
  206MPD1    C1 3182   0.892   2.110  16.754 -0.5312  0.3853  0.2810
  206MPD1    C2 3183   0.865   2.064  16.630  0.0380  0.2339  0.1486
  206MPD1    C3 3184   0.793   2.131  16.530 -0.3334 -0.5426 -0.0802
  206MPD1    C4 3185   0.745   2.250  16.563  0.0702  0.5805 -0.2671
  206MPD1    C5 3186   0.770   2.304  16.689  0.2028 -0.0562 -0.3502
  206MPD1     H 3187   0.903   1.964  16.612  0.7830  0.6178 -0.4179
  206MPD1    H1 3188   0.688   2.314  16.496 -1.6774 -1.6798 -0.9520
  206MPD1    H2 3189   0.868   2.287  16.875 -3.5329  0.0367  1.4256
  206MPD1    H3 3190   0.726   2.395  16.729 -1.8151 -1.9352  1.6808
  206MPD1     N 3191   0.752   2.077  16.404  0.2501 -0.4290  0.6467
  206MPD1    H5 3192   0.718   2.145  16.337 -0.7080  0.6951  2.2524
  206MPD1    N1 3193   0.987   2.048  16.838  0.0197 -0.2239 -0.1128
  206MPD1    H6 3194   0.973   2.081  16.933  1.3249  1.2734 -0.4260
  206MPD1    H7 3195   0.988   1.947  16.835 -0.1276 -0.2136 -0.5132
  207MPD1     C 3196   3.006   4.029   9.742 -0.1336  1.0000  0.5432
  207MPD1    C1 3197   2.968   3.917   9.811 -0.7802 -0.4631 -0.7900
  207MPD1    C2 3198   3.062   3.861   9.895  0.3919 -0.5091  0.1821
  207MPD1    C3 3199   3.172   3.936   9.929 -0.0921 -0.1672 -0.0176
  207MPD1    C4 3200   3.198   4.051   9.857 -0.4384 -0.1363 -0.3528
  207MPD1    C5 3201   3.122   4.096   9.767 -0.9536  0.4664 -0.2473
  207MPD1     H 3202   3.046   3.763   9.939  0.4682  0.3066  2.0198
  207MPD1    H1 3203   3.290   4.105   9.875 -1.4041  1.3486  0.1446
  207MPD1    H2 3204   2.936   4.065   9.668 -0.1592  1.9951  1.0588
  207MPD1    H3 3205   3.148   4.187   9.714 -0.2435 -0.3688 -1.3286
  207MPD1     N 3206   3.267   3.895  10.025 -0.0728  0.0608  0.8493
  207MPD1    H5 3207   3.356   3.942  10.023 -0.5761  1.0566  2.4007
  207MPD1    N1 3208   2.851   3.856   9.772  0.7979  0.2818 -0.1176
  207MPD1    H6 3209   2.781   3.928   9.752 -0.8897 -1.7251 -1.4858
  207MPD1    H7 3210   2.820   3.789   9.842 -0.1826  0.8846  0.0206
  208MPD1     C 3211   1.394   1.822  17.253 -0.2481  0.1812 -0.2332
  208MPD1    C1 3212   1.508   1.848  17.321  0.1515 -0.1992  0.3613
  208MPD1    C2 3213   1.545   1.983  17.321 -0.3098 -0.6770  0.2922
  208MPD1    C3 3214   1.471   2.085  17.269 -0.1495  0.0507  0.0737
  208MPD1    C4 3215   1.359   2.056  17.197  0.0313 -0.0628 -0.5694
  208MPD1    C5 3216   1.331   1.923  17.188 -0.7165 -0.6152  0.2134
  208MPD1     H 3217   1.632   2.020  17.374  0.0351 -0.7615 -0.2085
  208MPD1    H1 3218   1.304   2.127  17.136 -1.5749  0.1540  1.1400
  208MPD1    H2 3219   1.338   1.730  17.267 -1.6167  1.4187  2.4551
  208MPD1    H3 3220   1.250   1.895  17.121 -1.3121 -0.4269  0.8574
  208MPD1     N 3221   1.519   2.218  17.284  0.6701 -0.1764 -0.0099
  208MPD1    H5 3222   1.585   2.229  17.360 -0.7703 -0.4502  1.2653
  208MPD1    N1 3223   1.561   1.750  17.395 -0.4461  0.1374 -0.2487
  208MPD1    H6 3224   1.550   1.661  17.346 -0.7514  0.1409 -0.1817
  208MPD1    H7 3225   1.660   1.773  17.409 -0.3477 -1.1969  1.3211
  209MPD1     C 3226   3.399   2.609  11.523  0.1604 -0.2684  0.2720
  209MPD1    C1 3227   3.287   2.627  11.433 -0.4114  0.5058  0.2419
  209MPD1    C2 3228   3.274   2.759  11.388  0.3058 -0.1959 -0.2079
  209MPD1    C3 3229   3.371   2.854  11.413 -0.3839  0.7035  1.1466
  209MPD1    C4 3230   3.484   2.833  11.493 -0.6480  0.4114 -0.8102
  209MPD1    C5 3231   3.491   2.705  11.546  0.4820 -0.5368  0.4477
  209MPD1     H 3232   3.182   2.791  11.341  0.2400  1.0171  0.7449
  209MPD1    H1 3233   3.557   2.909  11.520 -1.1838  1.1488 -1.4305
  209MPD1    H2 3234   3.421   2.508  11.556  0.1130 -0.1119  0.7831
  209MPD1    H3 3235   3.565   2.689  11.624  0.8002 -2.1709 -0.1897
  209MPD1     N 3236   3.350   2.980  11.353 -0.0440 -0.1483  0.3260
  209MPD1    H5 3237   3.274   2.988  11.287  1.7182  0.3582 -1.6197
  209MPD1    N1 3238   3.187   2.526  11.410  0.6659  0.0084 -0.3689
  209MPD1    H6 3239   3.231   2.435  11.404  2.8907  1.1524 -1.3292
  209MPD1    H7 3240   3.140   2.550  11.323 -0.6000 -0.9940  0.0326
  210MPD1     C 3241   3.594   4.042  11.349  0.4019  0.0342 -0.3660
  210MPD1    C1 3242   3.586   3.956  11.454 -0.3209  0.2995  0.3599
  210MPD1    C2 3243   3.548   3.822  11.422 -0.4808 -1.2050 -0.5799
  210MPD1    C3 3244   3.516   3.786  11.288  0.0408  0.0468 -0.0766
  210MPD1    C4 3245   3.516   3.885  11.187 -0.6060 -0.4802 -0.2375
  210MPD1    C5 3246   3.553   4.010  11.218 -0.2213  0.4520 -0.8170
  210MPD1     H 3247   3.561   3.749  11.501  0.3684  0.3511  0.7341
  210MPD1    H1 3248   3.493   3.855  11.085 -3.9515 -1.3386  0.7976
  210MPD1    H2 3249   3.625   4.144  11.368  0.3670 -0.2126  1.0537
  210MPD1    H3 3250   3.568   4.084  11.140 -0.4917 -0.0499 -1.3469
  210MPD1     N 3251   3.459   3.660  11.253  0.5758  0.1163  0.2712
  210MPD1    H5 3252   3.432   3.649  11.156  1.0925  0.2350  0.1110
  210MPD1    N1 3253   3.646   3.986  11.580  0.0058 -0.7918 -0.0222
  210MPD1    H6 3254   3.601   3.928  11.651 -0.9829  0.0481  0.0463
  210MPD1    H7 3255   3.628   4.083  11.604 -0.0715 -0.4943 -1.2712
  211MPD1     C 3256   1.577   3.186  15.955  0.3911 -0.1581 -0.0336
  211MPD1    C1 3257   1.652   3.282  16.026  0.7766 -0.8843  0.0459
  211MPD1    C2 3258   1.586   3.403  16.063  0.6399 -0.3939  0.1109
  211MPD1    C3 3259   1.456   3.433  16.021 -0.4089  0.1039  0.1310
  211MPD1    C4 3260   1.392   3.343  15.940 -0.4042 -0.3947  0.2961
  211MPD1    C5 3261   1.444   3.215  15.916 -0.0221  0.1885  0.2509
  211MPD1     H 3262   1.636   3.480  16.120 -1.8369  1.6036 -0.4047
  211MPD1    H1 3263   1.300   3.370  15.890 -0.3124  0.6598  0.6914
  211MPD1    H2 3264   1.626   3.095  15.923 -0.3867 -1.1808  1.7099
  211MPD1    H3 3265   1.393   3.152  15.844  1.2915  1.6730 -1.9538
  211MPD1     N 3266   1.396   3.557  16.060 -0.1969 -0.2259 -0.1744
  211MPD1    H5 3267   1.455   3.627  16.105  1.0578 -1.5240  0.2047
  211MPD1    N1 3268   1.776   3.254  16.094  0.3614 -0.0450 -0.3101
  211MPD1    H6 3269   1.837   3.190  16.044 -1.4301 -2.7796  0.9883
  211MPD1    H7 3270   1.833   3.333  16.124  2.3332 -2.0230  1.1844
  212MPD1     C 3271   0.618   1.831  16.693  0.0164  0.2834  0.7000
  212MPD1    C1 3272   0.500   1.865  16.761  0.0713 -0.0018 -0.1167
  212MPD1    C2 3273   0.462   1.781  16.866 -0.0678  0.1508  0.3149
  212MPD1    C3 3274   0.526   1.657  16.888 -0.0970  0.6939  0.6834
  212MPD1    C4 3275   0.634   1.619  16.806 -0.3360 -0.5775 -0.1320
  212MPD1    C5 3276   0.683   1.709  16.716  0.1578  0.3636 -0.5109
  212MPD1     H 3277   0.379   1.815  16.927 -0.1775 -0.9381  0.7688
  212MPD1    H1 3278   0.687   1.524  16.810  2.1278  0.8317  0.7144
  212MPD1    H2 3279   0.660   1.905  16.626 -1.8673  0.0201 -0.7718
  212MPD1    H3 3280   0.778   1.685  16.671 -0.2871 -0.9401 -0.7668
  212MPD1     N 3281   0.499   1.565  16.991 -0.6902 -0.3798  0.6236
  212MPD1    H5 3282   0.539   1.472  16.980  2.3197  0.8592  0.9917
  212MPD1    N1 3283   0.438   1.990  16.736 -0.1192 -0.3028  0.0733
  212MPD1    H6 3284   0.463   2.038  16.649 -0.3776  0.2637  0.3129
  212MPD1    H7 3285   0.337   1.981  16.744  0.1665 -3.4041  0.2644
  213MPD1     C 3286   3.148   2.134  16.212  0.1824  0.0079  0.1563
  213MPD1    C1 3287   3.127   2.024  16.138  0.5093  0.1321  0.7288
  213MPD1    C2 3288   3.110   2.052  15.999 -0.0538 -0.6954  0.6348
  213MPD1    C3 3289   3.093   2.173  15.948  0.1706  1.1233 -0.6668
  213MPD1    C4 3290   3.100   2.282  16.027  0.2945  0.2769 -0.2732
  213MPD1    C5 3291   3.143   2.261  16.159 -0.2214  0.3507  0.6679
  213MPD1     H 3292   3.114   1.966  15.933 -0.5252 -1.8133  2.0719
  213MPD1    H1 3293   3.084   2.385  15.997 -2.1982 -0.0656 -0.0831
  213MPD1    H2 3294   3.188   2.117  16.311  1.7550 -0.6684 -0.5978
  213MPD1    H3 3295   3.175   2.341  16.225  2.9626 -0.4171  0.0464
  213MPD1     N 3296   3.073   2.183  15.807 -0.0581 -0.4376  0.2436
  213MPD1    H5 3297   3.056   2.099  15.751  1.8478 -0.7274  0.1070
  213MPD1    N1 3298   3.190   1.903  16.168 -0.3998 -1.4437 -0.1583
  213MPD1    H6 3299   3.170   1.820  16.113 -1.1419 -0.7785 -0.8846
  213MPD1    H7 3300   3.190   1.878  16.267  0.3780  0.0405  0.2104
  214MPD1     C 3301   2.452   1.798  15.121  0.3882  0.5048 -0.6953
  214MPD1    C1 3302   2.447   1.820  15.255 -0.0278 -0.6272  0.6700
  214MPD1    C2 3303   2.533   1.915  15.312  0.7879  0.7110  0.4605
  214MPD1    C3 3304   2.645   1.955  15.238  0.0443  0.1479 -0.3109
  214MPD1    C4 3305   2.653   1.929  15.106  0.4571  0.5488 -0.3550
  214MPD1    C5 3306   2.550   1.857  15.048  0.1297  0.2937 -0.2881
  214MPD1     H 3307   2.527   1.955  15.413  2.0021  0.4846  0.6242
  214MPD1    H1 3308   2.733   1.957  15.038  1.5239 -2.4399 -0.3456
  214MPD1    H2 3309   2.380   1.730  15.078 -0.4005 -0.5204  2.2046
  214MPD1    H3 3310   2.567   1.825  14.945  0.2339 -0.2598 -0.1012
  214MPD1     N 3311   2.746   2.031  15.303  0.0190  0.2652 -0.5539
  214MPD1    H5 3312   2.824   2.058  15.243 -0.5661  0.9061 -1.0191
  214MPD1    N1 3313   2.342   1.766  15.330 -0.0176  0.2137  0.2625
  214MPD1    H6 3314   2.356   1.760  15.430  2.5085 -1.2093 -0.1810
  214MPD1    H7 3315   2.298   1.681  15.294  1.1382 -0.3179  0.1033
  215MPD1     C 3316   2.990   3.281  11.080 -0.4151  0.6022 -0.4514
  215MPD1    C1 3317   2.994   3.277  11.220 -0.2369 -0.9433  0.1906
  215MPD1    C2 3318   3.027   3.402  11.287  0.4708  0.0700 -0.3040
  215MPD1    C3 3319   3.052   3.522  11.221 -0.2485 -0.4386  0.4298
  215MPD1    C4 3320   3.045   3.516  11.083  0.4247  0.6576 -0.7109
  215MPD1    C5 3321   3.016   3.403  11.017 -0.0328  0.2607  1.0134
  215MPD1     H 3322   3.022   3.411  11.394 -0.0759 -1.0835 -0.2331
  215MPD1    H1 3323   3.063   3.595  11.012  0.0624  0.8756 -0.5584
  215MPD1    H2 3324   2.972   3.187  11.030  0.8985 -0.5950  1.3013
  215MPD1    H3 3325   3.009   3.404  10.908  0.5822  0.2383  0.9769
  215MPD1     N 3326   3.088   3.637  11.300 -0.3373  0.0332  0.4296
  215MPD1    H5 3327   3.094   3.620  11.400 -0.1089 -0.9081  0.2605
  215MPD1    N1 3328   2.960   3.153  11.282  0.0999  0.3307 -0.4125
  215MPD1    H6 3329   2.968   3.157  11.384 -0.6995 -1.6885 -0.2584
  215MPD1    H7 3330   2.863   3.132  11.261  0.0941  1.1124 -1.1214
  216MPD1     C 3331   0.374   2.057   0.387  0.0397 -0.2740 -0.4117
  216MPD1    C1 3332   0.343   1.994   0.271  0.3442 -0.2960 -0.4433
  216MPD1    C2 3333   0.319   1.860   0.274 -0.7970  0.4158 -0.4134
  216MPD1    C3 3334   0.339   1.789   0.391  0.6282 -0.0823  0.2601
  216MPD1    C4 3335   0.389   1.852   0.502  0.9018  0.7876  0.5191
  216MPD1    C5 3336   0.391   1.987   0.498  0.6472  0.0894 -0.4171
  216MPD1     H 3337   0.268   1.826   0.185 -0.0281 -0.5533 -0.4786
  216MPD1    H1 3338   0.406   1.798   0.594  0.6039 -0.0080  0.1095
  216MPD1    H2 3339   0.398   2.162   0.386 -1.4271  0.0602 -1.2406
  216MPD1    H3 3340   0.420   2.039   0.589  0.4733  0.6240 -0.6640
  216MPD1     N 3341   0.312   1.653   0.380 -0.5253  0.1670 -0.5696
  216MPD1    H5 3342   0.288   1.618   0.288 -2.4264  0.5625 -0.2148
  216MPD1    N1 3343   0.330   2.064   0.152 -0.4216  1.0339 -0.7092
  216MPD1    H6 3344   0.367   2.159   0.143  1.0551  0.4641 -0.7171
  216MPD1    H7 3345   0.365   2.016   0.070  1.1882  2.9769 -1.1625
  217MPD1     C 3346   1.787   3.421   8.388  0.3991 -0.3637 -1.0377
  217MPD1    C1 3347   1.904   3.459   8.447 -0.2869 -0.2829 -0.1351
  217MPD1    C2 3348   1.924   3.431   8.584 -0.0255 -0.0462  0.1168
  217MPD1    C3 3349   1.824   3.372   8.664  0.0120 -0.6909  0.5203
  217MPD1    C4 3350   1.710   3.334   8.601  1.1211 -0.7147  0.4585
  217MPD1    C5 3351   1.693   3.353   8.464  1.0052  0.7747  0.3914
  217MPD1     H 3352   2.020   3.456   8.629 -0.4094  1.1042  0.2781
  217MPD1    H1 3353   1.626   3.301   8.661  1.4892  2.0315  2.4615
  217MPD1    H2 3354   1.785   3.413   8.279 -1.1636 -1.4902 -0.9258
  217MPD1    H3 3355   1.605   3.304   8.425  0.8430  0.5475  1.0473
  217MPD1     N 3356   1.843   3.349   8.803  0.8931  0.4355  0.3250
  217MPD1    H5 3357   1.759   3.309   8.843  1.1872 -0.6318 -0.1238
  217MPD1    N1 3358   2.012   3.513   8.368 -0.0134 -0.3041 -0.1021
  217MPD1    H6 3359   2.081   3.569   8.418 -3.2097  0.6985  3.1508
  217MPD1    H7 3360   1.976   3.568   8.290  0.0995 -2.1763 -1.4724
  218MPD1     C 3361   2.708   3.992  13.433 -0.2741  0.0589 -0.5637
  218MPD1    C1 3362   2.765   4.069  13.331  0.0449 -0.0622  0.0454
  218MPD1    C2 3363   2.845   4.003  13.243  0.4957  0.6025  1.0124
  218MPD1    C3 3364   2.885   3.869  13.257 -0.1339 -0.8965  0.1821
  218MPD1    C4 3365   2.845   3.798  13.365  0.0240 -0.4431 -0.3563
  218MPD1    C5 3366   2.750   3.861  13.447 -0.4094 -0.0353 -0.4721
  218MPD1     H 3367   2.878   4.064  13.160  3.0984 -1.4500  0.5323
  218MPD1    H1 3368   2.871   3.696  13.393  1.2628 -0.2174 -0.6995
  218MPD1    H2 3369   2.631   4.031  13.499  0.5057  1.2763 -0.3647
  218MPD1    H3 3370   2.688   3.802  13.513  0.2738  0.0196  0.2237
  218MPD1     N 3371   2.981   3.823  13.167  0.1450  0.2940 -0.1094
  218MPD1    H5 3372   2.997   3.881  13.085  1.2729 -1.5711 -1.1921
  218MPD1    N1 3373   2.732   4.201  13.308  0.3609  0.5845  0.8485
  218MPD1    H6 3374   2.807   4.261  13.277 -1.2416  1.6346 -1.0174
  218MPD1    H7 3375   2.689   4.249  13.386  1.2697  0.7095  1.2695
  219MPD1     C 3376   3.378   3.972  12.289 -0.4473  0.0415  0.5081
  219MPD1    C1 3377   3.386   4.034  12.413  0.4627  0.4121 -0.7278
  219MPD1    C2 3378   3.357   3.963  12.529  0.0939 -0.1824 -0.2502
  219MPD1    C3 3379   3.301   3.840  12.517  0.4494  0.0551  0.0534
  219MPD1    C4 3380   3.278   3.781  12.393  0.2781  0.0789  0.2523
  219MPD1    C5 3381   3.316   3.846  12.281  0.7707  1.0056  0.0990
  219MPD1     H 3382   3.389   4.006  12.623  0.9154 -0.8876 -0.2127
  219MPD1    H1 3383   3.231   3.684  12.383 -0.6628  0.3892  1.6410
  219MPD1    H2 3384   3.403   4.016  12.193 -0.9051  0.0996  0.4160
  219MPD1    H3 3385   3.294   3.806  12.182  0.1546  0.9025  0.2746
  219MPD1     N 3386   3.263   3.760  12.630 -0.0840  0.3633 -0.2477
  219MPD1    H5 3387   3.248   3.660  12.621  1.0536  0.4151 -2.5368
  219MPD1    N1 3388   3.465   4.145  12.425  0.3006  0.0043 -0.0925
  219MPD1    H6 3389   3.460   4.193  12.335 -0.0269  1.6860  0.8298
  219MPD1    H7 3390   3.436   4.206  12.501  3.4351  2.7281 -1.0851
  220MPD1     C 3391   2.801   0.193  10.028 -0.0008  0.1023 -0.0089
  220MPD1    C1 3392   2.723   0.093  10.080 -0.5447 -0.5705 -0.6472
  220MPD1    C2 3393   2.789   0.013  10.178  0.4368 -0.3539 -0.2457
  220MPD1    C3 3394   2.921   0.030  10.211 -0.7796 -0.3503 -0.5857
  220MPD1    C4 3395   2.994   0.137  10.164 -0.3767  0.4179 -0.2170
  220MPD1    C5 3396   2.938   0.209  10.064  0.2973  0.0799 -0.6892
  220MPD1     H 3397   2.731   4.663  10.209 -2.0446  1.5505  0.4885
  220MPD1    H1 3398   3.097   0.156  10.194 -0.5913 -2.0536  2.0346
  220MPD1    H2 3399   2.754   0.255   9.952  2.0387  0.6704 -0.8202
  220MPD1    H3 3400   2.985   0.294  10.016  3.2202 -0.7774  0.6521
  220MPD1     N 3401   2.972   4.676  10.307 -0.1270  0.2868 -1.2043
  220MPD1    H5 3402   2.906   4.608  10.343  0.4138 -0.4076 -1.5249
  220MPD1    N1 3403   2.578   0.092  10.059  0.0853  0.1597 -0.0809
  220MPD1    H6 3404   2.526   0.004  10.066  0.5048  0.0959  2.5293
  220MPD1    H7 3405   2.550   0.137   9.972  2.9184  0.3895 -0.8750
  221MPD1     C 3406   1.292   2.837  16.786  0.0767 -1.0196  0.2019
  221MPD1    C1 3407   1.415   2.784  16.762  0.1078  0.1329  0.1575
  221MPD1    C2 3408   1.452   2.751  16.637 -0.1136  0.3487 -0.3746
  221MPD1    C3 3409   1.362   2.755  16.530  0.1030  0.0834 -0.6005
  221MPD1    C4 3410   1.239   2.819  16.553 -0.0332 -0.2565  0.3146
  221MPD1    C5 3411   1.201   2.845  16.680  0.5515  0.1023  0.0114
  221MPD1     H 3412   1.556   2.729  16.616  0.3140  0.5553  1.5481
  221MPD1    H1 3413   1.168   2.824  16.471 -1.3110 -0.4664  1.4045
  221MPD1    H2 3414   1.267   2.880  16.882  0.8930  0.4195 -0.2248
  221MPD1    H3 3415   1.100   2.881  16.694 -0.0922 -1.6211 -0.2523
  221MPD1     N 3416   1.399   2.710  16.397 -0.6788 -0.3311  0.3799
  221MPD1    H5 3417   1.328   2.716  16.324 -0.0264  0.8283 -0.1713
  221MPD1    N1 3418   1.515   2.799  16.863  0.2742  0.3577  0.2849
  221MPD1    H6 3419   1.471   2.802  16.954 -0.5222  1.5281 -0.1393
  221MPD1    H7 3420   1.582   2.722  16.862  0.9627  0.9411  1.8259
  222MPD1     C 3421   4.560   1.239   0.270 -0.2700  0.3190 -0.0172
  222MPD1    C1 3422   4.601   1.329   0.170 -0.1337 -0.1797  1.0823
  222MPD1    C2 3423   4.642   1.457   0.218 -0.6319 -0.5058  0.3941
  222MPD1    C3 3424   4.641   1.492   0.354  0.3836  0.0658 -0.2971
  222MPD1    C4 3425   4.605   1.395   0.444  0.5758 -0.0778 -0.0096
  222MPD1    C5 3426   4.565   1.275   0.402  0.3342  0.4645  0.4577
  222MPD1     H 3427   4.663   1.535   0.146  0.4453 -1.9100 -0.8045
  222MPD1    H1 3428   4.625   1.411   0.549  0.3311  1.1389 -0.1413
  222MPD1    H2 3429   4.531   1.137   0.247 -0.6194  0.6154 -0.9141
  222MPD1    H3 3430   4.548   1.194   0.472  1.2106 -0.3957 -0.3422
  222MPD1     N 3431   4.682   1.616   0.406 -0.3785  0.2534  0.5314
  222MPD1    H5 3432   4.700   1.622   0.505 -3.8263 -2.8478  1.3519
  222MPD1    N1 3433   4.607   1.304   0.032 -0.1714 -0.5640  0.6820
  222MPD1    H6 3434   4.616   1.205   0.013 -2.3187 -0.4079 -1.0982
  222MPD1    H7 3435   4.694   1.340  17.738  0.4571 -0.0128  2.5665
  223MPD1     C 3436   0.560   1.933   1.005  0.0275 -0.3915 -0.1028
  223MPD1    C1 3437   0.516   2.059   0.974 -0.2172  0.4657  0.8583
  223MPD1    C2 3438   0.399   2.071   0.905  0.9043  0.2485 -0.0797
  223MPD1    C3 3439   0.323   1.959   0.873 -0.7141  0.6162 -0.2066
  223MPD1    C4 3440   0.370   1.836   0.902  0.2698 -0.4564 -0.8111
  223MPD1    C5 3441   0.484   1.822   0.966 -0.7587 -0.5036  0.1225
  223MPD1     H 3442   0.371   2.166   0.861  0.6100  0.1305 -0.1496
  223MPD1    H1 3443   0.321   1.745   0.868 -1.5309 -0.2911  1.3119
  223MPD1    H2 3444   0.655   1.899   1.044  0.4195 -0.8341 -1.4184
  223MPD1    H3 3445   0.528   1.725   0.987  0.3622  0.1204  0.6516
  223MPD1     N 3446   0.208   1.983   0.793  0.0103  0.2946  0.2151
  223MPD1    H5 3447   0.188   2.079   0.767 -0.8390  0.0711  0.0265
  223MPD1    N1 3448   0.600   2.174   0.974  0.2013  0.1236 -0.4460
  223MPD1    H6 3449   0.558   2.267   0.978 -0.6088 -0.1087 -3.4959
  223MPD1    H7 3450   0.692   2.175   1.018  0.8506  0.2504 -1.7858
  224MPD1     C 3451   2.215   4.303   9.691 -0.5696 -0.1890 -0.1356
  224MPD1    C1 3452   2.086   4.323   9.727 -0.3445  0.2821 -0.2341
  224MPD1    C2 3453   2.014   4.230   9.796  0.3768  1.7422 -0.4360
  224MPD1    C3 3454   2.059   4.103   9.803  0.2787  0.1023 -0.4350
  224MPD1    C4 3455   2.192   4.074   9.758 -0.1657 -0.3746 -0.3331
  224MPD1    C5 3456   2.268   4.179   9.700 -0.3137  0.2677  0.2901
  224MPD1     H 3457   1.912   4.253   9.826  1.0167  0.8384  2.3695
  224MPD1    H1 3458   2.242   3.978   9.753 -1.1727 -0.8178 -1.9726
  224MPD1    H2 3459   2.275   4.369   9.629  1.4905  0.0148  2.0703
  224MPD1    H3 3460   2.365   4.151   9.659  0.0747 -0.0817  1.4244
  224MPD1     N 3461   1.988   4.003   9.869  0.3319 -0.1486  0.1547
  224MPD1    H5 3462   2.027   3.910   9.875 -0.1758 -0.1752  3.0406
  224MPD1    N1 3463   2.026   4.447   9.685  0.6949  0.1335 -0.3195
  224MPD1    H6 3464   2.092   4.524   9.690 -0.1746  0.8272  0.5886
  224MPD1    H7 3465   1.952   4.470   9.751  0.5934 -1.9425  0.2877
  225MPD1     C 3466   2.914   0.541  12.495 -0.7643 -0.3006  0.2168
  225MPD1    C1 3467   2.874   0.418  12.525  0.8453 -1.6915  0.6641
  225MPD1    C2 3468   2.791   0.348  12.437 -0.6429  0.3528  0.1494
  225MPD1    C3 3469   2.767   0.395  12.309 -0.2592 -0.0456 -0.2105
  225MPD1    C4 3470   2.808   0.520  12.277  0.8690 -0.1202 -0.5054
  225MPD1    C5 3471   2.887   0.593  12.368 -0.7281 -0.1548 -0.2873
  225MPD1     H 3472   2.760   0.247  12.459  1.1217  0.5123  3.3431
  225MPD1    H1 3473   2.782   0.569  12.184  0.5204  0.2741 -0.2020
  225MPD1    H2 3474   2.979   0.593  12.564  2.7438 -0.5654 -2.8722
  225MPD1    H3 3475   2.929   0.688  12.338 -1.8095  0.4449  0.0970
  225MPD1     N 3476   2.685   0.322  12.215 -0.0719 -0.1539  0.2858
  225MPD1    H5 3477   2.687   0.363  12.122 -2.9896  0.6101  0.5702
  225MPD1    N1 3478   2.882   0.370  12.658 -0.2157 -0.5608 -0.4332
  225MPD1    H6 3479   2.888   0.268  12.660  2.5863 -0.3067  3.2350
  225MPD1    H7 3480   2.974   0.399  12.691 -0.7400  1.2811 -0.6054
  226MPD1     C 3481   2.255   0.745   9.364  0.2205 -0.0997  1.3279
  226MPD1    C1 3482   2.265   0.783   9.493 -0.2643 -0.5908  0.5777
  226MPD1    C2 3483   2.201   0.698   9.585  0.1585  0.0956  0.2859
  226MPD1    C3 3484   2.141   0.580   9.546  0.0540  0.1377 -0.5621
  226MPD1    C4 3485   2.148   0.538   9.414 -0.2335  0.1748 -0.0573
  226MPD1    C5 3486   2.207   0.621   9.323 -0.5368 -0.1669  0.5434
  226MPD1     H 3487   2.208   0.721   9.691 -2.2119  0.7614  0.2903
  226MPD1    H1 3488   2.084   0.465   9.366  0.2617 -0.5864  0.4444
  226MPD1    H2 3489   2.302   0.806   9.288  0.3409 -1.5823  0.2157
  226MPD1    H3 3490   2.208   0.591   9.219 -0.2330  2.0789 -0.1138
  226MPD1     N 3491   2.066   0.505   9.640 -0.4218  0.4216 -0.1087
  226MPD1    H5 3492   2.069   0.537   9.736 -2.2424 -1.9422  0.7275
  226MPD1    N1 3493   2.353   0.884   9.530  0.0527  0.7184 -0.0310
  226MPD1    H6 3494   2.367   0.962   9.467 -0.3622 -0.4017 -1.5152
  226MPD1    H7 3495   2.322   0.928   9.617  1.2058 -1.8072  1.6571
  227MPD1     C 3496   1.678   0.777  10.452 -0.6418  0.6526  0.0307
  227MPD1    C1 3497   1.626   0.654  10.462 -0.0144  1.0526 -0.4456
  227MPD1    C2 3498   1.635   0.569  10.355 -0.2765  0.8543 -0.2622
  227MPD1    C3 3499   1.688   0.613  10.240 -0.0096  0.6939  0.8376
  227MPD1    C4 3500   1.727   0.751  10.234  0.5279  0.1409 -0.1517
  227MPD1    C5 3501   1.719   0.834  10.336  0.6326  0.9941 -0.4083
  227MPD1     H 3502   1.593   0.469  10.361  0.8601  0.4293  0.6483
  227MPD1    H1 3503   1.772   0.795  10.146  0.7141 -0.1272 -0.1899
  227MPD1    H2 3504   1.673   0.837  10.542 -0.8331  2.6911 -1.3435
  227MPD1    H3 3505   1.738   0.941  10.329  2.5387  0.5905 -1.5221
  227MPD1     N 3506   1.695   0.527  10.128  0.6514  1.2774  0.5556
  227MPD1    H5 3507   1.646   0.439  10.140 -0.0317  1.4202 -1.2094
  227MPD1    N1 3508   1.583   0.605  10.583 -1.2666  0.6927  0.4708
  227MPD1    H6 3509   1.534   0.674  10.640 -0.6350 -0.2746  2.1731
  227MPD1    H7 3510   1.531   0.519  10.572 -1.1545  0.5041  1.3776
  228MPD1     C 3511   4.629   1.910  12.664 -0.2406 -0.1097  0.7056
  228MPD1    C1 3512   4.524   1.954  12.585  0.1796 -0.7801  0.4871
  228MPD1    C2 3513   4.406   1.987  12.651 -0.3616  0.7045 -0.6424
  228MPD1    C3 3514   4.393   1.974  12.787 -0.6026  0.1080 -0.0450
  228MPD1    C4 3515   4.501   1.936  12.864 -0.1630 -0.9199  0.3368
  228MPD1    C5 3516   4.615   1.904  12.799  0.5091  0.1300  0.2536
  228MPD1     H 3517   4.316   2.016  12.596 -0.0769 -0.2210 -1.5886
  228MPD1    H1 3518   4.501   1.918  12.971  1.1486  1.3871  0.7217
  228MPD1    H2 3519   4.724   1.887  12.619 -0.1243 -2.0487  1.9504
  228MPD1    H3 3520   4.701   1.863  12.850 -0.5116 -2.2167  0.0478
  228MPD1     N 3521   4.271   2.008  12.842 -0.1830  0.9553 -0.5524
  228MPD1    H5 3522   4.198   2.028  12.774  0.3851  1.3574 -1.0391
  228MPD1    N1 3523   4.543   1.979  12.448  0.5164 -0.3851 -0.3041
  228MPD1    H6 3524   4.605   1.917  12.397 -0.3989 -2.4806  1.1032
  228MPD1    H7 3525   4.457   1.991  12.395 -0.4943  1.0687  1.6371
  229MPD1     C 3526   4.071   4.552  15.276  0.0798  0.5178  0.3811
  229MPD1    C1 3527   4.000   4.660  15.230 -0.0791  0.7795  0.4819
  229MPD1    C2 3528   4.063   0.044  15.221 -0.3972 -0.0346 -0.2365
  229MPD1    C3 3529   4.192   0.063  15.250 -0.3079 -0.5976 -0.7907
  229MPD1    C4 3530   4.260   4.693  15.293 -0.7034  0.8643  0.6658
  229MPD1    C5 3531   4.198   4.570  15.317 -0.9404  0.3173 -0.7250
  229MPD1     H 3532   4.000   0.126  15.191  0.0768 -0.1193 -1.4807
  229MPD1    H1 3533   4.363   4.698  15.326 -0.8494  1.6595  1.0133
  229MPD1    H2 3534   4.035   4.451  15.291 -0.9386  0.6998 -0.8230
  229MPD1    H3 3535   4.254   4.481  15.344 -2.0052  0.3594  1.6026
  229MPD1     N 3536   4.251   0.191  15.255  0.3347 -0.5768  0.1077
  229MPD1    H5 3537   4.351   0.196  15.267  0.1724  1.0676  0.7504
  229MPD1    N1 3538   3.865   4.655  15.211  0.4774 -0.0603  0.1426
  229MPD1    H6 3539   3.835   4.558  15.222 -0.2485  0.4008  2.3445
  229MPD1    H7 3540   3.819   4.711  15.140 -2.0599  0.4922  2.2014
  230MPD1     C 3541   4.386   0.866  15.960  0.4315 -0.2561 -1.1226
  230MPD1    C1 3542   4.482   0.774  15.929  0.3338  0.3899 -0.8623
  230MPD1    C2 3543   4.486   0.711  15.806 -0.2286 -0.1440 -0.6974
  230MPD1    C3 3544   4.399   0.753  15.706 -0.0868  0.0126 -0.5893
  230MPD1    C4 3545   4.316   0.864  15.737 -0.2687  0.4939 -0.1937
  230MPD1    C5 3546   4.311   0.915  15.861 -0.1752 -1.2081 -0.5015
  230MPD1     H 3547   4.541   0.621  15.786 -0.3924 -0.1155 -1.2904
  230MPD1    H1 3548   4.243   0.910  15.671  0.8017  2.5528  0.0502
  230MPD1    H2 3549   4.375   0.915  16.056 -1.6503  0.7826 -1.8924
  230MPD1    H3 3550   4.242   0.994  15.890  0.0399 -1.0524 -0.4123
  230MPD1     N 3551   4.405   0.687  15.583  0.1515 -0.9530  0.5470
  230MPD1    H5 3552   4.473   0.614  15.563  2.6266  0.7350  2.9589
  230MPD1    N1 3553   4.563   0.727  16.034 -0.1691 -0.2171 -1.1196
  230MPD1    H6 3554   4.654   0.702  15.995  0.2692  0.8983 -0.7927
  230MPD1    H7 3555   4.580   0.803  16.099 -0.9700 -0.5691 -0.4937
  231MPD1     C 3556   2.442   2.232  15.354  0.0634 -0.0799 -0.8898
  231MPD1    C1 3557   2.450   2.232  15.218 -0.5786  0.1402  0.6423
  231MPD1    C2 3558   2.511   2.330  15.149  0.0155  0.1318 -0.7778
  231MPD1    C3 3559   2.584   2.423  15.212  0.8338 -0.6503  0.2097
  231MPD1    C4 3560   2.588   2.422  15.347 -0.7288 -0.0041 -0.5724
  231MPD1    C5 3561   2.517   2.327  15.417 -0.6180 -0.5310  0.1385
  231MPD1     H 3562   2.510   2.333  15.040 -0.1805  1.1440 -0.7472
  231MPD1    H1 3563   2.646   2.492  15.405 -0.0696  0.7463 -2.1400
  231MPD1    H2 3564   2.387   2.162  15.415 -2.0104  1.9321 -0.4472
  231MPD1    H3 3565   2.522   2.333  15.525 -0.1400  0.5882  0.0521
  231MPD1     N 3566   2.637   2.524  15.129 -0.1289  0.0761  0.3305
  231MPD1    H5 3567   2.617   2.511  15.030 -3.6335  0.0935  1.0565
  231MPD1    N1 3568   2.375   2.138  15.151 -0.3323 -0.4904  0.2239
  231MPD1    H6 3569   2.350   2.059  15.211 -0.4696 -0.6347 -0.0228
  231MPD1    H7 3570   2.423   2.099  15.071 -0.8495 -2.4360  0.8461
  232MPD1     C 3571   4.468   0.376   0.401  0.4397 -0.9803 -0.1558
  232MPD1    C1 3572   4.456   0.259   0.336  0.4489 -0.1588 -0.0348
  232MPD1    C2 3573   4.361   0.252   0.243 -0.0041 -0.6166  0.1816
  232MPD1    C3 3574   4.260   0.345   0.235  0.3330 -0.4602 -0.9539
  232MPD1    C4 3575   4.256   0.447   0.321 -0.3777 -0.7221  0.5594
  232MPD1    C5 3576   4.365   0.465   0.401  0.5152  0.0055  0.1080
  232MPD1     H 3577   4.374   0.177   0.165 -1.7677 -0.5521 -0.1790
  232MPD1    H1 3578   4.176   0.520   0.327  0.6957  0.4404  0.5811
  232MPD1    H2 3579   4.557   0.401   0.458 -0.6093  0.9159  0.6363
  232MPD1    H3 3580   4.373   0.553   0.465  2.8079 -0.7483  0.8441
  232MPD1     N 3581   4.149   0.329   0.145 -0.0816  0.4551 -0.1920
  232MPD1    H5 3582   4.143   0.235   0.109  2.2206  1.2276 -2.5649
  232MPD1    N1 3583   4.568   0.175   0.332  0.1644  0.4796  0.4308
  232MPD1    H6 3584   4.555   0.081   0.296  0.3516  0.7743 -0.4185
  232MPD1    H7 3585   4.609   0.180   0.425  0.0691  0.7371  0.4603
  233MPD1     C 3586   0.502   2.898   1.544 -1.0500 -0.6592 -1.0982
  233MPD1    C1 3587   0.550   2.960   1.436  0.1399  0.3804  0.9968
  233MPD1    C2 3588   0.682   2.936   1.394  0.9560  0.3747  0.0389
  233MPD1    C3 3589   0.751   2.839   1.471  0.0594 -0.3574 -0.6693
  233MPD1    C4 3590   0.694   2.765   1.572 -0.6803  0.4674  0.1823
  233MPD1    C5 3591   0.565   2.804   1.608  0.4102 -0.8516  0.0625
  233MPD1     H 3592   0.723   2.992   1.311  0.2468  2.0649  0.8339
  233MPD1    H1 3593   0.745   2.689   1.630 -0.1149  1.0624  0.4715
  233MPD1    H2 3594   0.410   2.924   1.595 -0.9905 -1.2962 -0.6676
  233MPD1    H3 3595   0.517   2.755   1.692  0.7829 -0.5886  0.4302
  233MPD1     N 3596   0.891   2.814   1.455 -0.0540 -0.5039  0.6774
  233MPD1    H5 3597   0.931   2.729   1.494  0.1301 -0.6255  0.2214
  233MPD1    N1 3598   0.474   3.058   1.371 -0.1420 -0.2317  0.1960
  233MPD1    H6 3599   0.377   3.029   1.366 -0.2977  0.9361 -3.5537
  233MPD1    H7 3600   0.514   3.063   1.278 -1.1838 -1.4326 -0.3114
  234MPD1     C 3601   3.316   2.899   9.882 -0.0492  0.3148  0.1362
  234MPD1    C1 3602   3.282   3.014   9.816 -0.5540  0.9070 -0.2167
  234MPD1    C2 3603   3.156   3.059   9.833  0.6708 -0.2356 -0.6701
  234MPD1    C3 3604   3.066   2.985   9.906 -0.3982  0.0884 -0.0540
  234MPD1    C4 3605   3.100   2.863   9.958 -0.0429  0.2164  0.8041
  234MPD1    C5 3606   3.227   2.821   9.947  0.8807  0.4802  0.9602
  234MPD1     H 3607   3.123   3.135   9.764  1.2946  0.3550 -0.3161
  234MPD1    H1 3608   3.032   2.801  10.017  0.2255 -0.4641  0.4005
  234MPD1    H2 3609   3.412   2.850   9.877 -1.0962 -1.4974 -2.8587
  234MPD1    H3 3610   3.257   2.731  10.000  1.5674 -0.4309 -0.9722
  234MPD1     N 3611   2.931   3.033   9.922  0.2369 -0.2827  0.3190
  234MPD1    H5 3612   2.914   3.124   9.880  0.3256 -0.0957  0.6862
  234MPD1    N1 3613   3.365   3.061   9.711  1.0036 -0.1161  0.3079
  234MPD1    H6 3614   3.461   3.029   9.720 -0.2043 -3.3461  1.6727
  234MPD1    H7 3615   3.347   3.158   9.684  0.3037 -0.5460 -0.7569
  235MPD1     C 3616   3.797   4.523  10.671  0.3998  0.0068  0.0773
  235MPD1    C1 3617   3.772   4.659  10.683 -0.3227  0.6285 -0.0804
  235MPD1    C2 3618   3.883   0.008  10.659  0.2814  0.7350 -0.1005
  235MPD1    C3 3619   4.002   4.699  10.603 -0.4757 -0.1108 -0.5685
  235MPD1    C4 3620   4.025   4.566  10.597 -0.8592  0.0100 -0.5816
  235MPD1    C5 3621   3.917   4.481  10.620  0.3973  0.2432 -0.3922
  235MPD1     H 3622   3.880   0.115  10.674 -1.0709  0.6849  0.0269
  235MPD1    H1 3623   4.117   4.529  10.554  0.7861  2.2451  0.9710
  235MPD1    H2 3624   3.717   4.457  10.702  0.4908  0.3766  1.1226
  235MPD1    H3 3625   3.928   4.373  10.614 -1.6612 -0.0267  0.6431
  235MPD1     N 3626   4.101   0.055  10.563  0.5494  0.0769 -0.0200
  235MPD1    H5 3627   4.071   0.152  10.573  0.1234 -0.2511  1.8669
  235MPD1    N1 3628   3.653   4.715  10.743  0.6994 -0.1441 -0.1567
  235MPD1    H6 3629   3.569   4.658  10.732  0.9296 -0.7182  0.9889
  235MPD1    H7 3630   3.633   0.077  10.732  2.3147  0.2580  0.4709
  236MPD1     C 3631   2.725   1.313   9.874 -0.2944  0.1540 -0.1265
  236MPD1    C1 3632   2.662   1.301   9.992 -0.4153 -0.2462 -0.4596
  236MPD1    C2 3633   2.730   1.288  10.113  0.3871  1.1924 -0.0635
  236MPD1    C3 3634   2.868   1.296  10.117  0.8020  0.0599 -0.3354
  236MPD1    C4 3635   2.931   1.307   9.996  0.0065 -0.7660 -0.2190
  236MPD1    C5 3636   2.863   1.324   9.882 -0.4371 -0.5862  0.5219
  236MPD1     H 3637   2.676   1.269  10.205 -2.5724  0.5857 -1.9063
  236MPD1    H1 3638   3.039   1.302   9.998  0.1644  3.1517  2.2256
  236MPD1    H2 3639   2.668   1.312   9.782  0.9157  0.6306 -0.8748
  236MPD1    H3 3640   2.922   1.342   9.793 -1.0793  1.8351  0.5986
  236MPD1     N 3641   2.947   1.277  10.227 -0.3491  0.6114 -0.6995
  236MPD1    H5 3642   3.048   1.279  10.218 -0.4372 -2.5429 -2.4469
  236MPD1    N1 3643   2.526   1.285   9.986  0.1168 -0.3624 -0.1116
  236MPD1    H6 3644   2.481   1.339   9.912 -1.2366 -2.2991 -0.7031
  236MPD1    H7 3645   2.478   1.302  10.075  0.6915  1.5601 -0.1716
  237MPD1     C 3646   2.937   4.367  15.078  0.0688  0.4041  0.2710
  237MPD1    C1 3647   2.957   4.290  15.189 -0.1988 -0.0184 -0.0774
  237MPD1    C2 3648   2.866   4.187  15.219 -0.4506  0.2911 -0.7838
  237MPD1    C3 3649   2.757   4.169  15.140  0.0464 -0.2838  0.1343
  237MPD1    C4 3650   2.734   4.246  15.028 -0.3842 -0.2410 -0.4328
  237MPD1    C5 3651   2.824   4.344  14.996  0.2635 -0.7017 -0.8853
  237MPD1     H 3652   2.886   4.127  15.306  1.3674 -0.6723 -1.8632
  237MPD1    H1 3653   2.649   4.222  14.965 -0.3693  0.7946 -0.8472
  237MPD1    H2 3654   2.992   4.457  15.054 -0.6647  0.7748 -0.0494
  237MPD1    H3 3655   2.806   4.422  14.923  0.5230  0.1588 -0.0357
  237MPD1     N 3656   2.658   4.070  15.164  0.3242  0.6673 -0.6848
  237MPD1    H5 3657   2.577   4.071  15.103 -0.3569 -1.0059  0.1905
  237MPD1    N1 3658   3.044   4.323  15.291 -0.0113  0.5207 -0.9190
  237MPD1    H6 3659   3.072   4.240  15.343 -0.8254  1.0886  0.4136
  237MPD1    H7 3660   3.127   4.370  15.253 -1.2152  1.5575 -2.2852
  238MPD1     C 3661   4.424   1.947  15.629 -0.0998  0.0772  0.3887
  238MPD1    C1 3662   4.443   1.889  15.504  0.6798  0.2560  0.0917
  238MPD1    C2 3663   4.353   1.925  15.407 -0.3292 -0.4689 -0.0284
  238MPD1    C3 3664   4.234   1.996  15.435  0.0426  0.0630 -0.5329
  238MPD1    C4 3665   4.217   2.038  15.563  0.3452 -0.0313 -0.3972
  238MPD1    C5 3666   4.312   2.018  15.660  0.6719 -0.0710  0.0188
  238MPD1     H 3667   4.373   1.872  15.315  0.9195 -0.1435  0.0520
  238MPD1    H1 3668   4.124   2.090  15.582  0.7989  0.8065 -0.4906
  238MPD1    H2 3669   4.499   1.936  15.705  0.5899 -0.9359 -0.4382
  238MPD1    H3 3670   4.282   2.047  15.760 -0.4111  1.4272 -0.7362
  238MPD1     N 3671   4.132   2.010  15.337 -0.4565 -0.1733 -0.1599
  238MPD1    H5 3672   4.041   2.043  15.366  0.3556  1.7615  0.2491
  238MPD1    N1 3673   4.563   1.828  15.472 -0.2987 -0.0143 -0.2912
  238MPD1    H6 3674   4.545   1.750  15.409 -0.2422  1.0597 -1.6635
  238MPD1    H7 3675   4.616   1.782  15.546  1.6009 -1.7676 -2.7420
  239MPD1     C 3676   4.301   3.360  14.726  0.1050  0.2014 -0.5592
  239MPD1    C1 3677   4.363   3.477  14.681 -0.1025  0.2999 -0.0355
  239MPD1    C2 3678   4.300   3.532  14.572 -0.1389 -0.2029 -0.1818
  239MPD1    C3 3679   4.170   3.490  14.531 -0.1893  0.4446 -0.1378
  239MPD1    C4 3680   4.107   3.387  14.590  1.3059  0.1681 -0.0776
  239MPD1    C5 3681   4.179   3.312  14.684  0.2897  0.0872 -0.2853
  239MPD1     H 3682   4.352   3.613  14.523 -0.0060  0.5881  1.2800
  239MPD1    H1 3683   4.010   3.354  14.554  1.1871  1.4050 -0.8745
  239MPD1    H2 3684   4.344   3.301  14.807  1.6635  2.6606  0.3941
  239MPD1    H3 3685   4.137   3.222  14.726  1.1376  0.2088  0.8383
  239MPD1     N 3686   4.096   3.559  14.433 -0.2943  0.2513  0.7108
  239MPD1    H5 3687   4.004   3.520  14.416  0.0231 -0.5248  0.7722
  239MPD1    N1 3688   4.493   3.514  14.717 -0.0405 -0.5811  0.1902
  239MPD1    H6 3689   4.522   3.497  14.813  2.4531  0.7283 -0.3394
  239MPD1    H7 3690   4.510   3.614  14.707 -2.0010 -0.0648  1.8518
  240MPD1     C 3691   4.347   3.113  14.209 -0.3727  0.7496 -0.1832
  240MPD1    C1 3692   4.325   3.147  14.343 -0.5757 -0.1440 -0.1127
  240MPD1    C2 3693   4.246   3.062  14.421  0.3964 -0.2295  0.3951
  240MPD1    C3 3694   4.169   2.965  14.365 -0.0468  0.8439 -0.5322
  240MPD1    C4 3695   4.173   2.949  14.226 -1.0489  0.0949 -0.2553
  240MPD1    C5 3696   4.267   3.018  14.156  0.1442  0.1998 -0.1684
  240MPD1     H 3697   4.250   3.080  14.528 -2.4637  0.1258  0.4346
  240MPD1    H1 3698   4.108   2.884  14.169 -0.9029  0.7694 -1.1733
  240MPD1    H2 3699   4.416   3.162  14.142 -1.3577  1.6917 -0.5096
  240MPD1    H3 3700   4.271   3.002  14.049 -2.6057 -1.5427  0.0006
  240MPD1     N 3701   4.087   2.887  14.455 -0.0909  0.8005  0.0399
  240MPD1    H5 3702   4.087   2.911  14.553  0.6303  0.0199  0.2301
  240MPD1    N1 3703   4.413   3.237  14.410  0.2663 -0.5694  0.9006
  240MPD1    H6 3704   4.365   3.278  14.490 -0.3843 -0.0494  0.2416
  240MPD1    H7 3705   4.439   3.310  14.344 -0.8092 -1.2680 -0.2887
  241MPD1     C 3706   4.128   2.364  15.281  0.0674  0.0351 -0.0119
  241MPD1    C1 3707   4.218   2.392  15.184  0.1134 -0.2883  1.1109
  241MPD1    C2 3708   4.170   2.458  15.073  1.1672  0.7508 -0.4516
  241MPD1    C3 3709   4.037   2.477  15.047 -0.6275 -0.0436  0.0928
  241MPD1    C4 3710   3.943   2.436  15.140 -0.0829 -0.6026  0.7039
  241MPD1    C5 3711   3.995   2.390  15.256 -0.0752 -0.1842  0.1802
  241MPD1     H 3712   4.243   2.477  14.995  1.0275  1.0595 -0.5052
  241MPD1    H1 3713   3.837   2.454  15.129  0.3559  0.7705 -1.4474
  241MPD1    H2 3714   4.158   2.314  15.372  1.1900  1.1165  0.2069
  241MPD1    H3 3715   3.919   2.374  15.332  0.1416  0.6158  0.5659
  241MPD1     N 3716   3.987   2.528  14.922 -0.1274  0.3088  0.4507
  241MPD1    H5 3717   3.886   2.542  14.924 -0.1099  0.0338  2.7379
  241MPD1    N1 3718   4.358   2.398  15.216  0.5769  0.7148  0.0023
  241MPD1    H6 3719   4.387   2.336  15.290  0.8138  0.3746 -0.3741
  241MPD1    H7 3720   4.428   2.402  15.143 -2.5123 -0.7467 -3.0816
  242MPD1     C 3721   3.637   0.506  16.117  0.0970 -0.6965 -0.7145
  242MPD1    C1 3722   3.523   0.509  16.044  0.3253  0.3355  0.4325
  242MPD1    C2 3723   3.510   0.610  15.946  0.3576  0.1710 -1.0482
  242MPD1    C3 3724   3.601   0.714  15.931 -0.6293  0.6138 -0.0781
  242MPD1    C4 3725   3.703   0.720  16.025 -0.2375  0.3451  0.5835
  242MPD1    C5 3726   3.728   0.608  16.103 -0.4961  0.0751  0.2065
  242MPD1     H 3727   3.417   0.603  15.891  0.3401 -0.5313 -0.9219
  242MPD1    H1 3728   3.782   0.792  16.009  0.3051 -1.2528 -3.9749
  242MPD1    H2 3729   3.663   0.420  16.178 -1.6893 -0.6832  0.0505
  242MPD1    H3 3730   3.828   0.595  16.144 -0.9185  0.1422  1.2537
  242MPD1     N 3731   3.599   0.812  15.835  0.4320  0.1664 -1.0690
  242MPD1    H5 3732   3.672   0.882  15.838  0.4856 -0.0492  2.6389
  242MPD1    N1 3733   3.423   0.416  16.072  0.6122  0.5832 -0.2407
  242MPD1    H6 3734   3.450   0.335  16.127 -2.7268 -0.3172  0.0421
  242MPD1    H7 3735   3.361   0.394  15.995  2.0509 -2.4954 -0.4845
  243MPD1     C 3736   4.498   4.729  17.703 -0.4675  0.4056  0.3187
  243MPD1    C1 3737   4.590   4.663   0.038 -0.2862  0.2361  0.3722
  243MPD1    C2 3738   4.715   4.637  17.732 -0.6545 -0.0505 -0.0490
  243MPD1    C3 3739   0.008   4.671  17.599 -1.2646 -1.3081  0.5706
  243MPD1    C4 3740   4.649   0.005  17.530  0.3028  0.1124 -0.3313
  243MPD1    C5 3741   4.519   0.030  17.580 -1.1234 -0.3172  0.3823
  243MPD1     H 3742   0.044   4.575   0.046  2.2801  2.3013 -0.8745
  243MPD1    H1 3743   4.675   0.038  17.430  1.8312 -1.6116 -0.5112
  243MPD1    H2 3744   4.398   0.014  17.738  0.4347  2.4390  1.5999
  243MPD1    H3 3745   4.455   0.100  17.528  0.4872  1.0179  0.1985
  243MPD1     N 3746   0.120   4.624  17.542  0.2832  0.2663 -0.2459
  243MPD1    H5 3747   0.193   4.584  17.601 -2.0859 -2.8394  0.5537
  243MPD1    N1 3748   4.566   4.638   0.175  0.2447  0.1685 -0.3056
  243MPD1    H6 3749   4.630   4.574   0.221  2.4001  2.8426  0.3719
  243MPD1    H7 3750   4.468   4.618   0.198  0.4536  0.7904  1.0948
  244MPD1     C 3751   0.728   3.920  17.610  0.4036 -0.3066 -0.6899
  244MPD1    C1 3752   0.744   3.951  17.481 -0.8513 -0.2792 -0.2415
  244MPD1    C2 3753   0.700   4.078  17.444 -0.5546 -0.5806  0.9513
  244MPD1    C3 3754   0.655   4.165  17.534 -0.5468  0.0791  0.1431
  244MPD1    C4 3755   0.656   4.130  17.672 -0.4477 -0.0230 -0.5034
  244MPD1    C5 3756   0.696   4.010  17.706 -0.2306 -0.1206 -0.8474
  244MPD1     H 3757   0.703   4.107  17.340 -0.0694  0.3468  1.2284
  244MPD1    H1 3758   0.627   4.195   0.008  0.0702 -2.5747  1.7435
  244MPD1    H2 3759   0.752   3.819  17.640  1.2305 -0.8646 -3.2469
  244MPD1    H3 3760   0.697   3.967   0.060  0.9963  2.9355  0.4635
  244MPD1     N 3761   0.611   4.284  17.488 -0.4849  0.3052  0.4039
  244MPD1    H5 3762   0.600   4.279  17.387  0.2068  2.6037  0.2296
  244MPD1    N1 3763   0.760   3.849  17.383 -0.7717 -0.1859  0.7884
  244MPD1    H6 3764   0.806   3.767  17.421  1.4437 -0.6618 -2.9305
  244MPD1    H7 3765   0.823   3.874  17.307 -1.2850 -1.0581  0.0761
  245MPD1     C 3766   2.399   0.527  12.939  0.4446 -0.4502  0.2254
  245MPD1    C1 3767   2.497   0.513  13.044 -0.0140 -0.2554 -0.2254
  245MPD1    C2 3768   2.486   0.600  13.149 -0.9945  0.0294  0.1000
  245MPD1    C3 3769   2.384   0.691  13.150 -0.4755 -0.2707 -0.0209
  245MPD1    C4 3770   2.297   0.708  13.044  0.0836  0.1820  0.3893
  245MPD1    C5 3771   2.308   0.620  12.941 -0.2053  0.8705  0.1763
  245MPD1     H 3772   2.550   0.586  13.236 -1.5860  1.5127  0.7699
  245MPD1    H1 3773   2.224   0.788  13.035  1.2423  1.2360  0.3377
  245MPD1    H2 3774   2.390   0.458  12.856 -0.4875 -1.2807  1.0183
  245MPD1    H3 3775   2.232   0.623  12.863 -1.0530  0.6683  0.9944
  245MPD1     N 3776   2.385   0.778  13.264  0.5020 -0.0887 -0.2542
  245MPD1    H5 3777   2.464   0.763  13.326  1.0966 -0.2006 -1.0395
  245MPD1    N1 3778   2.616   0.430  13.026 -0.2182 -0.3227  0.0416
  245MPD1    H6 3779   2.614   0.371  12.943  0.6021  0.1659 -0.3139
  245MPD1    H7 3780   2.637   0.371  13.107  0.7709 -3.2723 -2.3566
  246MPD1     C 3781   4.663   2.925   9.806  0.3920 -0.7875 -0.3025
  246MPD1    C1 3782   4.728   2.813   9.843  0.2193  0.7306 -0.3027
  246MPD1    C2 3783   4.673   2.690   9.810 -1.0315  0.4662 -0.3456
  246MPD1    C3 3784   4.539   2.684   9.762  0.2273  0.4319  0.1819
  246MPD1    C4 3785   4.460   2.797   9.755 -0.5001  0.3423 -0.2801
  246MPD1    C5 3786   4.520   2.919   9.790 -0.2026  0.5980  0.1708
  246MPD1     H 3787   4.720   2.593   9.817 -0.7740  0.5118 -1.3988
  246MPD1    H1 3788   4.357   2.793   9.722 -1.2722 -0.5066  2.2356
  246MPD1    H2 3789   4.689   3.026   9.835  4.1700 -1.7058 -0.5008
  246MPD1    H3 3790   4.473   3.016   9.779 -2.9573 -0.6089  1.4102
  246MPD1     N 3791   4.490   2.553   9.739  0.4152 -0.1291  0.0003
  246MPD1    H5 3792   4.555   2.476   9.748  0.3484 -0.1952 -0.0813
  246MPD1    N1 3793   0.126   2.821   9.870  0.6238  0.9185 -0.2942
  246MPD1    H6 3794   0.156   2.747   9.933 -0.8595  0.5677 -0.0025
  246MPD1    H7 3795   0.141   2.912   9.914 -0.8775  1.0786 -0.1370
  247MPD1     C 3796   2.000   1.365  15.986  0.3470 -0.7230  0.3435
  247MPD1    C1 3797   1.866   1.394  15.980 -0.2753 -0.4948  0.1498
  247MPD1    C2 3798   1.790   1.300  15.911 -0.1997  0.6073 -0.6446
  247MPD1    C3 3799   1.836   1.168  15.885 -0.8447  0.7254 -0.2082
  247MPD1    C4 3800   1.969   1.140  15.909  0.0950 -0.3003  0.1733
  247MPD1    C5 3801   2.051   1.238  15.959  0.5513  0.5679 -0.2964
  247MPD1     H 3802   1.683   1.313  15.899 -0.1667  1.7390  0.1931
  247MPD1    H1 3803   2.011   1.043  15.886 -2.0112 -1.1414 -0.1554
  247MPD1    H2 3804   2.069   1.446  16.005 -0.6340  0.3024 -0.4696
  247MPD1    H3 3805   2.157   1.215  15.967  0.5592  0.5883 -0.3408
  247MPD1     N 3806   1.758   1.062  15.834 -0.0887  0.0451  0.0876
  247MPD1    H5 3807   1.800   0.971  15.821  0.0884  0.2356 -0.6880
  247MPD1    N1 3808   1.819   1.520  16.008 -0.0471  0.1010 -0.1623
  247MPD1    H6 3809   1.876   1.554  16.084 -0.7382 -0.2811  0.5315
  247MPD1    H7 3810   1.720   1.532  16.028 -0.3593  0.8077 -2.0597
  248MPD1     C 3811   2.502   4.727   0.155 -0.5182  0.2015  0.3582
  248MPD1    C1 3812   2.489   0.088   0.248  0.1694  0.1371  0.3428
  248MPD1    C2 3813   2.488   0.057   0.383 -0.8120  0.4047 -0.0973
  248MPD1    C3 3814   2.499   4.669   0.425 -0.6702  0.2921 -0.3302
  248MPD1    C4 3815   2.525   4.571   0.327 -0.0731  0.3945 -0.5710
  248MPD1    C5 3816   2.525   4.602   0.194  0.4072  0.0109  0.9569
  248MPD1     H 3817   2.467   0.131   0.459 -0.3713  0.1564  0.2684
  248MPD1    H1 3818   2.535   4.465   0.350 -0.2488  0.5419  0.1988
  248MPD1    H2 3819   2.499   0.013   0.049 -1.2350  0.9418  0.5392
  248MPD1    H3 3820   2.545   4.525   0.121 -1.1342  2.5350 -2.1388
  248MPD1     N 3821   2.491   4.644   0.566 -0.1106  0.4782 -0.8626
  248MPD1    H5 3822   2.470   4.725   0.624  1.7981  1.3807 -1.4372
  248MPD1    N1 3823   2.469   0.220   0.208 -0.1811  0.1366  0.0464
  248MPD1    H6 3824   2.523   0.238   0.123 -0.1460 -0.7039 -0.1094
  248MPD1    H7 3825   2.481   0.290   0.281 -0.7189  0.5877 -0.3001
  249MPD1     C 3826   4.192   4.224  10.427 -0.3588 -0.1741 -0.2129
  249MPD1    C1 3827   4.278   4.327  10.428 -0.9675  0.1661  0.4894
  249MPD1    C2 3828   4.397   4.319  10.498 -0.1940  0.0551 -0.0765
  249MPD1    C3 3829   4.431   4.208  10.571  0.1303  0.2446  0.2377
  249MPD1    C4 3830   4.344   4.099  10.572 -0.2441  0.5625  0.2404
  249MPD1    C5 3831   4.218   4.116  10.509  0.6114  0.8300  0.2151
  249MPD1     H 3832   4.467   4.402  10.488  0.3795 -0.1803  2.0219
  249MPD1    H1 3833   4.366   4.002  10.616  0.4061 -1.2996 -4.2122
  249MPD1    H2 3834   4.098   4.237  10.373  0.5028  0.3703 -1.5810
  249MPD1    H3 3835   4.154   4.030  10.489  0.4734  1.1685 -0.8004
  249MPD1     N 3836   4.559   4.211  10.628 -0.4444 -0.2907  0.2446
  249MPD1    H5 3837   4.607   4.300  10.617 -1.0904  0.0401  0.1221
  249MPD1    N1 3838   4.250   4.436  10.337 -0.5107 -0.6877  0.6420
  249MPD1    H6 3839   4.274   4.526  10.377  1.4508  0.0472 -2.1555
  249MPD1    H7 3840   4.156   4.439  10.298  0.5906 -2.1751 -2.1273
  250MPD2     C 3841   1.257   3.715  12.697 -0.0654  0.3151 -0.5282
  250MPD2    C1 3842   1.174   3.774  12.787 -0.0567 -0.3609  0.3596
  250MPD2    C2 3843   1.056   3.709  12.825  0.1682  0.2675  0.3454
  250MPD2    C3 3844   1.026   3.583  12.771  0.2911  0.4566 -1.1307
  250MPD2    C4 3845   1.122   3.514  12.711 -0.0974  0.5189 -0.7175
  250MPD2    C5 3846   1.236   3.580  12.670  0.0499 -0.4120  0.3493
  250MPD2     H 3847   0.990   3.761  12.894  0.0287  1.9866 -1.0912
  250MPD2    H1 3848   1.106   3.410  12.685  2.6041  0.5812 -2.6256
  250MPD2    H2 3849   1.347   3.766  12.664  0.5744 -1.4295 -1.5004
  250MPD2    H3 3850   1.305   3.526  12.606  0.6008 -0.3467  0.8883
  250MPD2     N 3851   0.903   3.517  12.803 -0.5063 -0.5876  0.0499
  250MPD2    H5 3852   0.889   3.421  12.774 -1.0197 -0.1073 -1.3033
  250MPD2    N1 3853   1.214   3.905  12.826 -0.4106  0.2982 -0.1074
  250MPD2    H7 3854   1.291   3.950  12.778 -0.6445  0.6011 -0.1995
  251TMC3    C1 3855   1.192   4.111  12.954 -0.2855 -0.1758 -0.0287
  251TMC3    C2 3856   1.103   4.196  13.011 -0.6526 -0.4943 -0.6360
  251TMC3    C3 3857   1.144   4.305  13.067 -0.2483 -0.2178 -0.2497
  251TMC3    C4 3858   1.324   4.137  12.956 -0.6845 -0.6003 -0.7104
  251TMC3    C5 3859   1.365   4.252  13.020 -0.0299  0.0613 -0.6931
  251TMC3    C6 3860   1.274   4.344  13.069 -0.1147 -0.2641  0.0538
  251TMC3     C 3861   1.139   3.983  12.917 -0.3068 -0.6121  0.2896
  251TMC3     O 3862   1.036   3.951  12.977 -0.5031 -0.7457 -0.2818
  251TMC3     H 3863   0.996   4.181  12.999 -0.7566 -1.9252  2.0768
  251TMC3    H1 3864   1.402   4.081  12.906  0.6325 -0.1455  0.8206
  251TMC3    H2 3865   1.302   4.423  13.138 -1.2953 -0.2742  0.5385
  251TMC3    C7 3866   1.506   4.257  13.065 -0.5015 -0.2641  0.0131
  251TMC3    C8 3867   1.051   4.388  13.139 -0.4810 -0.5337 -0.3606
  251TMC3    O1 3868   1.572   4.156  13.091  0.0698  0.1218  0.5584
  251TMC3    O2 3869   0.938   4.341  13.142  0.5922 -0.0143  0.4304
  252TMC3    C1 3870   1.353   0.734   9.868 -0.4650  0.0565  0.0909
  252TMC3    C2 3871   1.447   0.829   9.864 -1.0902 -0.5317 -0.3612
  252TMC3    C3 3872   1.555   0.802   9.783  0.0162 -0.0889 -0.1640
  252TMC3    C4 3873   1.358   0.610   9.806  0.3153 -0.0841  0.3576
  252TMC3    C5 3874   1.470   0.585   9.734  0.3038 -0.2549 -0.3591
  252TMC3    C6 3875   1.573   0.682   9.724  0.3474 -0.0758  1.1455
  252TMC3     C 3876   1.229   0.773   9.934 -0.1942  0.3493  0.0182
  252TMC3     O 3877   1.158   0.685   9.979  0.4668  0.1368 -0.2273
  252TMC3     H 3878   1.426   0.926   9.907  0.2424  0.6814 -2.4175
  252TMC3    H1 3879   1.282   0.533   9.814  0.2594 -0.1639 -1.0868
  252TMC3    H2 3880   1.666   0.648   9.680  1.2416 -0.2842  3.1971
  252TMC3    C7 3881   1.519   0.449   9.717  0.3270  0.0250  0.1926
  252TMC3    C8 3882   1.671   0.887   9.786 -0.6154  0.3809 -0.0323
  252TMC3    O1 3883   1.600   0.432   9.626  0.0557  0.2242 -0.0625
  252TMC3    O2 3884   1.764   0.853   9.716 -0.2374  0.0187  0.0035
  253MPD2     C 3885   2.267   4.105  15.281 -0.4986  0.3242  0.2066
  253MPD2    C1 3886   2.156   4.034  15.244 -0.3401 -0.7660 -0.7573
  253MPD2    C2 3887   2.099   3.947  15.339 -0.2806 -0.4713  0.0606
  253MPD2    C3 3888   2.139   3.955  15.472 -0.2951 -0.8441  0.4507
  253MPD2    C4 3889   2.252   4.022  15.502 -0.6760  0.0200  0.4668
  253MPD2    C5 3890   2.315   4.096  15.409  0.4932  0.5499 -0.0999
  253MPD2     H 3891   2.008   3.899  15.305 -1.9210  2.0199  0.8956
  253MPD2    H1 3892   2.287   4.030  15.604 -2.3528 -0.1018  1.0652
  253MPD2    H2 3893   2.324   4.160  15.208 -1.5597 -0.9270 -1.5533
  253MPD2    H3 3894   2.407   4.151  15.428  0.4836  0.0971  1.2357
  253MPD2     N 3895   2.077   3.899  15.582  0.4531  0.0056  0.0041
  253MPD2    H5 3896   2.130   3.908  15.668  0.5091  0.4705 -0.0795
  253MPD2    N1 3897   2.102   4.042  15.115  0.0861  0.7662  0.1419
  253MPD2    H7 3898   2.022   3.981  15.102 -0.0608  1.2443 -1.2179
  254TMC3    C1 3899   1.889   3.827  15.706 -0.3216 -0.1638  0.4045
  254TMC3    C2 3900   1.758   3.859  15.741 -0.6061  0.9045  0.5904
  254TMC3    C3 3901   1.697   3.787  15.840  0.4953  0.4661 -0.8204
  254TMC3    C4 3902   1.964   3.737  15.778  0.4814 -1.1348  0.4840
  254TMC3    C5 3903   1.899   3.672  15.880  0.6235  0.3877  0.2734
  254TMC3    C6 3904   1.764   3.690  15.907 -0.0438  0.1565  0.6982
  254TMC3     C 3905   1.938   3.883  15.585  0.2756 -0.5329 -0.4457
  254TMC3     O 3906   1.863   3.905  15.488  0.0674 -0.1546  0.1707
  254TMC3     H 3907   1.699   3.908  15.664  0.0546  0.0744 -0.4516
  254TMC3    H1 3908   2.068   3.708  15.763  0.4265 -1.8139  1.4478
  254TMC3    H2 3909   1.711   3.628  15.979  0.3961  0.9753  1.7334
  254TMC3    C7 3910   1.970   3.602  15.988 -0.1972  0.1698 -0.2307
  254TMC3    C8 3911   1.597   3.849  15.925 -0.1338 -0.1840  0.4454
  254TMC3    O1 3912   1.913   3.531  16.065  0.2412 -0.1867  0.4833
  254TMC3    O2 3913   1.587   3.802  16.041  0.0018  0.2996  0.5443
  255MPD2     C 3914   0.371   1.642  10.632  0.8160  0.1548 -0.7900
  255MPD2    C1 3915   0.447   1.669  10.520  0.2400  0.4342  0.3998
  255MPD2    C2 3916   0.497   1.559  10.455  0.3570 -0.3835  0.4097
  255MPD2    C3 3917   0.476   1.427  10.502  0.2752  0.4125  0.0073
  255MPD2    C4 3918   0.391   1.408  10.612 -1.0634  0.3267  1.0758
  255MPD2    C5 3919   0.336   1.515  10.676  0.8372  0.4712 -0.0591
  255MPD2     H 3920   0.550   1.572  10.361 -0.8877 -1.4544 -0.4396
  255MPD2    H1 3921   0.372   1.311  10.658 -0.0611 -0.6399 -0.5432
  255MPD2    H2 3922   0.312   1.720  10.678  0.1250 -0.9060  0.1385
  255MPD2    H3 3923   0.269   1.507  10.761  0.0331  1.1786 -0.6243
  255MPD2     N 3924   0.541   1.313  10.444 -0.5841 -0.5947  0.7698
  255MPD2    H5 3925   0.517   1.217  10.467 -0.9476 -0.6003  0.3852
  255MPD2    N1 3926   0.477   1.807  10.486  0.5167 -0.6739  0.1918
  255MPD2    H7 3927   0.444   1.879  10.549  0.6118 -1.6826  1.3879
  256TMC3    C1 3928   0.562   1.993  10.369  0.5163  0.0432  0.5698
  256TMC3    C2 3929   0.680   2.030  10.312 -0.2958 -0.4029 -0.2916
  256TMC3    C3 3930   0.727   2.157  10.324  0.4144 -0.0018 -1.0378
  256TMC3    C4 3931   0.486   2.080  10.446  1.3379 -0.0750  0.1390
  256TMC3    C5 3932   0.542   2.207  10.468  0.2085  0.2478  0.6232
  256TMC3    C6 3933   0.657   2.244  10.399 -0.5879  0.5798  0.1305
  256TMC3     C 3934   0.538   1.851  10.373 -0.1999  0.1404  0.0444
  256TMC3     O 3935   0.588   1.783  10.285  0.2939  0.0874 -0.0302
  256TMC3     H 3936   0.744   1.962  10.258 -1.9996 -2.8582  0.8169
  256TMC3    H1 3937   0.402   2.041  10.504  2.3466  0.3350  1.8800
  256TMC3    H2 3938   0.686   2.348  10.411 -1.3464  0.9647 -1.3216
  256TMC3    C7 3939   0.457   2.311  10.528 -0.0858 -0.0904 -0.5556
  256TMC3    C8 3940   0.847   2.194  10.255 -0.1637 -0.0735 -0.6557
  256TMC3    O1 3941   0.341   2.275  10.543 -0.4555 -0.2904  0.2403
  256TMC3    O2 3942   0.900   2.091  10.216 -0.1219  0.1241  0.1986
  257MPD2     C 3943   3.686   4.049  13.285  0.0927 -0.1543 -0.5501
  257MPD2    C1 3944   3.818   4.035  13.252  1.0232 -0.1785  0.3968
  257MPD2    C2 3945   3.893   3.940  13.314  0.5153 -0.3506 -0.1710
  257MPD2    C3 3946   3.841   3.854  13.414  0.5773 -0.5047 -0.0029
  257MPD2    C4 3947   3.708   3.867  13.442  0.8926  0.1007 -0.8566
  257MPD2    C5 3948   3.639   3.965  13.376 -0.4562  0.4588  0.6739
  257MPD2     H 3949   3.999   3.943  13.292  0.5292 -2.8483 -0.4400
  257MPD2    H1 3950   3.660   3.796  13.508  1.4441  1.6184  1.2052
  257MPD2    H2 3951   3.623   4.130  13.251 -0.5311 -0.1278  0.6935
  257MPD2    H3 3952   3.536   3.984  13.404 -0.9274  0.8894 -1.3496
  257MPD2     N 3953   3.926   3.753  13.460  0.1379 -0.7200  0.1305
  257MPD2    H5 3954   4.015   3.733  13.415  0.3272  0.0860  0.1571
  257MPD2    N1 3955   3.870   4.136  13.167  0.0402 -0.0421 -0.4154
  257MPD2    H7 3956   3.806   4.203  13.126 -1.4527 -0.0356  1.9543
  258TMC3    C1 3957   4.019   3.593  13.603 -0.2711  0.2339  0.0699
  258TMC3    C2 3958   4.093   3.558  13.494  0.2587  0.6807 -0.2800
  258TMC3    C3 3959   4.215   3.503  13.518  0.0376 -0.0295 -0.3261
  258TMC3    C4 3960   4.067   3.590  13.732  0.2606  0.2348 -0.0614
  258TMC3    C5 3961   4.193   3.540  13.748  0.3489  0.4101  1.1323
  258TMC3    C6 3962   4.274   3.500  13.643  0.0640  0.0324  0.2698
  258TMC3     C 3963   3.905   3.683  13.579 -0.1488  0.3470  0.1218
  258TMC3     O 3964   3.837   3.711  13.680 -0.0359  0.4488  0.6013
  258TMC3     H 3965   4.047   3.549  13.397  1.1982 -3.8635 -0.3046
  258TMC3    H1 3966   4.008   3.629  13.814 -1.2888 -1.6824 -0.2637
  258TMC3    H2 3967   4.374   3.461  13.655 -0.0754 -0.4975 -0.2417
  258TMC3    C7 3968   4.250   3.555  13.883 -0.0200 -0.2532 -0.2660
  258TMC3    C8 3969   4.301   3.470  13.408 -0.1730  0.7208  0.2916
  258TMC3    O1 3970   4.202   3.649  13.949 -0.3391  0.3944  0.0031
  258TMC3    O2 3971   4.417   3.468  13.440  0.3968  0.0168  0.2436
  259MPD2     C 3972   3.779   0.495   0.991 -0.0419 -0.3118 -0.2601
  259MPD2    C1 3973   3.696   0.386   0.986  0.0991 -0.1704 -0.9238
  259MPD2    C2 3974   3.570   0.394   0.928  0.8355 -0.0737 -0.1762
  259MPD2    C3 3975   3.529   0.506   0.863 -0.0225  0.0416 -0.6569
  259MPD2    C4 3976   3.613   0.618   0.872 -0.0318  0.5201 -0.5964
  259MPD2    C5 3977   3.733   0.613   0.930 -0.1443 -0.2796 -0.4496
  259MPD2     H 3978   3.506   0.308   0.914  2.2253 -1.1346 -0.0805
  259MPD2    H1 3979   3.580   0.712   0.829  2.3206  1.1325 -1.0749
  259MPD2    H2 3980   3.881   0.495   1.027 -0.5234  0.5731  1.1564
  259MPD2    H3 3981   3.796   0.701   0.936  1.1576 -1.2644  0.2886
  259MPD2     N 3982   3.410   0.499   0.779 -0.1138  0.0664  0.3202
  259MPD2    H5 3983   3.353   0.414   0.774 -0.6449  0.6829 -4.0191
  259MPD2    N1 3984   3.751   0.264   1.040 -0.0891  0.5812 -0.2722
  259MPD2    H7 3985   3.843   0.260   1.084  0.1521  2.5337 -0.5795
  260TMC3    C1 3986   3.233   0.573   0.631 -0.1460 -0.6049  0.3239
  260TMC3    C2 3987   3.194   0.677   0.549  0.3383 -0.0531 -0.1463
  260TMC3    C3 3988   3.141   0.648   0.423  0.5404  0.2424 -0.0986
  260TMC3    C4 3989   3.237   0.441   0.581 -0.0704  0.3212  0.1043
  260TMC3    C5 3990   3.176   0.419   0.461  0.2660 -0.1435 -0.5312
  260TMC3    C6 3991   3.136   0.519   0.379  0.2150  0.2637  0.6282
  260TMC3     C 3992   3.347   0.613   0.717  0.0759  0.0624 -0.0368
  260TMC3     O 3993   3.381   0.729   0.718 -0.2798 -0.0010 -0.0275
  260TMC3     H 3994   3.207   0.780   0.580  1.2385 -0.5052  0.9957
  260TMC3    H1 3995   3.250   0.358   0.649  1.5971  1.2174  0.8941
  260TMC3    H2 3996   3.090   0.488   0.286  0.5789 -1.5853  1.0712
  260TMC3    C7 3997   3.213   0.303   0.389  0.7623 -0.1732  0.2877
  260TMC3    C8 3998   3.196   0.733   0.326 -0.1821  0.0280  0.0523
  260TMC3    O1 3999   3.248   0.319   0.273  0.1395 -0.1359 -0.0666
  260TMC3    O2 4000   3.181   0.854   0.339  0.7883 -0.3321  0.1675
  261MPD2     C 4001   0.055   3.605  12.834 -0.1191  0.4691 -0.0162
  261MPD2    C1 4002   0.175   3.660  12.783  0.1221 -0.2088 -0.3874
  261MPD2    C2 4003   0.164   3.745  12.674  0.6807 -0.5537 -0.1243
  261MPD2    C3 4004   0.045   3.783  12.622 -0.0384 -0.2656  0.4677
  261MPD2    C4 4005   4.670   3.734  12.682  0.0948 -0.3144 -0.0372
  261MPD2    C5 4006   4.674   3.641  12.781  0.5284 -0.1842 -0.0101
  261MPD2     H 4007   0.252   3.796  12.636 -0.3194  0.9292 -0.4566
  261MPD2    H1 4008   4.572   3.764  12.646  0.3462 -0.6564 -1.0252
  261MPD2    H2 4009   0.054   3.515  12.895 -3.2863 -0.5377 -1.5770
  261MPD2    H3 4010   4.582   3.599  12.820 -0.0290  2.2244  1.2296
  261MPD2     N 4011   0.043   3.872  12.510 -0.0295 -0.4556 -0.0822
  261MPD2    H5 4012   0.132   3.906  12.473  0.1868 -1.0939 -0.1391
  261MPD2    N1 4013   0.300   3.625  12.840  0.0708  0.6012  0.3714
  261MPD2    H7 4014   0.372   3.658  12.777 -0.9333 -0.1045 -1.1546
  262TMC3    C1 4015   4.716   4.023  12.335  0.5688  0.8163  0.6908
  262TMC3    C2 4016   4.618   4.108  12.304 -0.0596 -0.0132 -0.0003
  262TMC3    C3 4017   4.621   4.186  12.188  0.0393  0.0575 -0.5574
  262TMC3    C4 4018   0.080   4.000  12.246 -0.2749  0.0447 -0.4657
  262TMC3    C5 4019   0.075   4.072  12.127 -0.2999 -0.5560 -0.2340
  262TMC3    C6 4020   4.720   4.166  12.097 -0.1741  0.2427  0.0490
  262TMC3     C 4021   4.675   3.937  12.446  0.6152 -0.2669 -0.6790
  262TMC3     O 4022   4.556   3.912  12.456  0.1707  0.6933  0.1130
  262TMC3     H 4023   4.559   4.134  12.391 -1.3212  1.3800 -1.2829
  262TMC3    H1 4024   0.154   3.930  12.286  0.9177  0.9106 -1.1595
  262TMC3    H2 4025   4.715   4.213  12.000  1.9848 -1.6947 -0.9963
  262TMC3    C7 4026   0.187   4.058  12.042 -0.3141 -0.0371 -0.1172
  262TMC3    C8 4027   4.537   4.305  12.178 -1.3534 -0.0102  0.2540
  262TMC3    O1 4028   0.249   3.952  12.037 -0.1690  0.4944  0.3855
  262TMC3    O2 4029   4.576   4.390  12.097 -0.4304 -0.0150 -0.4815
  263MPD2     C 4030   1.272   3.276  11.309 -0.3369  0.4653 -0.0569
  263MPD2    C1 4031   1.375   3.366  11.285 -0.2178  1.0919 -0.2504
  263MPD2    C2 4032   1.373   3.446  11.174  0.0295 -0.3247 -0.5006
  263MPD2    C3 4033   1.260   3.450  11.086 -0.7837 -0.7235  0.5589
  263MPD2    C4 4034   1.151   3.371  11.124  1.0196  0.3014 -0.0781
  263MPD2    C5 4035   1.165   3.282  11.231  0.1022  0.0008  0.6769
  263MPD2     H 4036   1.450   3.515  11.140 -1.1725  0.8426 -0.8439
  263MPD2    H1 4037   1.063   3.369  11.061  2.1462  0.8783 -1.6609
  263MPD2    H2 4038   1.280   3.196  11.381  0.6123  0.5117 -0.1118
  263MPD2    H3 4039   1.081   3.217  11.252 -0.0862  0.3471  1.0133
  263MPD2     N 4040   1.259   3.538  10.973  0.6842 -0.4269  0.6270
  263MPD2    H5 4041   1.341   3.594  10.956  1.4687 -1.5465  0.7380
  263MPD2    N1 4042   1.480   3.384  11.378 -0.1731  0.3054  0.0008
  263MPD2    H7 4043   1.557   3.438  11.340 -1.8550  1.0841 -2.2426
  264TMC3    C1 4044   1.182   3.654  10.787  0.8078  0.1431  0.3114
  264TMC3    C2 4045   1.110   3.770  10.808  0.3415 -0.2518 -0.4349
  264TMC3    C3 4046   1.157   3.900  10.783  0.5423 -0.3191 -0.1309
  264TMC3    C4 4047   1.293   3.666  10.713 -0.2470 -0.3805  0.0468
  264TMC3    C5 4048   1.336   3.796  10.681  0.2954  0.1704 -0.0015
  264TMC3    C6 4049   1.278   3.916  10.716  0.1573 -0.2968  0.2486
  264TMC3     C 4050   1.156   3.546  10.876  0.0862 -0.3334  0.4790
  264TMC3     O 4051   1.044   3.497  10.881 -0.5356 -0.0900 -0.1014
  264TMC3     H 4052   1.024   3.749  10.871  0.7825 -0.3250  0.1515
  264TMC3    H1 4053   1.356   3.580  10.691  0.8855  0.3759  0.3614
  264TMC3    H2 4054   1.311   4.016  10.692 -2.2843  0.1930 -1.0693
  264TMC3    C7 4055   1.469   3.799  10.616 -0.2067 -0.2077  0.0023
  264TMC3    C8 4056   1.110   4.000  10.878  0.2522  0.5273  0.2418
  264TMC3    O1 4057   1.544   3.708  10.653  0.5610 -0.3219  0.0877
  264TMC3    O2 4058   1.000   3.984  10.934 -0.4309 -0.3865 -0.1301
  265MPD2     C 4059   3.003   3.400  15.766  0.6225  0.4225 -1.2493
  265MPD2    C1 4060   3.032   3.509  15.689 -0.6732 -0.1042 -0.7179
  265MPD2    C2 4061   3.076   3.494  15.552  0.4970 -0.0315 -0.7288
  265MPD2    C3 4062   3.088   3.368  15.498  0.3517 -0.8920 -0.3757
  265MPD2    C4 4063   3.058   3.258  15.577 -0.7791 -0.9144 -0.4717
  265MPD2    C5 4064   3.016   3.275  15.711 -0.2116 -0.3405  0.5271
  265MPD2     H 4065   3.109   3.579  15.494 -1.0966  0.9582 -0.1643
  265MPD2    H1 4066   3.069   3.161  15.530  2.8204 -1.6032  1.8133
  265MPD2    H2 4067   2.963   3.400  15.867  0.7671 -2.7269 -1.1920
  265MPD2    H3 4068   3.002   3.180  15.763  0.7435  0.3357  2.0406
  265MPD2     N 4069   3.139   3.337  15.369 -0.0462  0.0946 -0.4991
  265MPD2    H5 4070   3.135   3.238  15.348  0.0826  0.1827 -0.9302
  265MPD2    N1 4071   3.026   3.640  15.747 -0.0095  0.3215 -0.1608
  265MPD2    H7 4072   3.043   3.721  15.687 -0.7313  1.1646  0.7636
  266TMC3    C1 4073   3.001   3.798  15.927  0.0582 -0.2969  0.1342
  266TMC3    C2 4074   3.044   3.829  16.056  0.0995  0.5738 -0.2146
  266TMC3    C3 4075   3.036   3.961  16.088  0.1289  0.1682 -0.2198
  266TMC3    C4 4076   2.958   3.883  15.832  0.5306  0.3068  0.0808
  266TMC3    C5 4077   2.952   4.015  15.865  0.3376  0.1956  0.2586
  266TMC3    C6 4078   2.992   4.053  15.993 -0.1465  0.2569  0.2714
  266TMC3     C 4079   2.996   3.662  15.886  1.2648 -0.5302 -0.7993
  266TMC3     O 4080   2.986   3.583  15.980  0.1088  0.3056  0.0028
  266TMC3     H 4081   3.073   3.752  16.127  1.8918  0.7501 -0.7603
  266TMC3    H1 4082   2.926   3.853  15.733  0.6072  1.0463 -0.1730
  266TMC3    H2 4083   2.982   4.155  16.027  0.0804  0.4494 -0.2479
  266TMC3    C7 4084   2.908   4.109  15.760  0.1944 -0.9023 -0.3795
  266TMC3    C8 4085   3.144   4.006  16.175  0.7522 -0.1143  0.4598
  266TMC3    O1 4086   2.878   4.065  15.650  0.2656  0.3395  0.2142
  266TMC3    O2 4087   3.211   3.912  16.215 -0.4451 -0.2252  0.3224
  267MPD2     C 4088   0.633   0.936   1.001 -0.4210  0.0599  0.6193
  267MPD2    C1 4089   0.633   0.873   0.883 -0.2893  0.2263  0.8269
  267MPD2    C2 4090   0.569   0.942   0.775 -0.0841  0.5059 -0.8767
  267MPD2    C3 4091   0.502   1.063   0.797  0.2542 -0.1051 -0.4440
  267MPD2    C4 4092   0.515   1.125   0.917 -0.2531 -0.5497 -0.5257
  267MPD2    C5 4093   0.574   1.062   1.022  0.8058 -0.1100 -0.5182
  267MPD2     H 4094   0.568   0.897   0.676  0.2358  0.3848 -0.8259
  267MPD2    H1 4095   0.468   1.220   0.940  0.0602 -0.2895 -0.9790
  267MPD2    H2 4096   0.674   0.891   1.090  1.0145 -1.9340 -1.0526
  267MPD2    H3 4097   0.578   1.104   1.122  0.8860  3.4066 -1.9780
  267MPD2     N 4098   0.434   1.133   0.700 -0.4042  0.5152 -0.1233
  267MPD2    H5 4099   0.408   1.229   0.719  0.4967  1.0426 -1.5289
  267MPD2    N1 4100   0.705   0.753   0.876  0.0724 -0.1296  0.3680
  267MPD2    H7 4101   0.768   0.730   0.953  2.4884 -1.4600 -1.9971
  268TMC3    C1 4102   0.788   0.564   0.781 -0.3397  0.5414  0.6300
  268TMC3    C2 4103   0.825   0.514   0.660  0.2646  0.3217  0.4937
  268TMC3    C3 4104   0.944   0.439   0.659  0.1311  0.1573  0.5733
  268TMC3    C4 4105   0.867   0.546   0.900  0.2766 -0.1969 -0.1805
  268TMC3    C5 4106   0.980   0.467   0.892  0.0437  0.9175  0.0822
  268TMC3    C6 4107   1.018   0.418   0.769 -0.2354 -0.1647 -0.5452
  268TMC3     C 4108   0.693   0.671   0.768 -0.0641 -0.6365  0.2823
  268TMC3     O 4109   0.642   0.685   0.657  0.3555 -0.2441 -0.1286
  268TMC3     H 4110   0.756   0.516   0.576 -1.0601 -2.5660  1.5107
  268TMC3    H1 4111   0.833   0.578   0.998 -1.7948 -0.8267 -0.6926
  268TMC3    H2 4112   1.104   0.352   0.770 -1.4656 -1.7692 -0.9426
  268TMC3    C7 4113   1.069   0.419   1.003 -0.4400  0.0600 -0.4628
  268TMC3    C8 4114   1.013   0.403   0.539  0.4616 -0.2861 -0.1773
  268TMC3    O1 4115   1.153   0.335   0.982 -0.0250  0.0254 -0.6052
  268TMC3    O2 4116   1.108   0.326   0.545  0.3861 -0.0688 -0.3134
  269MPD2     C 4117   1.339   4.278  15.428 -0.0061 -0.5006 -0.0541
  269MPD2    C1 4118   1.247   4.277  15.539  0.4477  0.3956 -0.6433
  269MPD2    C2 4119   1.232   4.399  15.610  1.3822  1.0606  0.0547
  269MPD2    C3 4120   1.290   4.516  15.572  0.1828 -0.2656 -0.3379
  269MPD2    C4 4121   1.377   4.514  15.463 -0.3996 -0.0964 -0.1151
  269MPD2    C5 4122   1.400   4.395  15.395  0.2098  0.6848  0.1103
  269MPD2     H 4123   1.176   4.402  15.703 -0.3539  2.0892 -1.0134
  269MPD2    H1 4124   1.431   4.602  15.428 -0.2904  0.1253  0.6190
  269MPD2    H2 4125   1.352   4.182  15.380  1.4023 -0.5856  0.4914
  269MPD2    H3 4126   1.469   4.394  15.311 -0.6145  0.0754 -0.5595
  269MPD2     N 4127   1.251   4.640  15.636 -0.1384  0.6377  0.7141
  269MPD2    H5 4128   1.194   4.631  15.720 -1.6187 -2.8870 -0.6811
  269MPD2    N1 4129   1.174   4.159  15.569  0.2436 -0.8015  0.7917
  269MPD2    H7 4130   1.184   4.076  15.512  0.9650  0.5405 -1.0252
  270TMC3    C1 4131   1.033   4.014  15.686  0.0961 -0.0636  0.6618
  270TMC3    C2 4132   0.914   3.988  15.626 -0.3895 -0.3926  0.0770
  270TMC3    C3 4133   0.878   3.857  15.598  0.3953 -0.2584 -0.0421
  270TMC3    C4 4134   1.128   3.920  15.709 -0.2605 -0.1405 -0.3261
  270TMC3    C5 4135   1.086   3.789  15.689  0.8080  0.3758 -0.9923
  270TMC3    C6 4136   0.962   3.754  15.641  0.4648 -0.2701  0.6891
  270TMC3     C 4137   1.075   4.148  15.662  0.0447  0.6221  0.0002
  270TMC3     O 4138   1.018   4.228  15.736 -0.2766  0.1165 -0.4500
  270TMC3     H 4139   0.853   4.072  15.595 -0.5921  0.0686  1.7436
  270TMC3    H1 4140   1.233   3.941  15.725 -0.1757 -0.5008 -0.4037
  270TMC3    H2 4141   0.932   3.652  15.625 -1.7157  0.4569  0.2024
  270TMC3    C7 4142   1.198   3.701  15.650  0.0041 -0.0177 -0.4810
  270TMC3    C8 4143   0.847   3.812  15.459 -0.2851 -0.3094  0.8078
  270TMC3    O1 4144   1.296   3.704  15.718 -0.1648 -0.5202  0.6351
  270TMC3    O2 4145   0.916   3.733  15.402 -0.1034 -0.2603  0.3389
  271MPD2     C 4146   0.079   3.528  13.847  0.3982  0.1321 -0.3116
  271MPD2    C1 4147   0.072   3.605  13.953 -0.0445 -0.6204 -0.1540
  271MPD2    C2 4148   4.711   3.703  13.963  0.1684 -0.2733 -0.2798
  271MPD2    C3 4149   4.619   3.721  13.861 -0.0219 -1.0662 -0.0586
  271MPD2    C4 4150   4.623   3.631  13.754  0.0686  0.3315  0.3249
  271MPD2    C5 4151   4.720   3.531  13.751 -0.0528 -0.1581 -0.3016
  271MPD2     H 4152   4.712   3.752  14.060 -2.0166 -1.3591  0.2728
  271MPD2    H1 4153   4.552   3.643  13.673  2.7795  0.7393 -1.9992
  271MPD2    H2 4154   0.158   3.456  13.829 -0.4853 -0.0620 -3.3944
  271MPD2    H3 4155   4.732   3.467  13.664  2.1262 -1.8030  1.2154
  271MPD2     N 4156   4.514   3.818  13.863 -0.5624 -0.9298 -0.6434
  271MPD2    H5 4157   4.455   3.818  13.780 -0.6569 -2.4193 -0.5702
  271MPD2    N1 4158   0.168   3.593  14.057  0.4074 -0.4935  0.1970
  271MPD2    H7 4159   0.152   3.639  14.146  1.5898 -0.5747  0.4480
  272TMC3    C1 4160   0.360   3.539  14.170 -0.5241 -0.4455  0.7049
  272TMC3    C2 4161   0.468   3.455  14.188 -0.0274 -0.0193  0.6223
  272TMC3    C3 4162   0.544   3.461  14.303 -0.1131 -0.1501 -0.4924
  272TMC3    C4 4163   0.332   3.637  14.267 -0.4373  0.3673  0.2799
  272TMC3    C5 4164   0.415   3.641  14.378 -0.1136 -0.1613  0.5600
  272TMC3    C6 4165   0.516   3.551  14.410 -0.0593  0.9983  0.0660
  272TMC3     C 4166   0.291   3.533  14.041 -0.4426 -0.2606  0.1030
  272TMC3     O 4167   0.325   3.459  13.952  0.1834 -0.7816 -0.7703
  272TMC3     H 4168   0.499   3.386  14.110 -0.8672  0.9455 -0.5767
  272TMC3    H1 4169   0.286   3.724  14.223  0.7985  0.4241 -0.9113
  272TMC3    H2 4170   0.580   3.558  14.497 -0.2813  2.6543  0.1029
  272TMC3    C7 4171   0.390   3.753  14.465  0.3320 -0.4284  0.0177
  272TMC3    C8 4172   0.678   3.414  14.290  0.5006  0.1883 -0.1573
  272TMC3    O1 4173   0.280   3.806  14.443  0.9744  0.3780 -0.1503
  272TMC3    O2 4174   0.725   3.407  14.177  0.4384  0.1748 -0.6064
  273MPD2     C 4175   1.817   1.870  11.657 -0.4455 -0.6043 -0.4022
  273MPD2    C1 4176   1.863   1.977  11.735  0.1438 -0.6226  0.0944
  273MPD2    C2 4177   1.924   2.081  11.664  0.1926 -0.1301 -0.5065
  273MPD2    C3 4178   1.937   2.082  11.531  0.1689  0.4000  0.3741
  273MPD2    C4 4179   1.880   1.980  11.459  0.4833  0.2497  0.2976
  273MPD2    C5 4180   1.832   1.871  11.523  0.1976 -0.1522 -0.0222
  273MPD2     H 4181   1.956   2.172  11.715 -4.2018  1.5600 -0.7341
  273MPD2    H1 4182   1.887   1.971  11.351  1.3334 -1.1969  0.4734
  273MPD2    H2 4183   1.779   1.786  11.713 -1.5308  0.1171 -0.0570
  273MPD2    H3 4184   1.800   1.788  11.461  2.7687 -1.9468  1.0656
  273MPD2     N 4185   1.993   2.180  11.458  0.3711 -0.0564  0.2210
  273MPD2    H5 4186   1.971   2.180  11.359 -3.9300 -3.2365  1.1272
  273MPD2    N1 4187   1.851   1.975  11.872 -0.1008 -0.8170 -0.5007
  273MPD2    H7 4188   1.780   1.912  11.908  1.1236 -2.0234 -0.2388
  274TMC3    C1 4189   2.050   2.398  11.408 -0.0130 -0.3983  0.0530
  274TMC3    C2 4190   1.941   2.410  11.328  0.3824  0.5849  0.5293
  274TMC3    C3 4191   1.953   2.497  11.219  0.0577 -0.2528  0.3190
  274TMC3    C4 4192   2.160   2.479  11.397  0.1324 -0.4299  0.5137
  274TMC3    C5 4193   2.154   2.583  11.310  0.1917  0.0582 -0.6297
  274TMC3    C6 4194   2.062   2.576  11.207 -0.4230 -0.3419 -0.5427
  274TMC3     C 4195   2.061   2.291  11.504 -0.4325 -0.1035  0.0454
  274TMC3     O 4196   2.108   2.328  11.614 -0.2653 -0.1772  0.5530
  274TMC3     H 4197   1.847   2.360  11.346  0.3426  0.9397  1.3215
  274TMC3    H1 4198   2.246   2.470  11.462  0.8783  2.3508 -0.1042
  274TMC3    H2 4199   2.056   2.656  11.135  1.1048  0.0020 -0.2943
  274TMC3    C7 4200   2.138   2.713  11.373 -0.2315  0.8298  0.6574
  274TMC3    C8 4201   1.839   2.517  11.130 -0.2507 -0.1463  0.1616
  274TMC3    O1 4202   2.092   2.810  11.311  0.1041 -0.2191 -0.1412
  274TMC3    O2 4203   1.737   2.468  11.175  0.0339  1.0078 -0.6355
  275MPD2     C 4204   2.077   4.481  14.494 -0.2356 -0.4702 -0.1244
  275MPD2    C1 4205   1.998   4.592  14.466  0.6761  0.6630 -0.3674
  275MPD2    C2 4206   1.863   4.589  14.439  0.7292  0.3304  0.2885
  275MPD2    C3 4207   1.810   4.463  14.434  0.6510 -0.1292  0.1548
  275MPD2    C4 4208   1.886   4.351  14.448 -0.1328  0.0546 -0.2806
  275MPD2    C5 4209   2.014   4.361  14.482  0.0689 -0.6674  1.1102
  275MPD2     H 4210   1.815   4.686  14.440  0.8125  0.3765 -0.1403
  275MPD2    H1 4211   1.841   4.253  14.435  2.3067 -1.4948  2.8015
  275MPD2    H2 4212   2.183   4.485  14.519 -0.1389  0.5163 -0.6733
  275MPD2    H3 4213   2.074   4.273  14.500  0.8899 -0.2539  0.3287
  275MPD2     N 4214   1.675   4.446  14.405 -0.2499  0.6640  0.3354
  275MPD2    H5 4215   1.635   4.353  14.404  1.4228 -0.0715  1.1943
  275MPD2    N1 4216   2.047   4.723  14.487 -0.1402  0.3548 -0.7238
  275MPD2    H7 4217   1.979   0.061  14.482 -1.9614 -1.2599  0.2919
  276TMC3    C1 4218   2.177   0.175  14.527  0.8505 -0.1102  0.1450
  276TMC3    C2 4219   2.058   0.237  14.521 -0.2061 -0.8453  1.0911
  276TMC3    C3 4220   2.021   0.335  14.607 -1.0074 -0.1492 -0.5138
  276TMC3    C4 4221   2.272   0.213  14.622 -0.5389 -0.7765 -0.4952
  276TMC3    C5 4222   2.225   0.299  14.715 -0.2310  0.2507 -0.0177
  276TMC3    C6 4223   2.105   0.363  14.705  0.6497  0.1953  0.0868
  276TMC3     C 4224   2.170   0.034  14.499  0.3571  0.9844 -1.0271
  276TMC3     O 4225   2.279   4.719  14.536 -0.0446  0.2731 -0.0154
  276TMC3     H 4226   1.976   0.215  14.455 -0.3056  0.5305  0.7566
  276TMC3    H1 4227   2.359   0.151  14.640 -0.3889 -1.0161 -1.9821
  276TMC3    H2 4228   2.076   0.435  14.781 -1.8078 -0.7643  0.0688
  276TMC3    C7 4229   2.290   0.312  14.846 -0.1263  0.7739  0.2603
  276TMC3    C8 4230   1.893   0.306  14.661  0.3652  0.5331 -0.0320
  276TMC3    O1 4231   2.225   0.373  14.930  0.4437  0.0665  0.7113
  276TMC3    O2 4232   1.802   0.389  14.675 -0.4522  0.0125  0.0038
  277MPD2     C 4233   3.275   4.260  13.021  0.2968  0.0730 -0.3939
  277MPD2    C1 4234   3.166   4.282  13.100  0.5620  0.3816 -0.1794
  277MPD2    C2 4235   3.139   4.204  13.204  0.3600  0.4089 -0.0062
  277MPD2    C3 4236   3.214   4.092  13.229 -0.2519  0.3203 -0.0603
  277MPD2    C4 4237   3.317   4.064  13.138  0.0825 -0.0138  0.3312
  277MPD2    C5 4238   3.347   4.143  13.032  0.0381  0.0128  0.2272
  277MPD2     H 4239   3.061   4.234  13.273  1.2906  1.2029  0.7061
  277MPD2    H1 4240   3.361   3.965  13.145 -2.0798 -1.0040 -0.0409
  277MPD2    H2 4241   3.306   4.329  12.943  0.5016 -1.6642 -1.8431
  277MPD2    H3 4242   3.416   4.108  12.956  0.6869 -0.8062  1.1806
  277MPD2     N 4243   3.184   4.019  13.351  0.0076 -0.1272 -1.0159
  277MPD2    H5 4244   3.105   4.057  13.404  1.4264  2.1546 -0.5398
  277MPD2    N1 4245   3.086   4.396  13.063 -0.1109  0.2921 -0.1002
  277MPD2    H7 4246   3.117   4.456  12.988  0.0258 -0.8338 -0.9447
  278TMC3    C1 4247   3.176   3.835  13.501 -0.5068 -0.1574 -0.1945
  278TMC3    C2 4248   3.187   3.700  13.519 -0.4731 -0.0297 -0.4251
  278TMC3    C3 4249   3.126   3.637  13.625 -0.5780  0.1642  0.0448
  278TMC3    C4 4250   3.086   3.896  13.578 -0.3609  0.2896  0.7309
  278TMC3    C5 4251   3.033   3.828  13.687 -0.3032 -0.2981  0.2535
  278TMC3    C6 4252   3.055   3.697  13.718 -0.0212  0.0450  0.2048
  278TMC3     C 4253   3.239   3.893  13.379  0.2673 -0.3389  0.0859
  278TMC3     O 4254   3.306   3.818  13.307 -0.0471  0.1888  0.5013
  278TMC3     H 4255   3.255   3.642  13.458 -0.3911  0.3087 -0.6469
  278TMC3    H1 4256   3.052   3.999  13.569 -0.7972 -0.1128 -2.3821
  278TMC3    H2 4257   3.026   3.643  13.807  0.0053  0.3984  0.4308
  278TMC3    C7 4258   2.927   3.897  13.759 -0.3793 -0.1498 -1.0066
  278TMC3    C8 4259   3.140   3.499  13.630  0.3063 -1.0289 -0.1576
  278TMC3    O1 4260   2.926   4.019  13.773 -0.0139  0.1458  0.1173
  278TMC3    O2 4261   3.154   3.444  13.737  0.0406 -0.5276 -0.5243
  279MPD2     C 4262   2.715   3.653   0.335 -0.4414  0.8844  0.2914
  279MPD2    C1 4263   2.642   3.759   0.285 -0.5511  0.0151  0.7619
  279MPD2    C2 4264   2.652   3.782   0.150  0.2746 -0.4013 -0.5071
  279MPD2    C3 4265   2.742   3.704   0.070 -0.7691 -0.5395  0.4602
  279MPD2    C4 4266   2.826   3.611   0.130  0.0091 -0.0065  1.1517
  279MPD2    C5 4267   2.806   3.581   0.267  0.3642 -0.5327  0.2661
  279MPD2     H 4268   2.599   3.869   0.114  1.8029  0.6840 -0.0932
  279MPD2    H1 4269   2.900   3.559   0.071  1.0440 -0.1164  2.5408
  279MPD2    H2 4270   2.711   3.642   0.443 -0.7530  0.3263  0.2229
  279MPD2    H3 4271   2.866   3.505   0.315  0.9707 -0.2476 -0.0309
  279MPD2     N 4272   2.761   3.724  17.682  0.1748  0.7935  0.3834
  279MPD2    H5 4273   2.835   3.669  17.638 -0.8341  0.3976 -0.8229
  279MPD2    N1 4274   2.560   3.839   0.370 -0.3603 -0.6636  0.2715
  279MPD2    H7 4275   2.525   3.793   0.453  0.6155 -0.7692  0.6287
  280TMC3    C1 4276   2.448   4.023   0.456 -0.4704  0.2067  0.5447
  280TMC3    C2 4277   2.445   3.960   0.578 -0.1262  0.1444  0.0610
  280TMC3    C3 4278   2.378   4.022   0.678  0.3683 -0.0095  1.0390
  280TMC3    C4 4279   2.369   4.134   0.432 -0.2505 -0.6397  0.1540
  280TMC3    C5 4280   2.297   4.189   0.531 -0.2629  0.1483 -0.2617
  280TMC3    C6 4281   2.302   4.138   0.658  0.1298  0.8340  0.2987
  280TMC3     C 4282   2.510   3.967   0.339  0.0080  0.8477 -0.3134
  280TMC3     O 4283   2.511   4.039   0.238 -0.3208 -0.2911 -0.2905
  280TMC3     H 4284   2.523   3.887   0.596  0.2704  0.4839 -0.2755
  280TMC3    H1 4285   2.366   4.181   0.335  0.4689  1.0470  0.9605
  280TMC3    H2 4286   2.260   4.191   0.743  0.1441  1.4785 -0.0932
  280TMC3    C7 4287   2.248   4.327   0.524 -0.3099 -0.3945  0.2564
  280TMC3    C8 4288   2.421   3.997   0.817  0.7701 -0.3730  0.5480
  280TMC3    O1 4289   2.235   4.393   0.630  0.2944 -0.5925 -0.1725
  280TMC3    O2 4290   2.388   4.082   0.895 -0.0891  0.9536  0.3708
  281TMC3    C1 4291   1.653   4.020  13.387 -0.4166  0.0670  1.4195
  281TMC3    C2 4292   1.744   4.124  13.374  0.3938 -0.0855 -0.3226
  281TMC3    C3 4293   1.868   4.093  13.312  0.0986  0.7014  0.9572
  281TMC3    C4 4294   1.688   3.894  13.344  0.1583 -0.1580 -1.1156
  281TMC3    C5 4295   1.808   3.877  13.283  0.6437  0.2960  0.1763
  281TMC3    C6 4296   1.906   3.973  13.269  0.5582 -0.1161 -0.3941
  281TMC3     C 4297   1.514   4.044  13.401 -0.2513 -0.5533 -0.1625
  281TMC3     O 4298   1.449   3.946  13.420 -0.4054  0.0190 -0.2919
  281TMC3     H 4299   1.731   4.216  13.429 -0.2455  0.1012 -0.7845
  281TMC3    H1 4300   1.614   3.815  13.342 -0.9987  0.9084 -0.6170
  281TMC3    H2 4301   2.001   3.958  13.219 -0.2000 -2.3610 -1.1659
  281TMC3    C7 4302   1.842   3.748  13.226  0.5822  0.4830  0.2687
  281TMC3    C8 4303   1.978   4.186  13.329 -0.0390  0.1292  0.4717
  281TMC3    O1 4304   1.953   3.735  13.171  0.1495  0.3863 -0.3303
  281TMC3    O2 4305   2.081   4.126  13.347 -0.4946 -0.0986  0.1655
  282MPD2     C 4306   3.205   0.587  15.367 -0.2225  0.4273  0.6052
  282MPD2    C1 4307   3.072   0.604  15.372 -0.2884  0.6242 -0.3062
  282MPD2    C2 4308   2.994   0.607  15.263  0.9230 -0.1788  1.5209
  282MPD2    C3 4309   3.056   0.603  15.141 -0.2488  0.0369  0.8403
  282MPD2    C4 4310   3.190   0.595  15.134 -0.1684  0.3628  0.1945
  282MPD2    C5 4311   3.264   0.576  15.247  0.0453 -0.4829  0.2019
  282MPD2     H 4312   2.887   0.613  15.277  0.9215  0.1290  1.3696
  282MPD2    H1 4313   3.243   0.605  15.040 -1.8538  1.3125 -0.6611
  282MPD2    H2 4314   3.270   0.591  15.454  0.3651  1.5213  0.1280
  282MPD2    H3 4315   3.369   0.573  15.220 -0.0312 -0.8266 -0.0651
  282MPD2     N 4316   2.977   0.594  15.021  0.8646 -0.1549 -0.2196
  282MPD2    H5 4317   2.878   0.609  15.036  0.9520 -1.3617  1.5096
  282MPD2    N1 4318   2.996   0.614  15.491  0.0147  0.0164 -0.3980
  282MPD2    H7 4319   2.896   0.629  15.487  0.0660  0.1872 -1.0070
  283TMC3    C1 4320   2.956   0.598  15.721  0.1277  0.4168 -0.4305
  283TMC3    C2 4321   2.908   0.721  15.750 -0.0530  0.1605 -0.5823
  283TMC3    C3 4322   2.846   0.735  15.871 -0.1851 -0.0690  0.3423
  283TMC3    C4 4323   2.929   0.485  15.795  0.0796 -0.1853  0.0466
  283TMC3    C5 4324   2.870   0.504  15.918  0.8620 -0.1650  0.4623
  283TMC3    C6 4325   2.829   0.630  15.954 -0.1858  0.7452 -0.4158
  283TMC3     C 4326   3.053   0.584  15.613  0.2008  0.0923 -0.0373
  283TMC3     O 4327   3.159   0.529  15.646 -0.1810  0.2501 -0.2891
  283TMC3     H 4328   2.946   0.803  15.690  1.2764 -0.0280  0.0087
  283TMC3    H1 4329   2.955   0.387  15.759  1.0057  0.4614 -1.0475
  283TMC3    H2 4330   2.794   0.645  16.056  2.3335  2.1267  0.2589
  283TMC3    C7 4331   2.788   0.402  15.968  0.3305 -0.3688 -0.6134
  283TMC3    C8 4332   2.833   0.869  15.928  0.1902 -0.1771  0.3313
  283TMC3    O1 4333   2.753   0.413  16.085 -0.2734  0.1827 -0.6305
  283TMC3    O2 4334   2.778   0.871  16.035  0.6038 -0.3914 -0.2059
  284MPD2     C 4335   0.519   0.197  11.965  0.0346 -0.3583 -0.0844
  284MPD2    C1 4336   0.653   0.155  11.939 -0.1237  0.4670  0.4561
  284MPD2    C2 4337   0.720   0.072  12.027 -0.0204 -0.2809  0.2740
  284MPD2    C3 4338   0.650   0.037  12.145 -0.1149 -0.7931  0.3024
  284MPD2    C4 4339   0.526   0.084  12.171 -0.6720  0.7019  0.4892
  284MPD2    C5 4340   0.455   0.149  12.071 -0.0515 -0.3472 -0.2455
  284MPD2     H 4341   0.825   0.048  12.016 -0.2628 -1.1117 -0.2310
  284MPD2    H1 4342   0.472   0.074  12.264 -2.3053  3.7591 -0.1402
  284MPD2    H2 4343   0.460   0.258  11.898  1.6346 -1.1724 -2.2274
  284MPD2    H3 4344   0.353   0.178  12.090  0.5808  0.3987  1.9436
  284MPD2     N 4345   0.719   4.717  12.254 -0.2402 -0.5065 -0.1098
  284MPD2    H5 4346   0.680   4.728  12.347  2.8029  0.4295  1.0814
  284MPD2    N1 4347   0.732   0.199  11.830 -0.9740 -0.3137  0.4202
  284MPD2    H7 4348   0.827   0.163  11.823 -1.1527 -0.8031  0.5395
  285TMC3    C1 4349   0.808   0.368  11.692  0.3743 -0.1697 -0.4356
  285TMC3    C2 4350   0.929   0.303  11.670 -0.0321 -0.3647  0.1355
  285TMC3    C3 4351   1.036   0.384  11.628  0.7932  0.8043  0.2854
  285TMC3    C4 4352   0.790   0.502  11.677 -0.5233  0.1310  0.3643
  285TMC3    C5 4353   0.894   0.573  11.624  0.3095  0.0666  0.0133
  285TMC3    C6 4354   1.016   0.516  11.596  0.3199  0.1519 -0.5849
  285TMC3     C 4355   0.697   0.307  11.755  0.5106  0.3187  0.1385
  285TMC3     O 4356   0.596   0.380  11.763 -0.0052 -0.1941 -0.0242
  285TMC3     H 4357   0.948   0.197  11.662  2.4660  0.0684  0.1650
  285TMC3    H1 4358   0.701   0.562  11.698 -0.0044  0.7534  0.8137
  285TMC3    H2 4359   1.093   0.583  11.559  2.8680 -2.2327  0.3722
  285TMC3    C7 4360   0.896   0.719  11.626  0.2711  0.3282 -0.3422
  285TMC3    C8 4361   1.149   0.328  11.556  0.3705  0.3355 -0.1974
  285TMC3    O1 4362   0.983   0.783  11.569 -0.0905  0.2608 -0.2605
  285TMC3    O2 4363   1.130   0.232  11.481  0.0318  0.0129  0.3903
  286MPD2     C 4364   1.302   2.933   1.652 -0.6255  0.6240  0.3199
  286MPD2    C1 4365   1.384   3.032   1.598  0.4545  0.2694 -0.3491
  286MPD2    C2 4366   1.505   2.995   1.540  0.3221  0.5705  0.4191
  286MPD2    C3 4367   1.556   2.863   1.534 -0.3958  0.2249  0.4945
  286MPD2    C4 4368   1.476   2.764   1.596  0.2590 -0.0411 -0.2855
  286MPD2    C5 4369   1.352   2.808   1.652  0.2950 -0.0359 -0.4187
  286MPD2     H 4370   1.565   3.074   1.497 -1.7591  3.3168  2.5579
  286MPD2    H1 4371   1.508   2.662   1.615 -2.9397 -0.9756  0.1725
  286MPD2    H2 4372   1.201   2.943   1.689 -0.0448 -0.7301  2.2761
  286MPD2    H3 4373   1.296   2.744   1.719 -2.1277  1.5628 -0.9403
  286MPD2     N 4374   1.686   2.829   1.480  0.2121 -0.1846  0.2638
  286MPD2    H5 4375   1.761   2.896   1.472 -1.2144  1.1924 -1.5040
  286MPD2    N1 4376   1.353   3.171   1.609 -0.3249 -0.4963 -0.3716
  286MPD2    H7 4377   1.428   3.236   1.591  0.6584 -0.9654  2.0202
  287TMC3    C1 4378   1.849   2.692   1.400 -0.3199  0.0026  0.0762
  287TMC3    C2 4379   1.869   2.624   1.285 -0.9744 -0.7691 -0.1088
  287TMC3    C3 4380   1.999   2.616   1.244 -0.0012  0.5202 -0.5343
  287TMC3    C4 4381   1.939   2.749   1.480  0.2547 -0.0003  0.1954
  287TMC3    C5 4382   2.062   2.742   1.429  0.4902  0.2905 -0.7490
  287TMC3    C6 4383   2.101   2.680   1.313 -0.3277 -0.2644  0.1104
  287TMC3     C 4384   1.708   2.703   1.434 -0.1501 -0.0559  0.5293
  287TMC3     O 4385   1.633   2.621   1.387 -0.3358  0.3705  0.3029
  287TMC3     H 4386   1.788   2.578   1.228 -0.6541 -1.3863 -0.0571
  287TMC3    H1 4387   1.906   2.789   1.576 -0.1774  0.7751 -0.2758
  287TMC3    H2 4388   2.203   2.675   1.276 -0.2478  0.9193  0.1770
  287TMC3    C7 4389   2.159   2.817   1.513 -0.9815  0.3995  0.2444
  287TMC3    C8 4390   2.034   2.563   1.117  0.0695  0.7534  0.1627
  287TMC3    O1 4391   2.124   2.871   1.618 -0.3564  0.7611 -0.4869
  287TMC3    O2 4392   1.978   2.461   1.084 -0.6440  0.2093 -0.2834
  288TMC3    C1 4393   3.393   3.514  14.277  0.4002  0.5001 -0.2707
  288TMC3    C2 4394   3.303   3.478  14.379 -0.3996 -0.5799 -0.4507
  288TMC3    C3 4395   3.201   3.559  14.421  0.2748  0.6328  0.1444
  288TMC3    C4 4396   3.377   3.636  14.220 -0.1778 -0.0867 -0.7743
  288TMC3    C5 4397   3.272   3.716  14.265 -0.1397  0.4889 -0.8991
  288TMC3    C6 4398   3.182   3.676  14.358 -0.2837 -0.4548 -0.0319
  288TMC3     C 4399   3.522   3.450  14.285  0.4723  0.9888 -0.3580
  288TMC3     O 4400   3.564   3.416  14.396 -0.5394 -0.0562 -0.1830
  288TMC3     H 4401   3.322   3.386  14.434  3.2627 -0.7330 -1.9221
  288TMC3    H1 4402   3.448   3.677  14.149 -0.1189  0.2813 -0.5020
  288TMC3    H2 4403   3.103   3.742  14.392  0.9326 -0.2786  2.4993
  288TMC3    C7 4404   3.241   3.835  14.189  0.1863 -0.1889 -0.3890
  288TMC3    C8 4405   3.141   3.537  14.555 -0.0558 -0.0434  0.3848
  288TMC3    O1 4406   3.123   3.862  14.175 -0.2383 -0.1217 -0.6101
  288TMC3    O2 4407   3.067   3.624  14.598  0.2268 -0.5845 -0.5752
  289MPD2     C 4408   3.463   2.252  14.739  0.3870 -0.1773 -0.0521
  289MPD2    C1 4409   3.470   2.379  14.685  0.2909  0.3521 -0.0756
  289MPD2    C2 4410   3.350   2.437  14.636  0.6147  0.0319  0.5585
  289MPD2    C3 4411   3.230   2.382  14.662  0.4324  0.3093  0.6857
  289MPD2    C4 4412   3.220   2.263  14.722 -0.3080  0.3684  0.3259
  289MPD2    C5 4413   3.333   2.202  14.764  0.2666 -0.2123 -0.1032
  289MPD2     H 4414   3.365   2.528  14.578  2.5183 -0.9258 -0.4348
  289MPD2    H1 4415   3.121   2.226  14.744  0.0319 -1.1427 -0.7121
  289MPD2    H2 4416   3.553   2.199  14.764  0.3190 -0.8230 -1.1791
  289MPD2    H3 4417   3.318   2.108  14.816  1.6731 -0.7974 -0.7360
  289MPD2     N 4418   3.111   2.447  14.629 -0.2676 -1.4115  0.1761
  289MPD2    H5 4419   3.033   2.385  14.610 -2.5258  1.6879 -0.6413
  289MPD2    N1 4420   3.595   2.439  14.663 -0.0955 -1.1708 -1.1502
  289MPD2    H7 4421   3.675   2.396  14.709 -0.4381 -0.8067 -0.1967
  290TMC3    C1 4422   2.970   2.594  14.520 -0.3545 -0.4080 -0.6806
  290TMC3    C2 4423   2.945   2.723  14.482  0.1015 -0.2081 -0.5033
  290TMC3    C3 4424   2.847   2.745  14.389  0.4005  0.2868  0.1302
  290TMC3    C4 4425   2.909   2.485  14.461  0.7013  0.3335  0.6053
  290TMC3    C5 4426   2.815   2.509  14.361  0.5941 -0.0682  0.2107
  290TMC3    C6 4427   2.788   2.639  14.327 -0.3377 -0.2600  0.1371
  290TMC3     C 4428   3.101   2.572  14.580 -0.3977 -0.1058  0.2586
  290TMC3     O 4429   3.185   2.669  14.575 -0.4050  0.5542  0.0003
  290TMC3     H 4430   3.011   2.802  14.516 -0.5698  0.5089 -0.8503
  290TMC3    H1 4431   2.929   2.385  14.497 -1.2089 -1.0055 -2.0273
  290TMC3    H2 4432   2.713   2.663  14.253  0.0427  3.1508  0.8630
  290TMC3    C7 4433   2.756   2.415  14.268 -0.4950 -0.0715 -0.1484
  290TMC3    C8 4434   2.859   2.879  14.333 -0.1958 -0.3870 -0.0152
  290TMC3    O1 4435   2.715   2.457  14.163  0.2068  0.0756 -0.4969
  290TMC3    O2 4436   2.857   2.900  14.212 -0.4314  0.3596  0.1316
  291MPD2     C 4437   3.756   2.142   0.917 -0.1382 -0.0733 -0.2782
  291MPD2    C1 4438   3.625   2.196   0.911  0.2768 -0.7138 -0.3008
  291MPD2    C2 4439   3.619   2.334   0.939  0.1589  0.1538  0.6862
  291MPD2    C3 4440   3.723   2.417   0.961  0.0361 -0.3348 -0.5839
  291MPD2    C4 4441   3.853   2.364   0.967  0.3148 -0.3709  0.3866
  291MPD2    C5 4442   3.863   2.225   0.945  0.3839  0.2559  0.0697
  291MPD2     H 4443   3.515   2.364   0.935  0.0761 -0.0413  1.4255
  291MPD2    H1 4444   3.944   2.419   0.991  0.2462  0.7997 -2.0613
  291MPD2    H2 4445   3.782   2.038   0.904 -0.2575 -0.1203 -0.1443
  291MPD2    H3 4446   3.955   2.176   0.975 -0.6442 -1.1523  0.9287
  291MPD2     N 4447   3.690   2.550   0.995  0.4015 -0.3509 -0.6040
  291MPD2    H5 4448   3.593   2.580   0.982 -0.4794 -1.3775  3.4829
  291MPD2    N1 4449   3.510   2.119   0.891  0.1104 -0.8507 -0.3713
  291MPD2    H7 4450   3.427   2.154   0.937  1.9897 -2.0299  3.8901
  292TMC3    C1 4451   3.398   1.905   0.895 -0.3112  0.3885 -0.1239
  292TMC3    C2 4452   3.369   1.921   1.026  0.1003  0.0391 -0.4603
  292TMC3    C3 4453   3.271   1.855   1.083 -0.2042 -0.2976  0.1725
  292TMC3    C4 4454   3.332   1.806   0.814  0.6720 -0.2793 -0.2780
  292TMC3    C5 4455   3.229   1.747   0.874 -0.1346 -0.5024 -0.1450
  292TMC3    C6 4456   3.197   1.769   1.006 -0.2537 -0.0046 -0.0696
  292TMC3     C 4457   3.501   1.990   0.841  0.7810 -0.3477 -0.2231
  292TMC3     O 4458   3.566   1.937   0.753  0.2041 -0.4534 -0.4347
  292TMC3     H 4459   3.419   1.994   1.090  0.1280 -1.4666  1.2198
  292TMC3    H1 4460   3.340   1.805   0.705 -1.6875  2.1347 -0.4771
  292TMC3    H2 4461   3.096   1.740   1.032 -0.4115  1.4167  0.8783
  292TMC3    C7 4462   3.143   1.675   0.776  0.2106  0.5534  0.0712
  292TMC3    C8 4463   3.254   1.863   1.224  0.0901  0.4026 -0.0299
  292TMC3    O1 4464   3.145   1.698   0.657  0.0977  0.6648 -0.3584
  292TMC3    O2 4465   3.311   1.956   1.285 -0.0265  0.0605 -0.1488
  293MPD2     C 4466   4.146   4.009  12.636  0.8193  0.3423 -0.0950
  293MPD2    C1 4467   4.060   3.985  12.738 -0.2122 -0.2242  0.1848
  293MPD2    C2 4468   4.113   3.949  12.859 -0.0275 -0.1783  0.3073
  293MPD2    C3 4469   4.246   3.939  12.887  0.3013  0.1403 -0.2151
  293MPD2    C4 4470   4.328   3.976  12.778  0.4757 -0.0137  0.1064
  293MPD2    C5 4471   4.279   4.014  12.661  0.2685  0.3216  0.5320
  293MPD2     H 4472   4.047   3.932  12.944 -0.4538 -1.2291 -0.2328
  293MPD2    H1 4473   4.436   3.970  12.779  0.5046  0.5985  0.6483
  293MPD2    H2 4474   4.106   4.042  12.541 -0.3493 -1.7132 -0.3275
  293MPD2    H3 4475   4.343   4.032  12.575 -0.2099 -0.1318  0.0784
  293MPD2     N 4476   4.290   3.884  13.012 -0.2946  0.1076 -0.9410
  293MPD2    H5 4477   4.224   3.864  13.086 -0.8780  1.9706 -0.9495
  293MPD2    N1 4478   3.921   4.005  12.710  0.6690 -0.0607  0.2328
  293MPD2    H7 4479   3.900   4.044  12.619 -3.1077  1.3335  1.7019
  294TMC3    C1 4480   3.708   3.935  12.713  0.3488 -0.5272  0.6912
  294TMC3    C2 4481   3.666   3.806  12.720 -0.0307 -0.0242 -0.0663
  294TMC3    C3 4482   3.650   3.731  12.601  0.1740 -0.0941  0.3481
  294TMC3    C4 4483   3.720   3.991  12.591 -0.0100  0.0152  1.1849
  294TMC3    C5 4484   3.711   3.919  12.478  0.2520  0.0002  0.1654
  294TMC3    C6 4485   3.676   3.790  12.483  0.5556  0.2810 -0.0841
  294TMC3     C 4486   3.824   3.955  12.794  0.2318 -0.6918  0.9762
  294TMC3     O 4487   3.839   3.882  12.891  0.0136 -0.3705  0.1411
  294TMC3     H 4488   3.667   3.753  12.814  0.7454  1.7082  0.9086
  294TMC3    H1 4489   3.718   4.098  12.578  0.9265 -0.1604 -0.4468
  294TMC3    H2 4490   3.661   3.745  12.386  1.2621 -0.6532  0.2396
  294TMC3    C7 4491   3.781   3.971  12.355 -0.5821  0.2826  0.2479
  294TMC3    C8 4492   3.610   3.591  12.609  0.3270  0.7143  0.0680
  294TMC3    O1 4493   3.882   3.914  12.316  0.0312  0.3082  0.1196
  294TMC3    O2 4494   3.542   3.558  12.704 -0.2192  0.2141 -0.5906
  295MPD2     C 4495   0.773   2.965   0.768  0.3073 -0.1921  0.3844
  295MPD2    C1 4496   0.647   2.922   0.768 -0.1637  0.7339  0.6052
  295MPD2    C2 4497   0.600   2.851   0.876  0.0858  0.0720  0.1515
  295MPD2    C3 4498   0.675   2.828   0.986 -0.4596 -0.0486 -0.0317
  295MPD2    C4 4499   0.808   2.866   0.980  0.4013  0.0453 -0.6062
  295MPD2    C5 4500   0.855   2.944   0.875  0.0334 -0.2533 -0.9388
  295MPD2     H 4501   0.498   2.815   0.862  0.3036 -0.0555 -1.1047
  295MPD2    H1 4502   0.871   2.854   1.067  1.5336  1.2876 -1.2658
  295MPD2    H2 4503   0.816   3.017   0.684 -1.0335 -1.7638 -1.2807
  295MPD2    H3 4504   0.959   2.974   0.874  0.4063 -1.5367 -0.9403
  295MPD2     N 4505   0.636   2.754   1.096 -0.1217  0.2508  0.3447
  295MPD2    H5 4506   0.704   2.720   1.163  1.1837  2.7338  0.3076
  295MPD2    N1 4507   0.565   2.930   0.652 -0.3978  0.0872  0.1858
  295MPD2    H7 4508   0.467   2.905   0.662 -0.0990 -0.6909  1.2122
  296TMC3    C1 4509   0.483   2.651   1.233  0.1380  1.1172 -0.3750
  296TMC3    C2 4510   0.374   2.685   1.311 -0.1068  0.2232  0.4572
  296TMC3    C3 4511   0.348   2.594   1.404 -0.1688 -0.2464  0.1303
  296TMC3    C4 4512   0.549   2.532   1.231 -0.3231  0.3196  0.2857
  296TMC3    C5 4513   0.524   2.446   1.333 -0.7707 -0.7136 -0.5518
  296TMC3    C6 4514   0.415   2.474   1.416 -0.0550 -0.5770 -0.0531
  296TMC3     C 4515   0.507   2.744   1.130 -0.4862  0.3458 -0.3946
  296TMC3     O 4516   0.416   2.829   1.116  0.0523 -0.0740 -0.7233
  296TMC3     H 4517   0.325   2.782   1.322  1.0870  0.6205  2.3037
  296TMC3    H1 4518   0.630   2.510   1.162 -0.0916  2.1153 -0.0104
  296TMC3    H2 4519   0.393   2.417   1.506  1.0578 -1.5902 -0.4092
  296TMC3    C7 4520   0.588   2.321   1.322  0.1240 -0.5627  0.7150
  296TMC3    C8 4521   0.212   2.606   1.453  0.4750  0.1235 -0.6658
  296TMC3    O1 4522   0.696   2.310   1.263 -0.2541  0.3004  0.1678
  296TMC3    O2 4523   0.190   2.588   1.569  0.2353  0.2189  0.0755
  297MPD2     C 4524   2.141   4.117  16.201 -0.5691  0.4787  0.4943
  297MPD2    C1 4525   2.102   4.241  16.154 -0.3190  0.8730  0.0697
  297MPD2    C2 4526   2.193   4.348  16.179  0.4235 -0.2307  0.7805
  297MPD2    C3 4527   2.305   4.332  16.264 -0.2832  0.3088 -0.5841
  297MPD2    C4 4528   2.335   4.204  16.308  0.1022 -0.0234 -0.4944
  297MPD2    C5 4529   2.254   4.099  16.273 -0.3010 -0.4636 -0.2733
  297MPD2     H 4530   2.166   4.442  16.131  0.7311 -0.9381 -0.7738
  297MPD2    H1 4531   2.421   4.189  16.371 -0.1528 -2.8171 -0.7986
  297MPD2    H2 4532   2.078   4.029  16.198 -0.0366  0.1322 -0.9160
  297MPD2    H3 4533   2.272   3.998  16.309  0.0941  0.7712  3.0070
  297MPD2     N 4534   2.374   4.447  16.310 -0.5405  0.4117 -0.0864
  297MPD2    H5 4535   2.464   4.444  16.357  0.6420 -1.2687 -2.4523
  297MPD2    N1 4536   1.981   4.266  16.085  0.0287  0.1913 -1.2608
  297MPD2    H7 4537   1.956   4.364  16.079  0.1847  0.3105 -0.0733
  298TMC3    C1 4538   1.789   4.246  15.964  0.8306  0.6461  0.2733
  298TMC3    C2 4539   1.760   4.215  15.832 -0.3468 -0.1662  0.0762
  298TMC3    C3 4540   1.683   4.300  15.759 -1.1047  0.2459  0.3152
  298TMC3    C4 4541   1.741   4.362  16.016 -0.4834  0.2758 -0.6813
  298TMC3    C5 4542   1.657   4.438  15.939  0.7100  0.1029 -0.5962
  298TMC3    C6 4543   1.633   4.416  15.808  0.3340 -0.4951 -0.1457
  298TMC3     C 4544   1.900   4.178  16.017 -0.2545  0.3875 -0.8171
  298TMC3     O 4545   1.918   4.063  15.986 -0.6239  0.2130  0.3334
  298TMC3     H 4546   1.823   4.144  15.779 -3.9007 -2.6704 -0.7897
  298TMC3    H1 4547   1.754   4.382  16.122 -1.7052 -1.9996 -0.1070
  298TMC3    H2 4548   1.562   4.473  15.750 -1.3231 -1.1470  1.2178
  298TMC3    C7 4549   1.602   4.554  16.004 -0.3063 -0.6118 -0.4972
  298TMC3    C8 4550   1.703   4.283  15.617 -0.3498 -1.0119 -0.2722
  298TMC3    O1 4551   1.593   4.557  16.128  0.6898 -0.7542 -0.3797
  298TMC3    O2 4552   1.742   4.171  15.585 -0.0481 -0.7773 -0.4162
  299MPD2     C 4553   2.921   4.341  10.853  0.3818 -0.0035 -0.3902
  299MPD2    C1 4554   2.923   4.457  10.785  0.0135 -0.0246 -0.7635
  299MPD2    C2 4555   2.829   4.477  10.688 -0.4273 -0.1552 -0.1358
  299MPD2    C3 4556   2.740   4.380  10.655  0.1499 -0.1847  0.2861
  299MPD2    C4 4557   2.742   4.260  10.727 -0.2405 -0.8691  0.1954
  299MPD2    C5 4558   2.839   4.233  10.821  0.1014 -0.0293 -0.1703
  299MPD2     H 4559   2.825   4.570  10.634 -2.6902 -2.3041 -3.6250
  299MPD2    H1 4560   2.655   4.196  10.719  0.3186 -1.4280 -1.5403
  299MPD2    H2 4561   2.999   4.329  10.927 -1.4994  1.8927  1.9327
  299MPD2    H3 4562   2.843   4.143  10.881 -4.8573 -0.3010 -0.2378
  299MPD2     N 4563   2.644   4.394  10.552  0.8804 -0.8524 -0.3192
  299MPD2    H5 4564   2.568   4.327  10.549  0.7089 -0.6855  0.3811
  299MPD2    N1 4565   3.020   4.552  10.816  0.2630  0.2502 -0.3134
  299MPD2    H7 4566   3.089   4.521  10.884 -0.4018 -1.0792 -0.2391
  300TMC3    C1 4567   2.523   4.508  10.384  0.0159  0.1889 -0.1960
  300TMC3    C2 4568   2.489   4.639  10.365  0.1623 -0.3785 -0.7201
  300TMC3    C3 4569   2.359   4.674  10.374 -0.0777  0.1859  0.9328
  300TMC3    C4 4570   2.430   4.415  10.389 -0.2076  0.1066 -0.1080
  300TMC3    C5 4571   2.304   4.448  10.399  0.3640  0.0239  0.3066
  300TMC3    C6 4572   2.263   4.580  10.380  0.1641  0.0062 -0.5686
  300TMC3     C 4573   2.650   4.490  10.455 -0.6814 -0.3789 -0.1197
  300TMC3     O 4574   2.744   4.562  10.430 -0.8287 -0.0584  0.3944
  300TMC3     H 4575   2.567   4.714  10.371 -0.4322  0.1837 -0.0144
  300TMC3    H1 4576   2.447   4.309  10.373 -1.5151 -0.1123 -0.0610
  300TMC3    H2 4577   2.164   4.616  10.406 -0.2444 -0.0334 -2.0566
  300TMC3    C7 4578   2.210   4.353  10.450 -0.6076 -0.3281  0.4513
  300TMC3    C8 4579   2.329   0.078  10.369  0.2134  0.0771 -0.1259
  300TMC3    O1 4580   2.223   4.230  10.439 -0.5188 -0.0131 -0.4203
  300TMC3    O2 4581   2.413   0.160  10.401 -0.2125 -0.0224 -0.3446
  301MPD2     C 4582   0.644   0.512   1.280  0.2741  0.4137  0.2816
  301MPD2    C1 4583   0.563   0.512   1.175 -0.6497 -0.8936  0.3494
  301MPD2    C2 4584   0.553   0.398   1.104 -0.1452  0.6823  0.0686
  301MPD2    C3 4585   0.615   0.281   1.147  0.0346  0.5689  0.3906
  301MPD2    C4 4586   0.706   0.281   1.249  0.9917  0.1539 -0.0861
  301MPD2    C5 4587   0.716   0.396   1.320 -0.5945  0.4223 -0.0644
  301MPD2     H 4588   0.491   0.391   1.015 -0.6139 -0.8815  0.5093
  301MPD2    H1 4589   0.761   0.192   1.280  0.6323  0.0114  0.1425
  301MPD2    H2 4590   0.646   0.597   1.348  0.0731  1.2327 -0.7399
  301MPD2    H3 4591   0.783   0.394   1.405 -0.3122  2.4386 -0.2392
  301MPD2     N 4592   0.597   0.153   1.088 -0.4445  0.4624 -0.0636
  301MPD2    H5 4593   0.632   0.074   1.141  0.5739  0.8306 -0.1941
  301MPD2    N1 4594   0.472   0.615   1.143  0.0375  0.4398 -0.1342
  301MPD2    H7 4595   0.403   0.589   1.073  1.2411 -2.0488 -0.4148
  302TMC3    C1 4596   0.505   4.713   0.943  0.7076 -0.1020 -0.9134
  302TMC3    C2 4597   0.570   4.609   1.012  0.0931 -0.2030  0.2595
  302TMC3    C3 4598   0.531   4.479   0.996 -0.9062 -0.3485 -0.1695
  302TMC3    C4 4599   0.417   4.681   0.848 -0.2466 -0.2337 -0.0914
  302TMC3    C5 4600   0.402   4.547   0.816  0.0525 -0.0025 -0.4926
  302TMC3    C6 4601   0.458   4.448   0.889  0.2890 -0.7775  0.5653
  302TMC3     C 4602   0.520   0.123   0.976  0.1560  0.1995  0.7697
  302TMC3     O 4603   0.472   0.205   0.896  0.4419  0.5960  0.2254
  302TMC3     H 4604   0.645   4.633   1.087 -0.3248 -0.7816  0.8658
  302TMC3    H1 4605   0.379   0.025   0.786 -0.3518  0.4183  0.8209
  302TMC3    H2 4606   0.430   4.347   0.861 -0.8806 -0.3025  0.0211
  302TMC3    C7 4607   0.284   4.512   0.733 -0.6311 -0.2865  0.2054
  302TMC3    C8 4608   0.609   4.381   1.065  0.2606  0.4180  0.7767
  302TMC3    O1 4609   0.277   4.402   0.678  0.0390  0.0103  0.4979
  302TMC3    O2 4610   0.718   4.414   1.110  0.2886  0.1209 -0.3967
  303MPD2     C 4611   0.362   3.766  10.601 -0.2873  0.5520  0.3401
  303MPD2    C1 4612   0.280   3.674  10.543  0.2536 -0.2221  0.2742
  303MPD2    C2 4613   0.232   3.694  10.410  0.4283  0.2200  0.1951
  303MPD2    C3 4614   0.257   3.813  10.342  0.2342  0.2060 -0.0228
  303MPD2    C4 4615   0.334   3.906  10.402  0.1567 -0.4491 -0.4206
  303MPD2    C5 4616   0.376   3.885  10.530 -0.5895  0.7506  0.8816
  303MPD2     H 4617   0.161   3.624  10.367  0.9602  0.2518 -0.7369
  303MPD2    H1 4618   0.349   4.002  10.353 -0.6177 -1.0061 -1.7775
  303MPD2    H2 4619   0.395   3.761  10.704  0.2795 -0.2543  0.1202
  303MPD2    H3 4620   0.430   3.965  10.579 -1.6056  2.0473 -0.1086
  303MPD2     N 4621   0.198   3.848  10.218 -0.2103 -0.1424 -0.1731
  303MPD2    H5 4622   0.203   3.947  10.197  2.2853 -0.4906 -1.1715
  303MPD2    N1 4623   0.234   3.568  10.623 -0.3152  0.1006  0.0059
  303MPD2    H7 4624   0.275   3.563  10.716 -0.6974 -0.1800  0.1589
  304TMC3    C1 4625   0.120   3.374  10.684  0.0521 -0.3084  0.4890
  304TMC3    C2 4626   0.039   3.434  10.778  0.5454 -0.8832 -0.0198
  304TMC3    C3 4627   4.698   3.352  10.857 -0.0682  0.5882  0.3781
  304TMC3    C4 4628   0.118   3.232  10.674 -0.2157 -0.0459  0.7864
  304TMC3    C5 4629   0.048   3.152  10.758 -0.2862  0.1434 -0.3391
  304TMC3    C6 4630   4.709   3.215  10.854  0.1457 -0.2118  0.1063
  304TMC3     C 4631   0.172   3.456  10.572 -0.0605 -0.0031  0.3355
  304TMC3     O 4632   0.162   3.417  10.457  0.2458 -0.2299 -0.2594
  304TMC3     H 4633   0.025   3.540  10.765 -1.4782 -1.1737 -0.1566
  304TMC3    H1 4634   0.174   3.179  10.598 -2.4771  1.9941 -2.2815
  304TMC3    H2 4635   4.631   3.170  10.914  0.4195 -0.2723  0.4134
  304TMC3    C7 4636   4.727   3.034  10.697 -0.8147 -0.4563 -0.6288
  304TMC3    C8 4637   4.556   3.382  10.845 -0.5773 -0.4164  1.3268
  304TMC3    O1 4638   0.061   2.961  10.626 -0.5336  0.3858  0.5733
  304TMC3    O2 4639   4.485   3.283  10.823  0.3736  0.3622  0.0230
  305MPD2     C 4640   2.942   1.042  14.080 -0.9845 -0.1387 -0.1883
  305MPD2    C1 4641   3.030   0.933  14.095 -0.8425 -0.2398 -0.0308
  305MPD2    C2 4642   3.065   0.869  13.977  0.2443  0.0481 -0.2236
  305MPD2    C3 4643   3.019   0.908  13.855  0.0816  0.1305 -0.2243
  305MPD2    C4 4644   2.929   1.010  13.841  0.7024  0.2380 -0.3213
  305MPD2    C5 4645   2.898   1.081  13.956 -0.2019 -0.0674 -0.4382
  305MPD2     H 4646   3.131   0.783  13.985 -1.2567 -1.0878  0.0086
  305MPD2    H1 4647   2.895   1.054  13.748 -0.5971  2.9752  1.4501
  305MPD2    H2 4648   2.903   1.097  14.164  1.7740  2.1948 -0.4381
  305MPD2    H3 4649   2.837   1.170  13.943  1.6562  0.9666 -2.1589
  305MPD2     N 4650   3.054   0.848  13.733  0.0602  0.5133  0.2394
  305MPD2    H5 4651   3.016   0.892  13.651 -1.1536  0.2724  0.6790
  305MPD2    N1 4652   3.072   0.896  14.223  0.3317  0.1092  0.1654
  305MPD2    H7 4653   3.021   0.931  14.303 -0.5176 -0.8672  0.0547
  306TMC3    C1 4654   3.211   0.788  14.387  0.0724 -0.5240 -0.3698
  306TMC3    C2 4655   3.300   0.685  14.413  0.3556 -0.7514  0.0115
  306TMC3    C3 4656   3.339   0.665  14.542  0.5712 -0.1197  0.3394
  306TMC3    C4 4657   3.151   0.861  14.490  0.0836 -0.3207  0.0946
  306TMC3    C5 4658   3.209   0.855  14.611  0.5834 -0.3486 -0.2559
  306TMC3    C6 4659   3.298   0.757  14.636 -0.8768  0.0259 -0.9674
  306TMC3     C 4660   3.176   0.808  14.244 -0.4681 -0.6029  0.6786
  306TMC3     O 4661   3.257   0.757  14.171 -0.4693 -0.0681 -0.7699
  306TMC3     H 4662   3.328   0.614  14.337 -1.2502  0.4281 -1.6807
  306TMC3    H1 4663   3.087   0.947  14.471 -0.6342 -0.7784  0.4666
  306TMC3    H2 4664   3.338   0.731  14.733 -2.0147  1.4472 -0.1240
  306TMC3    C7 4665   3.130   0.902  14.728  0.4742 -0.1344 -0.0936
  306TMC3    C8 4666   3.405   0.549  14.584  0.1225 -0.1932 -0.2451
  306TMC3    O1 4667   3.005   0.891  14.721 -0.1909  0.0124  0.7833
  306TMC3    O2 4668   3.505   0.565  14.652  0.3764  0.2091  0.2669
  307MPD2     C 4669   1.648   4.056   0.577 -0.4470 -0.4519 -0.4963
  307MPD2    C1 4670   1.530   4.025   0.512 -0.0498 -0.1089 -0.1958
  307MPD2    C2 4671   1.424   3.994   0.592 -0.0073  0.4381  0.3128
  307MPD2    C3 4672   1.421   4.014   0.730 -0.0769  0.3961  0.6861
  307MPD2    C4 4673   1.540   4.049   0.790  0.4633 -0.0883  0.9602
  307MPD2    C5 4674   1.652   4.064   0.715 -0.3930 -0.4197 -0.8498
  307MPD2     H 4675   1.333   3.958   0.545 -0.4926 -0.7173  2.1429
  307MPD2    H1 4676   1.564   4.063   0.895  1.3814 -1.5395  0.9411
  307MPD2    H2 4677   1.735   4.063   0.513  1.4643  1.9744  2.3935
  307MPD2    H3 4678   1.750   4.082   0.758 -0.9504 -0.8638  0.6337
  307MPD2     N 4679   1.301   3.983   0.798 -0.4523  0.6902  0.4540
  307MPD2    H5 4680   1.216   3.962   0.747  1.2155 -1.7232 -1.3683
  307MPD2    N1 4681   1.524   4.010   0.369  0.6477  0.8640  0.1443
  307MPD2    H7 4682   1.595   4.063   0.319  1.0408  0.8696  0.7013
  308TMC3    C1 4683   0.925   4.068   0.813 -0.3631 -0.6052 -0.0686
  308TMC3    C2 4684   0.893   4.188   0.874 -0.2060  0.2515 -0.3391
  308TMC3    C3 4685   0.987   4.239   0.962  0.1299  0.2058  0.4784
  308TMC3    C4 4686   1.041   4.005   0.845  0.4619 -0.0800 -0.4071
  308TMC3    C5 4687   1.129   4.054   0.943  0.0959 -0.7743 -0.2716
  308TMC3    C6 4688   1.104   4.176   0.997  0.0113  0.4347 -0.1683
  308TMC3     C 4689   0.826   3.989   0.741 -0.7223  0.4148  0.6703
  308TMC3     O 4690   0.853   3.870   0.734  0.2649  0.3759 -0.1467
  308TMC3     H 4691   0.798   4.239   0.862 -0.0797  0.9247  1.5685
  308TMC3    H1 4692   1.068   3.914   0.791 -1.2037  1.7304 -4.2819
  308TMC3    H2 4693   1.156   4.229   1.076 -0.2149  0.0026  0.2678
  308TMC3    C7 4694   1.270   4.040   0.921  0.1400 -0.3297 -0.2239
  308TMC3    C8 4695   0.984   4.379   0.986  0.2510 -0.2367  0.2448
  308TMC3    O1 4696   1.343   4.110   0.994  0.4204  0.6471 -0.5148
  308TMC3    O2 4697   1.051   4.423   1.077 -0.1227  0.0247 -0.0570
  309MPD2     C 4698   0.348   4.173  17.328 -0.4907 -0.5435 -0.2775
  309MPD2    C1 4699   0.297   4.241  17.219 -0.2193  0.1458 -0.2921
  309MPD2    C2 4700   0.164   4.285  17.215 -0.3103 -0.4369 -0.4868
  309MPD2    C3 4701   0.086   4.281  17.329 -0.6095  0.0340 -0.5077
  309MPD2    C4 4702   0.138   4.216  17.440  1.5426 -0.2012 -0.5672
  309MPD2    C5 4703   0.268   4.161  17.438  0.2735  0.3606 -0.2042
  309MPD2     H 4704   0.128   4.328  17.122 -0.3967  0.3146 -0.1119
  309MPD2    H1 4705   0.091   4.212  17.537  2.4425  0.9390 -0.0771
  309MPD2    H2 4706   0.445   4.126  17.322  0.1122  0.7260 -0.5383
  309MPD2    H3 4707   0.301   4.106  17.525  1.9031  0.4761 -0.7573
  309MPD2     N 4708   4.694   4.336  17.343 -0.2254 -0.1521 -0.1413
  309MPD2    H5 4709   4.648   4.333  17.433  0.8689  0.0200  0.4322
  309MPD2    N1 4710   0.365   4.261  17.102  0.3518 -0.6865  0.1920
  309MPD2    H7 4711   0.310   4.291  17.023  0.1199 -0.6015  0.3854
  310TMC3    C1 4712   0.550   4.329  16.974 -0.2019  0.0466  0.0294
  310TMC3    C2 4713   0.469   4.416  16.903  0.3745  0.3559 -0.8085
  310TMC3    C3 4714   0.527   4.493  16.811 -0.5018  0.0967 -0.2191
  310TMC3    C4 4715   0.683   4.317  16.941  0.4535  0.0232  0.6089
  310TMC3    C5 4716   0.732   4.377  16.835  0.9973 -0.3467  0.4428
  310TMC3    C6 4717   0.657   4.478  16.776 -0.0204  0.1363 -0.0447
  310TMC3     C 4718   0.502   4.263  17.096 -0.7428 -0.8415 -0.4683
  310TMC3     O 4719   0.586   4.248  17.183 -0.1735 -0.4646 -0.0324
  310TMC3     H 4720   0.364   4.424  16.929 -0.5251 -3.2283 -3.4839
  310TMC3    H1 4721   0.752   4.259  17.000  0.2252  1.0799  1.9084
  310TMC3    H2 4722   0.707   4.518  16.689 -0.5556 -0.4842 -0.6374
  310TMC3    C7 4723   0.842   4.325  16.757 -0.3608 -0.1610  0.1409
  310TMC3    C8 4724   0.430   4.554  16.727  0.0290  0.0562  0.2442
  310TMC3    O1 4725   0.845   4.338  16.635  0.3161  0.1508 -0.0733
  310TMC3    O2 4726   0.319   4.503  16.721  0.3932  0.2795 -1.0566
  311MPD2     C 4727   2.097   0.879  12.564  0.1527 -0.1759  0.2896
  311MPD2    C1 4728   2.142   0.903  12.695  0.0876 -0.1042  0.2798
  311MPD2    C2 4729   2.060   0.870  12.799 -0.2069 -0.4233  0.1023
  311MPD2    C3 4730   1.935   0.810  12.780  0.5219  0.4405 -0.0676
  311MPD2    C4 4731   1.897   0.790  12.645  0.2100  0.0698  0.3064
  311MPD2    C5 4732   1.976   0.824  12.542 -0.9169 -0.5548 -0.8009
  311MPD2     H 4733   2.100   0.883  12.899  0.1637 -1.4435  0.0901
  311MPD2    H1 4734   1.803   0.740  12.624  0.0197  0.6762 -0.2646
  311MPD2    H2 4735   2.156   0.917  12.481 -0.5175  2.8201  1.1866
  311MPD2    H3 4736   1.944   0.814  12.439  0.2155  0.1620 -1.2262
  311MPD2     N 4737   1.860   0.766  12.897 -0.1212  0.0779 -0.0157
  311MPD2    H5 4738   1.898   0.787  12.988 -3.1070  0.2860  1.1670
  311MPD2    N1 4739   2.265   0.978  12.716  0.2233  0.1865 -0.2191
  311MPD2    H7 4740   2.287   1.005  12.811 -1.7432  0.8627  0.0362
  312TMC3    C1 4741   1.672   0.673  13.015  0.3036  0.0384 -1.1501
  312TMC3    C2 4742   1.545   0.624  12.999  0.5208 -0.4188  0.0275
  312TMC3    C3 4743   1.490   0.561  13.107 -0.1604  0.6508  0.1868
  312TMC3    C4 4744   1.752   0.646  13.123  0.5245  0.0034  0.1303
  312TMC3    C5 4745   1.694   0.588  13.226  0.0267  0.2827  1.0579
  312TMC3    C6 4746   1.566   0.547  13.225  0.0058 -0.3976  0.4357
  312TMC3     C 4747   1.735   0.712  12.879  0.0179 -0.0467 -0.0776
  312TMC3     O 4748   1.679   0.687  12.778  0.3959 -0.4540  0.8374
  312TMC3     H 4749   1.489   0.655  12.911  2.4800  0.7668 -0.7933
  312TMC3    H1 4750   1.851   0.690  13.130 -0.0389  1.0185  1.7997
  312TMC3    H2 4751   1.521   0.495  13.308  0.4252 -0.5957  0.5412
  312TMC3    C7 4752   1.740   0.612  13.359  0.5213  0.0610 -0.1079
  312TMC3    C8 4753   1.356   0.504  13.095  0.5263  0.6625  0.1578
  312TMC3    O1 4754   1.652   0.633  13.438  0.1545 -0.0949  0.5309
  312TMC3    O2 4755   1.341   0.393  13.141  0.5245 -0.0704 -0.0671
  313MPD2     C 4756   1.251   0.284  11.136  0.4587  0.6575  0.6557
  313MPD2    C1 4757   1.343   0.392  11.115 -1.0939  0.5239  0.2518
  313MPD2    C2 4758   1.447   0.372  11.025 -0.0415 -0.5766 -0.2568
  313MPD2    C3 4759   1.477   0.243  10.975  0.7059  0.6403  0.4511
  313MPD2    C4 4760   1.384   0.139  10.989 -0.1932  0.0413 -0.1581
  313MPD2    C5 4761   1.274   0.163  11.069  0.1590  0.0475 -0.3433
  313MPD2     H 4762   1.517   0.453  11.010  0.4321 -1.1729 -1.3024
  313MPD2    H1 4763   1.398   0.040  10.948 -0.2593 -0.3067  0.6721
  313MPD2    H2 4764   1.159   0.283  11.192  0.6788  0.1190  1.0050
  313MPD2    H3 4765   1.196   0.089  11.087  0.2312 -0.3910 -1.8030
  313MPD2     N 4766   1.576   0.238  10.877  0.0059 -0.2388 -0.3587
  313MPD2    H5 4767   1.629   0.321  10.853  0.2938 -0.2366  0.2869
  313MPD2    N1 4768   1.323   0.524  11.165  0.2613 -0.1076  0.4242
  313MPD2    H7 4769   1.393   0.596  11.150 -2.1735  1.6282 -2.6258
  314TMC3    C1 4770   1.232   0.691  11.297 -0.1901 -0.7898  0.0144
  314TMC3    C2 4771   1.344   0.739  11.355  0.0144  0.6724 -0.1603
  314TMC3    C3 4772   1.372   0.872  11.326  0.0753  0.0337 -0.3894
  314TMC3    C4 4773   1.161   0.762  11.210 -0.1149 -0.5669  0.2422
  314TMC3    C5 4774   1.196   0.893  11.180 -0.4343  0.6241 -0.9471
  314TMC3    C6 4775   1.303   0.947  11.245  0.4017  0.3871 -0.1148
  314TMC3     C 4776   1.221   0.555  11.253  1.0396  0.0063  0.2961
  314TMC3     O 4777   1.115   0.493  11.271 -0.3124 -0.1413  0.2786
  314TMC3     H 4778   1.412   0.673  11.407 -1.3422  0.9904  2.0532
  314TMC3    H1 4779   1.067   0.719  11.177  1.3084 -0.8005 -3.3860
  314TMC3    H2 4780   1.333   1.046  11.212  2.7903 -0.9288 -1.8725
  314TMC3    C7 4781   1.178   0.923  11.040 -0.2959 -0.0688 -0.0687
  314TMC3    C8 4782   1.504   0.928  11.353 -0.2532 -0.2957 -0.4889
  314TMC3    O1 4783   1.096   0.848  10.988  0.4447  0.5163 -0.4656
  314TMC3    O2 4784   1.543   1.005  11.267  0.2263  0.0694  0.3222
  315MPD2     C 4785   1.591   3.885  17.564 -0.2866  0.4283  0.1034
  315MPD2    C1 4786   1.670   3.944  17.659  0.4532 -0.6652  0.3763
  315MPD2    C2 4787   1.708   4.075  17.642  0.9976  0.0417  0.5410
  315MPD2    C3 4788   1.678   4.145  17.526  0.9103 -0.4246  0.1612
  315MPD2    C4 4789   1.601   4.081  17.430 -0.2084  0.8822  0.4074
  315MPD2    C5 4790   1.558   3.956  17.454  0.1792  0.4885  0.7594
  315MPD2     H 4791   1.749   4.137  17.721  2.1282 -1.5282  1.1884
  315MPD2    H1 4792   1.558   4.138  17.349  1.2030 -1.4268 -1.9344
  315MPD2    H2 4793   1.542   3.788  17.571  1.6514 -0.6784 -1.4277
  315MPD2    H3 4794   1.493   3.912  17.379  0.8589 -0.8372  0.9495
  315MPD2     N 4795   1.719   4.281  17.518  0.1076 -0.0386  0.3251
  315MPD2    H5 4796   1.789   4.311  17.585  0.2261  1.8569 -0.6504
  315MPD2    N1 4797   1.724   3.879   0.024  0.0004 -0.7153  0.1707
  315MPD2    H7 4798   1.799   3.924   0.075  0.0775  1.1489 -1.6152
  316TMC3    C1 4799   1.740   4.501  17.451  0.3371  0.1372 -0.3636
  316TMC3    C2 4800   1.797   4.516  17.573 -0.0756  0.6360  0.2276
  316TMC3    C3 4801   1.871   4.634  17.590  0.1523  0.9169 -0.1922
  316TMC3    C4 4802   1.766   4.585  17.348 -0.0936 -0.5141 -0.0797
  316TMC3    C5 4803   1.847   4.687  17.365 -0.6273  0.2302  0.1939
  316TMC3    C6 4804   1.902   4.724  17.488 -0.1451 -0.4291 -0.6402
  316TMC3     C 4805   1.682   4.366  17.421  0.0839  0.1042 -0.3027
  316TMC3     O 4806   1.615   4.354  17.318  0.0615 -0.3878 -0.2133
  316TMC3     H 4807   1.779   4.455  17.661 -0.2583 -0.6250 -0.6887
  316TMC3    H1 4808   1.734   4.554  17.249  1.4029  2.0913 -1.3684
  316TMC3    H2 4809   1.957   0.079  17.504  1.1621 -0.8817 -2.4873
  316TMC3    C7 4810   1.871   0.051  17.260 -0.4360  0.4374 -0.6543
  316TMC3    C8 4811   1.931   4.680  17.718  0.4182 -0.4481 -0.3482
  316TMC3    O1 4812   1.979   0.107  17.270 -0.3247 -0.1751  0.6368
  316TMC3    O2 4813   1.937   0.064  17.736  0.5657 -0.3765  0.1341
  317MPD2     C 4814   3.262   2.730  13.083 -0.5029 -0.0280 -0.1761
  317MPD2    C1 4815   3.295   2.609  13.032  0.0577 -0.2477 -0.0835
  317MPD2    C2 4816   3.376   2.521  13.105 -0.0408 -0.1987 -0.5131
  317MPD2    C3 4817   3.433   2.556  13.219 -0.2121  0.0953 -0.2628
  317MPD2    C4 4818   3.391   2.677  13.278 -0.1378 -0.2057 -0.1650
  317MPD2    C5 4819   3.300   2.762  13.207 -0.2530  0.5723 -0.5388
  317MPD2     H 4820   3.377   2.419  13.070  1.8254 -0.4746  0.3609
  317MPD2    H1 4821   3.430   2.704  13.375  0.5544  0.9988 -0.7765
  317MPD2    H2 4822   3.186   2.797  13.045 -2.6361 -2.6917 -0.5936
  317MPD2    H3 4823   3.273   2.860  13.244 -0.4814  0.4326 -0.3352
  317MPD2     N 4824   3.509   2.457  13.283  0.2574  0.1206 -0.1407
  317MPD2    H5 4825   3.525   2.369  13.234  1.2562 -0.6180  1.5199
  317MPD2    N1 4826   3.245   2.560  12.907 -0.2526 -0.2750  0.2208
  317MPD2    H7 4827   3.266   2.465  12.877  0.5277  0.7812 -2.6623
  318TMC3    C1 4828   3.593   2.327  13.448 -0.1925 -0.7334 -0.2884
  318TMC3    C2 4829   3.516   2.216  13.419 -0.4422  0.3691 -0.5868
  318TMC3    C3 4830   3.552   2.093  13.476 -0.0891  0.0469  0.4637
  318TMC3    C4 4831   3.693   2.319  13.537  0.2180  0.2060  0.9032
  318TMC3    C5 4832   3.718   2.200  13.605  0.0454 -0.4254 -0.2243
  318TMC3    C6 4833   3.648   2.086  13.573 -0.6848  0.7137 -0.2228
  318TMC3     C 4834   3.553   2.464  13.410  0.1603 -0.2967 -0.1618
  318TMC3     O 4835   3.558   2.546  13.494  0.0643  0.2558 -0.1944
  318TMC3     H 4836   3.442   2.209  13.340 -0.5374 -0.1479 -0.4562
  318TMC3    H1 4837   3.746   2.411  13.561 -1.6011  1.0408  1.7477
  318TMC3    H2 4838   3.670   1.987  13.612  0.9493  0.7336 -1.1016
  318TMC3    C7 4839   3.783   2.206  13.731 -0.3125  0.2241 -0.1000
  318TMC3    C8 4840   3.472   1.975  13.466  0.1631  0.0110  0.7639
  318TMC3    O1 4841   3.781   2.309  13.795 -0.6982 -0.1626 -0.3934
  318TMC3    O2 4842   3.512   1.866  13.504  0.0185  0.3681 -0.5027
  319MPD2     C 4843   4.523   3.937  16.320  0.1252 -0.3787 -0.5170
  319MPD2    C1 4844   4.427   3.863  16.385  0.1569  0.1195 -0.4026
  319MPD2    C2 4845   4.374   3.753  16.332 -0.2291  0.8209  0.1271
  319MPD2    C3 4846   4.413   3.723  16.204 -0.1300  0.4865  0.0967
  319MPD2    C4 4847   4.511   3.797  16.138 -0.7255  0.4097 -0.4302
  319MPD2    C5 4848   4.565   3.906  16.190  0.1046  0.1498  0.3365
  319MPD2     H 4849   4.291   3.704  16.382 -1.8594  1.9196 -1.4929
  319MPD2    H1 4850   4.527   3.786  16.031  0.8971 -3.4796  0.2042
  319MPD2    H2 4851   4.554   4.033  16.360 -0.8815  0.6670 -2.2329
  319MPD2    H3 4852   4.632   3.968  16.132 -0.2905  0.5854  0.3453
  319MPD2     N 4853   4.347   3.616  16.139  0.8408  0.0768  0.4914
  319MPD2    H5 4854   4.357   3.619  16.038 -1.1383  1.9794  0.3483
  319MPD2    N1 4855   4.375   3.890  16.510  0.4971 -0.1822  0.6256
  319MPD2    H7 4856   4.302   3.828  16.544  0.2261 -0.2450 -0.0663
  320TMC3    C1 4857   4.172   3.463  16.109 -0.0225  0.7634 -0.2414
  320TMC3    C2 4858   4.110   3.533  16.015 -0.5728 -0.4826 -0.1127
  320TMC3    C3 4859   3.991   3.483  15.958  0.3614 -0.3244 -0.0917
  320TMC3    C4 4860   4.128   3.346  16.151  0.2530  0.1393  0.0312
  320TMC3    C5 4861   4.023   3.287  16.080 -0.2583 -0.4575  0.2573
  320TMC3    C6 4862   3.952   3.355  15.982 -0.1641 -0.2634 -0.1285
  320TMC3     C 4863   4.266   3.526  16.196 -0.6830 -0.2636  0.0966
  320TMC3     O 4864   4.281   3.481  16.308 -0.1985  0.2924  0.1926
  320TMC3     H 4865   4.137   3.638  16.013  0.1157 -0.6571  0.2354
  320TMC3    H1 4866   4.185   3.285  16.219  0.1136 -1.0576 -0.9251
  320TMC3    H2 4867   3.880   3.303  15.919  2.1682 -0.8190 -2.3310
  320TMC3    C7 4868   3.984   3.152  16.106 -0.1292  0.1766  0.3319
  320TMC3    C8 4869   3.891   3.580  15.918  0.6091  0.2415 -0.6999
  320TMC3    O1 4870   3.903   3.108  16.025  0.2655 -0.2634  0.3009
  320TMC3    O2 4871   3.911   3.691  15.965  0.3702  0.4960  0.2732
  321TMC3    C1 4872   4.296   4.026  16.690  0.1697  0.2704  0.0312
  321TMC3    C2 4873   4.251   3.908  16.742 -0.4001 -1.3936 -0.4625
  321TMC3    C3 4874   4.164   3.913  16.848 -0.4735  0.2925  0.6567
  321TMC3    C4 4875   4.268   4.143  16.749  0.0506  0.8720  0.5987
  321TMC3    C5 4876   4.197   4.150  16.863 -0.2094  0.0929 -0.6576
  321TMC3    C6 4877   4.123   4.034  16.896 -0.5026 -0.1381  0.2555
  321TMC3     C 4878   4.392   4.010  16.581  0.1596 -0.4001 -0.2420
  321TMC3     O 4879   4.454   4.111  16.546 -0.2943 -0.2407 -0.0842
  321TMC3     H 4880   4.302   3.814  16.723  0.7253 -0.6351 -1.1893
  321TMC3    H1 4881   4.317   4.227  16.700  0.5990  0.9491  1.2831
  321TMC3    H2 4882   4.055   4.045  16.979  0.5337  0.8808  0.9660
  321TMC3    C7 4883   4.278   4.183  16.972  0.1192 -1.2793  0.4334
  321TMC3    C8 4884   4.196   3.817  16.954  0.2161  0.3246 -0.5072
  321TMC3    O1 4885   4.397   4.200  16.955 -0.6565 -0.5310  0.1601
  321TMC3    O2 4886   4.202   3.867  17.065 -0.3346 -0.1511  0.4313
  322MPD2     C 4887   3.237   0.224  13.597  0.4956 -0.2186 -0.2445
  322MPD2    C1 4888   3.374   0.230  13.624 -0.2220  0.1549 -0.4460
  322MPD2    C2 4889   3.455   0.198  13.519 -0.2488 -0.1224  0.1027
  322MPD2    C3 4890   3.396   0.167  13.394 -0.5023 -0.3411  0.0593
  322MPD2    C4 4891   3.260   0.163  13.373 -0.4184  0.0164  0.1703
  322MPD2    C5 4892   3.176   0.192  13.481 -0.4504  0.6762 -0.0772
  322MPD2     H 4893   3.563   0.204  13.532 -0.1315  0.5729 -1.1559
  322MPD2    H1 4894   3.218   0.131  13.279 -2.2324 -0.0211  0.9898
  322MPD2    H2 4895   3.166   0.253  13.674 -0.2263  1.4708 -1.5356
  322MPD2    H3 4896   3.070   0.174  13.468 -0.1524  0.7393 -2.5687
  322MPD2     N 4897   3.480   0.137  13.280  0.4986  0.2854 -0.0511
  322MPD2    H5 4898   3.427   0.114  13.197 -0.3445  0.7106  0.3678
  322MPD2    N1 4899   3.433   0.259  13.747 -0.0836 -0.1125  0.6481
  322MPD2    H7 4900   3.534   0.274  13.740  0.1122 -2.9654 -2.2201
  323TMC3    C1 4901   3.451   0.295  13.983 -0.1606  0.3115 -0.0868
  323TMC3    C2 4902   3.559   0.376  13.977 -0.4328  0.0118  0.1916
  323TMC3    C3 4903   3.602   0.426  14.098  1.0367 -0.0345 -0.4219
  323TMC3    C4 4904   3.406   0.241  14.092  0.2306 -0.3815  0.6744
  323TMC3    C5 4905   3.459   0.285  14.213  0.0719 -0.2129 -0.5033
  323TMC3    C6 4906   3.547   0.392  14.219 -1.0670 -0.4602  0.2762
  323TMC3     C 4907   3.373   0.252  13.867 -0.2707 -0.6686  0.3476
  323TMC3     O 4908   3.265   0.201  13.891 -0.2540  0.2965 -0.2774
  323TMC3     H 4909   3.613   0.411  13.890 -1.3056  0.4389 -0.1746
  323TMC3    H1 4910   3.345   0.152  14.094  2.0572 -1.6232  0.7298
  323TMC3    H2 4911   3.568   0.438  14.314  2.2683  2.1035 -1.6747
  323TMC3    C7 4912   3.508   0.175  14.296 -0.0535 -0.3498 -0.2630
  323TMC3    C8 4913   3.745   0.469  14.098 -0.0208 -0.3237  0.0155
  323TMC3    O1 4914   3.456   0.069  14.268  0.3530  0.3546 -0.4308
  323TMC3    O2 4915   3.820   0.423  14.008  0.3823  0.2184 -0.6343
  324MPD2     C 4916   0.435   0.565  14.602  0.3592  0.3157 -0.4629
  324MPD2    C1 4917   0.435   0.704  14.616 -0.4954 -0.0561  0.0226
  324MPD2    C2 4918   0.312   0.770  14.618 -0.8093  0.0684 -0.1534
  324MPD2    C3 4919   0.200   0.710  14.591  0.4256  0.1571  0.4671
  324MPD2    C4 4920   0.203   0.581  14.559  0.8703 -0.2135  0.1372
  324MPD2    C5 4921   0.314   0.510  14.581  0.3401 -0.0800  0.4349
  324MPD2     H 4922   0.314   0.877  14.635  1.8122  0.2087 -1.3593
  324MPD2    H1 4923   0.113   0.538  14.516 -0.3751  1.3164  1.2177
  324MPD2    H2 4924   0.527   0.510  14.613 -2.2667 -3.8870  0.4306
  324MPD2    H3 4925   0.315   0.401  14.576 -0.0409 -0.0984  0.8090
  324MPD2     N 4926   0.071   0.778  14.592 -0.2869 -0.1137 -0.0358
  324MPD2    H5 4927   4.726   0.726  14.560  0.6897 -2.3501  1.1020
  324MPD2    N1 4928   0.560   0.779  14.621  0.0172 -0.5603  0.0912
  324MPD2    H7 4929   0.547   0.880  14.615  0.2397 -0.6372 -1.7534
  325TMC3    C1 4930   4.648   0.953  14.649  0.1948  0.2508  0.4365
  325TMC3    C2 4931   4.544   0.859  14.634  0.2432 -0.2863 -0.0624
  325TMC3    C3 4932   4.414   0.895  14.650 -0.6524 -0.1200 -0.0434
  325TMC3    C4 4933   4.628   1.075  14.708  0.9719  0.4033  0.1500
  325TMC3    C5 4934   4.493   1.107  14.725 -0.0624 -1.3729 -0.5879
  325TMC3    C6 4935   4.389   1.024  14.690 -0.2133 -0.4318  0.3555
  325TMC3     C 4936   0.053   0.904  14.640  0.0439 -0.4455  0.3687
  325TMC3     O 4937   0.130   0.993  14.676  0.0017  0.0196 -0.1514
  325TMC3     H 4938   4.564   0.756  14.606  0.4375 -0.0036 -0.9496
  325TMC3    H1 4939   4.699   1.154  14.727  0.5810  1.4895 -2.7325
  325TMC3    H2 4940   4.284   1.041  14.714 -0.3925 -2.4595  1.0511
  325TMC3    C7 4941   4.477   1.226  14.801  0.1033  0.2667  0.7325
  325TMC3    C8 4942   4.330   0.821  14.556 -0.1906 -0.5337  0.4302
  325TMC3    O1 4943   4.572   1.286  14.853 -0.0597 -0.2957  0.1251
  325TMC3    O2 4944   4.367   0.717  14.504  0.1608 -0.7015  0.3230
  326MPD2     C 4945   1.248   2.878  11.400  0.2367 -0.8561  0.4795
  326MPD2    C1 4946   1.305   2.850  11.278  0.1377 -0.1201 -0.3601
  326MPD2    C2 4947   1.432   2.874  11.248 -0.4899  0.8629 -0.9418
  326MPD2    C3 4948   1.519   2.914  11.348  0.9764 -0.0619  0.4134
  326MPD2    C4 4949   1.467   2.946  11.475 -0.3492  0.2727 -0.5405
  326MPD2    C5 4950   1.337   2.933  11.494 -1.0644 -0.8890 -0.0514
  326MPD2     H 4951   1.462   2.849  11.147  2.5093 -1.7060  0.5825
  326MPD2    H1 4952   1.529   2.985  11.554  1.8188 -0.5942 -1.8326
  326MPD2    H2 4953   1.145   2.852  11.421 -0.7722  2.1159 -0.7305
  326MPD2    H3 4954   1.301   2.953  11.594 -1.5934  0.0105 -0.4189
  326MPD2     N 4955   1.651   2.949  11.319 -0.1708  0.0501 -0.1533
  326MPD2    H5 4956   1.707   2.998  11.389  0.9892 -3.1754  1.1898
  326MPD2    N1 4957   1.238   2.787  11.174  0.2634  0.0184 -0.0891
  326MPD2    H7 4958   1.292   2.772  11.089  1.4688 -0.0671  0.6924
  327TMC3    C1 4959   1.081   2.705  11.019 -0.0482  0.1756 -0.0035
  327TMC3    C2 4960   0.974   2.759  10.956  0.0940  0.0254 -0.0821
  327TMC3    C3 4961   0.993   2.786  10.820  0.6180 -1.0903  0.2421
  327TMC3    C4 4962   1.186   2.650  10.953 -0.3080 -0.0753  0.0214
  327TMC3    C5 4963   1.194   2.649  10.815 -0.3509  0.1864 -0.1042
  327TMC3    C6 4964   1.096   2.723  10.750 -0.3831  0.1937  0.1110
  327TMC3     C 4965   1.103   2.762  11.156  0.0014 -0.4473  0.1234
  327TMC3     O 4966   1.011   2.805  11.223  0.0228 -0.2434 -0.1807
  327TMC3     H 4967   0.874   2.770  10.996  0.0961 -0.5277  0.0690
  327TMC3    H1 4968   1.259   2.601  11.017 -0.4792 -0.3753 -0.0153
  327TMC3    H2 4969   1.101   2.723  10.642  1.0311 -0.7052  0.1716
  327TMC3    C7 4970   1.321   2.648  10.753  0.4796  0.1756  0.4239
  327TMC3    C8 4971   0.902   2.865  10.748  0.5140  0.6455 -0.3087
  327TMC3    O1 4972   1.334   2.724  10.661 -0.4636 -0.3676  0.0416
  327TMC3    O2 4973   0.908   2.860  10.625 -0.2299  0.2362  0.4074
  328MPD2     C 4974   3.941   2.254  17.530  0.0019 -0.1870 -0.5828
  328MPD2    C1 4975   3.801   2.244  17.552 -0.6723 -0.0886 -1.0314
  328MPD2    C2 4976   3.714   2.289  17.449 -0.7341 -0.2904  0.1663
  328MPD2    C3 4977   3.768   2.341  17.332  0.1122 -0.1719  0.8173
  328MPD2    C4 4978   3.904   2.352  17.317  0.1508 -0.2401 -0.1742
  328MPD2    C5 4979   3.987   2.307  17.414  0.3799  0.0634 -1.0218
  328MPD2     H 4980   3.609   2.295  17.478  0.0706 -0.7789  3.1512
  328MPD2    H1 4981   3.950   2.358  17.219 -0.2733 -0.8232 -0.4072
  328MPD2    H2 4982   4.010   2.212  17.602 -2.1371 -3.4568 -0.4129
  328MPD2    H3 4983   4.093   2.302  17.390  0.7797  0.6372  0.6582
  328MPD2     N 4984   3.685   2.391  17.230  0.2642  0.0679  0.1052
  328MPD2    H5 4985   3.723   2.438  17.149  2.6186  0.2309  1.3195
  328MPD2    N1 4986   3.749   2.213  17.677  0.7640  0.0431  0.3343
  328MPD2    H7 4987   3.815   2.210   0.009 -0.4547  0.5798  1.4093
  329TMC3    C1 4988   3.574   2.169   0.087  0.6248  0.3376  0.1717
  329TMC3    C2 4989   3.606   2.285   0.153 -0.3088 -0.5037 -0.2842
  329TMC3    C3 4990   3.527   2.329   0.256 -0.8940  0.3597  1.4200
  329TMC3    C4 4991   3.464   2.094   0.112  0.2776 -0.3435  0.5077
  329TMC3    C5 4992   3.391   2.136   0.221 -0.3633 -0.7224  0.2288
  329TMC3    C6 4993   3.408   2.255   0.288  0.7521 -0.0215 -0.2887
  329TMC3     C 4994   3.620   2.168  17.696 -0.0844  0.2973 -0.1751
  329TMC3     O 4995   3.555   2.105  17.613  0.3264 -0.6695  0.3299
  329TMC3     H 4996   3.687   2.352   0.132  0.0581 -0.1415  2.3094
  329TMC3    H1 4997   3.443   1.995   0.071  0.6713 -0.8414  1.5127
  329TMC3    H2 4998   3.349   2.282   0.375  0.9972 -1.5197  0.3364
  329TMC3    C7 4999   3.292   2.046   0.281  0.8713 -0.8424  1.0855
  329TMC3    C8 5000   3.504   2.472   0.264  0.5607  0.2446  0.2166
  329TMC3    O1 5001   3.296   2.046   0.400  0.2124  0.5487  0.4868
  329TMC3    O2 5002   3.528   2.534   0.162 -0.0032 -0.1627  0.5189
  330TMC3    C1 5003   1.697   2.238   9.546  0.2592  0.0501  0.7060
  330TMC3    C2 5004   1.653   2.114   9.517  0.2441 -0.0459  0.9887
  330TMC3    C3 5005   1.714   2.010   9.587 -0.4982  1.2408  0.5028
  330TMC3    C4 5006   1.800   2.261   9.632  0.4382 -0.0074  0.2999
  330TMC3    C5 5007   1.864   2.160   9.696  0.2341 -0.7127 -0.1341
  330TMC3    C6 5008   1.815   2.034   9.671 -0.7330 -0.0464  0.0418
  330TMC3     C 5009   1.646   2.346   9.469  0.3663  0.5862 -0.3767
  330TMC3     O 5010   1.529   2.334   9.429  0.4034  0.5003  0.1547
  330TMC3     H 5011   1.568   2.092   9.454  0.5577 -0.4526  0.7127
  330TMC3    H1 5012   1.836   2.361   9.654  1.8556  0.0448 -2.3047
  330TMC3    H2 5013   1.876   1.948   9.700 -2.0028  0.2675  3.6555
  330TMC3    C7 5014   1.984   2.188   9.770  0.3659 -0.0319  0.2536
  330TMC3    C8 5015   1.683   1.874   9.545 -0.2644  0.3252  0.5866
  330TMC3    O1 5016   2.047   2.291   9.758 -0.3258  0.0084 -0.0409
  330TMC3    O2 5017   1.622   1.860   9.437  0.5105  0.3034 -0.1088
  331MPD2     C 5018   0.484   0.936  13.332  0.5570 -0.0194 -0.4998
  331MPD2    C1 5019   0.462   0.926  13.202  0.1420 -0.5677 -0.0826
  331MPD2    C2 5020   0.391   0.817  13.153  0.3132 -0.7609 -0.1300
  331MPD2    C3 5021   0.334   0.724  13.240  0.1111 -0.1188  0.2047
  331MPD2    C4 5022   0.375   0.731  13.375 -0.1611  0.2544 -0.6262
  331MPD2    C5 5023   0.450   0.837  13.413 -0.4453 -1.0144 -0.1904
  331MPD2     H 5024   0.380   0.795  13.048 -2.9119  1.6981 -0.2956
  331MPD2    H1 5025   0.340   0.663  13.451  1.3003 -1.7399 -1.7478
  331MPD2    H2 5026   0.538   1.017  13.379  0.4113 -0.0745 -0.2378
  331MPD2    H3 5027   0.473   0.845  13.519  0.9148  1.4438 -0.6681
  331MPD2     N 5028   0.234   0.630  13.198  0.4056  0.8080 -0.3894
  331MPD2    H5 5029   0.217   0.627  13.098  1.0535  0.7316 -0.4968
  331MPD2    N1 5030   0.492   1.033  13.112 -0.1339  0.2818 -0.1470
  331MPD2    H7 5031   0.501   1.128  13.147 -2.1905  0.7676 -0.9227
  332TMC3    C1 5032   0.062   0.471  13.215 -0.1738 -0.3462 -0.6811
  332TMC3    C2 5033   0.006   0.518  13.098  0.1853  0.5766  0.3729
  332TMC3    C3 5034   4.651   0.434  13.047 -0.5462  0.7747  0.0960
  332TMC3    C4 5035   0.027   0.352  13.263 -1.0829  0.0063  0.2880
  332TMC3    C5 5036   4.662   0.274  13.207 -0.7758  0.1209  0.1252
  332TMC3    C6 5037   4.591   0.317  13.105  0.5125 -0.3690 -0.1350
  332TMC3     C 5038   0.174   0.531  13.271 -0.3654  0.0570 -0.6565
  332TMC3     O 5039   0.198   0.489  13.382 -0.3220 -0.2360  0.3258
  332TMC3     H 5040   0.036   0.612  13.054 -0.6375  1.8076  2.4151
  332TMC3    H1 5041   0.081   0.301  13.341 -0.4109 -0.3878 -0.4301
  332TMC3    H2 5042   4.525   0.251  13.050  0.0353 -0.1389  0.1614
  332TMC3    C7 5043   4.686   0.131  13.204 -0.4963 -0.3246  0.4536
  332TMC3    C8 5044   4.597   0.475  12.920 -0.8826  0.6591 -0.3663
  332TMC3    O1 5045   4.582   0.063  13.207 -0.1007 -0.2965 -0.3125
  332TMC3    O2 5046   4.660   0.557  12.854  0.8142  0.0652 -0.4658
  333MPD2     C 5047   0.062   0.967  11.653 -0.4563  0.4450  0.1562
  333MPD2    C1 5048   0.007   0.970  11.527 -0.2259  0.0688  0.6444
  333MPD2    C2 5049   4.617   0.912  11.509  0.0136  0.2736 -0.6563
  333MPD2    C3 5050   4.552   0.848  11.611 -0.0179  0.4178 -0.1083
  333MPD2    C4 5051   4.610   0.847  11.736 -1.1131 -0.2041 -0.2154
  333MPD2    C5 5052   4.729   0.908  11.756 -0.5389 -0.0096  0.5637
  333MPD2     H 5053   4.575   0.899  11.410  0.5876 -1.6518 -0.6386
  333MPD2    H1 5054   4.571   0.792  11.821  2.1775  0.9962  2.1150
  333MPD2    H2 5055   0.164   0.999  11.667 -0.0946 -0.1403 -1.1103
  333MPD2    H3 5056   0.054   0.895  11.844  0.9849 -0.2228 -0.5302
  333MPD2     N 5057   4.436   0.772  11.578 -0.4995 -0.5017 -0.5157
  333MPD2    H5 5058   4.401   0.774  11.483 -0.1212 -1.9621 -0.6896
  333MPD2    N1 5059   0.077   1.028  11.420 -0.0628  0.2876  0.0786
  333MPD2    H7 5060   0.173   1.058  11.431 -0.6222  1.5544  1.4426
  334TMC3    C1 5061   0.113   1.120  11.210 -0.4491  0.3982  0.7492
  334TMC3    C2 5062   0.241   1.073  11.209 -0.3896  0.3179 -0.3240
  334TMC3    C3 5063   0.342   1.142  11.141 -0.3030  0.5651 -0.7944
  334TMC3    C4 5064   0.083   1.225  11.127  0.0051  0.0175  0.7603
  334TMC3    C5 5065   0.184   1.292  11.057  0.2599  0.0516 -0.5934
  334TMC3    C6 5066   0.315   1.255  11.063  0.1090  0.2159 -0.1686
  334TMC3     C 5067   0.016   1.064  11.301 -0.4780  1.2273 -0.2911
  334TMC3     O 5068   4.638   1.061  11.258  0.4593 -0.3620 -0.3955
  334TMC3     H 5069   0.264   0.989  11.274  0.1707 -0.7361 -1.8827
  334TMC3    H1 5070   4.722   1.271  11.138  0.8740  2.3028 -0.8739
  334TMC3    H2 5071   0.382   1.323  11.011 -0.2309  0.0743 -0.7996
  334TMC3    C7 5072   0.154   1.424  11.009 -0.0044  0.2234  0.0140
  334TMC3    C8 5073   0.476   1.096  11.174 -0.1320  0.7142  0.6007
  334TMC3    O1 5074   0.242   1.509  11.009 -0.5471  0.2933 -0.6602
  334TMC3    O2 5075   0.491   0.982  11.218  0.5772  0.1588  0.2249
  335TMC3    C1 5076   4.550   2.485  17.713 -0.3118  0.3711 -1.2392
  335TMC3    C2 5077   4.508   2.381  17.631 -0.2639 -0.4955 -0.1895
  335TMC3    C3 5078   4.538   2.391  17.502 -1.3697 -0.5458 -0.6700
  335TMC3    C4 5079   4.618   2.588  17.671 -0.0176 -0.2214  0.0333
  335TMC3    C5 5080   4.644   2.604  17.529  0.6818  0.9384  0.7761
  335TMC3    C6 5081   4.590   2.502  17.446 -0.3308  0.7054  0.1298
  335TMC3     C 5082   4.521   2.474   0.111 -0.4852 -0.1775 -0.8851
  335TMC3     O 5083   4.470   2.370   0.142  0.2245 -0.8382  0.2258
  335TMC3     H 5084   4.480   2.284  17.671 -1.8890  0.2605  0.4963
  335TMC3    H1 5085   4.680   2.650  17.735 -1.0051  0.7942  0.0173
  335TMC3    H2 5086   4.620   2.499  17.341 -1.7904 -0.3561 -0.2630
  335TMC3    C7 5087   0.001   2.698  17.474  0.1021  0.2092 -0.9333
  335TMC3    C8 5088   4.481   2.300  17.413  0.4077 -0.0404  0.5120
  335TMC3    O1 5089   0.038   2.702  17.354 -0.2898  0.5147 -0.0528
  335TMC3    O2 5090   4.534   2.301  17.301  0.1153  0.0081 -0.6017
  336MPD2     C 5091   4.044   0.200  16.341  1.1311 -0.2141 -0.3716
  336MPD2    C1 5092   4.039   0.118  16.232  0.1282  0.6631 -0.0272
  336MPD2    C2 5093   4.102   4.727  16.236 -0.5248  0.6843  0.4286
  336MPD2    C3 5094   4.166   4.683  16.355 -0.1215  0.2031 -0.2959
  336MPD2    C4 5095   4.157   0.023  16.469  0.0318  0.0062 -0.0433
  336MPD2    C5 5096   4.098   0.146  16.459 -0.6844 -0.1525 -0.0077
  336MPD2     H 5097   4.107   4.670  16.144  0.3185  0.7230  0.4462
  336MPD2    H1 5098   4.193   4.717  16.562  1.6081 -1.6820 -1.4623
  336MPD2    H2 5099   3.988   0.292  16.352 -1.2449 -1.6027 -0.8806
  336MPD2    H3 5100   4.084   0.214  16.542  0.4354  0.0143  0.0434
  336MPD2     N 5101   4.230   4.556  16.368  0.4426  0.2161 -0.0439
  336MPD2    H5 5102   4.259   4.528  16.461 -0.6468 -2.4567 -0.4812
  336MPD2    N1 5103   3.962   0.148  16.113  0.4730  1.0394  0.3465
  336MPD2    H7 5104   3.957   0.070  16.048 -2.1964  1.6765 -0.1983
  337TMC3    C1 5105   3.831   0.266  15.951 -0.0818  0.3844 -0.8913
  337TMC3    C2 5106   3.742   0.163  15.913 -0.1528  0.1454  0.0203
  337TMC3    C3 5107   3.665   0.186  15.807 -0.3045  0.1037  0.5866
  337TMC3    C4 5108   3.838   0.388  15.883 -0.7799 -0.4905  0.6619
  337TMC3    C5 5109   3.756   0.411  15.779 -0.5815  0.1691  0.4405
  337TMC3    C6 5110   3.669   0.309  15.741 -0.1488  1.1225 -0.0530
  337TMC3     C 5111   3.896   0.264  16.084  0.4275 -0.9026 -0.1624
  337TMC3     O 5112   3.927   0.373  16.126  0.3715 -0.0925 -0.2220
  337TMC3     H 5113   3.741   0.069  15.967  0.0202 -0.2650 -0.6827
  337TMC3    H1 5114   3.906   0.467  15.913  0.3783 -0.5414 -1.8619
  337TMC3    H2 5115   3.618   0.331  15.648 -0.1001 -1.8684 -0.7862
  337TMC3    C7 5116   3.801   0.498  15.674 -0.1982 -0.0722 -0.5305
  337TMC3    C8 5117   3.545   0.105  15.782  0.4264  0.6862  0.0908
  337TMC3    O1 5118   3.921   0.506  15.652  0.9976  0.3323 -0.3735
  337TMC3    O2 5119   3.519   0.013  15.858  0.1882  0.8324  0.3999
  338MPD2     C 5120   4.335   4.316   1.089 -0.3626  0.6798  0.7345
  338MPD2    C1 5121   4.305   4.346   0.958 -0.5193 -0.8075  0.4928
  338MPD2    C2 5122   4.177   4.395   0.929  0.0410 -1.0435  0.3318
  338MPD2    C3 5123   4.079   4.398   1.023 -0.4381 -0.6756  0.0556
  338MPD2    C4 5124   4.115   4.364   1.148  0.6598  0.2763  0.5761
  338MPD2    C5 5125   4.239   4.339   1.183 -0.1649  0.3815 -0.3987
  338MPD2     H 5126   4.163   4.411   0.822  0.0828 -1.2405  0.2970
  338MPD2    H1 5127   4.044   4.374   1.230  0.8167 -2.3918  1.0410
  338MPD2    H2 5128   4.436   4.283   1.112  0.4931  2.6050 -0.3215
  338MPD2    H3 5129   4.258   4.317   1.288 -0.4602 -1.2948 -0.6886
  338MPD2     N 5130   3.945   4.420   0.981  0.2939 -0.2596 -0.3628
  338MPD2    H5 5131   3.937   4.437   0.881  4.2425  0.2178 -0.6227
  338MPD2    N1 5132   4.395   4.331   0.851  0.2775  0.2206  0.2626
  338MPD2    H7 5133   4.361   4.353   0.758  1.2387  0.2424 -0.0900
  339TMC3    C1 5134   3.708   4.440   0.980 -0.4552  0.7160  0.0457
  339TMC3    C2 5135   3.594   4.362   0.999 -0.3219  0.0727  0.0865
  339TMC3    C3 5136   3.502   4.348   0.896 -0.5750 -0.2171 -0.5797
  339TMC3    C4 5137   3.720   4.503   0.855  0.4035 -0.6078 -0.1887
  339TMC3    C5 5138   3.628   4.482   0.754 -0.5029 -0.2383  0.1419
  339TMC3    C6 5139   3.522   4.404   0.773  0.1614  0.3226 -0.0411
  339TMC3     C 5140   3.830   4.398   1.053  0.1990  0.4758 -0.2674
  339TMC3     O 5141   3.824   4.360   1.169  0.0766 -0.1894 -0.6030
  339TMC3     H 5142   3.581   4.307   1.091  0.3020  1.1875  0.8315
  339TMC3    H1 5143   3.807   4.566   0.845 -0.0539  0.1919  0.8035
  339TMC3    H2 5144   3.443   4.383   0.701  1.9254 -1.7884 -1.3771
  339TMC3    C7 5145   3.647   4.535   0.624  0.4309  0.2577 -0.2767
  339TMC3    C8 5146   3.406   4.244   0.905 -0.2364  0.7100  0.7056
  339TMC3    O1 5147   3.727   4.626   0.615 -0.5378  0.1734 -0.0611
  339TMC3    O2 5148   3.327   4.244   0.812 -0.7616  0.1963  0.0789
  340MPD2     C 5149   0.316   2.781  10.693  0.2218  0.3165 -0.1424
  340MPD2    C1 5150   0.238   2.665  10.686 -0.7087 -0.0480  0.2439
  340MPD2    C2 5151   0.306   2.543  10.649  0.0574 -0.2788  0.3203
  340MPD2    C3 5152   0.435   2.549  10.593 -0.4188 -0.1755 -0.3185
  340MPD2    C4 5153   0.500   2.674  10.591  0.2181 -0.5664 -0.3843
  340MPD2    C5 5154   0.442   2.784  10.647 -0.0598 -0.0325 -0.0125
  340MPD2     H 5155   0.251   2.450  10.657  0.1303 -0.5413 -2.3999
  340MPD2    H1 5156   0.602   2.689  10.560  0.1048  3.2912  0.9784
  340MPD2    H2 5157   0.268   2.871  10.730  0.1919 -0.0038  0.5853
  340MPD2    H3 5158   0.488   2.881  10.661 -1.0425  0.5159 -0.5261
  340MPD2     N 5159   0.513   2.439  10.544  0.0646  0.3659 -0.4831
  340MPD2    H5 5160   0.588   2.477  10.488  0.0833 -0.5172 -1.0395
  340MPD2    N1 5161   0.103   2.669  10.732 -0.1371  0.2038 -0.3101
  340MPD2    H7 5162   0.078   2.748  10.790  2.2798  0.6232  0.1582
  341TMC3    C1 5163   0.026   2.490  10.587 -0.8276  0.1660 -1.0511
  341TMC3    C2 5164   0.012   2.354  10.608  0.3316 -0.2794  0.0074
  341TMC3    C3 5165   0.034   2.279  10.495  0.1811  0.0185  0.6238
  341TMC3    C4 5166   0.060   2.549  10.473 -0.6781  0.2130  0.5840
  341TMC3    C5 5167   0.089   2.468  10.367  0.4554 -0.1346 -0.5966
  341TMC3    C6 5168   0.076   2.334  10.375  0.3704  0.0023 -0.3806
  341TMC3     C 5169   4.731   2.580  10.701 -0.3162  0.6241  0.2281
  341TMC3     O 5170   4.622   2.591  10.750  0.5021  0.3673  0.0622
  341TMC3     H 5171   4.699   2.314  10.696  2.3058 -3.6413 -0.3765
  341TMC3    H1 5172   0.057   2.656  10.460 -0.5246  0.0324 -0.9465
  341TMC3    H2 5173   0.089   2.279  10.282 -1.5651  2.1218 -1.9035
  341TMC3    C7 5174   0.184   2.523  10.276  0.6103  0.2030  0.7246
  341TMC3    C8 5175   0.037   2.137  10.526 -0.3485  0.2561 -0.2959
  341TMC3    O1 5176   0.219   2.443  10.188  0.6586  0.3654  0.2359
  341TMC3    O2 5177   4.697   2.090  10.613 -0.5655  0.0165  0.0709
  342MPD2     C 5178   2.513   0.527   0.053 -0.7686  0.8060 -0.3579
  342MPD2    C1 5179   2.620   0.558  17.719  0.2884 -0.9267 -0.5426
  342MPD2    C2 5180   2.656   0.691  17.726  0.1878 -0.0973  0.0197
  342MPD2    C3 5181   2.595   0.790   0.065 -0.0247  0.0162 -0.0664
  342MPD2    C4 5182   2.483   0.754   0.137  0.7906 -0.1426 -0.3843
  342MPD2    C5 5183   2.445   0.620   0.135 -0.1081  0.0679 -0.4107
  342MPD2     H 5184   2.741   0.721  17.666 -0.7213  1.2546 -0.6086
  342MPD2    H1 5185   2.432   0.828   0.198  0.0374 -0.8004 -0.2064
  342MPD2    H2 5186   2.463   0.430   0.048 -0.6996  0.8010 -0.9509
  342MPD2    H3 5187   2.359   0.585   0.191 -0.5295 -0.7800 -1.5852
  342MPD2     N 5188   2.637   0.926   0.072 -0.2511  0.2988 -0.0971
  342MPD2    H5 5189   2.592   0.980   0.145 -1.0620  1.6881 -1.6229
  342MPD2    N1 5190   2.681   0.470  17.633 -0.2429 -0.4951  0.0704
  342MPD2    H7 5191   2.733   0.507  17.553  0.5553  0.7222  1.1606
  343TMC3    C1 5192   2.697   0.257  17.536  0.3432 -0.3987  0.6341
  343TMC3    C2 5193   2.682   0.323  17.414  0.1189 -0.3101  1.4581
  343TMC3    C3 5194   2.700   0.242  17.302  0.0116 -0.6363  0.7425
  343TMC3    C4 5195   2.703   0.125  17.552 -0.1511  0.5417  0.4114
  343TMC3    C5 5196   2.696   0.048  17.440  0.3246  0.0095  0.6961
  343TMC3    C6 5197   2.694   0.105  17.315 -0.4856 -0.4582 -0.3580
  343TMC3     C 5198   2.677   0.332  17.656  0.1826  0.0339  0.5745
  343TMC3     O 5199   2.646   0.276   0.013 -0.1578 -0.4002  0.6218
  343TMC3     H 5200   2.673   0.430  17.402  1.9966 -0.5246 -1.6741
  343TMC3    H1 5201   2.695   0.078  17.650  2.3143 -0.8581 -0.0560
  343TMC3    H2 5202   2.688   0.033  17.234  1.5928 -0.0369 -0.8993
  343TMC3    C7 5203   2.667   4.642  17.442 -0.0881 -0.9242  0.6542
  343TMC3    C8 5204   2.779   0.298  17.198 -0.3775  0.3545 -0.9064
  343TMC3    O1 5205   2.615   4.594  17.343 -0.1746  0.1201 -0.0550
  343TMC3    O2 5206   2.808   0.416  17.203 -0.0333  0.2090 -0.1622
  344MPD2     C 5207   3.318   0.636  10.725 -0.7511 -1.0024  0.8390
  344MPD2    C1 5208   3.413   0.535  10.721  0.0507 -0.2014 -0.4096
  344MPD2    C2 5209   3.543   0.564  10.682  0.2646 -0.2636  0.2327
  344MPD2    C3 5210   3.581   0.695  10.658 -0.1837  0.1309 -0.3152
  344MPD2    C4 5211   3.486   0.796  10.672  0.5450 -0.5125  0.2823
  344MPD2    C5 5212   3.359   0.766  10.706  0.0306  0.1017  0.0296
  344MPD2     H 5213   3.610   0.479  10.668  2.4770  1.3705  0.9295
  344MPD2    H1 5214   3.505   0.902  10.654 -3.2579  0.2962  1.0498
  344MPD2    H2 5215   3.215   0.619  10.756 -1.5738 -0.4330 -1.5344
  344MPD2    H3 5216   3.291   0.850  10.703 -0.7967 -0.4705  2.8383
  344MPD2     N 5217   3.707   0.738  10.607  0.2394  0.1311 -0.1139
  344MPD2    H5 5218   3.719   0.838  10.598  0.0503  0.3742  2.1248
  344MPD2    N1 5219   3.384   0.404  10.752  0.5442 -0.5484 -0.2178
  344MPD2    H7 5220   3.460   0.343  10.780  1.9382  0.4911 -1.7431
  345TMC3    C1 5221   3.931   0.716  10.544  0.4418  1.0030  0.7213
  345TMC3    C2 5222   4.031   0.734  10.633  0.2481 -0.4220  0.1528
  345TMC3    C3 5223   4.092   0.854  10.622  0.6505 -0.4603  0.6314
  345TMC3    C4 5224   3.901   0.803  10.442 -0.2525 -0.2378 -0.0203
  345TMC3    C5 5225   3.978   0.915  10.422 -0.2353  0.7626 -0.4400
  345TMC3    C6 5226   4.079   0.937  10.516 -0.4049  0.0187  0.5284
  345TMC3     C 5227   3.815   0.654  10.600  0.0467  0.5188 -0.1972
  345TMC3     O 5228   3.825   0.548  10.657 -0.3502  0.1944  0.1595
  345TMC3     H 5229   4.034   0.680  10.727  0.4007  1.2074  1.0795
  345TMC3    H1 5230   3.813   0.774  10.385  0.6751 -0.3411 -1.4142
  345TMC3    H2 5231   4.145   1.022  10.511  0.2785 -0.5630 -0.3702
  345TMC3    C7 5232   3.925   1.029  10.357  0.1538  0.0851  0.4275
  345TMC3    C8 5233   4.110   0.918  10.747 -0.5575 -0.1018  0.4943
  345TMC3    O1 5234   3.979   1.133  10.395 -0.1263  0.0360 -0.2693
  345TMC3    O2 5235   4.157   0.849  10.836 -0.4528 -0.0798  0.0347
  346MPD2     C 5236   3.148   1.278  14.256  0.4620  0.1037  0.1214
  346MPD2    C1 5237   3.262   1.350  14.243  0.1832  1.0365 -0.7750
  346MPD2    C2 5238   3.349   1.363  14.356  0.2204 -0.3131  0.4722
  346MPD2    C3 5239   3.313   1.309  14.478 -0.0075  1.3031 -0.0143
  346MPD2    C4 5240   3.194   1.236  14.491  0.5019  0.2059  0.7349
  346MPD2    C5 5241   3.123   1.217  14.377 -0.6364 -0.5939  0.8601
  346MPD2     H 5242   3.432   1.432  14.361  0.0877 -0.1982  1.1804
  346MPD2    H1 5243   3.160   1.191  14.584 -0.6280 -1.4107 -0.4705
  346MPD2    H2 5244   3.086   1.249  14.172 -0.1694  2.6181 -0.3024
  346MPD2    H3 5245   3.035   1.155  14.395 -0.2236 -1.8093 -1.3064
  346MPD2     N 5246   3.406   1.337  14.593 -0.0131  0.3121  0.2106
  346MPD2    H5 5247   3.484   1.395  14.565  0.7802 -0.2128  1.3170
  346MPD2    N1 5248   3.298   1.420  14.123  0.9549  0.2439  0.0024
  346MPD2    H7 5249   3.393   1.455  14.119  0.8706  0.2944 -1.3365
  347TMC3    C1 5250   3.477   1.340  14.830  0.1538 -0.1454 -0.2956
  347TMC3    C2 5251   3.614   1.355  14.811  0.0775  0.8071  0.0720
  347TMC3    C3 5252   3.693   1.385  14.918  0.2598  0.9405 -0.0030
  347TMC3    C4 5253   3.425   1.350  14.956  0.5555  0.1768  0.2377
  347TMC3    C5 5254   3.507   1.394  15.057  0.0887  0.6971  0.2194
  347TMC3    C6 5255   3.643   1.416  15.040  0.0977  0.2919 -0.1513
  347TMC3     C 5256   3.370   1.317  14.729 -0.5493  0.3299 -0.1903
  347TMC3     O 5257   3.256   1.284  14.774  0.7926 -0.0428  0.4456
  347TMC3     H 5258   3.652   1.332  14.712 -0.7722 -0.5802  0.0671
  347TMC3    H1 5259   3.331   1.305  14.987 -1.0161  2.6040 -1.0203
  347TMC3    H2 5260   3.706   1.465  15.113 -1.8628  0.2656  1.5675
  347TMC3    C7 5261   3.442   1.416  15.188  0.1958 -0.0594  0.2195
  347TMC3    C8 5262   3.824   1.334  14.907  0.1209  0.1476  0.0859
  347TMC3    O1 5263   3.320   1.425  15.189  0.9030  0.4291 -0.3396
  347TMC3    O2 5264   3.859   1.273  14.808 -0.8426 -0.3206  0.8706
  348MPD2     C 5265   2.312   1.920  12.132  0.0439  0.3358  0.0455
  348MPD2    C1 5266   2.238   1.849  12.035  0.2158  0.1677 -0.2098
  348MPD2    C2 5267   2.255   1.877  11.905  0.4065 -0.2772  0.2883
  348MPD2    C3 5268   2.338   1.991  11.873  0.1057 -0.2282 -0.7673
  348MPD2    C4 5269   2.406   2.063  11.967 -0.2708 -0.3440  0.0071
  348MPD2    C5 5270   2.405   2.013  12.093 -0.3074 -0.0148 -0.4399
  348MPD2     H 5271   2.201   1.820  11.830 -0.0774  0.7039 -0.1065
  348MPD2    H1 5272   2.477   2.139  11.937 -2.3578  1.6299  0.1646
  348MPD2    H2 5273   2.314   1.897  12.237 -0.6619 -1.7454 -0.4040
  348MPD2    H3 5274   2.481   2.050  12.161 -0.6905 -3.5383  1.9206
  348MPD2     N 5275   2.343   2.019  11.733  0.1043  0.4595 -0.2090
  348MPD2    H5 5276   2.309   1.945  11.672  0.9949  0.8797 -1.2079
  348MPD2    N1 5277   2.159   1.734  12.057  0.3328 -0.2644  0.0371
  348MPD2    H7 5278   2.124   1.686  11.975  0.4534 -1.0027  0.4222
  349TMC3    C1 5279   2.044   1.572  12.178 -0.6509  0.6075 -0.2367
  349TMC3    C2 5280   2.087   1.463  12.247  0.2534 -0.5345 -0.4581
  349TMC3    C3 5281   2.034   1.347  12.212  0.3572 -0.0443 -0.4335
  349TMC3    C4 5282   1.943   1.568  12.085 -0.3973  0.2284  0.0274
  349TMC3    C5 5283   1.880   1.450  12.075  0.2159  0.0976 -0.0934
  349TMC3    C6 5284   1.927   1.335  12.128 -0.1587  0.0266 -0.3730
  349TMC3     C 5285   2.123   1.693  12.183  0.4325 -0.1715 -0.8378
  349TMC3     O 5286   2.158   1.735  12.291 -0.4332 -0.1538  0.1886
  349TMC3     H 5287   2.169   1.469  12.318  0.2218  0.5340 -0.5260
  349TMC3    H1 5288   1.903   1.661  12.047 -2.4449 -0.9667 -0.7284
  349TMC3    H2 5289   1.871   1.244  12.110 -1.9029  1.0279 -0.0507
  349TMC3    C7 5290   1.789   1.428  11.957 -0.3851  0.6366  0.0073
  349TMC3    C8 5291   2.114   1.227  12.231 -0.1086 -0.2757  0.4095
  349TMC3    O1 5292   1.698   1.350  11.966  0.3317  0.1771 -0.0040
  349TMC3    O2 5293   2.187   1.232  12.331  0.0320 -0.4375  0.1389
  350MPD2     C 5294   1.071   4.719  10.327 -0.4130  0.5506 -0.0410
  350MPD2    C1 5295   1.154   4.607  10.339 -0.2459  0.4769  0.9478
  350MPD2    C2 5296   1.284   4.635  10.368 -0.3633  0.3661 -0.5555
  350MPD2    C3 5297   1.335   0.023  10.386  0.5488  0.4364 -0.0026
  350MPD2    C4 5298   1.250   0.134  10.376 -0.3317  0.3771  0.8620
  350MPD2    C5 5299   1.115   0.109  10.358 -0.6097 -0.4410 -0.4734
  350MPD2     H 5300   1.357   4.556  10.381 -0.8325  0.1163  0.4958
  350MPD2    H1 5301   1.277   0.231  10.416  1.0149  1.5716 -2.9364
  350MPD2    H2 5302   0.967   4.703  10.302 -0.4403  0.8025 -0.0883
  350MPD2    H3 5303   1.046   0.193  10.359  0.4721  0.4352 -0.6504
  350MPD2     N 5304   1.472   0.040  10.425  0.1604 -0.0171  0.7348
  350MPD2    H5 5305   1.529   4.692  10.427 -0.4845 -0.4754 -0.3594
  350MPD2    N1 5306   1.101   4.474  10.325 -0.3948  0.1431 -0.3695
  350MPD2    H7 5307   1.171   4.401  10.319 -0.8048 -0.2479 -0.3356
  351TMC3    C1 5308   0.958   4.290  10.299  0.0763 -0.0220  0.3241
  351TMC3    C2 5309   1.060   4.209  10.338 -0.2520  0.3433  0.1132
  351TMC3    C3 5310   1.027   4.076  10.315  0.0664 -0.3273 -0.2678
  351TMC3    C4 5311   0.835   4.251  10.264 -0.5488 -0.4247 -1.2463
  351TMC3    C5 5312   0.818   4.126  10.222  0.0618 -0.5368 -0.8030
  351TMC3    C6 5313   0.918   4.040  10.247  0.7128  0.1336 -0.6098
  351TMC3     C 5314   0.972   4.438  10.307 -0.4548  0.2563 -0.4698
  351TMC3     O 5315   0.867   4.503  10.295 -0.4858  0.4189  0.6637
  351TMC3     H 5316   1.155   4.241  10.379 -0.2432  0.2819  0.1417
  351TMC3    H1 5317   0.749   4.317  10.268  0.9280  1.4329 -0.1827
  351TMC3    H2 5318   0.919   3.948  10.190  1.0314 -0.5035  0.4301
  351TMC3    C7 5319   0.696   4.101  10.147 -0.5377 -0.4973  0.6570
  351TMC3    C8 5320   1.118   3.974  10.364  0.4444 -0.5335 -0.5291
  351TMC3    O1 5321   0.651   4.192  10.080 -0.5985 -0.0832 -0.5260
  351TMC3    O2 5322   1.217   4.019  10.413 -0.2015 -0.0606  0.1794
  352MPD2     C 5323   0.330   1.586   1.215 -0.1790  0.7327  0.4849
  352MPD2    C1 5324   0.202   1.540   1.249  0.2566  0.2681 -0.6511
  352MPD2    C2 5325   0.186   1.403   1.273 -0.1967 -0.3404  0.2039
  352MPD2    C3 5326   0.295   1.323   1.289  0.3015  0.0521 -0.1421
  352MPD2    C4 5327   0.421   1.378   1.278 -0.0402  0.0003 -1.2381
  352MPD2    C5 5328   0.433   1.507   1.235  1.0195  0.4207  1.3602
  352MPD2     H 5329   0.086   1.363   1.280 -0.6062  0.7066  0.2603
  352MPD2    H1 5330   0.509   1.317   1.291  0.0029 -0.0566 -1.7870
  352MPD2    H2 5331   0.344   1.689   1.185  2.2437  0.1110 -0.5205
  352MPD2    H3 5332   0.533   1.547   1.226  0.1701  2.0413 -0.8235
  352MPD2     N 5333   0.289   1.181   1.307 -0.1198 -0.1025  0.0160
  352MPD2    H5 5334   0.381   1.139   1.318  0.7065  1.7049  0.1494
  352MPD2    N1 5335   0.087   1.627   1.250  0.2381  0.4125 -0.0497
  352MPD2    H7 5336   0.103   1.724   1.226  1.9349 -0.0746 -0.8989
  353TMC3    C1 5337   0.203   0.962   1.291 -0.8866 -0.2863  0.0441
  353TMC3    C2 5338   0.332   0.918   1.265  0.4117  0.2632  0.6639
  353TMC3    C3 5339   0.346   0.800   1.194 -1.3513 -0.4689 -0.0020
  353TMC3    C4 5340   0.095   0.894   1.248 -0.3795  0.7029 -1.3538
  353TMC3    C5 5341   0.114   0.772   1.176  0.5187  0.0609  0.0108
  353TMC3    C6 5342   0.237   0.725   1.147 -0.8508 -0.0056  0.1735
  353TMC3     C 5343   0.175   1.101   1.308  0.1785  0.8669 -0.9749
  353TMC3     O 5344   0.059   1.137   1.308 -0.0720  0.3920 -0.6259
  353TMC3     H 5345   0.422   0.971   1.294 -1.3962  2.8841  1.4692
  353TMC3    H1 5346   4.730   0.926   1.264  0.5335  3.1148 -0.3233
  353TMC3    H2 5347   0.233   0.623   1.110 -2.4608 -0.3758  1.3757
  353TMC3    C7 5348   0.002   0.694   1.141 -0.1606  0.1072 -0.4743
  353TMC3    C8 5349   0.471   0.734   1.214 -0.1033  0.3753 -0.3688
  353TMC3    O1 5350   0.013   0.632   1.036  0.4590 -0.1045  0.1897
  353TMC3    O2 5351   0.558   0.796   1.280 -0.4081  0.1939  0.4484
  354TMC3    C1 5352   1.049   2.715  13.091  0.0041  0.8233 -0.7998
  354TMC3    C2 5353   1.056   2.852  13.082  0.7554 -0.3579 -0.0283
  354TMC3    C3 5354   1.069   2.917  12.963 -0.2813  0.5560 -0.3012
  354TMC3    C4 5355   1.058   2.638  12.979 -0.3815 -0.0015  0.2161
  354TMC3    C5 5356   1.092   2.704  12.861  0.5279 -0.2513  0.0101
  354TMC3    C6 5357   1.085   2.839  12.850 -0.6582 -0.6194 -0.8493
  354TMC3     C 5358   0.991   2.656  13.210 -0.0891  0.0667 -0.2474
  354TMC3     O 5359   0.979   2.532  13.195  0.1972  0.3480  0.0894
  354TMC3     H 5360   1.085   2.911  13.169  2.1392  1.5938 -1.8081
  354TMC3    H1 5361   1.094   2.536  12.982 -2.7535 -0.8792 -1.0206
  354TMC3    H2 5362   1.100   2.882  12.751  1.2741 -1.4228 -0.9021
  354TMC3    C7 5363   1.119   2.636  12.736 -0.3009  0.4277  0.1990
  354TMC3    C8 5364   1.132   3.042  12.952  0.2704  0.2723  0.8112
  354TMC3    O1 5365   1.060   2.532  12.711  0.8149 -0.1368  0.0753
  354TMC3    O2 5366   1.214   3.048  12.864 -0.3184 -0.5821  0.0869
  355MPD2     C 5367   1.336   3.775  11.739  0.6080  0.3964  0.3516
  355MPD2    C1 5368   1.407   3.766  11.624  0.1293 -0.4180 -0.5884
  355MPD2    C2 5369   1.544   3.746  11.636 -1.2212  0.8817 -0.1163
  355MPD2    C3 5370   1.609   3.747  11.752  0.1801  0.3153 -0.1213
  355MPD2    C4 5371   1.533   3.753  11.866 -0.3867 -0.3158  0.1987
  355MPD2    C5 5372   1.401   3.769  11.857  0.1594  0.4490  0.5288
  355MPD2     H 5373   1.600   3.724  11.546  0.2335  3.2345  0.2085
  355MPD2    H1 5374   1.577   3.751  11.965  2.4210  0.5753 -1.0288
  355MPD2    H2 5375   1.228   3.785  11.738  0.7856  2.1522 -0.7198
  355MPD2    H3 5376   1.348   3.766  11.951  1.6952 -1.0583  1.3326
  355MPD2     N 5377   1.752   3.743  11.772  0.2692  0.4104  0.1942
  355MPD2    H5 5378   1.776   3.757  11.870  1.5492 -1.3643  0.1302
  355MPD2    N1 5379   1.334   3.776  11.507 -0.1627 -0.0118  0.2855
  355MPD2    H7 5380   1.235   3.797  11.506  0.4089  2.5033 -1.6861
  356TMC3    C1 5381   1.984   3.775  11.703 -0.0399  0.0303 -0.2995
  356TMC3    C2 5382   2.061   3.782  11.590  0.0752  0.4913 -0.3816
  356TMC3    C3 5383   2.172   3.867  11.590  0.2347 -0.8816  0.1860
  356TMC3    C4 5384   2.022   3.860  11.811 -0.4359 -0.3269 -0.2293
  356TMC3    C5 5385   2.136   3.934  11.810  0.2749 -0.7790 -0.2793
  356TMC3    C6 5386   2.215   3.940  11.699 -0.3277 -0.3715 -0.2415
  356TMC3     C 5387   1.843   3.747  11.672 -0.6835  0.4443  0.9704
  356TMC3     O 5388   1.816   3.726  11.556 -0.2493 -0.1279 -0.9985
  356TMC3     H 5389   2.042   3.716  11.507  2.4106 -1.4457  0.6163
  356TMC3    H1 5390   1.961   3.860  11.901 -0.8857  0.0064 -0.5262
  356TMC3    H2 5391   2.303   4.002  11.711 -2.2378  2.2017  0.5723
  356TMC3    C7 5392   2.171   3.994  11.938 -0.0989 -0.4708  0.5373
  356TMC3    C8 5393   2.262   3.860  11.482  0.6457  0.2804  0.3896
  356TMC3    O1 5394   2.148   3.925  12.036  0.3454  0.0516 -0.3356
  356TMC3    O2 5395   2.265   3.750  11.425  0.5253 -0.3268 -0.4528
  357MPD2     C 5396   1.838   3.051   0.958  0.9453 -0.4890  0.2647
  357MPD2    C1 5397   1.782   2.932   0.923 -0.5542 -0.2306 -0.3989
  357MPD2    C2 5398   1.670   2.886   0.979  0.1921  0.1670  0.0059
  357MPD2    C3 5399   1.604   2.967   1.076  0.8674 -0.2744 -0.7047
  357MPD2    C4 5400   1.670   3.075   1.124 -0.0737  0.1430  0.4318
  357MPD2    C5 5401   1.776   3.125   1.055  0.3574  0.5765  0.0183
  357MPD2     H 5402   1.621   2.795   0.948 -0.8358  0.2748  1.3071
  357MPD2    H1 5403   1.623   3.140   1.198  0.4373 -0.5553  1.3657
  357MPD2    H2 5404   1.936   3.085   0.926 -0.1291  2.2599 -0.1275
  357MPD2    H3 5405   1.825   3.219   1.078  2.5063 -0.6013  0.2672
  357MPD2     N 5406   1.486   2.914   1.127  0.5917 -0.3006  0.1664
  357MPD2    H5 5407   1.445   2.832   1.085  0.8264 -0.6221  0.5719
  357MPD2    N1 5408   1.845   2.858   0.825  0.3043 -0.3242  0.1518
  357MPD2    H7 5409   1.911   2.913   0.771 -0.2859  3.1343  2.8988
  358TMC3    C1 5410   1.900   2.668   0.686  0.5083 -0.8287  0.0505
  358TMC3    C2 5411   1.935   2.747   0.580  0.4875  0.4397 -0.2340
  358TMC3    C3 5412   2.003   2.684   0.478  0.1082  0.2835 -0.2639
  358TMC3    C4 5413   1.918   2.531   0.687  0.1634  0.6363 -0.2355
  358TMC3    C5 5414   1.984   2.479   0.572  0.1892 -0.2554  0.3415
  358TMC3    C6 5415   2.026   2.553   0.468 -0.5577 -0.3757 -0.0887
  358TMC3     C 5416   1.825   2.724   0.796 -0.5801 -0.5936 -0.5866
  358TMC3     O 5417   1.765   2.645   0.867  0.0014 -0.0725  0.8723
  358TMC3     H 5418   1.896   2.848   0.577 -1.0982 -0.1583 -0.2098
  358TMC3    H1 5419   1.894   2.468   0.772  2.5161 -0.2950 -0.2740
  358TMC3    H2 5420   2.094   2.509   0.397  0.2248  0.9375 -0.1418
  358TMC3    C7 5421   1.970   2.333   0.567  0.0321 -0.6585 -0.0076
  358TMC3    C8 5422   2.030   2.768   0.363 -0.8037  0.3983  0.1827
  358TMC3    O1 5423   1.983   2.274   0.674  0.0395  0.3307 -0.0707
  358TMC3    O2 5424   2.056   2.887   0.383  0.3198 -0.2745 -0.4227
  359MPD2     C 5425   1.571   1.530  12.275 -0.4597  0.6738  0.0305
  359MPD2    C1 5426   1.517   1.663  12.259 -0.3957 -0.0851 -1.1721
  359MPD2    C2 5427   1.379   1.678  12.236 -0.9189  0.3743 -0.1347
  359MPD2    C3 5428   1.298   1.564  12.246 -0.4910 -0.0345  0.2427
  359MPD2    C4 5429   1.349   1.447  12.280 -0.8827 -0.0633  0.0840
  359MPD2    C5 5430   1.487   1.425  12.283  0.1459 -0.0072  0.4358
  359MPD2     H 5431   1.342   1.779  12.224  0.2746  0.8638  0.3192
  359MPD2    H1 5432   1.281   1.364  12.288 -1.1050  0.1502  0.4095
  359MPD2    H2 5433   1.669   1.497  12.307 -0.4891 -1.3610 -1.9952
  359MPD2    H3 5434   1.522   1.322  12.291 -1.9271 -0.9089 -1.9053
  359MPD2     N 5435   1.161   1.560  12.223  1.0671  0.1654  0.2272
  359MPD2    H5 5436   1.109   1.474  12.237 -0.9378  1.6285  1.9845
  359MPD2    N1 5437   1.600   1.777  12.250  0.3237  0.1224  0.5787
  359MPD2    H7 5438   1.570   1.862  12.204  1.7136  2.0091  3.1298
  360TMC3    C1 5439   1.790   1.903  12.274 -0.2436 -0.1572 -0.3754
  360TMC3    C2 5440   1.874   1.958  12.362 -0.5178 -0.2966 -0.4582
  360TMC3    C3 5441   1.962   2.050  12.324  0.2288 -0.3655  0.6179
  360TMC3    C4 5442   1.802   1.944  12.144  0.2878 -0.6516  0.2554
  360TMC3    C5 5443   1.893   2.036  12.100  0.1869  0.2817  0.7978
  360TMC3    C6 5444   1.973   2.101  12.199 -0.8988 -0.4641 -0.3360
  360TMC3     C 5445   1.721   1.787  12.312 -0.1092 -0.6944  0.6966
  360TMC3     O 5446   1.765   1.711  12.398 -0.4963 -0.6305  0.1789
  360TMC3     H 5447   1.847   1.939  12.465 -1.9087  1.8170 -0.4313
  360TMC3    H1 5448   1.739   1.896  12.070  0.6019  1.1355 -1.1837
  360TMC3    H2 5449   2.049   2.175  12.173 -0.0813 -0.9981  0.5084
  360TMC3    C7 5450   1.919   2.057  11.956 -0.5722 -0.5432 -0.3477
  360TMC3    C8 5451   2.060   2.096  12.427 -0.2620 -0.8328 -0.3486
  360TMC3    O1 5452   2.017   2.123  11.944  0.2930 -0.7134  0.1730
  360TMC3    O2 5453   2.050   2.050  12.544  0.4193  0.3866 -0.2860
  361MPD2     C 5454   3.485   0.988  16.716 -0.4981  0.2894  0.1223
  361MPD2    C1 5455   3.457   1.002  16.855  0.0696  0.1766 -0.7223
  361MPD2    C2 5456   3.558   1.026  16.945 -0.8669  0.1986 -0.2332
  361MPD2    C3 5457   3.694   1.008  16.908  0.4893 -1.1444 -0.1740
  361MPD2    C4 5458   3.717   0.980  16.770 -0.2070 -0.9005  0.4409
  361MPD2    C5 5459   3.618   0.968  16.680 -0.5159 -0.3185  0.0078
  361MPD2     H 5460   3.527   1.035  17.049  0.8422 -1.3434  0.4002
  361MPD2    H1 5461   3.816   0.960  16.730 -0.0329  0.0334  0.4189
  361MPD2    H2 5462   3.416   0.970  16.635  1.5374  1.9658 -1.9837
  361MPD2    H3 5463   3.638   0.941  16.577  2.0705 -0.3779  0.5294
  361MPD2     N 5464   3.805   1.002  17.000 -0.0284  0.4691  0.5196
  361MPD2    H5 5465   3.898   0.996  16.961 -0.9002  0.6782 -1.6017
  361MPD2    N1 5466   3.318   1.006  16.891 -0.1819  0.6213  0.2443
  361MPD2    H7 5467   3.258   0.992  16.811 -0.9487 -1.0362  1.1024
  362TMC3    C1 5468   3.108   1.028  16.983  0.2966  0.0815 -0.3976
  362TMC3    C2 5469   3.021   0.980  17.077  0.2676  0.0268 -0.6473
  362TMC3    C3 5470   2.892   1.011  17.053 -0.0549  0.8849  0.1541
  362TMC3    C4 5471   3.072   1.097  16.870  0.6989 -0.2384 -0.1036
  362TMC3    C5 5472   2.939   1.116  16.858 -0.4797 -0.1508  0.6859
  362TMC3    C6 5473   2.840   1.080  16.947 -0.5070 -0.4914 -0.3573
  362TMC3     C 5474   3.252   1.019  17.007  0.0726  0.2282  0.4205
  362TMC3     O 5475   3.296   1.019  17.123 -0.1733  0.3311  0.2049
  362TMC3     H 5476   3.045   0.923  17.167 -2.5077 -1.5533 -0.9012
  362TMC3    H1 5477   3.146   1.138  16.803 -0.4871  0.8554 -0.7496
  362TMC3    H2 5478   2.734   1.087  16.927 -0.5687  1.8597  0.7490
  362TMC3    C7 5479   2.903   1.192  16.744 -0.2555  0.3282 -0.5051
  362TMC3    C8 5480   2.795   0.994  17.160  0.2526 -0.3254  0.0322
  362TMC3    O1 5481   2.978   1.276  16.695  0.2237 -0.3932 -0.1304
  362TMC3    O2 5482   2.786   0.893  17.228 -0.1789 -0.3113 -0.3594
  363TMC3    C1 5483   2.775   4.319   9.997 -0.4554  0.0716  0.0727
  363TMC3    C2 5484   2.751   4.183   9.988  0.1996  0.2180  0.1604
  363TMC3    C3 5485   2.613   4.145   9.994 -0.7574  0.0281 -0.9020
  363TMC3    C4 5486   2.674   4.410  10.006 -0.6929  0.6109 -0.1975
  363TMC3    C5 5487   2.547   4.362  10.009 -0.0528  0.1762 -0.3851
  363TMC3    C6 5488   2.509   4.234   9.993  0.2049 -0.8179 -0.6780
  363TMC3     C 5489   2.902   4.385  10.009  0.0575 -0.5653 -0.1576
  363TMC3     O 5490   2.911   4.499   9.962  0.0507  0.0755 -0.2008
  363TMC3     H 5491   2.829   4.107   9.987  0.4080  0.4454 -0.6815
  363TMC3    H1 5492   2.701   4.514   9.996  0.6612  0.4402  1.7325
  363TMC3    H2 5493   2.408   4.200   9.972 -0.5293  1.6671 -1.0604
  363TMC3    C7 5494   2.439   4.460  10.036  0.3679  0.2499 -0.5079
  363TMC3    C8 5495   2.580   4.006  10.039  0.0204  0.4104  0.2794
  363TMC3    O1 5496   2.455   4.578  10.008  0.4131  0.2073 -0.2166
  363TMC3    O2 5497   2.463   3.980  10.019 -0.0094  0.5592  0.4318
  364MPD2     C 5498   0.519   3.199  10.705  0.8322  0.6570 -0.3314
  364MPD2    C1 5499   0.617   3.165  10.618 -0.1248  0.8507 -0.2771
  364MPD2    C2 5500   0.726   3.089  10.659  0.5329  0.1790  0.1351
  364MPD2    C3 5501   0.725   3.031  10.788 -0.0021  0.7007  0.1745
  364MPD2    C4 5502   0.630   3.069  10.874  0.1818 -0.2873 -0.4177
  364MPD2    C5 5503   0.532   3.162  10.840 -0.4947  0.9182 -0.1556
  364MPD2     H 5504   0.809   3.060  10.596 -0.6051  0.2727 -1.3970
  364MPD2    H1 5505   0.634   3.045  10.979  0.8479 -1.1471 -0.6398
  364MPD2    H2 5506   0.440   3.272  10.691  0.2209  0.3524  1.6644
  364MPD2    H3 5507   0.457   3.204  10.906  0.6298  2.4685  0.1472
  364MPD2     N 5508   0.823   2.939  10.825 -0.3298 -0.3958  0.8385
  364MPD2    H5 5509   0.834   2.936  10.926  2.4928  1.6877  0.5870
  364MPD2    N1 5510   0.612   3.230  10.494  0.2208 -0.7408 -1.0595
  364MPD2    H7 5511   0.521   3.266  10.466  0.6153  0.6148 -0.5468
  365TMC3    C1 5512   0.693   3.337  10.301  0.4607 -0.6367 -0.4624
  365TMC3    C2 5513   0.777   3.315  10.199 -0.2259 -0.8816  0.0386
  365TMC3    C3 5514   0.861   3.421  10.164  0.7224  0.0776 -0.2734
  365TMC3    C4 5515   0.664   3.456  10.361 -0.2215 -0.5862  0.4115
  365TMC3    C5 5516   0.740   3.560  10.317 -0.1578  0.5211  0.4066
  365TMC3    C6 5517   0.837   3.545  10.219  0.0152 -0.0202 -0.4154
  365TMC3     C 5518   0.713   3.232  10.398  0.3162 -0.0283 -0.3970
  365TMC3     O 5519   0.825   3.178  10.400  0.3590 -0.0447 -0.2674
  365TMC3     H 5520   0.798   3.216  10.159  1.3164  1.1358 -4.0880
  365TMC3    H1 5521   0.601   3.464  10.449  0.0647 -0.3171  0.5946
  365TMC3    H2 5522   0.904   3.628  10.201 -1.4053  1.5272  1.3835
  365TMC3    C7 5523   0.752   3.687  10.386  0.1132  0.1132  0.4062
  365TMC3    C8 5524   1.001   3.396  10.137 -0.2177 -0.6855  0.3015
  365TMC3    O1 5525   0.790   3.782  10.323  0.3998 -0.4213 -0.3889
  365TMC3    O2 5526   1.079   3.478  10.090 -0.8966  0.4513  1.3631
  366MPD2     C 5527   3.406   4.380  15.495 -0.3155 -0.0378 -0.8476
  366MPD2    C1 5528   3.541   4.372  15.529 -0.1269  0.2924  0.2195
  366MPD2    C2 5529   3.594   4.244  15.540 -0.0026  0.3286 -0.2951
  366MPD2    C3 5530   3.519   4.126  15.542 -0.0094 -0.3631 -0.6299
  366MPD2    C4 5531   3.387   4.137  15.515  0.3817 -0.0965 -0.2902
  366MPD2    C5 5532   3.332   4.263  15.489  0.3487 -0.4579 -0.9064
  366MPD2     H 5533   3.702   4.230  15.542  0.0466  0.5668 -1.4277
  366MPD2    H1 5534   3.327   4.048  15.499 -3.2438  2.5284 -1.2066
  366MPD2    H2 5535   3.361   4.478  15.483 -0.8697  0.2219  3.3240
  366MPD2    H3 5536   3.225   4.264  15.472  0.1099 -2.1946  0.4814
  366MPD2     N 5537   3.584   4.002  15.553 -0.1940 -0.1052  0.5110
  366MPD2    H5 5538   3.685   4.001  15.547 -0.2551  0.4951 -0.7093
  366MPD2    N1 5539   3.615   4.495  15.515 -0.6669 -0.0154  0.2436
  366MPD2    H7 5540   3.571   4.581  15.483 -0.8266 -0.6356 -1.2032
  367TMC3    C1 5541   3.791   4.651  15.546 -0.3254  0.0097 -0.4863
  367TMC3    C2 5542   3.922   4.665  15.580  0.1421  0.0491  0.7210
  367TMC3    C3 5543   3.983   0.050  15.556 -0.7259  0.6810 -1.3173
  367TMC3    C4 5544   3.717   0.009  15.479 -0.3873  0.2616 -0.0223
  367TMC3    C5 5545   3.779   0.128  15.463 -0.3815 -0.2504  0.0952
  367TMC3    C6 5546   3.909   0.148  15.496 -0.7643 -0.1873 -0.4042
  367TMC3     C 5547   3.750   4.507  15.551 -0.3077  0.9218 -0.0492
  367TMC3     O 5548   3.831   4.423  15.586  0.0024  0.1012 -0.6165
  367TMC3     H 5549   3.976   4.596  15.644  1.8404  0.3749 -0.3630
  367TMC3    H1 5550   3.613   4.732  15.449 -0.6185  0.5771  0.6452
  367TMC3    H2 5551   3.942   0.250  15.483  0.7338 -0.2501  2.8956
  367TMC3    C7 5552   3.709   0.229  15.400  0.4053  0.5810 -0.7145
  367TMC3    C8 5553   4.095   0.076  15.646  0.2995  0.0043 -0.7190
  367TMC3    O1 5554   3.592   0.244  15.430  0.4130 -0.4793  0.3384
  367TMC3    O2 5555   4.137   4.719  15.714  0.2336  0.4851  0.1060
  368MPD2     C 5556   0.662   1.094  13.605 -0.4349  0.6852  0.4234
  368MPD2    C1 5557   0.693   1.230  13.582  0.9868 -0.6575 -0.1479
  368MPD2    C2 5558   0.815   1.247  13.511 -0.4239  0.1676 -0.3742
  368MPD2    C3 5559   0.900   1.138  13.479 -0.2261 -0.3108  0.0395
  368MPD2    C4 5560   0.867   1.010  13.511 -0.0718  0.4887  0.0725
  368MPD2    C5 5561   0.745   0.991  13.568  0.1932 -0.7599 -0.5955
  368MPD2     H 5562   0.837   1.348  13.479  1.9182  0.1502  1.1553
  368MPD2    H1 5563   0.924   0.927  13.470  1.4668  2.1586 -1.1822
  368MPD2    H2 5564   0.567   1.066  13.650 -0.0398 -0.7303  0.3776
  368MPD2    H3 5565   0.699   0.893  13.566 -1.3564 -0.0799  2.1486
  368MPD2     N 5566   1.008   1.162  13.395  0.2753  0.1129 -0.1967
  368MPD2    H5 5567   1.047   1.079  13.350  2.6263 -1.0979  4.0609
  368MPD2    N1 5568   0.587   1.325  13.593 -0.4364 -0.4514  0.2956
  368MPD2    H7 5569   0.495   1.284  13.607  0.1664 -2.0493 -0.4407
  369TMC3    C1 5570   0.464   1.518  13.566  0.1095  0.5781  0.8885
  369TMC3    C2 5571   0.449   1.612  13.471  0.1383  0.5635 -0.6376
  369TMC3    C3 5572   0.327   1.648  13.420 -0.0445 -0.1745  1.0460
  369TMC3    C4 5573   0.354   1.452  13.605  0.1466 -0.4540  0.3458
  369TMC3    C5 5574   0.227   1.487  13.549 -0.2742 -0.8915  0.1015
  369TMC3    C6 5575   0.213   1.596  13.467  0.3988 -0.2132  0.2752
  369TMC3     C 5576   0.596   1.457  13.564  0.3205  0.5072  0.3456
  369TMC3     O 5577   0.695   1.528  13.547  0.2456 -0.4175  0.1549
  369TMC3     H 5578   0.534   1.652  13.416 -0.6999  0.9192 -1.6926
  369TMC3    H1 5579   0.355   1.381  13.686 -1.9048 -0.5667  0.2892
  369TMC3    H2 5580   0.119   1.631  13.426 -0.0749 -0.8461  0.8240
  369TMC3    C7 5581   0.109   1.404  13.571  1.0383 -0.2595 -0.4471
  369TMC3    C8 5582   0.316   1.745  13.308 -0.1877  0.1381  0.5172
  369TMC3    O1 5583   0.108   1.344  13.681 -0.3387  0.0490 -0.2616
  369TMC3    O2 5584   0.208   1.766  13.263  0.1830  0.5725 -0.3110
  370TMC3    C1 5585   4.451   1.794  16.347 -0.4383 -0.0596  0.0382
  370TMC3    C2 5586   4.396   1.745  16.455  0.5617 -0.1929 -0.5606
  370TMC3    C3 5587   4.439   1.628  16.508 -0.0558 -0.2068 -0.3608
  370TMC3    C4 5588   4.523   1.712  16.266 -0.2819  0.3840  0.6649
  370TMC3    C5 5589   4.563   1.594  16.319  0.0807 -2.1569 -0.4165
  370TMC3    C6 5590   4.535   1.554  16.442 -0.0580  0.4168  0.7029
  370TMC3     C 5591   4.516   1.915  16.385  0.5754 -0.3016  0.4750
  370TMC3     O 5592   4.520   1.943  16.503  0.3636  0.2230  0.5031
  370TMC3     H 5593   4.321   1.807  16.502 -0.9180 -1.7491 -0.8871
  370TMC3    H1 5594   4.586   1.736  16.182 -0.3595 -0.4025  0.3815
  370TMC3    H2 5595   4.574   1.464  16.488 -0.3600 -1.9708 -3.7011
  370TMC3    C7 5596   4.633   1.503  16.222 -0.0753  0.5900 -0.2319
  370TMC3    C8 5597   4.450   1.609  16.649  0.4697  0.0247  0.3204
  370TMC3    O1 5598   4.598   1.519  16.109  0.0328 -0.3199 -0.5843
  370TMC3    O2 5599   4.469   1.503  16.706 -0.4486 -0.0401  0.0782
  371TMC3    C1 5600   1.245   0.136  15.684 -0.1220 -0.2958 -0.5700
  371TMC3    C2 5601   1.202   0.105  15.814  0.4885  0.3115  0.1341
  371TMC3    C3 5602   1.153   0.207  15.894  0.4639 -0.2217 -0.8362
  371TMC3    C4 5603   1.225   0.261  15.638 -0.2608  0.4034 -0.7920
  371TMC3    C5 5604   1.184   0.358  15.711  0.1459 -0.5415 -0.3253
  371TMC3    C6 5605   1.149   0.332  15.844 -0.0240  0.4342 -0.4903
  371TMC3     C 5606   1.281   0.026  15.588  0.2205 -0.1567 -0.1060
  371TMC3     O 5607   1.301   0.062  15.475  0.2901  0.3872  0.2813
  371TMC3     H 5608   1.198   0.003  15.849 -1.2795  0.7600  1.2507
  371TMC3    H1 5609   1.248   0.268  15.532 -1.7624  0.5554 -1.1130
  371TMC3    H2 5610   1.112   0.418  15.899 -1.1195 -0.1944 -0.2309
  371TMC3    C7 5611   1.198   0.498  15.656  0.2616 -0.3156 -0.1674
  371TMC3    C8 5612   1.110   0.182  16.028  0.5132  0.9283 -1.0013
  371TMC3    O1 5613   1.138   0.586  15.710  0.3678 -0.0730 -0.5672
  371TMC3    O2 5614   1.131   0.070  16.072 -0.0243 -0.1990 -0.3041
  372MPD2     C 5615   0.470   1.315  14.121  0.1315  0.2267  0.5197
  372MPD2    C1 5616   0.553   1.232  14.042 -0.3550  0.5542  0.8589
  372MPD2    C2 5617   0.505   1.102  14.009  0.2384 -0.1755  0.3089
  372MPD2    C3 5618   0.401   1.040  14.080 -0.3828 -0.6666 -0.4133
  372MPD2    C4 5619   0.329   1.123  14.167  0.7609 -0.5281  0.0125
  372MPD2    C5 5620   0.364   1.255  14.181 -0.4233 -1.0627 -0.4597
  372MPD2     H 5621   0.559   1.037  13.940  2.1040  1.1925  0.4830
  372MPD2    H1 5622   0.249   1.083  14.228 -0.5059  0.5065 -0.9759
  372MPD2    H2 5623   0.500   1.411  14.162  0.9738 -0.0049  0.4548
  372MPD2    H3 5624   0.315   1.323  14.250  2.1593 -0.1897  0.4893
  372MPD2     N 5625   0.372   0.903  14.060  0.6888  0.2355 -0.4314
  372MPD2    H5 5626   0.420   0.860  13.981  0.5693  0.3525 -0.5685
  372MPD2    N1 5627   0.674   1.277  13.980 -0.1725  0.1181 -0.3520
  372MPD2    H7 5628   0.740   1.202  13.959  1.8759  2.2503 -1.5212
  373TMC3    C1 5629   0.320   0.689  14.125 -0.6431  0.7735  0.1485
  373TMC3    C2 5630   0.226   0.607  14.195 -0.5468  0.0566  0.0358
  373TMC3    C3 5631   0.245   0.476  14.198  0.1440  0.9099  0.0444
  373TMC3    C4 5632   0.439   0.630  14.079 -0.1294 -0.0324 -0.0520
  373TMC3    C5 5633   0.433   0.492  14.064  0.4098 -0.0104  0.0270
  373TMC3    C6 5634   0.335   0.412  14.116  0.3846 -0.6343  0.3662
  373TMC3     C 5635   0.313   0.827  14.156  0.1539 -0.3686  0.2973
  373TMC3     O 5636   0.272   0.856  14.270 -0.6469  0.6856 -0.6444
  373TMC3     H 5637   0.151   0.650  14.261  0.8114 -1.5389  2.6059
  373TMC3    H1 5638   0.520   0.693  14.046  0.3431 -0.1222  0.9216
  373TMC3    H2 5639   0.317   0.306  14.109  0.7343 -0.7489  1.1912
  373TMC3    C7 5640   0.555   0.419  14.018 -0.1821 -0.5390 -0.0225
  373TMC3    C8 5641   0.141   0.401  14.264 -0.1089  0.2501  0.2250
  373TMC3    O1 5642   0.645   0.486  13.968 -0.4226 -0.1569  0.0533
  373TMC3    O2 5643   0.033   0.455  14.247  0.2086  0.1265  0.1244
  374TMC3    C1 5644   1.272   1.614   9.728  0.1773 -0.4505 -0.2754
  374TMC3    C2 5645   1.286   1.745   9.768  0.1538  0.5927 -0.0227
  374TMC3    C3 5646   1.325   1.836   9.669  0.2106  0.5907  0.1460
  374TMC3    C4 5647   1.281   1.571   9.596 -0.8513  0.9531  0.0326
  374TMC3    C5 5648   1.321   1.669   9.508  0.0378 -0.4815  0.3622
  374TMC3    C6 5649   1.338   1.798   9.537  0.4690 -0.1669 -0.5076
  374TMC3     C 5650   1.238   1.507   9.829 -0.8238 -0.0222 -0.1361
  374TMC3     O 5651   1.208   1.394   9.789  0.5686 -0.2267 -0.0569
  374TMC3     H 5652   1.258   1.775   9.868 -1.6017 -2.0712  0.2902
  374TMC3    H1 5653   1.269   1.473   9.552  2.7853  0.6234 -0.2231
  374TMC3    H2 5654   1.356   1.873   9.460  1.7193 -1.9126 -1.9133
  374TMC3    C7 5655   1.346   1.627   9.374  0.9110 -0.6940 -0.5179
  374TMC3    C8 5656   1.358   1.975   9.701  0.4222 -0.3187  0.1288
  374TMC3    O1 5657   1.264   1.545   9.332 -0.1812  0.3217  0.5005
  374TMC3    O2 5658   1.344   2.054   9.607 -0.3030 -0.1416  0.3571
  375MPD2     C 5659   1.007   2.726  17.241  0.0384  0.2060 -0.0537
  375MPD2    C1 5660   0.948   2.771  17.128  0.6779 -0.1022  0.4639
  375MPD2    C2 5661   0.973   2.701  17.014  0.5770 -0.0129  0.0457
  375MPD2    C3 5662   1.052   2.584  17.013 -0.2413  0.7878 -0.2678
  375MPD2    C4 5663   1.103   2.540  17.128  0.1456 -0.3395  0.1202
  375MPD2    C5 5664   1.075   2.609  17.249  0.0840  0.1468  0.3107
  375MPD2     H 5665   0.927   2.739  16.924 -1.3522 -0.7179  0.7224
  375MPD2    H1 5666   1.155   2.445  17.136  4.9875  2.3142  0.5036
  375MPD2    H2 5667   0.991   2.776  17.336 -0.6474 -1.4552  0.7197
  375MPD2    H3 5668   1.115   2.579  17.345 -0.3078  0.7874  0.6754
  375MPD2     N 5669   1.090   2.514  16.894  0.2403 -0.4215  0.6053
  375MPD2    H5 5670   1.164   2.444  16.901  1.8397  1.4153  2.2679
  375MPD2    N1 5671   0.855   2.877  17.120  0.8101 -0.0468 -0.1356
  375MPD2    H7 5672   0.820   2.908  17.030  1.1818  0.5554 -0.0724
  376TMC3    C1 5673   1.122   2.489  16.660 -0.2499  0.6875 -0.5376
  376TMC3    C2 5674   1.252   2.452  16.689 -0.4408  0.1505  0.5933
  376TMC3    C3 5675   1.322   2.394  16.585  0.2938 -0.2541  0.1948
  376TMC3    C4 5676   1.065   2.479  16.539 -0.3047  0.2893  0.2360
  376TMC3    C5 5677   1.146   2.445  16.433  0.4623 -0.0920  0.2791
  376TMC3    C6 5678   1.269   2.399  16.465 -0.0559 -0.4276 -0.0064
  376TMC3     C 5679   1.048   2.545  16.773 -0.1619 -0.5803  0.3187
  376TMC3     O 5680   0.937   2.586  16.740 -0.5813 -0.0685  0.1921
  376TMC3     H 5681   1.296   2.470  16.786 -1.6902  3.9600  0.4536
  376TMC3    H1 5682   0.959   2.495  16.524 -0.2680 -0.3107 -0.6835
  376TMC3    H2 5683   1.339   2.376  16.386  1.1848  0.8330  0.7292
  376TMC3    C7 5684   1.090   2.359  16.336  0.3169  0.2066 -0.3793
  376TMC3    C8 5685   1.449   2.322  16.602 -0.3121 -0.5109 -0.0970
  376TMC3    O1 5686   1.054   2.415  16.233  0.1138 -0.1699 -0.3134
  376TMC3    O2 5687   1.505   2.278  16.503  0.3854 -0.5972  0.4013
  377MPD2     C 5688   4.572   1.692  13.368 -0.2943 -0.7207  0.3873
  377MPD2    C1 5689   4.486   1.622  13.287  0.4725  0.2839 -0.4956
  377MPD2    C2 5690   4.396   1.539  13.351 -0.3457 -0.0504  0.2962
  377MPD2    C3 5691   4.379   1.537  13.492 -0.3709  0.4759  0.1629
  377MPD2    C4 5692   4.462   1.614  13.561 -0.3696  0.0553  0.4176
  377MPD2    C5 5693   4.563   1.689  13.502  0.0421 -0.0435 -0.1982
  377MPD2     H 5694   4.351   1.461  13.291  0.8247 -1.8118  1.6882
  377MPD2    H1 5695   4.464   1.619  13.670  1.9437 -0.1312  0.3664
  377MPD2    H2 5696   4.654   1.748  13.326 -0.1526  0.4095  2.1733
  377MPD2    H3 5697   4.631   1.746  13.565  1.9778  0.7652 -3.0034
  377MPD2     N 5698   4.308   1.437  13.554  0.0854  0.3943 -0.2925
  377MPD2    H5 5699   4.328   1.433  13.654 -1.4729 -1.2541 -0.0621
  377MPD2    N1 5700   4.514   1.623  13.154 -0.2179  0.0273 -0.2070
  377MPD2    H7 5701   4.590   1.681  13.122 -0.6880  0.3727 -0.7112
  378TMC3    C1 5702   4.452   1.584  12.684 -0.7428 -0.3666 -0.8085
  378TMC3    C2 5703   4.404   1.575  12.814 -0.5085 -0.2127 -0.0342
  378TMC3    C3 5704   4.493   1.574  12.921 -0.4193  0.7959 -0.7866
  378TMC3    C4 5705   4.590   1.587  12.658 -0.2234  0.0999 -0.0709
  378TMC3    C5 5706   4.670   1.580  12.770  0.0510  0.4910  0.3284
  378TMC3    C6 5707   4.626   1.565  12.902  0.1158  0.4736  0.1286
  378TMC3     C 5708   4.352   1.596  12.578  0.1176  0.3384 -0.1806
  378TMC3     O 5709   4.238   1.599  12.619 -0.0726 -0.6788  0.5953
  378TMC3     H 5710   4.299   1.570  12.840 -0.6317  0.2623 -0.4344
  378TMC3    H1 5711   4.627   1.600  12.557  1.1431 -0.7971  0.3246
  378TMC3    H2 5712   4.696   1.568  12.984  0.9654  3.8465 -0.7578
  378TMC3    C7 5713   0.076   1.597  12.749  0.2016  0.6361 -0.7508
  378TMC3    C8 5714   4.446   1.555  13.057 -0.0448  0.1788  0.0650
  378TMC3    O1 5715   0.133   1.623  12.855 -0.0912 -0.7820  0.1049
  378TMC3    O2 5716   4.334   1.506  13.067 -0.1781  0.4705  0.0877
  379MPD2     C 5717   0.313   0.235  16.445  0.2939  0.0491  0.1679
  379MPD2    C1 5718   0.231   0.135  16.495 -0.1720  0.2997 -0.9056
  379MPD2    C2 5719   0.291   0.027  16.562  1.0609 -0.1977 -0.0897
  379MPD2    C3 5720   0.431   0.020  16.576  0.6950 -0.8909  0.3198
  379MPD2    C4 5721   0.505   0.121  16.526  0.0418  0.2557 -0.2907
  379MPD2    C5 5722   0.445   0.226  16.458  0.0764  0.2905  0.3922
  379MPD2     H 5723   0.222   4.688  16.598  0.8425  0.2351  0.3980
  379MPD2    H1 5724   0.613   0.130  16.533  0.0742 -0.6715  0.3851
  379MPD2    H2 5725   0.276   0.322  16.391 -0.4823 -0.1807  0.3295
  379MPD2    H3 5726   0.496   0.315  16.425 -0.5327  1.2522  2.0266
  379MPD2     N 5727   0.492   4.655  16.647 -0.0195  0.2916  0.1993
  379MPD2    H5 5728   0.588   4.675  16.672  0.8461 -3.3974 -0.1691
  379MPD2    N1 5729   0.092   0.141  16.482  0.0432  0.3940 -0.2321
  379MPD2    H7 5730   0.062   0.188  16.397  0.6914 -0.5593 -0.9838
  380TMC3    C1 5731   4.627   0.040  16.440  0.6407 -0.5856 -0.0768
  380TMC3    C2 5732   4.614   4.645  16.406 -0.1073  0.1280 -0.2503
  380TMC3    C3 5733   4.556   4.620  16.287  0.3746  0.3547  0.5971
  380TMC3    C4 5734   4.557   0.140  16.378  0.3784 -0.5231 -0.7747
  380TMC3    C5 5735   4.480   0.104  16.270  0.5174 -0.3614 -0.9535
  380TMC3    C6 5736   4.480   4.712  16.222  0.4151 -0.0607  0.4482
  380TMC3     C 5737   4.734   0.064  16.534 -0.5552  0.1131 -0.3611
  380TMC3     O 5738   0.002   4.735  16.639 -0.2248  0.4650 -0.3681
  380TMC3     H 5739   4.687   4.590  16.464  1.8184  2.2748 -0.6319
  380TMC3    H1 5740   4.557   0.243  16.412  2.2777 -0.0009 -2.3670
  380TMC3    H2 5741   4.425   4.679  16.135 -0.8720  0.4460  1.0701
  380TMC3    C7 5742   4.440   0.216  16.178  0.9511 -0.4206  0.2449
  380TMC3    C8 5743   4.651   4.566  16.194 -0.3861 -0.1590  0.4848
  380TMC3    O1 5744   4.458   0.331  16.220 -0.8677  0.4063 -0.4670
  380TMC3    O2 5745   4.658   4.611  16.083  0.3916  0.0450  0.2473
  381TMC3    C1 5746   4.490   0.984  16.565 -0.7205  0.0732  0.9800
  381TMC3    C2 5747   4.538   1.109  16.553  0.6996 -0.1043  0.4930
  381TMC3    C3 5748   4.588   1.172  16.661 -0.1504 -0.8707 -0.0781
  381TMC3    C4 5749   4.504   0.911  16.682 -0.4863 -0.3823 -0.3242
  381TMC3    C5 5750   4.553   0.976  16.786 -0.0345  0.0316 -0.5794
  381TMC3    C6 5751   4.594   1.106  16.783 -0.2605  0.6138  0.0913
  381TMC3     C 5752   4.403   0.918  16.468  0.1080 -0.3332 -0.1609
  381TMC3     O 5753   4.379   0.799  16.488  0.4020 -0.6828  0.5811
  381TMC3     H 5754   4.520   1.169  16.464  0.6260 -0.1808  0.4565
  381TMC3    H1 5755   4.451   0.817  16.690  0.3858 -0.7678  0.8702
  381TMC3    H2 5756   4.628   1.144  16.878  1.4783 -1.4222  0.2875
  381TMC3    C7 5757   4.528   0.933  16.921 -0.1739 -0.2042 -0.4445
  381TMC3    C8 5758   4.680   1.271  16.622 -0.1706 -0.3542 -0.4959
  381TMC3    O1 5759   4.600   0.852  16.981 -0.7378 -0.3715 -0.1745
  381TMC3    O2 5760   4.722   1.257  16.509 -0.2182  0.0170 -1.0476
  382MPD2     C 5761   3.595   3.452  17.502  0.3149  1.2161 -0.2811
  382MPD2    C1 5762   3.709   3.424  17.434 -0.5757 -0.4361 -0.0538
  382MPD2    C2 5763   3.781   3.305  17.461  1.1909  0.9790  0.0703
  382MPD2    C3 5764   3.743   3.225  17.566 -0.6949 -0.2962 -0.3956
  382MPD2    C4 5765   3.630   3.256  17.642  0.4180 -0.0436 -0.0188
  382MPD2    C5 5766   3.559   3.368  17.604  1.0449  0.1777  0.1974
  382MPD2     H 5767   3.859   3.276  17.391 -0.8975 -1.0365 -1.4194
  382MPD2    H1 5768   3.588   3.191  17.718 -0.6286  1.1293  0.4068
  382MPD2    H2 5769   3.529   3.538  17.489  0.2657  1.0232 -1.3110
  382MPD2    H3 5770   3.473   3.390  17.666 -1.1815  1.2322 -3.2061
  382MPD2     N 5771   3.803   3.099  17.589 -0.6444  0.2785  0.0842
  382MPD2    H5 5772   3.849   3.058  17.508  0.1400 -2.4254  1.9132
  382MPD2    N1 5773   3.757   3.511  17.332  0.3888 -0.4261  0.7507
  382MPD2    H7 5774   3.854   3.512  17.303  0.6744 -2.0130  1.6776
  383TMC3    C1 5775   3.829   2.893  17.684 -0.2732 -0.4520  0.2880
  383TMC3    C2 5776   3.778   2.837  17.569 -0.0219  0.2718  0.2508
  383TMC3    C3 5777   3.762   2.705  17.569  0.8539  0.0673 -0.6394
  383TMC3    C4 5778   3.845   2.808   0.053  0.1734 -0.2000 -0.3686
  383TMC3    C5 5779   3.836   2.668   0.038  0.4039 -0.7217 -0.5841
  383TMC3    C6 5780   3.807   2.612  17.662 -0.5775 -1.0431  0.1031
  383TMC3     C 5781   3.810   3.035  17.707 -0.2859 -0.4618 -0.4027
  383TMC3     O 5782   3.804   3.075   0.077  0.6819  0.8643 -0.1915
  383TMC3     H 5783   3.719   2.894  17.498 -0.4049 -0.5795 -0.1145
  383TMC3    H1 5784   3.844   2.864   0.146  0.3130 -0.0565 -0.4532
  383TMC3    H2 5785   3.813   2.505  17.651  0.6823 -0.9881  0.2124
  383TMC3    C7 5786   3.861   2.582   0.155  0.2016 -0.3340  0.1331
  383TMC3    C8 5787   3.646   2.656  17.498 -0.1062  0.0670  0.3412
  383TMC3    O1 5788   3.879   2.461   0.145 -0.2705 -0.3564  0.0847
  383TMC3    O2 5789   3.616   2.708  17.391  0.8856 -0.4800 -0.0561
  384MPD2     C 5790   0.212   4.671  12.452 -0.4056  0.9052  0.1810
  384MPD2    C1 5791   0.307   4.584  12.495 -0.5100  0.2120  0.6490
  384MPD2    C2 5792   0.376   4.523  12.393 -0.8778 -0.0443 -0.6765
  384MPD2    C3 5793   0.340   4.540  12.261 -0.2683  0.9412 -0.2542
  384MPD2    C4 5794   0.251   4.641  12.223 -0.1346 -0.5258 -0.2989
  384MPD2    C5 5795   0.177   4.701  12.323  0.3817 -0.4860 -0.6554
  384MPD2     H 5796   0.439   4.441  12.425 -1.0500  0.2059  0.3035
  384MPD2    H1 5797   0.235   4.670  12.120  1.3376 -0.9439 -0.6463
  384MPD2    H2 5798   0.156   4.725  12.528 -0.7048  1.3425 -0.3496
  384MPD2    H3 5799   0.112   0.049  12.305 -0.0719 -0.4871  1.0054
  384MPD2     N 5800   0.403   4.468  12.160 -0.2117  0.2587 -0.3681
  384MPD2    H5 5801   0.376   4.488  12.064 -1.1981 -1.2339 -0.3992
  384MPD2    N1 5802   0.319   4.544  12.629  0.1157 -0.0910  0.5698
  384MPD2    H7 5803   0.235   4.564  12.682 -0.6631 -0.7959 -0.4140
  385TMC3    C1 5804   0.556   4.297  12.085 -0.2601 -0.1007 -0.4445
  385TMC3    C2 5805   0.638   4.394  12.027  0.1981  0.1494  0.2441
  385TMC3    C3 5806   0.769   4.364  12.001 -0.2024  0.3335 -0.0309
  385TMC3    C4 5807   0.602   4.173  12.116  0.7867 -0.3418  0.0106
  385TMC3    C5 5808   0.733   4.145  12.084 -0.2643 -0.2576  0.5154
  385TMC3    C6 5809   0.817   4.239  12.028 -0.5022 -0.4686 -0.3978
  385TMC3     C 5810   0.447   4.336  12.182 -0.0128 -0.3982 -0.1144
  385TMC3     O 5811   0.418   4.254  12.269  0.0859 -0.1121  0.0736
  385TMC3     H 5812   0.599   4.495  12.016 -1.7752 -0.6365  0.0387
  385TMC3    H1 5813   0.532   4.099  12.153 -1.9446  0.6693 -3.1768
  385TMC3    H2 5814   0.923   4.219  12.015 -0.1953  1.7731 -1.4247
  385TMC3    C7 5815   0.798   4.064  12.187  0.0731 -0.2391 -0.1110
  385TMC3    C8 5816   0.796   4.399  11.866  0.9707  0.0840 -0.0643
  385TMC3    O1 5817   0.917   4.049  12.184  0.2368 -0.1320 -0.1476
  385TMC3    O2 5818   0.770   4.514  11.824  0.2139 -0.3406  0.1269
  386TMC3    C1 5819   0.816   1.902  11.795 -0.4828 -0.5717  0.1152
  386TMC3    C2 5820   0.796   1.996  11.697  0.2485 -0.6732 -0.2297
  386TMC3    C3 5821   0.681   2.079  11.705 -0.1347  0.0231 -0.5073
  386TMC3    C4 5822   0.727   1.885  11.902 -0.2181 -0.6729 -0.4889
  386TMC3    C5 5823   0.625   1.979  11.916  0.2286  0.0425  0.0027
  386TMC3    C6 5824   0.597   2.069  11.814  0.5457 -1.0369 -0.4847
  386TMC3     C 5825   0.944   1.834  11.792 -0.1362  0.3760  0.1082
  386TMC3     O 5826   1.030   1.895  11.732 -0.1147 -0.8332  0.7230
  386TMC3     H 5827   0.866   2.001  11.615  1.1639 -1.5010  0.5132
  386TMC3    H1 5828   0.738   1.804  11.974 -2.3245  2.4395  3.3856
  386TMC3    H2 5829   0.503   2.123  11.805  0.1616 -1.3089  2.0646
  386TMC3    C7 5830   0.526   1.960  12.016 -0.3037 -0.1075 -0.7191
  386TMC3    C8 5831   0.622   2.120  11.586 -0.3165 -1.4695 -0.2399
  386TMC3    O1 5832   0.553   1.924  12.131  0.2023 -0.0098 -0.0259
  386TMC3    O2 5833   0.511   2.169  11.591  0.0899  0.5006 -0.0419
  387MPD2     C 5834   3.486   2.493   9.960  0.2306 -0.1089  0.5160
  387MPD2    C1 5835   3.599   2.452  10.031  0.0151  0.5189 -0.8020
  387MPD2    C2 5836   3.612   2.334  10.089 -0.0737  0.7408 -0.6210
  387MPD2    C3 5837   3.516   2.240  10.063  0.4795  0.4949  0.1597
  387MPD2    C4 5838   3.413   2.272   9.981  0.8838  0.2380 -0.1428
  387MPD2    C5 5839   3.392   2.397   9.931  0.1191  0.2732  0.0162
  387MPD2     H 5840   3.706   2.315  10.140  0.4994  2.1789 -1.1350
  387MPD2    H1 5841   3.351   2.188   9.951 -0.1830  1.2776 -0.8276
  387MPD2    H2 5842   3.472   2.590   9.914 -1.3067  0.1423  1.5155
  387MPD2    H3 5843   3.303   2.409   9.870 -0.4127 -0.4028  0.6581
  387MPD2     N 5844   3.549   2.113  10.106  0.5274  0.3165  0.7453
  387MPD2    H5 5845   3.630   2.110  10.166  0.0803  1.2772  1.3873
  387MPD2    N1 5846   3.712   2.526  10.047 -0.2035  0.2252  0.4273
  387MPD2    H7 5847   3.782   2.488  10.110  1.3509  1.6320 -0.4586
  388TMC3    C1 5848   3.876   2.670   9.999  0.6588 -0.6775  0.2564
  388TMC3    C2 5849   3.910   2.803   9.998  0.0643 -0.1564 -0.2326
  388TMC3    C3 5850   4.043   2.832  10.026 -0.3582 -0.2724  0.3797
  388TMC3    C4 5851   3.962   2.573  10.027 -0.2973  0.4181 -0.2644
  388TMC3    C5 5852   4.091   2.608  10.052  0.2357  0.2701  1.1518
  388TMC3    C6 5853   4.137   2.736  10.053 -0.0361 -0.7085  0.8532
  388TMC3     C 5854   3.745   2.635   9.973  0.1539  0.2001  0.1007
  388TMC3     O 5855   3.682   2.722   9.914  0.7167  0.4701  0.4446
  388TMC3     H 5856   3.840   2.885   9.983  0.3427  0.3624  1.3370
  388TMC3    H1 5857   3.939   2.468  10.017  2.8281 -0.2624 -0.1887
  388TMC3    H2 5858   4.242   2.756  10.065 -0.0522 -0.4498  0.5420
  388TMC3    C7 5859   4.180   2.505  10.093 -0.0574  0.3179  0.7058
  388TMC3    C8 5860   4.091   2.953   9.974 -0.8682  0.0087  0.5245
  388TMC3    O1 5861   4.291   2.512  10.038  0.1229 -0.4550 -0.0639
  388TMC3    O2 5862   4.011   3.010   9.898  0.1538 -0.5203  0.6527
  389MPD2     C 5863   2.258   0.720  11.496 -0.6524 -0.8457 -0.5204
  389MPD2    C1 5864   2.179   0.645  11.402  0.0525 -0.6659  0.1356
  389MPD2    C2 5865   2.100   0.544  11.447 -0.6430  0.5795 -0.6147
  389MPD2    C3 5866   2.088   0.530  11.583 -0.2342  0.2776 -0.1127
  389MPD2    C4 5867   2.164   0.605  11.677 -0.7848  0.1003  0.3096
  389MPD2    C5 5868   2.249   0.703  11.628 -0.0018  0.2984  1.2158
  389MPD2     H 5869   2.057   0.467  11.383 -0.2097  0.5746 -0.9014
  389MPD2    H1 5870   2.157   0.590  11.784  0.3924 -0.9617  0.2308
  389MPD2    H2 5871   2.336   0.783  11.455  0.7528 -1.9339  0.4654
  389MPD2    H3 5872   2.325   0.754  11.686  1.8677 -1.1073 -0.0006
  389MPD2     N 5873   2.018   0.427  11.646  0.2489 -0.0474 -0.2622
  389MPD2    H5 5874   2.017   0.424  11.747 -1.2065  0.3718 -0.2635
  389MPD2    N1 5875   2.207   0.662  11.257 -0.2840 -0.4910  0.4675
  389MPD2    H7 5876   2.272   0.734  11.227 -0.1544 -0.5894  0.5133
  390TMC3    C1 5877   1.854   0.261  11.672 -0.5185 -0.1546  0.1764
  390TMC3    C2 5878   1.791   0.144  11.622 -0.0723  0.7271  0.2946
  390TMC3    C3 5879   1.671   0.115  11.676 -0.8493  0.1228 -0.0615
  390TMC3    C4 5880   1.806   0.331  11.786 -0.3692  0.5000  1.1895
  390TMC3    C5 5881   1.688   0.289  11.836 -0.1661 -0.4245  0.2106
  390TMC3    C6 5882   1.613   0.180  11.784  0.2720 -0.0452 -0.5820
  390TMC3     C 5883   1.957   0.322  11.586  0.1440 -0.5717 -0.2034
  390TMC3     O 5884   1.963   0.280  11.477  0.5042 -0.0939  0.1968
  390TMC3     H 5885   1.828   0.097  11.532 -0.5312 -1.0809  1.0456
  390TMC3    H1 5886   1.837   0.434  11.802  0.5217  0.5290 -0.6424
  390TMC3    H2 5887   1.520   0.136  11.820 -1.3321  1.5762 -2.7451
  390TMC3    C7 5888   1.632   0.367  11.952  0.2767  0.7162  1.1194
  390TMC3    C8 5889   1.612   4.732  11.623 -0.3996 -0.2910 -0.4451
  390TMC3    O1 5890   1.643   0.489  11.945  0.1543  0.2062 -0.4980
  390TMC3    O2 5891   1.676   4.662  11.541 -0.0083  0.1033 -0.3780
  391MPD2     C 5892   2.051   1.809  11.111 -0.4469  0.7136  0.4138
  391MPD2    C1 5893   2.164   1.865  11.058 -0.0788  0.0061 -0.1192
  391MPD2    C2 5894   2.170   1.890  10.919  0.1574 -0.2224 -0.1472
  391MPD2    C3 5895   2.059   1.877  10.837  0.7014  0.1966  0.0210
  391MPD2    C4 5896   1.938   1.844  10.901 -0.0249 -0.1480 -0.0609
  391MPD2    C5 5897   1.943   1.791  11.032  0.2041 -0.4844 -0.1294
  391MPD2     H 5898   2.264   1.922  10.876 -0.2752 -1.1421 -1.7779
  391MPD2    H1 5899   1.845   1.833  10.848  0.1858  1.4384 -0.7605
  391MPD2    H2 5900   2.042   1.786  11.216 -0.5890  2.6209  0.8195
  391MPD2    H3 5901   1.852   1.765  11.085  0.4593 -1.1570 -0.0250
  391MPD2     N 5902   2.070   1.907  10.697 -0.1121  0.6077  0.4221
  391MPD2    H5 5903   2.161   1.933  10.661 -1.3427  1.4064 -2.0904
  391MPD2    N1 5904   2.275   1.916  11.141  0.2356 -0.5065 -0.3121
  391MPD2    H7 5905   2.342   1.966  11.085 -0.5421 -0.5088 -1.2461
  392TMC3    C1 5906   1.998   1.994  10.486  0.1468 -0.6390  0.0945
  392TMC3    C2 5907   1.893   1.999  10.396 -0.2083  0.4286  0.4987
  392TMC3    C3 5908   1.891   2.098  10.298 -0.0647 -0.7304  0.0489
  392TMC3    C4 5909   2.102   2.078  10.471  0.1210 -0.2003  0.4329
  392TMC3    C5 5910   2.104   2.170  10.369 -0.1200  0.3885  0.5998
  392TMC3    C6 5911   1.997   2.186  10.280  0.5637  0.2010  0.4296
  392TMC3     C 5912   1.967   1.926  10.613  0.7307 -0.8493  0.1929
  392TMC3     O 5913   1.849   1.888  10.631 -0.6560 -0.3676 -0.7593
  392TMC3     H 5914   1.802   1.941  10.403 -0.8465  1.3873  0.1513
  392TMC3    H1 5915   2.182   2.080  10.543 -1.0254  4.0067  1.5879
  392TMC3    H2 5916   1.994   2.259  10.200  0.8977  0.5538  0.7461
  392TMC3    C7 5917   2.221   2.263  10.376  0.0624 -0.0800 -0.1866
  392TMC3    C8 5918   1.790   2.080  10.195 -0.1391 -0.6616  0.0153
  392TMC3    O1 5919   2.287   2.262  10.479 -0.4298  0.0984 -0.0535
  392TMC3    O2 5920   1.742   1.966  10.198  0.1059 -0.3134  0.3102
  393TMC3    C1 5921   0.923   4.694  10.911  0.9551  0.0922  0.1351
  393TMC3    C2 5922   0.832   4.635  10.993 -0.5670 -0.2028  0.9621
  393TMC3    C3 5923   0.786   4.504  10.964  0.3466 -0.1933 -0.0813
  393TMC3    C4 5924   0.971   4.630  10.795 -0.2995  0.2440  0.5145
  393TMC3    C5 5925   0.938   4.500  10.784  0.0823 -0.5756  0.1997
  393TMC3    C6 5926   0.853   4.435  10.863  0.1764  0.5179  0.4459
  393TMC3     C 5927   0.939   0.100  10.915 -0.1629  0.1552 -0.5513
  393TMC3     O 5928   0.975   0.159  10.816 -0.0468  0.2394  0.2046
  393TMC3     H 5929   0.774   4.692  11.064 -0.6223  1.8670 -0.7576
  393TMC3    H1 5930   1.033   4.686  10.726 -1.3853  0.7166 -0.0914
  393TMC3    H2 5931   0.824   4.332  10.847 -1.6732  0.9937  0.7381
  393TMC3    C7 5932   1.037   4.421  10.720  0.3559 -0.2938 -0.1554
  393TMC3    C8 5933   0.694   4.431  11.043 -0.5607 -0.5272 -0.0610
  393TMC3    O1 5934   1.014   4.306  10.685  0.1048  0.1305 -0.1846
  393TMC3    O2 5935   0.711   4.313  11.057 -0.0778  0.1195  0.2802
  394TMC3    C1 5936   2.191   0.636  11.027  0.7186  0.0498  0.6603
  394TMC3    C2 5937   2.101   0.611  10.930 -0.1014  0.0926 -0.5358
  394TMC3    C3 5938   2.151   0.641  10.803  0.1460  0.2502  0.4089
  394TMC3    C4 5939   2.312   0.695  11.009  0.3945  0.2825  0.0865
  394TMC3    C5 5940   2.360   0.706  10.880 -0.4021 -0.5409 -0.0081
  394TMC3    C6 5941   2.278   0.689  10.774 -0.8720  0.0692 -0.0246
  394TMC3     C 5942   2.149   0.590  11.154  0.3281  0.5111  0.3680
  394TMC3     O 5943   2.063   0.502  11.160 -0.2299 -0.4724 -0.1696
  394TMC3     H 5944   2.006   0.560  10.936 -1.5696  3.0323  0.7399
  394TMC3    H1 5945   2.375   0.717  11.095 -1.4766 -0.5802  1.6710
  394TMC3    H2 5946   2.316   0.698  10.673 -1.5839 -2.2302 -0.4958
  394TMC3    C7 5947   2.492   0.753  10.847 -0.3660 -0.8278 -0.1831
  394TMC3    C8 5948   2.068   0.577  10.701 -0.2245  0.5828 -0.7437
  394TMC3    O1 5949   2.506   0.807  10.736 -0.1970 -0.0776  0.2513
  394TMC3    O2 5950   1.950   0.557  10.726  0.3636  0.0385  0.6311
  395TMC3    C1 5951   2.324   1.878  14.478 -0.1433 -0.2434 -0.6420
  395TMC3    C2 5952   2.216   1.885  14.394 -0.8445  0.2423  0.4463
  395TMC3    C3 5953   2.167   2.011  14.362 -0.3811 -0.4386  0.6213
  395TMC3    C4 5954   2.398   1.996  14.493 -0.4602  0.2189 -0.1045
  395TMC3    C5 5955   2.373   2.110  14.422 -0.1858 -0.3051 -0.6233
  395TMC3    C6 5956   2.249   2.118  14.358  0.6314 -0.1232 -0.3092
  395TMC3     C 5957   2.320   1.785  14.591 -0.0885  0.4275  0.5325
  395TMC3     O 5958   2.364   1.830  14.701 -0.3029  0.2284  0.0878
  395TMC3     H 5959   2.152   1.798  14.402  0.3193 -0.7393 -1.0528
  395TMC3    H1 5960   2.489   1.991  14.551 -0.1430  1.8592 -0.4725
  395TMC3    H2 5961   2.207   2.203  14.305  0.5698  0.2048  0.2755
  395TMC3    C7 5962   2.435   2.231  14.468 -0.3113  0.2182  0.1058
  395TMC3    C8 5963   2.053   2.049  14.451  0.3989  0.0757 -0.4599
  395TMC3    O1 5964   2.504   2.225  14.570 -0.0966  0.0120 -0.1217
  395TMC3    O2 5965   2.037   2.164  14.480 -0.2499 -0.9330  0.3221
  396MPD2     C 5966   1.807   2.559  16.933  0.2809 -0.0120  0.0625
  396MPD2    C1 5967   1.920   2.611  16.990  0.5564  0.7917  0.0719
  396MPD2    C2 5968   1.997   2.704  16.918  0.0118 -0.2382  0.1687
  396MPD2    C3 5969   1.942   2.764  16.805 -0.6194  0.0872  0.6419
  396MPD2    C4 5970   1.825   2.708  16.751 -0.3822  0.4135  0.4843
  396MPD2    C5 5971   1.758   2.603  16.812 -0.1617  0.0489 -0.5986
  396MPD2     H 5972   2.090   2.737  16.965 -0.6119 -1.2531  2.1312
  396MPD2    H1 5973   1.785   2.750  16.658 -1.0476  0.7148  0.9054
  396MPD2    H2 5974   1.749   2.485  16.987  1.3725 -0.0793  1.1247
  396MPD2    H3 5975   1.667   2.553  16.780 -1.2933  0.4547  1.9677
  396MPD2     N 5976   2.009   2.875  16.755 -0.7000 -0.0711 -0.5078
  396MPD2    H5 5977   2.097   2.893  16.803 -0.9028  0.4726 -0.3349
  396MPD2    N1 5978   1.978   2.584  17.117 -0.2179  0.1786  0.6779
  396MPD2    H7 5979   2.067   2.626  17.140 -0.2596  1.4346 -1.4129
  397TMC3    C1 5980   2.011   2.480  17.333 -1.2069 -0.7131  0.1450
  397TMC3    C2 5981   2.072   2.597  17.357 -0.4628 -0.9326 -0.4809
  397TMC3    C3 5982   2.211   2.602  17.378 -0.1082  0.0100  0.4293
  397TMC3    C4 5983   2.088   2.362  17.353 -0.3450 -0.6335 -0.9669
  397TMC3    C5 5984   2.208   2.378  17.415 -0.8596 -0.4748 -1.0716
  397TMC3    C6 5985   2.281   2.491  17.418 -0.1418  0.5428  0.7187
  397TMC3     C 5986   1.933   2.486  17.210 -0.3310 -0.0541  0.0704
  397TMC3     O 5987   1.841   2.404  17.201  0.6391 -0.1597 -0.0192
  397TMC3     H 5988   2.018   2.685  17.325 -0.2300 -1.0369 -1.1798
  397TMC3    H1 5989   2.045   2.264  17.339  0.0999 -0.8977 -0.4755
  397TMC3    H2 5990   2.387   2.497  17.441  0.1903 -1.4514 -0.3298
  397TMC3    C7 5991   2.234   2.285  17.525  0.0677  0.3637 -0.1843
  397TMC3    C8 5992   2.281   2.677  17.274  0.0117 -0.0700 -0.2750
  397TMC3    O1 5993   2.306   2.334  17.610 -0.5012  0.1202  0.5270
  397TMC3    O2 5994   2.210   2.724  17.185  0.5829  0.5832  0.0481
  398MPD2     C 5995   0.190   4.573   0.235  0.7770 -0.0774  0.5350
  398MPD2    C1 5996   0.288   4.515   0.166  0.3934  0.2896  0.7414
  398MPD2    C2 5997   0.403   4.590   0.149 -0.2374  0.2515 -0.5872
  398MPD2    C3 5998   0.415   4.723   0.183 -0.5038  0.9536  0.1455
  398MPD2    C4 5999   0.301   0.048   0.234  0.4922 -1.3796 -0.3927
  398MPD2    C5 6000   0.189   4.706   0.262  0.7692 -0.0067  0.0363
  398MPD2     H 6001   0.494   4.544   0.111 -0.7540 -0.2534 -1.2203
  398MPD2    H1 6002   0.298   0.154   0.256  0.6308 -1.4954  0.1693
  398MPD2    H2 6003   0.104   4.514   0.264 -0.8823  1.7245 -0.7178
  398MPD2    H3 6004   0.111   0.007   0.326 -0.4747 -0.4617 -1.2027
  398MPD2     N 6005   0.543   0.046   0.175  0.1766 -0.0322 -0.2151
  398MPD2    H5 6006   0.617   4.728   0.132  0.5681  2.1583 -2.3109
  398MPD2    N1 6007   0.276   4.383   0.119  0.7700  0.0517  0.5337
  398MPD2    H7 6008   0.361   4.339   0.086  0.9629  0.1145  0.9357
  399TMC3    C1 6009   0.203   4.161   0.128 -0.6161  0.0708 -0.2265
  399TMC3    C2 6010   0.329   4.118   0.125  0.4379 -0.3234  0.6084
  399TMC3    C3 6011   0.349   3.983   0.145 -0.4006  0.8459 -0.0371
  399TMC3    C4 6012   0.095   4.079   0.142  0.0678  0.7216  0.5399
  399TMC3    C5 6013   0.114   3.948   0.128 -0.1169 -0.0872  0.7350
  399TMC3    C6 6014   0.240   3.896   0.146  0.2761  0.0206 -0.3931
  399TMC3     C 6015   0.166   4.304   0.137 -0.0955 -0.3104 -0.1916
  399TMC3     O 6016   0.050   4.337   0.141  0.0100 -0.1421 -0.4567
  399TMC3     H 6017   0.416   4.182   0.118  0.1269 -0.0813 -1.2514
  399TMC3    H1 6018   4.730   4.115   0.134 -0.2457 -0.0705  0.9459
  399TMC3    H2 6019   0.240   3.790   0.171 -2.0626  0.4747  1.5051
  399TMC3    C7 6020   0.008   3.852   0.107  0.9734 -0.3239 -0.0448
  399TMC3    C8 6021   0.461   3.945   0.224 -0.0167 -0.1998 -0.2649
  399TMC3    O1 6022   0.042   3.745   0.055  0.2387  0.2796  0.1847
  399TMC3    O2 6023   0.531   4.032   0.276 -0.2597  0.0334 -0.1246
  400TMC3    C1 6024   3.493   2.430  17.097  0.3968  0.3806  0.0267
  400TMC3    C2 6025   3.386   2.370  17.034 -0.5800  0.2493 -0.4049
  400TMC3    C3 6026   3.331   2.426  16.919  0.2485 -0.9317 -0.1561
  400TMC3    C4 6027   3.529   2.552  17.064  0.1621  0.1428 -0.1549
  400TMC3    C5 6028   3.471   2.617  16.960  0.0351 -0.2917  0.6088
  400TMC3    C6 6029   3.377   2.557  16.878 -0.0869  0.7809  0.2470
  400TMC3     C 6030   3.557   2.354  17.209 -0.2350  0.3044  0.1502
  400TMC3     O 6031   3.485   2.264  17.250 -0.6200  0.6207 -0.7788
  400TMC3     H 6032   3.365   2.268  17.064 -0.3096  0.2114 -0.3440
  400TMC3    H1 6033   3.603   2.604  17.124  0.9918 -0.9415 -0.2269
  400TMC3    H2 6034   3.327   2.606  16.795 -1.2825  0.5324  0.8187
  400TMC3    C7 6035   3.476   2.764  16.945  0.4853 -0.5205 -0.2474
  400TMC3    C8 6036   3.191   2.406  16.901  0.2908 -0.8385  0.7830
  400TMC3    O1 6037   3.503   2.814  16.837 -0.4540  0.5266 -1.0225
  400TMC3    O2 6038   3.111   2.443  16.989  0.0592 -0.2860  0.0452
  401MPD2     C 6039   2.567   1.035   1.884  0.2893 -0.1272 -0.2082
  401MPD2    C1 6040   2.638   0.942   1.814  0.0227 -0.4659 -0.0123
  401MPD2    C2 6041   2.571   0.836   1.775 -0.3148 -0.0102  0.4111
  401MPD2    C3 6042   2.435   0.820   1.802  0.0419 -0.1564  0.7485
  401MPD2    C4 6043   2.368   0.915   1.868 -0.0982  0.2288  0.7441
  401MPD2    C5 6044   2.435   1.021   1.910  0.6580 -0.2270  0.5505
  401MPD2     H 6045   2.633   0.761   1.727 -0.1563  1.6248 -1.9443
  401MPD2    H1 6046   2.264   0.898   1.894 -0.3411  0.1670 -0.2369
  401MPD2    H2 6047   2.613   1.123   1.927  2.0829 -0.9383 -0.4570
  401MPD2    H3 6048   2.378   1.089   1.972  1.8176 -0.3080  1.6873
  401MPD2     N 6049   2.377   0.694   1.766 -0.2926  0.0653 -0.6332
  401MPD2    H5 6050   2.439   0.620   1.734  2.2027  2.2769 -0.8423
  401MPD2    N1 6051   2.772   0.956   1.771 -0.2422  0.4728  0.0003
  401MPD2    H7 6052   2.817   0.877   1.727 -1.4515 -2.8900  4.7948
  402TMC3    C1 6053   2.225   0.518   1.748 -0.1160  0.3773 -0.6205
  402TMC3    C2 6054   2.325   0.437   1.793 -0.0761  0.8712 -0.5641
  402TMC3    C3 6055   2.324   0.311   1.747 -0.0191  0.3452  0.2809
  402TMC3    C4 6056   2.134   0.485   1.642 -0.5435  0.4206  0.2552
  402TMC3    C5 6057   2.148   0.358   1.597  0.4174  0.7614  0.0994
  402TMC3    C6 6058   2.238   0.271   1.643 -0.4816  0.9158  0.3675
  402TMC3     C 6059   2.247   0.660   1.774  0.1470  0.8275  0.3865
  402TMC3     O 6060   2.152   0.733   1.766  0.5124  0.0954 -0.4364
  402TMC3     H 6061   2.393   0.464   1.873  0.3548  3.4606 -1.8070
  402TMC3    H1 6062   2.071   0.562   1.597 -0.9634 -0.0429  0.0562
  402TMC3    H2 6063   2.277   0.176   1.607  1.6896  1.3123  1.6482
  402TMC3    C7 6064   2.065   0.331   1.485 -0.6325 -0.2547  0.0546
  402TMC3    C8 6065   2.409   0.210   1.807  0.0907 -0.0468  0.0449
  402TMC3    O1 6066   1.976   0.408   1.450 -0.0372  0.1526  0.2579
  402TMC3    O2 6067   2.471   0.133   1.734 -0.2561 -0.5243 -0.5242
  403MPD2     C 6068   0.329   3.820  13.138  0.1215  0.4618  0.6412
  403MPD2    C1 6069   0.252   3.786  13.251 -0.3785  0.1368  0.1909
  403MPD2    C2 6070   0.318   3.738  13.363 -0.9524  0.2850 -0.1304
  403MPD2    C3 6071   0.454   3.728  13.372 -0.1661  0.9252  0.2472
  403MPD2    C4 6072   0.529   3.765  13.263 -0.5089  0.0685 -0.5965
  403MPD2    C5 6073   0.466   3.810  13.154 -0.0773 -0.0550  0.5905
  403MPD2     H 6074   0.266   3.701  13.451 -0.1837  1.2698  0.7451
  403MPD2    H1 6075   0.636   3.751  13.253 -0.0028  0.3881  4.3645
  403MPD2    H2 6076   0.280   3.840  13.044 -0.5741  0.0618  0.9154
  403MPD2    H3 6077   0.531   3.833  13.071 -0.7843  1.0062  0.3313
  403MPD2     N 6078   0.513   3.694  13.496  0.4160  0.1775 -0.1837
  403MPD2    H5 6079   0.444   3.654  13.558 -1.4686 -1.2653 -3.2153
  403MPD2    N1 6080   0.116   3.786  13.242  0.1652  0.2259 -0.4583
  403MPD2    H7 6081   0.073   3.795  13.150 -0.5755 -2.0681 -0.3252
  404TMC3    C1 6082   4.632   3.812  13.322 -0.3821  0.0287 -0.1549
  404TMC3    C2 6083   4.546   3.840  13.424  0.3008  0.2260  0.0166
  404TMC3    C3 6084   4.414   3.839  13.401  0.0423 -0.0964 -0.4254
  404TMC3    C4 6085   4.589   3.782  13.189 -0.0576 -0.2822  0.3631
  404TMC3    C5 6086   4.451   3.802  13.168  0.5674  0.5485  0.0337
  404TMC3    C6 6087   4.368   3.826  13.272  0.5442  0.7923 -0.4190
  404TMC3     C 6088   0.037   3.791  13.355  0.3840 -0.0774  0.0911
  404TMC3     O 6089   0.072   3.794  13.470  0.2813  0.1989 -0.5238
  404TMC3     H 6090   4.586   3.847  13.525  0.7080 -1.8656 -0.0101
  404TMC3    H1 6091   4.651   3.772  13.101 -0.3201 -0.9052  0.2505
  404TMC3    H2 6092   4.261   3.833  13.255  0.2097 -0.7370  1.0394
  404TMC3    C7 6093   4.416   3.839  13.031 -0.1451  0.2057  0.4131
  404TMC3    C8 6094   4.336   3.864  13.520  0.1237  0.7544 -0.1889
  404TMC3    O1 6095   4.512   3.845  12.955 -0.6134  0.1185 -0.2811
  404TMC3    O2 6096   4.357   3.802  13.624 -0.2621 -0.0547  0.2495
  405MPD2     C 6097   0.518   0.648  15.549  0.1272  0.0518 -0.4928
  405MPD2    C1 6098   0.560   0.601  15.425  0.2389 -0.2576 -0.3387
  405MPD2    C2 6099   0.483   0.634  15.317  0.1621 -0.4881  0.7652
  405MPD2    C3 6100   0.374   0.712  15.338  0.6598 -0.4583 -0.6331
  405MPD2    C4 6101   0.344   0.780  15.455  0.4391 -0.6064  0.0651
  405MPD2    C5 6102   0.419   0.742  15.562  0.1252  0.1054 -0.2434
  405MPD2     H 6103   0.504   0.591  15.220 -3.1272 -2.0387  0.7537
  405MPD2    H1 6104   0.266   0.855  15.456  0.1167 -0.9187 -1.8106
  405MPD2    H2 6105   0.565   0.607  15.638 -0.7406  3.6831  1.6135
  405MPD2    H3 6106   0.412   0.789  15.660 -0.0740 -0.6499  0.1041
  405MPD2     N 6107   0.307   0.743  15.221  0.0898 -0.0202 -0.1465
  405MPD2    H5 6108   0.349   0.699  15.139  0.7438  0.8237 -0.2634
  405MPD2    N1 6109   0.672   0.513  15.419 -0.5106  0.2837 -0.1574
  405MPD2    H7 6110   0.724   0.512  15.506 -2.0473  2.1134  0.7838
  406TMC3    C1 6111   4.663   0.705  14.982 -0.0954 -0.2534 -0.0183
  406TMC3    C2 6112   4.722   0.600  14.919 -0.3980 -0.0278  0.2909
  406TMC3    C3 6113   0.122   0.592  14.922  0.1114  0.6605  0.1505
  406TMC3    C4 6114   0.002   0.790  15.064  0.8294  0.6652 -0.5841
  406TMC3    C5 6115   0.139   0.773  15.068 -1.0305 -0.2996 -0.0508
  406TMC3    C6 6116   0.205   0.678  14.993  0.2314  0.8489  1.2678
  406TMC3     C 6117   4.519   0.713  14.981  0.1080  0.7640 -0.2103
  406TMC3     O 6118   4.480   0.818  15.025  0.4310 -0.0385 -0.2764
  406TMC3     H 6119   4.667   0.541  14.847  2.1985  3.7333 -4.7828
  406TMC3    H1 6120   4.691   0.868  15.121  0.4951 -0.3923  0.5963
  406TMC3    H2 6121   0.313   0.680  14.990  0.2052  1.4781  0.7306
  406TMC3    C7 6122   0.183   0.797  15.208  0.0262 -0.3972  1.0899
  406TMC3    C8 6123   0.174   0.469  14.880 -0.0084 -0.4003 -0.3296
  406TMC3    O1 6124   0.104   0.852  15.287  0.0020 -0.2287 -0.3155
  406TMC3    O2 6125   0.087   0.384  14.859  0.1138 -0.1305 -0.5251
  407MPD2     C 6126   3.023   1.656  10.129  0.3539 -0.7470 -0.4256
  407MPD2    C1 6127   3.106   1.748  10.072  0.2622  0.4226 -0.4619
  407MPD2    C2 6128   3.114   1.869  10.131 -0.1175 -0.5248 -0.3378
  407MPD2    C3 6129   3.045   1.906  10.243 -0.2193 -0.3967 -0.9066
  407MPD2    C4 6130   2.964   1.810  10.296  0.5395  0.0019  0.4713
  407MPD2    C5 6131   2.945   1.684  10.238 -0.2662  0.3033 -0.6884
  407MPD2     H 6132   3.177   1.937  10.075 -0.4190  0.5703  0.6732
  407MPD2    H1 6133   2.917   1.824  10.393 -3.7825  1.7758 -1.8865
  407MPD2    H2 6134   3.016   1.554  10.093 -1.5180 -0.9016  0.3890
  407MPD2    H3 6135   2.884   1.610  10.289 -1.8510  1.4667 -0.8836
  407MPD2     N 6136   3.081   2.026  10.315  0.5960 -0.2064 -0.3131
  407MPD2    H5 6137   3.049   2.039  10.411 -1.9265  0.5241 -1.2660
  407MPD2    N1 6138   3.201   1.733   9.964  0.1356 -0.2436 -0.1595
  407MPD2    H7 6139   3.256   1.813   9.936 -0.5883 -0.8042 -3.1388
  408TMC3    C1 6140   3.333   1.617   9.811 -0.7446  0.0988  0.6163
  408TMC3    C2 6141   3.383   1.491   9.780 -0.4977  0.1468  0.4289
  408TMC3    C3 6142   3.514   1.483   9.742 -0.1291  0.3875  0.9848
  408TMC3    C4 6143   3.410   1.729   9.788 -0.1998 -0.3022 -0.1612
  408TMC3    C5 6144   3.538   1.714   9.741  0.2066  0.7059 -0.3902
  408TMC3    C6 6145   3.596   1.593   9.723  0.4086  0.8050 -0.5638
  408TMC3     C 6146   3.216   1.614   9.900  0.1982  0.3401 -0.5269
  408TMC3     O 6147   3.155   1.513   9.923  0.5568 -0.2806  0.4409
  408TMC3     H 6148   3.345   1.398   9.821 -0.1736 -0.6589 -1.1043
  408TMC3    H1 6149   3.367   1.826   9.809  2.1291  0.8022 -0.3976
  408TMC3    H2 6150   3.687   1.590   9.664  0.2728 -1.6449 -0.6459
  408TMC3    C7 6151   3.625   1.823   9.760 -0.0351  0.3895 -0.3421
  408TMC3    C8 6152   3.578   1.353   9.788 -0.1019  0.2184  0.4538
  408TMC3    O1 6153   3.739   1.805   9.799 -0.3735 -0.1244 -0.0960
  408TMC3    O2 6154   3.517   1.246   9.772  0.4056  0.3235  0.2345
  409MPD2     C 6155   2.279   2.260  17.106  0.6085 -0.2208  0.5016
  409MPD2    C1 6156   2.402   2.232  17.158  0.7237 -0.4559  0.2847
  409MPD2    C2 6157   2.503   2.317  17.126 -0.7175  0.2882 -0.1152
  409MPD2    C3 6158   2.495   2.435  17.058  0.4205  0.7186 -0.2057
  409MPD2    C4 6159   2.368   2.460  16.999 -0.1711  0.2183 -0.2928
  409MPD2    C5 6160   2.265   2.372  17.024 -0.0362  0.5367 -0.1863
  409MPD2     H 6161   2.592   2.299  17.185 -1.2665 -3.6559 -0.4434
  409MPD2    H1 6162   2.355   2.542  16.929  0.0257  1.2497  0.8824
  409MPD2    H2 6163   2.196   2.190  17.117 -1.8012  2.5203 -0.3663
  409MPD2    H3 6164   2.164   2.404  17.001  0.2499  0.9816 -0.8317
  409MPD2     N 6165   2.610   2.519  17.036  0.1621  0.1525  0.7083
  409MPD2    H5 6166   2.595   2.610  16.993  0.0040 -1.0958 -1.9159
  409MPD2    N1 6167   2.434   2.119  17.238 -0.4763 -0.4755  0.2376
  409MPD2    H7 6168   2.531   2.108  17.268 -1.2153  0.5325  2.9746
  410TMC3    C1 6169   2.827   2.607  17.078 -0.1908 -0.1167  0.5245
  410TMC3    C2 6170   2.914   2.628  17.183  0.9501 -0.1155  0.1120
  410TMC3    C3 6171   3.025   2.704  17.165 -1.0955 -0.3390 -0.4382
  410TMC3    C4 6172   2.838   2.672  16.957  0.2627 -0.2563  0.8315
  410TMC3    C5 6173   2.952   2.747  16.940 -0.5722 -0.5914  0.2211
  410TMC3    C6 6174   3.045   2.765  17.039  0.2002 -0.1170 -0.0965
  410TMC3     C 6175   2.736   2.496  17.096  0.4502 -0.4949 -0.3608
  410TMC3     O 6176   2.768   2.421  17.183  0.4684 -0.2024  0.5076
  410TMC3     H 6177   2.894   2.572  17.274 -0.7265  1.3984  0.6729
  410TMC3    H1 6178   2.779   2.646  16.871 -0.7721  0.4482  1.3178
  410TMC3    H2 6179   3.133   2.825  17.020  0.5816 -0.6925 -0.1333
  410TMC3    C7 6180   2.993   2.757  16.800  0.0140  0.1636  0.3615
  410TMC3    C8 6181   3.145   2.681  17.250  0.5442  0.8486  0.7904
  410TMC3    O1 6182   2.924   2.694  16.719  0.1158  0.5576  0.1199
  410TMC3    O2 6183   3.258   2.717  17.207 -0.4047  0.4157 -0.4080
  411MPD2     C 6184   2.583   3.732  14.555  0.3095 -0.2439  0.0638
  411MPD2    C1 6185   2.513   3.617  14.524  0.3580  0.7994  0.0883
  411MPD2    C2 6186   2.531   3.567  14.400 -0.9949  0.4994 -0.1639
  411MPD2    C3 6187   2.628   3.621  14.313  0.0047 -0.1358  0.2208
  411MPD2    C4 6188   2.691   3.738  14.343  0.0263 -0.5136  0.3614
  411MPD2    C5 6189   2.666   3.787  14.466  0.5897 -0.6823 -0.8472
  411MPD2     H 6190   2.473   3.479  14.373  0.0641 -0.0672 -0.5989
  411MPD2    H1 6191   2.755   3.789  14.272  0.1658 -0.3984  0.5679
  411MPD2    H2 6192   2.576   3.784  14.649 -1.4028  0.6768 -0.5830
  411MPD2    H3 6193   2.729   3.875  14.475 -1.2851  0.5252  0.4569
  411MPD2     N 6194   2.668   3.554  14.197 -0.5442  0.1007  0.4492
  411MPD2    H5 6195   2.741   3.594  14.140 -0.1254 -0.0885  0.8570
  411MPD2    N1 6196   2.424   3.546  14.603 -0.3156  0.6825 -0.2434
  411MPD2    H7 6197   2.375   3.469  14.557  2.2034 -0.4762 -0.9509
  412TMC3    C1 6198   2.673   3.378  14.035 -0.3618 -0.1481  0.4197
  412TMC3    C2 6199   2.701   3.246  14.047  0.0511  0.3929 -0.1903
  412TMC3    C3 6200   2.803   3.191  13.973 -0.3523 -0.0250 -0.2521
  412TMC3    C4 6201   2.730   3.463  13.942 -0.0685  0.1381  0.8300
  412TMC3    C5 6202   2.827   3.411  13.863 -0.3789 -0.5594  0.2678
  412TMC3    C6 6203   2.867   3.277  13.885 -0.5235 -1.0300  0.2002
  412TMC3     C 6204   2.606   3.433  14.150  0.5689 -0.3092  0.3336
  412TMC3     O 6205   2.532   3.354  14.203  0.4479  0.0842  0.1888
  412TMC3     H 6206   2.655   3.188  14.127  1.3971  0.3630  0.5585
  412TMC3    H1 6207   2.702   3.567  13.935 -0.0485  0.2623  2.4545
  412TMC3    H2 6208   2.944   3.244  13.816  1.8374  0.2994  2.1691
  412TMC3    C7 6209   2.807   3.439  13.724 -0.0559 -0.3930 -0.5224
  412TMC3    C8 6210   2.773   3.069  13.911 -0.8805 -0.1239  0.0615
  412TMC3    O1 6211   2.794   3.554  13.691 -0.0516  0.0703 -0.0189
  412TMC3    O2 6212   2.805   3.064  13.796  0.2591  0.5526 -0.4376
  413MPD2     C 6213   3.841   1.308  15.939 -0.4192 -0.7205 -0.5263
  413MPD2    C1 6214   3.862   1.291  15.806  0.2696  0.0420  0.1326
  413MPD2    C2 6215   3.990   1.298  15.761 -0.2329  0.2905  0.0489
  413MPD2    C3 6216   4.090   1.325  15.844  1.0169  0.4804 -0.7643
  413MPD2    C4 6217   4.067   1.376  15.971 -0.0509  0.3890  0.0878
  413MPD2    C5 6218   3.939   1.365  16.017  0.4340 -0.3294 -0.1726
  413MPD2     H 6219   4.013   1.255  15.665  0.0132  0.8039 -0.1242
  413MPD2    H1 6220   4.143   1.425  16.030 -2.1439  0.5583  2.6250
  413MPD2    H2 6221   3.742   1.296  15.982 -0.9646  1.5076 -1.1856
  413MPD2    H3 6222   3.910   1.396  16.116  0.8685  0.6227 -0.3423
  413MPD2     N 6223   4.223   1.309  15.802 -0.3319  0.1447  0.2539
  413MPD2    H5 6224   4.241   1.289  15.704 -1.6227  0.9134 -0.1485
  413MPD2    N1 6225   3.756   1.237  15.728  0.0081 -0.2263 -0.7220
  413MPD2    H7 6226   3.665   1.215  15.767 -0.4680  1.9533 -0.5617
  414TMC3    C1 6227   4.444   1.241  15.823  0.7310  0.2137  0.3330
  414TMC3    C2 6228   4.527   1.156  15.892 -0.2204  0.1486 -0.1013
  414TMC3    C3 6229   4.642   1.111  15.827 -0.5565 -0.1358 -0.0530
  414TMC3    C4 6230   4.480   1.293  15.698  0.3659 -0.1105 -0.2299
  414TMC3    C5 6231   4.602   1.252  15.643 -0.1240  0.3882 -0.0170
  414TMC3    C6 6232   4.679   1.154  15.705 -0.1976  0.2615 -0.2616
  414TMC3     C 6233   4.331   1.294  15.893 -0.4112 -0.1122 -0.7476
  414TMC3     O 6234   4.336   1.290  16.014 -0.0908 -0.0234 -0.0008
  414TMC3     H 6235   4.504   1.122  15.992 -1.3073 -1.1563 -0.7817
  414TMC3    H1 6236   4.424   1.375  15.656 -0.0412  1.5157  3.4301
  414TMC3    H2 6237   0.028   1.108  15.657 -1.3291 -1.8353 -0.2544
  414TMC3    C7 6238   4.620   1.270  15.501  0.1720 -0.8624 -0.2161
  414TMC3    C8 6239   4.716   0.999  15.871  0.2107 -0.0245  0.4083
  414TMC3    O1 6240   4.522   1.306  15.441  0.3370 -0.0324 -0.1731
  414TMC3    O2 6241   0.031   0.927  15.788  0.2921 -0.2875 -0.0560
  415TMC3    C1 6242   0.068   3.852  10.026 -0.1323 -0.0517  1.4396
  415TMC3    C2 6243   0.106   3.983  10.006 -0.2635  0.6940 -0.0425
  415TMC3    C3 6244   0.027   4.061   9.923 -0.4244  0.2237  0.1259
  415TMC3    C4 6245   4.694   3.801   9.968 -0.2869 -0.0230 -0.1994
  415TMC3    C5 6246   4.608   3.892   9.911 -0.2934 -0.6688 -0.0138
  415TMC3    C6 6247   4.634   4.028   9.892 -0.3787 -0.2689  0.3043
  415TMC3     C 6248   0.127   3.773  10.132 -0.3493  0.2950  0.2120
  415TMC3     O 6249   0.090   3.657  10.140 -0.2550 -0.3868 -0.1489
  415TMC3     H 6250   0.195   4.023  10.052 -0.7645  1.6351  0.0988
  415TMC3    H1 6251   4.672   3.695   9.975 -1.6159  0.3486  1.4151
  415TMC3    H2 6252   4.567   4.101   9.847 -0.7691 -0.6187  0.3207
  415TMC3    C7 6253   4.478   3.848   9.862  0.2917 -0.3217  0.2892
  415TMC3    C8 6254   0.063   4.198   9.900 -0.7476 -0.5075  0.1529
  415TMC3    O1 6255   4.406   3.928   9.802  0.0294 -0.1907  0.1072
  415TMC3    O2 6256   4.715   4.271   9.846 -0.4093 -0.1404  0.0624
  416MPD2     C 6257   2.189   3.010  11.795 -0.1074  0.0791 -0.0781
  416MPD2    C1 6258   2.106   3.031  11.689 -0.1731  0.8095  0.0345
  416MPD2    C2 6259   2.108   2.941  11.577  0.0929 -0.0335  0.0294
  416MPD2    C3 6260   2.177   2.826  11.591 -0.1985  0.3738  0.2751
  416MPD2    C4 6261   2.261   2.807  11.695 -0.2061 -0.7380  0.1622
  416MPD2    C5 6262   2.276   2.899  11.796 -0.1304  0.2363  0.0102
  416MPD2     H 6263   2.048   2.961  11.489 -1.7312  3.1109  2.0047
  416MPD2    H1 6264   2.333   2.726  11.695  1.3205  0.6298  0.9428
  416MPD2    H2 6265   2.187   3.085  11.873 -1.2105 -0.6524  0.6058
  416MPD2    H3 6266   2.339   2.876  11.881  1.1891  1.0037 -0.7583
  416MPD2     N 6267   2.189   2.723  11.494  0.2175 -0.0847  0.6165
  416MPD2    H5 6268   2.247   2.643  11.519 -0.6278 -0.0474  2.6620
  416MPD2    N1 6269   2.020   3.148  11.684 -0.4826  0.6401 -0.2808
  416MPD2    H7 6270   2.031   3.215  11.759 -2.4647 -0.5400  1.0827
  417TMC3    C1 6271   1.817   3.267  11.638 -0.2782 -0.4423 -0.1000
  417TMC3    C2 6272   1.804   3.310  11.766  0.1733  0.4728  0.1717
  417TMC3    C3 6273   1.686   3.370  11.797 -0.6427  0.4956  0.9733
  417TMC3    C4 6274   1.714   3.290  11.542 -0.0197  0.6006  0.4123
  417TMC3    C5 6275   1.601   3.364  11.582  0.7476  0.0822  0.5141
  417TMC3    C6 6276   1.583   3.400  11.710 -0.4788  0.2487  0.0107
  417TMC3     C 6277   1.901   3.151  11.606  0.7016  0.3746 -0.0202
  417TMC3     O 6278   1.852   3.076  11.520 -0.2557 -0.3284  0.1360
  417TMC3     H 6279   1.881   3.294  11.841 -1.8212  0.3816  2.1724
  417TMC3    H1 6280   1.720   3.249  11.441  1.1258  1.5553  0.0950
  417TMC3    H2 6281   1.500   3.461  11.745 -0.7017 -0.0674  0.0289
  417TMC3    C7 6282   1.478   3.337  11.507 -0.0639  0.2639  1.1556
  417TMC3    C8 6283   1.663   3.388  11.934  0.4035  0.1218  0.2204
  417TMC3    O1 6284   1.387   3.292  11.577  0.1469  0.5419 -0.0914
  417TMC3    O2 6285   1.757   3.368  12.010 -0.3047 -0.0417 -0.2127
  418TMC3    C1 6286   0.896   0.104   0.123 -0.1626 -0.6606  0.6884
  418TMC3    C2 6287   0.780   0.167   0.109 -0.0263  0.9380 -0.4350
  418TMC3    C3 6288   0.707   0.192   0.217 -0.2109 -0.6694 -0.2359
  418TMC3    C4 6289   0.941   0.063   0.246  0.2494 -0.6182  0.0412
  418TMC3    C5 6290   0.867   0.087   0.352 -0.4330  0.0740 -0.1329
  418TMC3    C6 6291   0.751   0.159   0.339  0.0957 -0.3386 -0.0785
  418TMC3     C 6292   0.981   0.096   0.009  0.6380 -0.5969 -0.1579
  418TMC3     O 6293   0.957   0.167  17.659 -0.0962  0.2935 -0.5588
  418TMC3     H 6294   0.736   0.185   0.012  1.3834  0.4458 -1.1666
  418TMC3    H1 6295   1.032   0.007   0.264  0.0164 -1.2311 -0.6518
  418TMC3    H2 6296   0.683   0.185   0.419  0.5393  1.3137 -0.2457
  418TMC3    C7 6297   0.902   0.015   0.478  0.2709 -0.5787  0.1352
  418TMC3    C8 6298   0.570   0.172   0.213 -0.5420  0.0174 -0.3159
  418TMC3    O1 6299   0.992   4.676   0.467 -0.0641  0.0353  0.6802
  418TMC3    O2 6300   0.501   0.257   0.268 -0.1091 -0.5389 -0.1007
  419MPD2     C 6301   4.093   2.457  12.439 -0.1214  0.1456  0.0635
  419MPD2    C1 6302   3.995   2.551  12.425 -0.7626  0.2828  0.2823
  419MPD2    C2 6303   3.898   2.569  12.520  0.2710  0.3810  0.1979
  419MPD2    C3 6304   3.904   2.496  12.634  0.4017 -0.0366 -0.2787
  419MPD2    C4 6305   4.005   2.410  12.655 -0.6478 -0.2862  0.3080
  419MPD2    C5 6306   4.094   2.388  12.556 -0.3702 -0.2390 -0.2129
  419MPD2     H 6307   3.819   2.642  12.509 -0.3340 -0.2422  0.3824
  419MPD2    H1 6308   4.003   2.342  12.739  2.0209  1.1871  1.5643
  419MPD2    H2 6309   4.174   2.453  12.367 -1.9858 -1.1056 -1.9703
  419MPD2    H3 6310   4.161   2.302  12.563  1.4209  1.1504 -0.1532
  419MPD2     N 6311   3.812   2.536  12.730  0.4726  0.4495  0.5938
  419MPD2    H5 6312   3.754   2.614  12.700 -0.2881 -0.7980 -1.2104
  419MPD2    N1 6313   4.007   2.654  12.330 -0.0573  0.3389  0.3485
  419MPD2    H7 6314   3.926   2.715  12.333  0.0107  0.4160  0.6009
  420TMC3    C1 6315   3.732   2.592  12.948  0.0161  0.1316 -0.6064
  420TMC3    C2 6316   3.636   2.673  12.901 -0.2558 -0.0695  0.0901
  420TMC3    C3 6317   3.605   2.771  12.989 -0.0350  0.2213  0.2778
  420TMC3    C4 6318   3.785   2.596  13.076 -0.0220 -0.7103 -0.7559
  420TMC3    C5 6319   3.758   2.707  13.151  0.2271  0.0253  0.6713
  420TMC3    C6 6320   3.661   2.790  13.112 -0.1629 -0.5208 -0.6608
  420TMC3     C 6321   3.795   2.492  12.857  0.0856 -0.4299 -0.0206
  420TMC3     O 6322   3.843   2.394  12.912 -0.0562 -0.0925  0.1380
  420TMC3     H 6323   3.579   2.644  12.814  4.3621 -0.2317 -2.8835
  420TMC3    H1 6324   3.850   2.516  13.107 -2.1864 -2.4188 -0.5919
  420TMC3    H2 6325   3.644   2.878  13.172 -0.2797 -1.1091  0.1718
  420TMC3    C7 6326   3.798   2.709  13.287  0.3156  0.4130  0.2381
  420TMC3    C8 6327   3.508   2.882  12.960 -0.2404  0.1143 -0.3737
  420TMC3    O1 6328   3.742   2.797  13.353  0.0077  0.1716 -0.1547
  420TMC3    O2 6329   3.518   2.981  13.028 -0.6084  0.4181  0.0617
  421TMC3    C1 6330   0.679   3.666  13.668 -0.2497  0.6174 -0.0912
  421TMC3    C2 6331   0.589   3.704  13.764  0.6418 -0.0055  0.1299
  421TMC3    C3 6332   0.632   3.706  13.895  0.1643  0.3820  0.3473
  421TMC3    C4 6333   0.802   3.614  13.697 -0.6784  0.2848  0.5289
  421TMC3    C5 6334   0.834   3.595  13.830  0.4619  0.0302  0.5053
  421TMC3    C6 6335   0.751   3.635  13.930 -0.6504  0.1148  0.0136
  421TMC3     C 6336   0.648   3.689  13.531  0.0254 -0.7938 -0.1295
  421TMC3     O 6337   0.752   3.699  13.467 -0.1364  0.5450  0.2799
  421TMC3     H 6338   0.498   3.751  13.729  1.0157 -1.2808 -2.5442
  421TMC3    H1 6339   0.866   3.571  13.620 -1.1282 -0.3859  0.5276
  421TMC3    H2 6340   0.781   3.635  14.034  2.8319  1.5772 -0.9849
  421TMC3    C7 6341   0.974   3.560  13.874 -0.3456  0.4875 -0.1361
  421TMC3    C8 6342   0.556   3.771  14.006  0.4383 -0.0274 -0.5761
  421TMC3    O1 6343   1.002   3.575  13.991 -0.1943  0.3885  0.2965
  421TMC3    O2 6344   0.611   3.782  14.117 -0.2370  0.2669  0.3025
  422TMC3    C1 6345   2.668   1.220  12.639  0.2804  0.3709 -0.1801
  422TMC3    C2 6346   2.635   1.308  12.737  0.2590 -0.1140  0.8110
  422TMC3    C3 6347   2.515   1.286  12.802  0.1038 -0.0484 -0.3275
  422TMC3    C4 6348   2.578   1.117  12.598  0.3367 -0.2351 -0.2730
  422TMC3    C5 6349   2.460   1.107  12.668  0.2637 -0.1779  0.2866
  422TMC3    C6 6350   2.425   1.190  12.768  0.2770  0.4832 -0.3436
  422TMC3     C 6351   2.806   1.209  12.611 -0.3941  0.4646 -0.4273
  422TMC3     O 6352   2.867   1.313  12.634  0.5548 -0.2841  0.0113
  422TMC3     H 6353   2.691   1.399  12.752  1.1764 -0.3581 -1.0935
  422TMC3    H1 6354   2.606   1.056  12.513  0.1228 -0.2241 -0.3499
  422TMC3    H2 6355   2.324   1.185  12.809  0.6683 -0.1590  0.5527
  422TMC3    C7 6356   2.356   1.018  12.615  0.2852  0.5484  0.8214
  422TMC3    C8 6357   2.472   1.395  12.887 -0.7464 -0.5137  0.3016
  422TMC3    O1 6358   2.380   0.957  12.515  0.0893 -0.2832  0.1684
  422TMC3    O2 6359   2.562   1.463  12.939  0.0528 -0.3540  0.4970
  423MPD2     C 6360   4.467   2.040   0.739 -0.0428 -0.5911  0.4629
  423MPD2    C1 6361   4.450   1.910   0.784 -0.0840 -0.3363 -0.7241
  423MPD2    C2 6362   4.428   1.815   0.691 -0.2054  0.4680  0.7588
  423MPD2    C3 6363   4.407   1.842   0.559  0.3778 -0.4540  0.1845
  423MPD2    C4 6364   4.419   1.973   0.511  0.1873 -0.1496  0.5627
  423MPD2    C5 6365   4.454   2.073   0.610  0.4551  0.4085  0.1859
  423MPD2     H 6366   4.406   1.715   0.729  0.8481  0.3493  1.0568
  423MPD2    H1 6367   4.385   2.009   0.415 -0.8538 -0.4310  0.8273
  423MPD2    H2 6368   4.479   2.123   0.807 -1.6781 -0.7048  0.8922
  423MPD2    H3 6369   4.470   2.173   0.572  0.5311  0.8047  1.2593
  423MPD2     N 6370   4.353   1.752   0.465 -0.6709 -0.0525  0.5664
  423MPD2    H5 6371   4.336   1.784   0.370  3.2235  1.1851  0.2579
  423MPD2    N1 6372   4.474   1.865   0.923 -0.2032  0.0868 -0.2997
  423MPD2    H7 6373   4.457   1.769   0.952  0.4278  0.5133  1.4916
  424TMC3    C1 6374   4.516   1.882   1.154 -0.0623  0.3308 -0.0523
  424TMC3    C2 6375   4.596   1.774   1.155  0.6479  0.2773  0.0521
  424TMC3    C3 6376   4.608   1.713   1.274  0.8844  0.6957 -0.5864
  424TMC3    C4 6377   4.433   1.926   1.259  0.8198  0.6633  0.3629
  424TMC3    C5 6378   4.428   1.839   1.363  0.0751 -0.0618  0.3825
  424TMC3    C6 6379   4.521   1.744   1.377 -0.0818 -0.5342 -0.5585
  424TMC3     C 6380   4.501   1.951   1.027  0.3291 -0.5667 -0.2047
  424TMC3     O 6381   4.485   2.073   1.023 -0.4490 -0.2494 -0.0763
  424TMC3     H 6382   4.657   1.756   1.068 -0.6810  0.5938 -0.9528
  424TMC3    H1 6383   4.357   2.003   1.248  1.3763  0.8416 -2.1715
  424TMC3    H2 6384   4.515   1.667   1.453 -1.2855  0.0861 -0.0300
  424TMC3    C7 6385   4.297   1.817   1.424 -0.9655  0.1878 -0.0461
  424TMC3    C8 6386   4.700   1.598   1.292  0.1334  0.2108 -0.1997
  424TMC3    O1 6387   4.244   1.703   1.420 -0.4499 -0.1070  0.5551
  424TMC3    O2 6388   4.647   1.498   1.342 -0.5586 -0.0742 -0.2701
  425MPD2     C 6389   3.526   1.154  17.445 -0.4215 -0.2398  0.4047
  425MPD2    C1 6390   3.442   1.048  17.449 -0.5054 -0.0974  0.1696
  425MPD2    C2 6391   3.332   1.055  17.530  0.1234 -0.8147 -0.2870
  425MPD2    C3 6392   3.299   1.164  17.608  0.0131 -0.3848  0.6808
  425MPD2    C4 6393   3.387   1.267  17.599  1.1476 -0.3831 -0.0228
  425MPD2    C5 6394   3.503   1.270  17.517 -0.1148 -0.1241 -0.3779
  425MPD2     H 6395   3.266   0.969  17.540 -1.0165  0.2165  1.1254
  425MPD2    H1 6396   3.369   1.350  17.666 -1.3974 -0.2969 -0.8089
  425MPD2    H2 6397   3.616   1.154  17.383 -1.3658 -0.2608 -0.9657
  425MPD2    H3 6398   3.571   1.353  17.509  0.7752 -0.4893  3.3877
  425MPD2     N 6399   3.172   1.163  17.680  0.5626  0.7528 -0.4031
  425MPD2    H5 6400   3.113   1.082  17.666  0.5367  0.6847  0.1360
  425MPD2    N1 6401   3.487   0.934  17.374 -0.1909  0.2227 -0.3659
  425MPD2    H7 6402   3.566   0.946  17.312  1.2560 -1.9884  1.0396
  426TMC3    C1 6403   3.488   0.707  17.308  0.6642  0.9503 -0.4147
  426TMC3    C2 6404   3.511   0.722  17.175  0.0681 -0.2197 -0.3439
  426TMC3    C3 6405   3.559   0.620  17.101  0.5560 -0.5912  0.3882
  426TMC3    C4 6406   3.487   0.584  17.359 -0.2457  0.0726 -0.2575
  426TMC3    C5 6407   3.532   0.476  17.290  0.6099  0.6568  0.0535
  426TMC3    C6 6408   3.576   0.499  17.163  0.3940  0.1216  1.2054
  426TMC3     C 6409   3.423   0.814  17.382 -0.5716  0.0700  0.1284
  426TMC3     O 6410   3.312   0.785  17.425 -0.2346 -0.1895  0.0430
  426TMC3     H 6411   3.482   0.817  17.132 -0.9165  0.1321  1.0853
  426TMC3    H1 6412   3.445   0.575  17.459 -0.3913  0.8629 -0.2503
  426TMC3    H2 6413   3.596   0.418  17.093 -1.2903  1.8822 -1.3294
  426TMC3    C7 6414   3.447   0.362  17.285  0.9168 -0.5091 -0.1611
  426TMC3    C8 6415   3.497   0.602  16.973  0.2232  0.1423 -0.7331
  426TMC3    O1 6416   3.436   0.301  17.180  0.1902  0.4809  0.0152
  426TMC3    O2 6417   3.570   0.544  16.890 -0.2930  0.1898 -0.1560
  427MPD2     C 6418   1.879   2.854  14.790  0.8580  0.0399  0.8019
  427MPD2    C1 6419   1.838   2.857  14.921 -0.5327  0.4693 -0.4236
  427MPD2    C2 6420   1.706   2.903  14.939  0.0109 -0.4145  0.2288
  427MPD2    C3 6421   1.616   2.927  14.836  0.0509  0.2392 -0.4693
  427MPD2    C4 6422   1.662   2.913  14.708  0.2946 -0.1842  0.0278
  427MPD2    C5 6423   1.793   2.882  14.684 -0.7999  0.4701  0.1036
  427MPD2     H 6424   1.677   2.904  15.044  1.4122  0.0691  0.6088
  427MPD2    H1 6425   1.598   2.921  14.621 -1.5776  0.6222  1.4850
  427MPD2    H2 6426   1.974   2.813  14.756  0.4705  0.4304 -0.7663
  427MPD2    H3 6427   1.828   2.874  14.582  1.3061  1.5900  0.7257
  427MPD2     N 6428   1.489   2.981  14.854  0.1239  0.5627  0.2843
  427MPD2    H5 6429   1.421   2.966  14.780  0.5037 -1.3286  0.3291
  427MPD2    N1 6430   1.917   2.810  15.030  0.0462 -0.5532 -0.3820
  427MPD2    H7 6431   1.884   2.808  15.126  0.5284 -0.7564 -0.2219
  428TMC3    C1 6432   2.110   2.736  15.141  0.7185 -0.1022 -0.7367
  428TMC3    C2 6433   2.079   2.604  15.163  0.1115  0.4372  0.2923
  428TMC3    C3 6434   2.154   2.539  15.254 -0.5103 -0.3864 -0.3782
  428TMC3    C4 6435   2.221   2.795  15.185 -0.3382 -0.4025  0.8353
  428TMC3    C5 6436   2.297   2.724  15.274  0.9607 -0.4422 -0.4145
  428TMC3    C6 6437   2.274   2.591  15.307  0.5586 -0.0757 -0.2282
  428TMC3     C 6438   2.057   2.791  15.024 -0.1242  0.0538  0.1040
  428TMC3     O 6439   2.133   2.848  14.946 -0.0505 -0.2589  0.8231
  428TMC3     H 6440   1.991   2.551  15.125  0.7445 -0.7939  0.5447
  428TMC3    H1 6441   2.242   2.895  15.149 -1.1432 -0.4641  0.1943
  428TMC3    H2 6442   2.334   2.534  15.378  1.9388  1.0350 -0.4961
  428TMC3    C7 6443   2.403   2.793  15.336 -0.2634 -0.0402 -0.2167
  428TMC3    C8 6444   2.108   2.409  15.306  0.2811  0.7675  0.0766
  428TMC3    O1 6445   2.442   2.763  15.453 -0.0294 -0.5309 -0.2560
  428TMC3    O2 6446   2.046   2.332  15.238  0.1680  0.0974  0.9042
  429MPD2     C 6447   2.948   2.875   0.515  0.1589 -0.0422 -0.9305
  429MPD2    C1 6448   2.985   2.797   0.404  0.5971 -0.3796  0.5085
  429MPD2    C2 6449   3.009   2.858   0.283 -0.1003 -0.5067  0.5103
  429MPD2    C3 6450   3.019   2.995   0.271 -0.7120  0.1105  0.1395
  429MPD2    C4 6451   2.991   3.071   0.381  0.4130 -0.3010  0.2960
  429MPD2    C5 6452   2.962   3.013   0.505  0.8647 -0.8095 -0.0202
  429MPD2     H 6453   3.030   2.800   0.194  1.9752 -1.7673  1.7978
  429MPD2    H1 6454   2.997   3.179   0.382 -3.0661 -0.1197 -0.0935
  429MPD2    H2 6455   2.920   2.822   0.605  2.6317  0.5578  0.2142
  429MPD2    H3 6456   2.931   3.073   0.590 -1.6528 -1.1914 -0.6521
  429MPD2     N 6457   3.052   3.045   0.140 -0.5613 -0.9004 -0.3465
  429MPD2    H5 6458   3.081   2.978   0.070  1.4428  0.1129 -0.5035
  429MPD2    N1 6459   2.982   2.653   0.411  0.2323 -0.3417  0.5313
  429MPD2    H7 6460   2.995   2.605   0.323 -0.7439 -0.0350  0.2190
  430TMC3    C1 6461   3.061   3.205  17.709  0.7344 -0.2612  0.4521
  430TMC3    C2 6462   3.017   3.332  17.659 -0.3147 -0.1102 -0.8327
  430TMC3    C3 6463   3.063   3.368  17.536  0.3861 -0.2979 -0.6310
  430TMC3    C4 6464   3.156   3.134  17.645  0.1540 -0.3526  0.3309
  430TMC3    C5 6465   3.215   3.187  17.534  0.2511  0.5433  0.4493
  430TMC3    C6 6466   3.164   3.305  17.473 -0.4660 -0.3277  0.0672
  430TMC3     C 6467   3.017   3.173   0.099 -0.3985  0.0701 -0.3902
  430TMC3     O 6468   2.955   3.261   0.157 -0.7345 -0.5192  0.5579
  430TMC3     H 6469   2.933   3.384  17.703 -0.7957 -0.3347 -1.4846
  430TMC3    H1 6470   3.193   3.037  17.676 -1.5402 -0.2901  2.5656
  430TMC3    H2 6471   3.198   3.340  17.376 -0.6968  2.7010  1.0766
  430TMC3    C7 6472   3.320   3.116  17.464 -0.0733  0.6412  0.5543
  430TMC3    C8 6473   3.041   3.507  17.498  0.2458 -0.5180 -0.8778
  430TMC3    O1 6474   3.320   2.994  17.491  0.0254  0.1149 -0.5644
  430TMC3    O2 6475   3.006   3.593  17.580  0.2609  0.0461 -0.5440
  431MPD2     C 6476   3.556   3.297  12.566  0.4351 -0.7751 -0.2651
  431MPD2    C1 6477   3.651   3.368  12.501  0.9076 -0.0911 -0.4117
  431MPD2    C2 6478   3.733   3.303  12.411 -0.0624  0.1501  0.6771
  431MPD2    C3 6479   3.727   3.161  12.401 -0.6836 -0.5829 -0.6120
  431MPD2    C4 6480   3.628   3.093  12.462  0.6332 -0.6711 -0.2110
  431MPD2    C5 6481   3.551   3.161  12.550  0.0954  0.4662  0.3542
  431MPD2     H 6482   3.817   3.353  12.366 -0.3325 -1.6525 -1.8496
  431MPD2    H1 6483   3.605   2.987  12.455  0.0875 -0.3556 -3.4565
  431MPD2    H2 6484   3.497   3.337  12.647  0.6325  3.4068 -2.1584
  431MPD2    H3 6485   3.476   3.107  12.607 -0.4286 -1.8980 -2.6069
  431MPD2     N 6486   3.814   3.085  12.326 -0.1649  0.0312  0.1152
  431MPD2    H5 6487   3.794   2.986  12.315  1.2051 -0.2862  0.4235
  431MPD2    N1 6488   3.679   3.505  12.520 -0.6938 -0.6433 -0.0594
  431MPD2    H7 6489   3.746   3.551  12.459 -1.1405  0.5764  0.3531
  432TMC3    C1 6490   3.977   3.018  12.165  0.1161 -0.5552 -0.0627
  432TMC3    C2 6491   4.045   3.047  12.048 -0.2590  0.1428 -0.3992
  432TMC3    C3 6492   4.128   2.952  11.991  0.5329 -0.0093  0.2607
  432TMC3    C4 6493   3.982   2.890  12.219 -0.5683  0.1095 -0.0935
  432TMC3    C5 6494   4.076   2.807  12.166  0.8898 -0.4169 -0.4994
  432TMC3    C6 6495   4.152   2.831  12.054 -0.8487  1.3317  0.0737
  432TMC3     C 6496   3.908   3.127  12.231 -0.0826 -0.0591  0.8629
  432TMC3     O 6497   3.939   3.244  12.202 -0.1116 -0.2617  0.0248
  432TMC3     H 6498   4.038   3.146  12.003  1.0764 -0.2266 -1.4226
  432TMC3    H1 6499   3.941   2.871  12.317  0.4215 -1.9964 -0.1051
  432TMC3    H2 6500   4.218   2.756  12.012  1.2526  2.1145  1.9586
  432TMC3    C7 6501   4.097   2.678  12.229 -0.2029  0.4353 -0.0670
  432TMC3    C8 6502   4.229   2.996  11.898 -0.0409  0.9513 -0.5096
  432TMC3    O1 6503   4.195   2.615  12.197  0.1792  0.4275 -0.2081
  432TMC3    O2 6504   4.281   2.922  11.812 -0.2950 -0.1621  0.1287
  433MPD2     C 6505   2.852   2.303  11.225 -0.6216 -1.5251  0.3528
  433MPD2    C1 6506   2.815   2.175  11.256 -0.0312 -0.3019  0.5088
  433MPD2    C2 6507   2.791   2.138  11.388  0.7369  0.3497 -0.1624
  433MPD2    C3 6508   2.797   2.238  11.489  0.5812 -1.1397 -0.0100
  433MPD2    C4 6509   2.849   2.361  11.454  0.0879 -0.0081  0.1681
  433MPD2    C5 6510   2.874   2.390  11.326 -0.0677 -0.4888 -0.8370
  433MPD2     H 6511   2.759   2.038  11.415 -0.4085  0.9587  0.7150
  433MPD2    H1 6512   2.872   2.428  11.535  1.5011  0.8273 -0.9245
  433MPD2    H2 6513   2.883   2.327  11.124  0.8296 -1.7340  0.7385
  433MPD2    H3 6514   2.908   2.488  11.296 -0.1506 -0.3607 -0.5021
  433MPD2     N 6515   2.769   2.202  11.625  0.2702  0.6926  0.0124
  433MPD2    H5 6516   2.781   2.103  11.643 -2.1701  0.3391 -0.3218
  433MPD2    N1 6517   2.824   2.082  11.149  0.2359 -0.8097 -0.0726
  433MPD2    H7 6518   2.886   2.116  11.077 -0.1344 -0.1305 -0.0740
  434TMC3    C1 6519   2.843   1.868  11.041  0.5373 -0.2831 -0.1282
  434TMC3    C2 6520   2.862   1.749  11.093  0.5227  1.1029  0.8989
  434TMC3    C3 6521   2.984   1.696  11.073  0.3122  0.3331  0.4675
  434TMC3    C4 6522   2.921   1.914  10.941 -0.6887  0.4266 -0.5205
  434TMC3    C5 6523   3.034   1.847  10.906  0.3436  0.1056 -1.0754
  434TMC3    C6 6524   3.079   1.745  10.988  0.4765  0.6222  0.4227
  434TMC3     C 6525   2.779   1.956  11.140 -0.3654 -0.3517  0.1265
  434TMC3     O 6526   2.702   1.905  11.219 -0.4665 -0.6886  0.6408
  434TMC3     H 6527   2.799   1.707  11.170 -0.0949  0.2128 -0.0773
  434TMC3    H1 6528   2.892   1.999  10.880  1.3900  2.4600  1.3391
  434TMC3    H2 6529   3.185   1.723  10.986  0.1600 -1.1144  2.1672
  434TMC3    C7 6530   3.063   1.816  10.765  0.3522  0.4257  0.4242
  434TMC3    C8 6531   3.028   1.597  11.170 -0.5746  0.4148  0.6415
  434TMC3    O1 6532   3.157   1.737  10.760 -0.2063 -0.3830 -0.5682
  434TMC3    O2 6533   2.954   1.583  11.266 -0.0963  0.3373 -0.5568
  435MPD2     C 6534   4.730   1.586  15.667  0.0926  0.8973  0.2869
  435MPD2    C1 6535   4.697   1.620  15.794 -0.1885 -0.4879  0.2469
  435MPD2    C2 6536   0.063   1.629  15.882  0.0460  0.6002 -0.7311
  435MPD2    C3 6537   0.196   1.600  15.857 -0.1781  0.2435  0.1057
  435MPD2    C4 6538   0.231   1.578  15.726  0.0279 -1.3818  0.4382
  435MPD2    C5 6539   0.128   1.569  15.641 -0.2625  0.8919  0.3108
  435MPD2     H 6540   0.029   1.646  15.984 -0.1904  0.7783 -0.8432
  435MPD2    H1 6541   0.333   1.577  15.690  0.5295 -1.3812  1.8591
  435MPD2    H2 6542   4.659   1.572  15.586  2.1294  1.5923 -1.6340
  435MPD2    H3 6543   0.149   1.543  15.538  1.7787  0.3018  0.8939
  435MPD2     N 6544   0.285   1.610  15.967 -0.3358  0.3915 -0.3465
  435MPD2    H5 6545   0.247   1.626  16.060  2.2544  1.9631  0.4445
  435MPD2    N1 6546   4.565   1.637  15.842  0.2841 -0.3609  0.5160
  435MPD2    H7 6547   4.557   1.652  15.942  0.4716 -0.0526  0.4879
  436TMC3    C1 6548   4.194   1.723  16.008  0.4908 -0.2661  0.1481
  436TMC3    C2 6549   4.315   1.674  15.959  0.3057  0.0140  0.5348
  436TMC3    C3 6550   4.330   1.660  15.824  0.9974 -0.4671 -0.3459
  436TMC3    C4 6551   4.093   1.762  15.924  0.1554 -0.1425 -0.4205
  436TMC3    C5 6552   4.110   1.749  15.790 -0.3450 -0.3687 -0.5737
  436TMC3    C6 6553   4.222   1.690  15.739  0.2430  0.0374  0.9428
  436TMC3     C 6554   4.165   1.723  16.148  0.4203 -0.4688  0.2680
  436TMC3     O 6555   4.226   1.650  16.223  0.4510 -0.8325  0.2224
  436TMC3     H 6556   4.401   1.643  16.016  0.1430  0.0553  0.8011
  436TMC3    H1 6557   3.995   1.781  15.967 -0.9241 -0.9373 -2.5361
  436TMC3    H2 6558   4.243   1.684  15.633  1.2153  0.9424  1.0859
  436TMC3    C7 6559   3.988   1.746  15.716 -0.2048  0.0684 -0.5234
  436TMC3    C8 6560   4.455   1.630  15.761 -0.4854  0.7412 -0.1999
  436TMC3    O1 6561   3.884   1.737  15.782  0.0019 -0.1985 -0.4069
  436TMC3    O2 6562   4.453   1.607  15.643 -0.2290  0.0587  0.1090
  437TMC3    C1 6563   3.017   4.473  12.478  0.1272  0.0379 -0.0451
  437TMC3    C2 6564   2.931   4.469  12.375  0.2571 -0.3623 -0.4048
  437TMC3    C3 6565   2.981   4.498  12.250 -0.0077 -0.5320  0.3484
  437TMC3    C4 6566   3.150   4.487  12.458 -0.8240  0.4543  0.4787
  437TMC3    C5 6567   3.195   4.509  12.329 -0.4731  0.8025 -0.1352
  437TMC3    C6 6568   3.112   4.531  12.229 -0.6525 -1.2735 -0.6766
  437TMC3     C 6569   2.974   4.413  12.611  0.5215 -0.2894 -0.1187
  437TMC3     O 6570   3.062   4.366  12.683  0.1895  0.0867  0.2712
  437TMC3     H 6571   2.829   4.433  12.390 -0.2939  0.1659 -2.8679
  437TMC3    H1 6572   3.211   4.502  12.546 -0.3879  0.6369  0.1495
  437TMC3    H2 6573   3.135   4.560  12.127 -1.0082  0.4584 -0.2580
  437TMC3    C7 6574   3.336   4.550  12.302 -0.4798 -0.0822  1.0269
  437TMC3    C8 6575   2.880   4.525  12.153 -0.2034 -0.4059 -0.6024
  437TMC3    O1 6576   3.363   4.606  12.194 -0.3000  0.1715 -0.4160
  437TMC3    O2 6577   2.772   4.487  12.184 -0.1518 -0.4605 -0.5937
  438MPD2     C 6578   1.121   4.628  16.792  0.0964  0.1346 -0.0486
  438MPD2    C1 6579   1.179   4.524  16.863  0.1355 -0.6085 -0.7635
  438MPD2    C2 6580   1.128   4.503  16.992 -0.5712  0.5414 -0.1110
  438MPD2    C3 6581   1.025   4.575  17.039 -0.7061  0.1386 -0.2426
  438MPD2    C4 6582   0.974   4.681  16.973 -0.4952  0.4994  0.3075
  438MPD2    C5 6583   1.037   4.713  16.858  0.4776  0.8173  0.2142
  438MPD2     H 6584   1.171   4.422  17.049 -0.5084  0.2516 -0.5700
  438MPD2    H1 6585   0.895   0.012  17.004 -0.1753  1.1261 -0.2516
  438MPD2    H2 6586   1.150   4.662  16.694  2.6876 -3.4147 -0.5216
  438MPD2    H3 6587   0.994   0.059  16.803 -2.3873  0.1491  1.4629
  438MPD2     N 6588   0.961   4.539  17.168 -0.4518 -0.5899  0.6095
  438MPD2    H5 6589   0.886   4.601  17.195  0.7295  0.8112  0.6412
  438MPD2    N1 6590   1.280   4.438  16.817 -0.0424 -0.2423 -0.0627
  438MPD2    H7 6591   1.312   4.366  16.880  2.3289 -0.8304 -1.9152
  439TMC3    C1 6592   1.395   4.306  16.663 -0.0513 -0.3758  0.6586
  439TMC3    C2 6593   1.375   4.243  16.543 -0.6057  0.3283  1.0371
  439TMC3    C3 6594   1.463   4.144  16.519  0.3861 -0.1726  0.3197
  439TMC3    C4 6595   1.505   4.294  16.741  0.6014 -0.2027  0.7193
  439TMC3    C5 6596   1.589   4.193  16.705  0.7715  0.5616 -0.4998
  439TMC3    C6 6597   1.568   4.115  16.598 -0.2051 -0.2735  0.5528
  439TMC3     C 6598   1.313   4.419  16.690  0.7560  0.2763 -0.1751
  439TMC3     O 6599   1.264   4.475  16.594 -0.0057  0.4179  0.1487
  439TMC3     H 6600   1.282   4.259  16.489 -0.0764  1.7427  0.5436
  439TMC3    H1 6601   1.504   4.345  16.837  1.2464  1.6804 -0.2783
  439TMC3    H2 6602   1.629   4.028  16.572  0.2682  0.0594  0.5397
  439TMC3    C7 6603   1.712   4.170  16.778  0.3036  0.1670 -0.1619
  439TMC3    C8 6604   1.467   4.091  16.381  0.6480  0.3143  0.6584
  439TMC3    O1 6605   1.715   4.133  16.897  0.5234 -0.3672 -0.4396
  439TMC3    O2 6606   1.541   3.996  16.358 -0.0027 -0.1710  0.0072
  440MPD2     C 6607   0.158   0.315  15.234 -0.4431  0.1259  0.4396
  440MPD2    C1 6608   0.104   0.375  15.343  0.8146  0.2401 -0.4627
  440MPD2    C2 6609   0.183   0.396  15.457 -0.7355 -0.3574 -0.2065
  440MPD2    C3 6610   0.307   0.328  15.475  0.4033  0.2046 -0.0503
  440MPD2    C4 6611   0.357   0.263  15.362  0.6039  0.1566 -0.2532
  440MPD2    C5 6612   0.289   0.262  15.248 -0.7782 -0.6087 -0.8897
  440MPD2     H 6613   0.134   0.453  15.534  1.5068 -1.1410  1.7874
  440MPD2    H1 6614   0.455   0.216  15.365 -0.9225 -3.1032 -0.7705
  440MPD2    H2 6615   0.123   0.302  15.132  3.0024  0.0119 -0.7311
  440MPD2    H3 6616   0.329   0.204  15.166  2.5459  1.2017 -0.5571
  440MPD2     N 6617   0.384   0.323  15.599 -0.3318 -0.0142 -0.0358
  440MPD2    H5 6618   0.467   0.264  15.600  0.4859  1.0832 -2.1477
  440MPD2    N1 6619   4.715   0.438  15.340 -0.1229 -0.0398 -0.3042
  440MPD2    H7 6620   4.684   0.475  15.429 -0.5426  0.6471 -0.7403
  441TMC3    C1 6621   0.420   0.362  15.821  0.0480 -0.8131 -0.3957
  441TMC3    C2 6622   0.421   0.467  15.906 -0.3390  0.3914  0.4392
  441TMC3    C3 6623   0.419   0.436  16.038 -0.5403 -0.4773  1.0426
  441TMC3    C4 6624   0.426   0.231  15.855 -0.0475 -0.0007  0.1055
  441TMC3    C5 6625   0.413   0.204  15.987 -0.4222  0.2015  0.7327
  441TMC3    C6 6626   0.410   0.301  16.081  0.3545 -0.7158  0.8445
  441TMC3     C 6627   0.338   0.393  15.708 -0.1172  0.1141  0.5961
  441TMC3     O 6628   0.259   0.485  15.723 -0.0639  0.3858 -0.5040
  441TMC3     H 6629   0.460   0.560  15.867 -1.2081  0.8890  0.7843
  441TMC3    H1 6630   0.398   0.155  15.783 -0.3130  1.9592 -1.8770
  441TMC3    H2 6631   0.379   0.275  16.182 -1.7166 -0.4210  0.2915
  441TMC3    C7 6632   0.331   0.093  16.017 -0.3609 -0.3123  0.3480
  441TMC3    C8 6633   0.371   0.528  16.134  0.2990  0.4485 -0.0342
  441TMC3    O1 6634   0.249   0.054  15.934  0.0181  0.3887 -0.0257
  441TMC3    O2 6635   0.365   0.492  16.249 -0.4431 -0.0658  0.1593
  442MPD2     C 6636   2.655   0.749  16.521 -0.4258 -0.0390  0.3107
  442MPD2    C1 6637   2.619   0.642  16.602 -0.2468 -0.3676  0.3756
  442MPD2    C2 6638   2.575   0.531  16.546 -1.0497  0.2912 -0.1568
  442MPD2    C3 6639   2.593   0.501  16.414 -0.5010  0.1303 -0.0112
  442MPD2    C4 6640   2.647   0.606  16.335  0.7810  0.1728 -0.6726
  442MPD2    C5 6641   2.669   0.732  16.387 -0.0066  0.8921  0.7665
  442MPD2     H 6642   2.548   0.447  16.609  1.6119  0.5113  1.2556
  442MPD2    H1 6643   2.655   0.591  16.228  1.0128  0.6062 -0.7159
  442MPD2    H2 6644   2.680   0.843  16.569  0.1977 -0.0989  0.1027
  442MPD2    H3 6645   2.707   0.810  16.321 -1.1673  0.9298  0.1487
  442MPD2     N 6646   2.570   0.381  16.348 -0.2191 -0.3610 -0.2459
  442MPD2    H5 6647   2.608   0.362  16.256 -1.4620  0.3363 -0.9021
  442MPD2    N1 6648   2.603   0.656  16.739 -0.0424 -0.2425 -0.3664
  442MPD2    H7 6649   2.545   0.590  16.789  3.0307  0.4101  4.0006
  443TMC3    C1 6650   2.579   0.745  16.946  0.0646  0.0550  0.2404
  443TMC3    C2 6651   2.480   0.841  16.969  0.4058 -0.0894 -0.4366
  443TMC3    C3 6652   2.365   0.804  17.040  0.0835 -0.1005 -0.8400
  443TMC3    C4 6653   2.565   0.620  16.999 -0.2743  0.1260  0.2990
  443TMC3    C5 6654   2.461   0.595  17.087  0.6937 -0.1445 -0.9493
  443TMC3    C6 6655   2.366   0.688  17.115 -0.4858  0.4031 -0.2029
  443TMC3     C 6656   2.636   0.767  16.814  0.1000  0.2848  0.6590
  443TMC3     O 6657   2.681   0.880  16.791 -0.0485  0.0301 -0.2185
  443TMC3     H 6658   2.480   0.943  16.932 -0.3234 -0.0971 -0.4704
  443TMC3    H1 6659   2.635   0.539  16.982  0.1605  0.4805  0.4302
  443TMC3    H2 6660   2.274   0.659  17.164 -0.7274  2.0454  0.2870
  443TMC3    C7 6661   2.439   0.463  17.144 -0.2066 -0.1150 -0.0262
  443TMC3    C8 6662   2.249   0.799  16.960 -0.6419  0.2289  0.9669
  443TMC3    O1 6663   2.461   0.363  17.081  0.3499  0.9558 -0.0118
  443TMC3    O2 6664   2.187   0.696  16.953 -0.7024 -0.0819  0.5435
  444MPD2     C 6665   3.011   0.310  17.023 -0.0942 -0.0936 -0.0504
  444MPD2    C1 6666   2.915   0.206  17.025 -0.6668 -0.2121  0.4486
  444MPD2    C2 6667   2.947   0.094  16.953  0.5724 -0.4712  0.6494
  444MPD2    C3 6668   3.072   0.083  16.887  0.3516 -0.2146  0.5271
  444MPD2    C4 6669   3.160   0.187  16.890 -0.9203  0.2498  0.3187
  444MPD2    C5 6670   3.125   0.296  16.955 -0.2237  0.5167 -0.1131
  444MPD2     H 6671   2.879   0.009  16.957  1.4480 -1.1323  1.8026
  444MPD2    H1 6672   3.256   0.188  16.841 -0.5548  1.0579  1.0611
  444MPD2    H2 6673   2.992   0.406  17.070 -0.3163 -0.9622  1.6371
  444MPD2    H3 6674   3.194   0.379  16.946 -0.3879  0.5934 -0.6638
  444MPD2     N 6675   3.111   4.698  16.826 -0.9730  0.0283 -0.4243
  444MPD2    H5 6676   3.041   4.626  16.812  0.5433 -1.4528 -0.4205
  444MPD2    N1 6677   2.804   0.202  17.105 -0.3145 -0.1665  0.2340
  444MPD2    H7 6678   2.757   0.112  17.117 -0.6682  0.1472  1.1959
  445TMC3    C1 6679   3.248   4.531  16.735  0.2930  0.1419  0.8501
  445TMC3    C2 6680   3.140   4.464  16.703  0.6483 -0.1190  0.2846
  445TMC3    C3 6681   3.164   4.339  16.654 -0.0068  0.4845 -0.3412
  445TMC3    C4 6682   3.376   4.487  16.726 -0.3721  0.0211  0.1528
  445TMC3    C5 6683   3.397   4.358  16.695  1.0545 -0.1815 -0.0162
  445TMC3    C6 6684   3.287   4.285  16.661  0.3168 -0.0582  0.1312
  445TMC3     C 6685   3.236   4.662  16.781  0.5410 -0.2805 -0.0382
  445TMC3     O 6686   3.338   4.727  16.776 -0.4676  0.3550 -0.1912
  445TMC3     H 6687   3.043   4.510  16.690  1.8000  2.1566 -0.2960
  445TMC3    H1 6688   3.460   4.540  16.771  0.3101 -0.6595 -0.3319
  445TMC3    H2 6689   3.305   4.184  16.626  0.6639  0.1616 -0.3229
  445TMC3    C7 6690   3.540   4.315  16.692  0.1605  0.3495 -0.0481
  445TMC3    C8 6691   3.078   4.266  16.561 -0.1549  0.0849 -0.4684
  445TMC3    O1 6692   3.623   4.401  16.663  0.3017  0.0304  0.3298
  445TMC3    O2 6693   3.097   4.145  16.548  0.1485  0.2140  0.6166
  446MPD2     C 6694   2.451   1.701  11.647 -0.1737 -0.1421 -0.5518
  446MPD2    C1 6695   2.487   1.654  11.522  0.9617 -0.1818  0.1238
  446MPD2    C2 6696   2.614   1.686  11.473 -0.3622 -0.5802 -0.5898
  446MPD2    C3 6697   2.706   1.756  11.548 -0.5273 -0.4215 -0.3004
  446MPD2    C4 6698   2.674   1.797  11.672  0.2679 -0.4099 -0.2084
  446MPD2    C5 6699   2.544   1.781  11.713  0.1458  0.3352  0.7875
  446MPD2     H 6700   2.640   1.652  11.374 -0.5731 -0.9368 -0.5205
  446MPD2    H1 6701   2.746   1.839  11.742 -0.4321 -0.0505  0.2945
  446MPD2    H2 6702   2.353   1.673  11.685  1.1715 -1.8156  1.6587
  446MPD2    H3 6703   2.525   1.821  11.812 -0.6656 -1.8925  1.5401
  446MPD2     N 6704   2.831   1.765  11.488 -0.4639 -0.5759  0.3820
  446MPD2    H5 6705   2.843   1.724  11.396  1.1441  0.5055  0.1143
  446MPD2    N1 6706   2.407   1.572  11.436  0.3673  0.2581 -0.3392
  446MPD2    H7 6707   2.448   1.548  11.346  0.6454  2.2980 -0.7446
  447TMC3    C1 6708   3.064   1.799  11.479 -0.6912 -0.5677 -0.4222
  447TMC3    C2 6709   3.095   1.852  11.358 -0.5575  0.5964 -0.2519
  447TMC3    C3 6710   3.227   1.871  11.322  0.4220  0.0081 -0.0273
  447TMC3    C4 6711   3.160   1.771  11.570  0.1079  0.5528  0.3913
  447TMC3    C5 6712   3.294   1.787  11.530 -0.6777  0.2960  0.1272
  447TMC3    C6 6713   3.331   1.829  11.404 -0.8376  0.2674 -0.4916
  447TMC3     C 6714   2.935   1.832  11.541 -0.4155  0.2608  0.3615
  447TMC3     O 6715   2.933   1.903  11.642  0.8618  0.1939  0.1263
  447TMC3     H 6716   3.018   1.885  11.290  0.3186  4.1452  0.5143
  447TMC3    H1 6717   3.137   1.751  11.674 -1.1523  1.6283  0.3183
  447TMC3    H2 6718   3.435   1.849  11.381 -1.1144  0.5282 -1.5037
  447TMC3    C7 6719   3.404   1.736  11.612 -0.8788  0.6058 -0.3915
  447TMC3    C8 6720   3.260   1.932  11.195  0.5230 -1.1063 -0.4744
  447TMC3    O1 6721   3.513   1.732  11.553  0.0976  0.0559  0.2565
  447TMC3    O2 6722   3.173   1.996  11.143  0.3695  0.7418 -0.3602
  448TMC3    C1 6723   0.788   0.866  17.427 -0.1473  0.0368  0.3217
  448TMC3    C2 6724   0.777   0.822  17.295  0.1825  0.0362  0.0311
  448TMC3    C3 6725   0.814   0.699  17.263  0.3423  0.5194 -0.2149
  448TMC3    C4 6726   0.837   0.784  17.519  0.1762  0.5878  0.3218
  448TMC3    C5 6727   0.876   0.663  17.475 -0.2596  0.8386  0.3132
  448TMC3    C6 6728   0.854   0.612  17.354  0.1625  0.5089  0.1417
  448TMC3     C 6729   0.748   1.005  17.460  0.3067 -0.0582  0.6424
  448TMC3     O 6730   0.744   1.031  17.582 -0.3134  0.0799  0.2792
  448TMC3     H 6731   0.722   0.880  17.221 -0.5677 -0.5183  0.1513
  448TMC3    H1 6732   0.848   0.814  17.623 -1.1276  0.9839  0.3574
  448TMC3    H2 6733   0.896   0.514  17.336 -0.4812 -0.1214  2.0251
  448TMC3    C7 6734   0.968   0.591  17.557  0.7861 -0.0563  0.6677
  448TMC3    C8 6735   0.838   0.651  17.127 -0.3811 -0.0063  0.0295
  448TMC3    O1 6736   1.068   0.543  17.504 -0.0246 -0.6155  0.1821
  448TMC3    O2 6737   0.843   0.530  17.115  0.0752 -0.5153 -0.6401
  449MPD2     C 6738   2.456   0.027  13.840  0.0269  0.3353 -0.1356
  449MPD2    C1 6739   2.324   4.718  13.828 -0.4999  0.3090  0.0593
  449MPD2    C2 6740   2.300   4.580  13.821 -0.1896  0.4507 -0.2976
  449MPD2    C3 6741   2.400   4.490  13.850 -0.3569 -0.3719  0.3542
  449MPD2    C4 6742   2.526   4.537  13.878  0.1745 -1.0434 -0.3802
  449MPD2    C5 6743   2.553   4.672  13.871 -0.0096  0.1691 -0.6454
  449MPD2     H 6744   2.205   4.533  13.797 -1.7744  2.1903  2.4823
  449MPD2    H1 6745   2.605   4.466  13.900  0.2201  0.3852  3.9986
  449MPD2    H2 6746   2.478   0.132  13.825 -0.0469  0.3804  0.0842
  449MPD2    H3 6747   2.653   4.705  13.898 -0.2414  0.4587 -0.1501
  449MPD2     N 6748   2.365   4.351  13.830 -0.1332 -0.5960  0.3648
  449MPD2    H5 6749   2.271   4.329  13.798  0.4198 -0.2891 -1.4724
  449MPD2    N1 6750   2.214   0.065  13.811  0.9958 -0.0675 -0.6728
  449MPD2    H7 6751   2.122   0.021  13.809  0.3041  1.3865 -0.9828
  450TMC3    C1 6752   2.100   0.238  13.720  1.0602  0.5131 -0.2668
  450TMC3    C2 6753   2.116   0.234  13.587 -0.2324  0.6015 -1.0820
  450TMC3    C3 6754   2.006   0.203  13.510 -0.2360 -0.2710  0.2403
  450TMC3    C4 6755   1.993   0.178  13.772 -0.2405  0.1923  0.1325
  450TMC3    C5 6756   1.894   0.122  13.693  0.2182  0.3006  0.7950
  450TMC3    C6 6757   1.894   0.149  13.562 -0.3351  0.0523  0.5126
  450TMC3     C 6758   2.216   0.203  13.789  0.7309 -0.5212  0.2120
  450TMC3     O 6759   2.306   0.285  13.785  0.3649  0.0915  0.1340
  450TMC3     H 6760   2.212   0.265  13.548 -0.0393  1.9602  0.4811
  450TMC3    H1 6761   1.989   0.171  13.880  0.7582 -0.5548  0.1161
  450TMC3    H2 6762   1.819   0.096  13.504  0.5146 -1.4565  0.8139
  450TMC3    C7 6763   1.881   4.719  13.728  0.0856 -0.8097 -0.0530
  450TMC3    C8 6764   2.026   0.194  13.368  0.5937 -0.2019  0.1654
  450TMC3    O1 6765   1.979   4.677  13.785  0.2166  0.8381  0.2859
  450TMC3    O2 6766   1.925   0.199  13.304 -0.4508 -0.5521 -0.3866
  451MPD2     C 6767   4.099   2.873   1.121  0.7289  0.4851 -0.4132
  451MPD2    C1 6768   4.049   2.922   1.001 -0.5583  0.0704  0.4308
  451MPD2    C2 6769   4.064   2.847   0.886 -0.6077 -0.2832 -0.0616
  451MPD2    C3 6770   4.149   2.737   0.884  0.8840 -0.2782  0.5564
  451MPD2    C4 6771   4.201   2.686   1.001 -0.0694  0.0544 -0.0942
  451MPD2    C5 6772   4.181   2.762   1.113 -0.2548 -0.1737  0.1931
  451MPD2     H 6773   4.016   2.877   0.793  0.6708  0.4446 -0.4845
  451MPD2    H1 6774   4.267   2.600   1.000 -0.9633 -0.6436  0.2883
  451MPD2    H2 6775   4.094   2.927   1.215 -1.7725 -0.0697 -0.2202
  451MPD2    H3 6776   4.226   2.723   1.204 -0.0762  2.0475  1.0444
  451MPD2     N 6777   4.188   2.673   0.761  0.0182 -0.1010  0.1230
  451MPD2    H5 6778   4.241   2.586   0.762 -0.1128 -0.1767  0.6972
  451MPD2    N1 6779   3.971   3.041   1.010 -0.0969  0.2211  0.9218
  451MPD2    H7 6780   3.964   3.095   1.095 -1.1227  1.6087 -0.0318
  452TMC3    C1 6781   4.195   2.638   0.520  0.2851 -0.8557 -0.0305
  452TMC3    C2 6782   4.168   2.505   0.536  0.2081  0.2148 -0.3424
  452TMC3    C3 6783   4.160   2.427   0.422  0.7768 -0.6829  0.6744
  452TMC3    C4 6784   4.194   2.702   0.397 -0.0405 -0.0073  0.4417
  452TMC3    C5 6785   4.179   2.622   0.284 -0.3768 -0.0782 -0.3319
  452TMC3    C6 6786   4.167   2.481   0.294 -0.3456  0.2574 -0.0848
  452TMC3     C 6787   4.167   2.727   0.640 -0.5421 -0.4065 -0.4806
  452TMC3     O 6788   4.144   2.842   0.618  0.2813 -0.3225  0.6979
  452TMC3     H 6789   4.138   2.474   0.635 -1.6161 -2.7504 -1.8315
  452TMC3    H1 6790   4.206   2.810   0.392  2.3827 -0.1140  3.1860
  452TMC3    H2 6791   4.169   2.412   0.211 -1.3606 -1.4290  1.3043
  452TMC3    C7 6792   4.184   2.696   0.156 -0.4515  0.5469 -0.8362
  452TMC3    C8 6793   4.121   2.287   0.426  0.3170 -0.3997 -0.1077
  452TMC3    O1 6794   4.181   2.821   0.157  0.3635  0.0317  0.2997
  452TMC3    O2 6795   4.077   2.232   0.328 -0.0777  0.2237 -0.0358
  453TMC3    C1 6796   4.549   0.352  12.387  0.0173 -0.1032 -0.0911
  453TMC3    C2 6797   4.452   0.256  12.418 -0.3200 -0.5177  0.6071
  453TMC3    C3 6798   4.368   0.215  12.317  0.4032 -0.5758  0.6002
  453TMC3    C4 6799   4.546   0.413  12.265 -0.1324 -0.3972  0.5198
  453TMC3    C5 6800   4.458   0.364  12.173  0.4287 -0.0422  0.9162
  453TMC3    C6 6801   4.375   0.262  12.191  0.3981 -0.5372 -0.4497
  453TMC3     C 6802   4.674   0.367  12.457  0.1492 -1.1220 -0.1810
  453TMC3     O 6803   0.006   0.462  12.424 -0.2928 -0.9260  0.3336
  453TMC3     H 6804   4.445   0.203  12.511 -0.4678  1.0274  1.4790
  453TMC3    H1 6805   4.620   0.491  12.247  1.1232 -1.4720  0.9690
  453TMC3    H2 6806   4.301   0.221  12.123  0.9273 -0.5145 -1.0493
  453TMC3    C7 6807   4.497   0.413  12.041 -0.2604  0.2422  0.0441
  453TMC3    C8 6808   4.273   0.104  12.342  0.0986  0.7581 -0.1681
  453TMC3    O1 6809   4.530   0.530  12.030  0.1060 -0.5770  0.5563
  453TMC3    O2 6810   4.204   0.109  12.442  0.5214  0.0441  0.1197
  454MPD2     C 6811   3.803   4.452  16.196  0.5177  0.3529 -0.2708
  454MPD2    C1 6812   3.712   4.530  16.127  0.5430  0.4735  0.4304
  454MPD2    C2 6813   3.679   4.652  16.181 -0.2572  0.5243  0.5613
  454MPD2    C3 6814   3.719   4.689  16.305  0.4741  0.1835  0.1959
  454MPD2    C4 6815   3.810   4.607  16.371 -0.1867 -0.7685 -0.2328
  454MPD2    C5 6816   3.848   4.486  16.316  0.4827  0.1217 -0.2790
  454MPD2     H 6817   3.608   4.716  16.130 -1.0952  0.0909  1.1860
  454MPD2    H1 6818   3.843   4.621  16.473 -0.2445 -1.6911 -0.0832
  454MPD2    H2 6819   3.843   4.355  16.166  1.0175  0.4733  0.0029
  454MPD2    H3 6820   3.915   4.417  16.366  0.3138 -0.6588 -1.1163
  454MPD2     N 6821   3.662   0.061  16.374 -0.0374 -0.8537  0.0227
  454MPD2    H5 6822   3.679   0.078  16.473 -0.1644 -1.4634  0.1526
  454MPD2    N1 6823   3.653   4.492  16.009  0.0512 -0.1127  0.3491
  454MPD2    H7 6824   3.597   4.562  15.961 -0.8938  0.0673  1.7224
  455TMC3    C1 6825   3.479   0.174  16.436  0.5064 -0.2992 -0.2553
  455TMC3    C2 6826   3.389   0.282  16.409 -0.2751  0.3822 -0.0481
  455TMC3    C3 6827   3.257   0.255  16.405 -0.0440  0.6816 -0.1707
  455TMC3    C4 6828   3.429   0.055  16.476  0.2033  0.4247  1.2326
  455TMC3    C5 6829   3.299   0.027  16.453 -0.5398  0.4339  0.1397
  455TMC3    C6 6830   3.216   0.126  16.413  0.0510  0.3171  0.2872
  455TMC3     C 6831   3.574   0.157  16.330  0.5601 -0.0466  0.1983
  455TMC3     O 6832   3.541   0.201  16.219  0.2263  0.4311 -0.6535
  455TMC3     H 6833   3.427   0.375  16.369 -1.5221  0.2507 -1.5583
  455TMC3    H1 6834   3.485   4.726  16.541 -1.3821 -0.3013  1.8574
  455TMC3    H2 6835   3.112   0.100  16.397 -0.5822  1.9384  1.7770
  455TMC3    C7 6836   3.272   4.630  16.407 -0.6228 -0.2336  0.0164
  455TMC3    C8 6837   3.183   0.363  16.460  0.4679  0.0530  0.0565
  455TMC3    O1 6838   3.155   4.599  16.387  0.5355  0.2508 -0.0265
  455TMC3    O2 6839   3.066   0.373  16.419 -0.1555 -0.4076 -0.0784
  456MPD2     C 6840   1.512   0.147  15.874  0.2801  1.0233  0.9847
  456MPD2    C1 6841   1.513   0.043  15.966  0.4879  0.3476  0.0485
  456MPD2    C2 6842   1.462   0.064  16.101 -0.3035  0.1046  0.3067
  456MPD2    C3 6843   1.430   0.196  16.138  0.0223 -0.0556  0.4108
  456MPD2    C4 6844   1.430   0.296  16.043  0.3793  1.0875 -0.8034
  456MPD2    C5 6845   1.464   0.271  15.910 -0.0096  0.7935  0.2845
  456MPD2     H 6846   1.449   4.725  16.177 -1.3533 -1.4240 -1.3903
  456MPD2    H1 6847   1.405   0.396  16.077 -1.2593  0.6437 -0.6827
  456MPD2    H2 6848   1.543   0.134  15.770 -0.3388 -1.9780  1.1623
  456MPD2    H3 6849   1.469   0.350  15.837 -0.5708 -1.2098 -1.9171
  456MPD2     N 6850   1.394   0.216  16.272  0.3088 -0.0146  0.9037
  456MPD2    H5 6851   1.401   0.132  16.329 -0.6627 -0.8292 -0.1636
  456MPD2    N1 6852   1.563   4.654  15.920  0.1309  0.2087 -0.4581
  456MPD2    H7 6853   1.597   4.639  15.826  0.7953 -2.8006  0.2443
  457TMC3    C1 6854   1.306   0.301  16.470  0.1240 -0.3632  0.7442
  457TMC3    C2 6855   1.184   0.341  16.512  0.7633 -0.5528 -0.1037
  457TMC3    C3 6856   1.137   0.303  16.633 -0.3690 -0.1266 -0.7336
  457TMC3    C4 6857   1.392   0.224  16.546  0.0833 -0.0210  0.7998
  457TMC3    C5 6858   1.346   0.193  16.668 -0.4161  0.2536  0.7464
  457TMC3    C6 6859   1.218   0.231  16.711 -0.9825  0.2043 -0.1142
  457TMC3     C 6860   1.337   0.325  16.332 -0.5620 -0.0674  0.6974
  457TMC3     O 6861   1.293   0.425  16.283 -0.2401 -0.0012  0.3036
  457TMC3     H 6862   1.113   0.385  16.443  0.6626 -0.3040  0.1583
  457TMC3    H1 6863   1.494   0.215  16.511 -0.4747  0.4238 -0.9415
  457TMC3    H2 6864   1.181   0.196  16.807  1.8115 -1.5650  0.3188
  457TMC3    C7 6865   1.439   0.171  16.774 -0.2930 -0.0350 -0.2119
  457TMC3    C8 6866   1.050   0.385  16.711  0.1835 -0.6264 -1.3691
  457TMC3    O1 6867   1.387   0.150  16.884  0.1528  0.5145 -0.1146
  457TMC3    O2 6868   0.995   0.339  16.806  0.1569  0.2885 -0.0454
  458MPD2     C 6869   3.804   4.663  12.503 -0.2105  0.4664  0.7607
  458MPD2    C1 6870   3.751   4.554  12.565 -0.0259 -0.2267 -0.2194
  458MPD2    C2 6871   3.625   4.503  12.524  0.2828  0.0076 -0.6300
  458MPD2    C3 6872   3.551   4.571  12.436 -0.1951  0.4756 -0.7238
  458MPD2    C4 6873   3.604   4.684  12.376  0.2607 -0.0236 -0.0853
  458MPD2    C5 6874   3.728   4.727  12.403  0.4876 -0.1328 -0.3112
  458MPD2     H 6875   3.579   4.415  12.568  0.7385 -0.0025 -0.1682
  458MPD2    H1 6876   3.547   0.017  12.315 -2.4301 -1.7475  0.4862
  458MPD2    H2 6877   3.903   4.701  12.523 -0.4063  1.4170 -0.0904
  458MPD2    H3 6878   3.760   0.084  12.361  2.7348 -1.6823 -2.0527
  458MPD2     N 6879   3.421   4.524  12.410  0.1822 -0.0477 -0.5971
  458MPD2    H5 6880   3.381   4.451  12.468 -0.0486  0.6778  0.1574
  458MPD2    N1 6881   3.836   4.494  12.659 -0.1464 -0.1433 -0.6466
  458MPD2    H7 6882   3.926   4.540  12.670 -0.8920  1.4165 -1.0623
  459TMC3    C1 6883   3.928   4.340  12.812 -0.7163 -0.6714 -0.2479
  459TMC3    C2 6884   4.058   4.367  12.772  0.4340  0.4436  0.1214
  459TMC3    C3 6885   4.154   4.339  12.869  0.5323 -0.1681  0.4348
  459TMC3    C4 6886   3.902   4.267  12.922 -0.3209  0.4013 -0.5686
  459TMC3    C5 6887   4.001   4.249  13.014  0.0886 -0.3437  0.4367
  459TMC3    C6 6888   4.129   4.288  12.992 -0.4474  0.6631 -0.0781
  459TMC3     C 6889   3.815   4.376  12.730  0.4367  0.0654  0.3381
  459TMC3     O 6890   3.717   4.305  12.738 -0.0533  0.0084  0.4158
  459TMC3     H 6891   4.079   4.403  12.672 -0.6264  0.2848 -0.1510
  459TMC3    H1 6892   3.804   4.222  12.931 -0.0530 -0.3629 -1.4063
  459TMC3    H2 6893   4.210   4.258  13.059  1.4273  2.7716 -1.4219
  459TMC3    C7 6894   3.996   4.155  13.126 -0.0078 -0.5486  0.1828
  459TMC3    C8 6895   4.295   4.339  12.836  1.2513 -0.3996  0.0083
  459TMC3    O1 6896   4.095   4.088  13.153  0.1711  0.4969  0.4725
  459TMC3    O2 6897   4.370   4.311  12.926  0.1488 -0.0734  0.6330
  460MPD2     C 6898   3.574   1.885  10.995  0.3035 -1.1037  0.8612
  460MPD2    C1 6899   3.450   1.940  11.025  0.4606 -0.3091 -0.1187
  460MPD2    C2 6900   3.396   2.035  10.933 -0.7977  0.6120 -0.4458
  460MPD2    C3 6901   3.464   2.072  10.816  0.2550 -0.3815  0.3189
  460MPD2    C4 6902   3.581   2.016  10.793  0.3052 -0.1100 -0.2748
  460MPD2    C5 6903   3.635   1.924  10.879  0.5760 -0.4853 -0.1172
  460MPD2     H 6904   3.299   2.076  10.958 -0.1492  2.1120 -0.4057
  460MPD2    H1 6905   3.644   2.048  10.711 -1.6065 -0.6872 -1.9686
  460MPD2    H2 6906   3.620   1.816  11.065 -1.3730 -0.9942  2.0759
  460MPD2    H3 6907   3.726   1.873  10.849  0.0149 -2.2835  1.3043
  460MPD2     N 6908   3.405   2.151  10.720 -0.0899  0.3143  0.0055
  460MPD2    H5 6909   3.313   2.179  10.753  0.7637  0.4874  2.2072
  460MPD2    N1 6910   3.386   1.897  11.147 -0.3879  0.2804  0.1828
  460MPD2    H7 6911   3.441   1.834  11.204  0.8376 -0.5402 -1.8838
  461TMC3    C1 6912   3.350   2.272  10.530  0.2686  0.1720 -0.0409
  461TMC3    C2 6913   3.251   2.196  10.467  0.4594  0.4220 -0.0962
  461TMC3    C3 6914   3.192   2.235  10.347 -0.5382 -0.0126  0.1118
  461TMC3    C4 6915   3.394   2.387  10.471  0.2960  0.0803 -0.0039
  461TMC3    C5 6916   3.337   2.427  10.348  0.8560  0.3617 -0.3875
  461TMC3    C6 6917   3.243   2.352  10.289  0.0828  0.5788  0.9199
  461TMC3     C 6918   3.452   2.203  10.606 -0.2610 -0.5357  0.6278
  461TMC3     O 6919   3.568   2.223  10.576  0.7001 -0.1230 -0.1179
  461TMC3     H 6920   3.217   2.108  10.521 -0.2082  2.0061  2.1025
  461TMC3    H1 6921   3.474   2.441  10.521  0.0116  1.7061 -1.3090
  461TMC3    H2 6922   3.211   2.390  10.193  0.7817  0.2137  0.5432
  461TMC3    C7 6923   3.350   2.562  10.298  0.3179  0.3059  0.5654
  461TMC3    C8 6924   3.145   2.134  10.258  0.9736 -0.3873  0.0202
  461TMC3    O1 6925   3.257   2.623  10.248 -0.8770  0.2896  0.3534
  461TMC3    O2 6926   3.139   2.166  10.141 -0.4334 -0.0392 -0.1543
  462TMC3    C1 6927   3.548   2.896   1.176 -0.0490 -0.0671  0.2937
  462TMC3    C2 6928   3.509   2.963   1.061  0.0715 -0.0523  0.1802
  462TMC3    C3 6929   3.552   2.911   0.947 -0.4497 -0.4901  0.1020
  462TMC3    C4 6930   3.649   2.808   1.179  0.3914 -0.4210  0.0315
  462TMC3    C5 6931   3.699   2.764   1.060 -0.0941 -0.5343  0.6948
  462TMC3    C6 6932   3.659   2.818   0.945 -0.2768  0.6233 -0.0953
  462TMC3     C 6933   3.477   2.923   1.299  0.1707  0.1392  0.0905
  462TMC3     O 6934   3.526   2.901   1.411  0.1941  0.1231  0.6182
  462TMC3     H 6935   3.415   3.017   1.062 -1.5278 -2.8197 -0.4661
  462TMC3    H1 6936   3.681   2.754   1.267  0.8689 -0.3965 -0.1297
  462TMC3    H2 6937   3.698   2.767   0.858 -0.5366  0.3745 -0.0643
  462TMC3    C7 6938   3.773   2.641   1.065  0.1696 -0.5476  0.1446
  462TMC3    C8 6939   3.480   2.933   0.824 -0.7502  0.2435  0.0794
  462TMC3    O1 6940   3.870   2.629   1.136 -0.0420 -0.1194 -0.4580
  462TMC3    O2 6941   3.432   3.043   0.789  0.0683 -0.5515 -0.6408
  463MPD2     C 6942   0.404   0.779   1.611  0.7304 -0.2522 -0.4413
  463MPD2    C1 6943   0.271   0.813   1.593 -0.2314  0.0940  0.2267
  463MPD2    C2 6944   0.229   0.943   1.625 -0.4111  1.2053  0.0787
  463MPD2    C3 6945   0.325   1.040   1.664 -0.6444 -0.0663 -0.2298
  463MPD2    C4 6946   0.455   1.009   1.679  0.0098  0.2247  0.4916
  463MPD2    C5 6947   0.495   0.879   1.648  0.2613 -0.8618  0.3426
  463MPD2     H 6948   0.124   0.971   1.623 -0.4284  1.0392 -1.7540
  463MPD2    H1 6949   0.525   1.088   1.703 -1.5387  1.5717  0.5699
  463MPD2    H2 6950   0.439   0.678   1.591 -1.7939 -1.1547 -0.3145
  463MPD2    H3 6951   0.597   0.844   1.656 -0.3412 -2.5020  0.9113
  463MPD2     N 6952   0.294   1.179   1.688 -0.4340 -0.2897 -0.0928
  463MPD2    H5 6953   0.376   1.239   1.692 -1.2801  0.8738 -0.3964
  463MPD2    N1 6954   0.178   0.713   1.564  0.5004  0.2180  0.4946
  463MPD2    H7 6955   0.084   0.747   1.581  0.5118 -0.0691  1.1418
  464TMC3    C1 6956   0.090   0.504   1.513 -0.4861 -0.0788  0.2686
  464TMC3    C2 6957   4.730   0.520   1.608  0.1265  0.0855 -0.1404
  464TMC3    C3 6958   4.612   0.459   1.585 -0.2888 -0.2431 -0.3334
  464TMC3    C4 6959   0.084   0.400   1.428  0.4362 -0.3473  0.8537
  464TMC3    C5 6960   4.706   0.323   1.417  0.1254 -0.2537 -0.2508
  464TMC3    C6 6961   4.603   0.354   1.495  0.1866  0.8865  0.6148
  464TMC3     C 6962   0.205   0.587   1.516 -0.8266  0.1676 -0.3429
  464TMC3     O 6963   0.309   0.565   1.456 -0.0673 -0.1426  0.0436
  464TMC3     H 6964   4.733   0.592   1.689  1.4944  0.8958 -0.8975
  464TMC3    H1 6965   0.170   0.390   1.363  0.8108 -0.8689  1.4264
  464TMC3    H2 6966   4.514   0.292   1.501 -0.7833  2.1017 -1.1540
  464TMC3    C7 6967   4.692   0.258   1.295 -0.2027  0.3661 -0.8428
  464TMC3    C8 6968   4.495   0.519   1.653 -1.0949 -0.3179  0.5794
  464TMC3    O1 6969   0.042   0.270   1.209 -0.1043 -0.0227 -0.1838
  464TMC3    O2 6970   4.493   0.640   1.653 -0.0421 -0.6068 -0.4199
  465MPD2     C 6971   0.679   0.174  17.033  0.0086 -0.9482  0.0131
  465MPD2    C1 6972   0.556   0.118  17.009 -0.0755  0.7708 -0.8737
  465MPD2    C2 6973   0.480   0.175  16.914  0.5435  0.1624  0.0300
  465MPD2    C3 6974   0.512   0.293  16.855  0.1457  0.0624  0.5422
  465MPD2    C4 6975   0.638   0.342  16.873  0.4042  0.2881 -0.4816
  465MPD2    C5 6976   0.720   0.285  16.967 -0.5180 -0.6056  0.4552
  465MPD2     H 6977   0.379   0.138  16.908  1.1753 -1.3103 -1.6426
  465MPD2    H1 6978   0.679   0.435  16.836  1.0822 -0.3943 -1.4437
  465MPD2    H2 6979   0.755   0.124  17.092  0.0589  0.0639  0.7861
  465MPD2    H3 6980   0.820   0.328  16.965  0.0760 -1.9922 -0.0218
  465MPD2     N 6981   0.419   0.366  16.778  0.2067 -0.3338 -0.5553
  465MPD2    H5 6982   0.324   0.330  16.778 -0.9764  2.8112  0.7320
  465MPD2    N1 6983   0.509   0.003  17.081 -0.3187 -0.5090  0.3014
  465MPD2    H7 6984   0.418   4.702  17.057 -1.0138  1.4734 -0.1575
  466TMC3    C1 6985   0.081   0.549  16.727  0.4166 -0.5012 -0.0587
  466TMC3    C2 6986   0.089   0.686  16.715  0.5353 -0.4065  0.0952
  466TMC3    C3 6987   0.211   0.737  16.668 -0.3353 -0.1508  0.1988
  466TMC3    C4 6988   0.187   0.465  16.711 -0.2087 -0.6642 -0.4051
  466TMC3    C5 6989   0.303   0.521  16.661 -0.1857 -0.7702 -0.8826
  466TMC3    C6 6990   0.315   0.654  16.639  0.0299 -0.1816  0.3556
  466TMC3     C 6991   4.731   0.498  16.830 -0.9486 -1.0960  0.2364
  466TMC3     O 6992   0.045   0.410  16.898 -0.0738  0.4801 -0.1593
  466TMC3     H 6993   0.014   0.756  16.749  0.9296  0.0137  0.1028
  466TMC3    H1 6994   0.166   0.359  16.710 -0.1819 -0.7086  3.5084
  466TMC3    H2 6995   0.407   0.706  16.613  0.7251 -0.5301  2.0844
  466TMC3    C7 6996   0.434   0.469  16.693 -0.2891  0.4298  0.5559
  466TMC3    C8 6997   0.244   0.876  16.685  0.3261 -0.8332  0.8238
  466TMC3    O1 6998   0.539   0.515  16.648  0.7310  0.1106 -0.3822
  466TMC3    O2 6999   0.312   0.929  16.597 -0.3634  0.0629  0.0683
  467TMC3    C1 7000   1.363   3.056  13.601  0.3294 -0.8222  0.5917
  467TMC3    C2 7001   1.434   3.070  13.481  0.8398 -0.6821  0.2093
  467TMC3    C3 7002   1.362   3.126  13.377 -0.1016  0.9217  0.4516
  467TMC3    C4 7003   1.231   3.099  13.615  0.1509  0.7763  0.1521
  467TMC3    C5 7004   1.168   3.156  13.514 -0.2436  0.4152  0.3293
  467TMC3    C6 7005   1.228   3.161  13.393 -0.0893 -0.1648 -0.4085
  467TMC3     C 7006   1.445   3.041  13.720 -0.7274 -0.2138  0.3332
  467TMC3     O 7007   1.418   3.104  13.823  0.2527  0.3963  0.5372
  467TMC3     H 7008   1.541   3.058  13.472  0.8836  1.5055 -2.0916
  467TMC3    H1 7009   1.190   3.076  13.712 -0.6186 -1.2434 -0.6418
  467TMC3    H2 7010   1.173   3.217  13.318 -1.7933 -2.0476 -0.5803
  467TMC3    C7 7011   1.035   3.213  13.522 -0.4435  0.6139  0.4933
  467TMC3    C8 7012   1.439   3.242  13.318 -0.0881 -0.5163 -0.0897
  467TMC3    O1 7013   1.013   3.296  13.438  0.9895  0.2254  0.2817
  467TMC3    O2 7014   1.398   3.349  13.353  0.3782  0.3942 -0.0750
  468MPD2     C 7015   4.552   1.769  10.819  0.8756 -0.4355  0.2903
  468MPD2    C1 7016   4.680   1.786  10.872  0.1358 -0.3272 -0.3367
  468MPD2    C2 7017   0.008   1.678  10.926 -0.4398 -0.2439 -0.8334
  468MPD2    C3 7018   4.690   1.551  10.926  0.2000  0.0024 -0.2924
  468MPD2    C4 7019   4.559   1.535  10.875  0.8564 -0.1869 -0.0170
  468MPD2    C5 7020   4.497   1.645  10.821 -0.1585 -0.7043 -0.2814
  468MPD2     H 7021   0.108   1.698  10.963 -0.7575  0.4408 -0.3477
  468MPD2    H1 7022   4.500   1.443  10.877  0.8219 -0.1289  1.9503
  468MPD2    H2 7023   4.494   1.850  10.777  1.3486 -0.4609 -0.4075
  468MPD2    H3 7024   4.397   1.635  10.780 -0.7090  3.8092 -0.0236
  468MPD2     N 7025   0.029   1.433  10.950 -0.0188  0.2444 -0.0581
  468MPD2    H5 7026   4.717   1.345  10.934  0.7727  0.1793 -2.0920
  468MPD2    N1 7027   0.004   1.918  10.888 -0.1085 -0.1416 -0.2548
  468MPD2    H7 7028   0.099   1.934  10.921 -0.3280 -1.4239  1.0145
  469TMC3    C1 7029   0.004   2.153  10.905  0.4019 -0.3762  0.1227
  469TMC3    C2 7030   0.144   2.139  10.900 -0.3054 -0.4549 -0.3775
  469TMC3    C3 7031   0.213   2.221  10.983  0.0080 -0.3696 -0.4444
  469TMC3    C4 7032   4.681   2.251  10.971  0.1755 -0.2948 -0.0196
  469TMC3    C5 7033   0.019   2.333  11.053  0.3887 -0.4532 -0.3333
  469TMC3    C6 7034   0.154   2.317  11.059 -0.3289  0.1783  0.0030
  469TMC3     C 7035   4.664   2.035  10.890  0.0746  0.7964  0.5731
  469TMC3     O 7036   4.540   2.052  10.902 -0.1996  0.1270 -0.5828
  469TMC3     H 7037   0.194   2.075  10.828 -0.2742  1.7608 -2.3275
  469TMC3    H1 7038   4.575   2.271  10.968  0.0311 -0.7039  2.2232
  469TMC3    H2 7039   0.217   2.388  11.113 -1.6625  0.4901  1.1427
  469TMC3    C7 7040   4.680   2.420  11.139 -0.0306  0.0506 -0.8762
  469TMC3    C8 7041   0.354   2.210  10.993 -0.1450 -0.4664  0.0090
  469TMC3    O1 7042   4.572   2.463  11.100  0.0442  0.3908 -0.8633
  469TMC3    O2 7043   0.414   2.166  10.893 -0.4039 -0.4559  0.0906
  470TMC3    C1 7044   2.642   2.811   0.225  0.0443 -0.0852 -0.2325
  470TMC3    C2 7045   2.617   2.923   0.298 -0.0392  1.0353 -0.7560
  470TMC3    C3 7046   2.592   2.906   0.433 -0.1818  0.4242 -0.3398
  470TMC3    C4 7047   2.651   2.683   0.274 -0.7411 -0.4933  0.4021
  470TMC3    C5 7048   2.616   2.667   0.407  0.2012 -0.4595  0.4526
  470TMC3    C6 7049   2.590   2.778   0.487 -0.2248  0.3690  0.7616
  470TMC3     C 7050   2.667   2.813   0.077  0.9373  0.5502  0.1307
  470TMC3     O 7051   2.716   2.710   0.033  0.1118 -0.6646  0.4195
  470TMC3     H 7052   2.616   3.019   0.247  0.8506  2.0898  1.2010
  470TMC3    H1 7053   2.687   2.599   0.216 -1.4899 -0.6920  0.2234
  470TMC3    H2 7054   2.554   2.766   0.589 -0.2796 -0.7086  0.6130
  470TMC3    C7 7055   2.644   2.546   0.479  0.2653 -0.1601  0.0295
  470TMC3    C8 7056   2.580   3.014   0.524  0.8796  0.3671 -0.0625
  470TMC3    O1 7057   2.654   2.448   0.410 -0.1909  0.4645 -0.0117
  470TMC3    O2 7058   2.519   2.988   0.628 -0.5035 -0.2570 -0.0369
  471MPD2     C 7059   3.066   3.843  17.106  0.1192  0.2082 -0.1106
  471MPD2    C1 7060   3.072   3.714  17.062 -0.2050 -0.3041 -0.7717
  471MPD2    C2 7061   3.063   3.611  17.148 -0.1313  0.3914  0.8129
  471MPD2    C3 7062   3.048   3.630  17.284  0.5612 -0.4328  0.3906
  471MPD2    C4 7063   3.047   3.754  17.330 -0.6070  0.0075  0.0950
  471MPD2    C5 7064   3.056   3.862  17.245  0.5597  0.4515  0.0839
  471MPD2     H 7065   3.051   3.510  17.108 -0.9904  0.8432 -0.0849
  471MPD2    H1 7066   3.040   3.776  17.436 -1.6293  2.7144 -0.5250
  471MPD2    H2 7067   3.053   3.933  17.047  0.6842  0.4722  0.1618
  471MPD2    H3 7068   3.042   3.962  17.284 -1.2950  0.1489  0.1930
  471MPD2     N 7069   3.038   3.518  17.360  0.4065 -0.1246  0.4942
  471MPD2    H5 7070   3.035   3.428  17.312 -2.4703 -0.2520  0.9074
  471MPD2    N1 7071   3.089   3.675  16.929  0.0025  0.0930 -0.2094
  471MPD2    H7 7072   3.093   3.575  16.913 -3.3855 -0.1700  0.5466
  472TMC3    C1 7073   3.134   3.685  16.707  0.3030  0.4254 -0.1648
  472TMC3    C2 7074   3.075   3.733  16.598 -0.4336  0.1396  0.4116
  472TMC3    C3 7075   3.086   3.650  16.488  0.5507 -0.2993  0.0089
  472TMC3    C4 7076   3.219   3.577  16.710  0.2060  0.4204 -0.3973
  472TMC3    C5 7077   3.226   3.493  16.602 -0.2133 -0.8460  0.6774
  472TMC3    C6 7078   3.150   3.529  16.494 -0.6027 -0.4446  0.6352
  472TMC3     C 7079   3.111   3.762  16.828  0.0211  0.2834 -0.4610
  472TMC3     O 7080   3.097   3.883  16.826  0.1336 -0.4435 -0.0481
  472TMC3     H 7081   3.015   3.823  16.595  0.1099  0.5147  0.6744
  472TMC3    H1 7082   3.270   3.559  16.804  0.7059  0.8060 -0.5976
  472TMC3    H2 7083   3.150   3.467  16.406  1.2479  0.7046 -0.1867
  472TMC3    C7 7084   3.235   3.352  16.643  0.8124 -0.0351 -0.7285
  472TMC3    C8 7085   2.972   3.652  16.400 -0.2061 -0.0170  0.2283
  472TMC3    O1 7086   3.231   3.318  16.759 -0.2951 -0.1468  0.3149
  472TMC3    O2 7087   2.954   3.752  16.333 -0.0740  0.3383  0.2501
  473MPD2     C 7088   2.516   0.804  14.050 -0.0361  0.7728 -0.1701
  473MPD2    C1 7089   2.543   0.922  13.984  0.5280 -0.2298 -0.2306
  473MPD2    C2 7090   2.588   1.032  14.057  0.4290  0.1837  0.3450
  473MPD2    C3 7091   2.600   1.021  14.195 -0.2899 -0.2556  0.0440
  473MPD2    C4 7092   2.574   0.905  14.259 -0.0096 -0.0098  0.3781
  473MPD2    C5 7093   2.540   0.795  14.183 -0.1731  0.1872 -0.0946
  473MPD2     H 7094   2.601   1.126  14.005  0.9755  0.5986  1.2296
  473MPD2    H1 7095   2.584   0.894  14.366  0.1329 -0.9556  0.2747
  473MPD2    H2 7096   2.474   0.720  13.996  2.9763  0.0675 -1.4526
  473MPD2    H3 7097   2.530   0.701  14.235  2.5362 -0.4708 -0.7187
  473MPD2     N 7098   2.639   1.129  14.281  0.1133 -0.0975 -0.5409
  473MPD2    H5 7099   2.636   1.116  14.381 -0.3375 -1.0286 -0.6753
  473MPD2    N1 7100   2.509   0.950  13.848  0.8110  0.4409 -0.6300
  473MPD2    H7 7101   2.517   1.047  13.821  0.0070  0.2960 -1.3688
  474TMC3    C1 7102   2.694   1.351  14.329 -0.4083 -0.4055 -0.1134
  474TMC3    C2 7103   2.734   1.469  14.279 -0.0205 -0.0304 -0.3577
  474TMC3    C3 7104   2.704   1.587  14.349 -0.6317 -0.5384  0.0232
  474TMC3    C4 7105   2.640   1.335  14.452  0.2071  0.5210  0.1027
  474TMC3    C5 7106   2.625   1.456  14.521 -0.0644 -1.2991 -0.5535
  474TMC3    C6 7107   2.644   1.583  14.473  0.1756 -0.0828  0.1274
  474TMC3     C 7108   2.682   1.249  14.222 -0.1913 -0.6695  0.0687
  474TMC3     O 7109   2.684   1.289  14.104 -0.0014  0.2783 -0.2397
  474TMC3     H 7110   2.781   1.469  14.181  0.7794  0.1658  0.0275
  474TMC3    H1 7111   2.616   1.239  14.495 -0.9957  1.5073  1.6559
  474TMC3    H2 7112   2.635   1.676  14.528 -0.9115  0.5744 -1.1892
  474TMC3    C7 7113   2.562   1.455  14.648  0.0510  0.3668  0.5135
  474TMC3    C8 7114   2.659   1.693  14.264 -0.3243 -0.2009 -0.9103
  474TMC3    O1 7115   2.492   1.356  14.658  0.5258  0.3433 -0.2439
  474TMC3    O2 7116   2.621   1.653  14.153  0.2733  0.1042 -0.0814
  475MPD2     C 7117   1.521   4.355  10.558  0.6366 -0.1465 -0.1726
  475MPD2    C1 7118   1.514   4.465  10.639  0.2914  0.0928 -0.1765
  475MPD2    C2 7119   1.393   4.500  10.699 -0.0291  0.3620  0.2513
  475MPD2    C3 7120   1.284   4.424  10.678  0.0902 -0.1506  0.4137
  475MPD2    C4 7121   1.292   4.304  10.606  0.2918 -0.0874 -0.6181
  475MPD2    C5 7122   1.407   4.275  10.543 -0.3740  0.2728 -0.2378
  475MPD2     H 7123   1.370   4.598  10.740  0.5569  0.5266  0.1928
  475MPD2    H1 7124   1.210   4.235  10.592 -0.1994  0.7732 -2.0453
  475MPD2    H2 7125   1.611   4.312  10.517  1.5359  1.3328  0.2635
  475MPD2    H3 7126   1.419   4.188  10.480  0.8930  0.7956 -0.7022
  475MPD2     N 7127   1.161   4.481  10.724  0.2112 -0.3801  0.3173
  475MPD2    H5 7128   1.165   4.560  10.788  1.3607  1.0310 -1.4872
  475MPD2    N1 7129   1.623   4.559  10.648  0.1031  0.1391 -0.1065
  475MPD2    H7 7130   1.621   4.638  10.711  1.5689 -1.1236  1.5255
  476TMC3    C1 7131   1.782   4.697  10.570  0.7173  0.1980 -0.7691
  476TMC3    C2 7132   1.729   0.032  10.467  0.1085 -0.1433 -0.2169
  476TMC3    C3 7133   1.665   0.153  10.489 -0.3872  0.7396 -0.6880
  476TMC3    C4 7134   1.786   0.012  10.691  0.5752  0.4929  0.4569
  476TMC3    C5 7135   1.718   0.131  10.716  0.3938 -1.1901 -0.9741
  476TMC3    C6 7136   1.663   0.203  10.615 -0.3640 -0.0173  0.0783
  476TMC3     C 7137   1.730   4.564  10.563 -0.3753 -0.1015  0.5424
  476TMC3     O 7138   1.749   4.497  10.460  0.0674 -0.1342 -0.2687
  476TMC3     H 7139   1.725   4.717  10.372  0.1819  0.2339 -0.4219
  476TMC3    H1 7140   1.815   4.691  10.778  1.0233  2.2924  1.4934
  476TMC3    H2 7141   1.601   0.286  10.647 -0.7667 -1.2354  2.4383
  476TMC3    C7 7142   1.633   0.121  10.833  0.7015  0.3710 -0.5458
  476TMC3    C8 7143   1.537   0.162  10.439 -0.4139  0.5574 -0.0156
  476TMC3    O1 7144   1.605   0.007  10.869  0.2278  0.4900 -0.2729
  476TMC3    O2 7145   1.504   0.273  10.405 -0.6133 -0.5164  0.4886
  477MPD2     C 7146   3.750   1.159  12.057 -0.3093  0.1809 -0.7367
  477MPD2    C1 7147   3.634   1.112  12.114 -0.2906 -0.7329  0.1248
  477MPD2    C2 7148   3.640   1.027  12.221  0.0909  0.1311 -0.4117
  477MPD2    C3 7149   3.761   0.986  12.279 -0.3233 -0.0649  0.1769
  477MPD2    C4 7150   3.875   1.043  12.234 -1.5376  0.3983  0.1362
  477MPD2    C5 7151   3.865   1.124  12.121 -0.7531 -0.4330  0.5023
  477MPD2     H 7152   3.546   0.987  12.257 -0.2466  1.8305  0.5818
  477MPD2    H1 7153   3.974   1.011  12.265 -0.6464  1.0867 -1.9824
  477MPD2    H2 7154   3.756   1.218  11.967  0.1168  0.1626 -0.7214
  477MPD2    H3 7155   3.958   1.157  12.076 -0.0917 -1.8760  0.7835
  477MPD2     N 7156   3.755   0.894  12.382  0.1412  0.1795 -0.3498
  477MPD2    H5 7157   3.663   0.858  12.405 -0.2636  1.5363  0.1538
  477MPD2    N1 7158   3.512   1.138  12.052  0.5014  0.3099 -0.2703
  477MPD2    H7 7159   3.514   1.181  11.960 -0.6043 -2.2323 -1.4528
  478TMC3    C1 7160   3.286   1.169  12.010 -0.5497  1.1984  0.1273
  478TMC3    C2 7161   3.187   1.249  12.050 -0.0162 -0.2905 -0.0023
  478TMC3    C3 7162   3.109   1.321  11.957  0.6279  0.0138  0.3921
  478TMC3    C4 7163   3.310   1.168  11.876 -0.3405 -0.5047 -0.4810
  478TMC3    C5 7164   3.253   1.252  11.787 -0.6039  0.2790  0.2561
  478TMC3    C6 7165   3.143   1.327  11.824  0.3860  0.1896  0.2750
  478TMC3     C 7166   3.389   1.136  12.107  0.1460  0.3849  0.0630
  478TMC3     O 7167   3.346   1.100  12.216  0.5360  0.0051  0.0662
  478TMC3     H 7168   3.173   1.267  12.156  0.9622 -0.1881  0.1136
  478TMC3    H1 7169   3.373   1.088  11.840 -2.2953 -1.1523 -2.4883
  478TMC3    H2 7170   3.098   1.396  11.754 -1.6529 -0.0810  1.3282
  478TMC3    C7 7171   3.325   1.283  11.666  0.2425 -0.7058 -0.5413
  478TMC3    C8 7172   2.996   1.407  11.992 -0.4195  0.0405 -0.1161
  478TMC3    O1 7173   3.449   1.280  11.665 -0.4627  0.1305 -0.3814
  478TMC3    O2 7174   2.966   1.492  11.908  0.4100 -0.1594 -0.6083
  479MPD2     C 7175   2.625   3.030  15.164 -0.2105 -0.0712 -0.7990
  479MPD2    C1 7176   2.578   2.956  15.269 -0.5362 -0.0342  0.8403
  479MPD2    C2 7177   2.623   2.986  15.397 -0.4333  0.4237 -0.1008
  479MPD2    C3 7178   2.705   3.098  15.421 -0.6226  0.4861 -0.1909
  479MPD2    C4 7179   2.744   3.170  15.311  0.0305  0.5136  0.2127
  479MPD2    C5 7180   2.705   3.137  15.185 -0.8974 -0.3618  0.4696
  479MPD2     H 7181   2.572   2.933  15.476  0.7968  2.4611  2.0355
  479MPD2    H1 7182   2.811   3.255  15.313  0.3600  0.2744 -0.3123
  479MPD2    H2 7183   2.585   3.013  15.065 -1.4143 -0.4574 -0.2406
  479MPD2    H3 7184   2.749   3.199  15.107  0.9829 -1.1685  0.9058
  479MPD2     N 7185   2.750   3.140  15.555  0.1461  0.1505 -0.4184
  479MPD2    H5 7186   2.780   3.237  15.562 -0.0732  0.3462 -2.1909
  479MPD2    N1 7187   2.467   2.869  15.245 -0.5691  0.1343 -0.6983
  479MPD2    H7 7188   2.436   2.877  15.149 -1.2111 -2.7492 -0.7216
  480TMC3    C1 7189   2.606   3.041  15.969 -0.4012 -0.8883 -0.3989
  480TMC3    C2 7190   2.485   3.089  15.933 -0.5494 -0.0504  0.1514
  480TMC3    C3 7191   2.482   3.164  15.813  0.0131 -0.6903 -0.3639
  480TMC3    C4 7192   2.719   3.057  15.892  0.4102 -0.8218 -0.1782
  480TMC3    C5 7193   2.715   3.139  15.786 -0.2481 -0.1595 -0.4969
  480TMC3    C6 7194   2.597   3.197  15.752 -0.1014  0.7118  0.2384
  480TMC3     C 7195   2.600   2.939  16.062 -0.1774  0.2501 -0.6544
  480TMC3     O 7196   2.488   2.895  16.091 -0.2486 -0.4043 -0.7934
  480TMC3     H 7197   2.395   3.074  15.991 -0.5912 -0.7324 -0.0819
  480TMC3    H1 7198   2.809   3.000  15.910  1.0907  0.4490  0.4052
  480TMC3    H2 7199   2.592   3.272  15.675  1.4777 -0.8671 -1.4037
  480TMC3    C7 7200   2.738   3.063  15.667  0.3541  0.2433 -0.4928
  480TMC3    C8 7201   2.377   3.106  15.729  0.1703  0.4150 -0.2671
  480TMC3    O1 7202   2.724   2.944  15.670  0.2507 -0.0582 -0.3856
  480TMC3    O2 7203   2.300   3.025  15.779 -0.0716 -0.5729 -0.4684
  481MPD2     C 7204   4.211   2.337  14.405  0.4622  0.3035 -0.1497
  481MPD2    C1 7205   4.078   2.346  14.428 -0.1240 -0.4058 -0.4800
  481MPD2    C2 7206   4.032   2.309  14.556  0.1052  0.0914 -0.4711
  481MPD2    C3 7207   4.119   2.254  14.645 -0.3454 -0.0541  0.0832
  481MPD2    C4 7208   4.251   2.225  14.610  0.1250 -0.0300 -0.6807
  481MPD2    C5 7209   4.298   2.278  14.491 -0.2720 -0.4537  0.2369
  481MPD2     H 7210   3.927   2.329  14.570  0.7992  2.9001  0.7880
  481MPD2    H1 7211   4.329   2.178  14.669 -1.2261 -0.3438  0.8451
  481MPD2    H2 7212   4.249   2.362  14.307 -0.4226 -0.0823 -0.5904
  481MPD2    H3 7213   4.399   2.264  14.454 -1.4948 -0.9940 -2.9270
  481MPD2     N 7214   4.075   2.199  14.770 -0.1473  0.5992  0.1375
  481MPD2    H5 7215   4.151   2.156  14.822 -1.4595  1.0532  2.4536
  481MPD2    N1 7216   3.993   2.395  14.325  0.2286 -0.5003 -0.2442
  481MPD2    H7 7217   4.041   2.421  14.239  0.9113  0.0502  0.3042
  482TMC3    C1 7218   3.791   2.461  14.213 -0.4067  0.3854 -0.2904
  482TMC3    C2 7219   3.662   2.426  14.187 -0.6286 -0.1843  0.0302
  482TMC3    C3 7220   3.621   2.450  14.061 -0.6203  0.5275  0.3945
  482TMC3    C4 7221   3.870   2.537  14.132 -0.0282  0.5095  0.4674
  482TMC3    C5 7222   3.820   2.556  14.003  0.7690  0.5550  0.2916
  482TMC3    C6 7223   3.690   2.512  13.965 -0.2885 -1.0069  0.2957
  482TMC3     C 7224   3.855   2.398  14.332 -0.0131 -0.3733 -0.5129
  482TMC3     O 7225   3.778   2.350  14.414 -0.9927 -0.0614 -0.2636
  482TMC3     H 7226   3.609   2.367  14.261 -0.5037  1.3977  1.3871
  482TMC3    H1 7227   3.961   2.583  14.167  0.3063  0.3602 -0.2007
  482TMC3    H2 7228   3.647   2.526  13.866 -0.1299  1.1483  0.5196
  482TMC3    C7 7229   3.923   2.558  13.904 -0.0359 -0.1415  0.3082
  482TMC3    C8 7230   3.526   2.348  14.007 -0.4890 -0.0495  0.5505
  482TMC3    O1 7231   4.031   2.515  13.946  0.3267  0.1310  0.3527
  482TMC3    O2 7232   3.523   2.242  14.061  0.3594  0.4401  0.6059
  483TMC3    C1 7233   2.997   1.051   1.753 -0.0961 -0.3509  0.4672
  483TMC3    C2 7234   3.058   1.164   1.703 -1.0488 -0.5927  0.1177
  483TMC3    C3 7235   3.149   1.156   1.601 -0.0295  0.5876 -0.6707
  483TMC3    C4 7236   3.040   0.935   1.692  0.5542 -0.1223 -0.2985
  483TMC3    C5 7237   3.136   0.930   1.593 -0.0957  0.5918 -0.5342
  483TMC3    C6 7238   3.191   1.045   1.538  0.3555 -0.0882 -0.0631
  483TMC3     C 7239   2.856   1.061   1.798 -0.4985 -0.3725  0.4377
  483TMC3     O 7240   2.822   1.168   1.841 -0.2969  0.1592  0.4735
  483TMC3     H 7241   3.038   1.261   1.746  0.6477  0.1236 -0.7073
  483TMC3    H1 7242   3.007   0.840   1.733 -0.8702  0.0690 -1.0054
  483TMC3    H2 7243   3.259   1.042   1.454 -0.7157  1.9430 -1.0081
  483TMC3    C7 7244   3.134   0.805   1.515  0.0656 -0.1326  0.7267
  483TMC3    C8 7245   3.180   1.287   1.539 -0.0069 -0.7239 -0.2826
  483TMC3    O1 7246   3.053   0.724   1.547  0.1823 -0.0169  0.0784
  483TMC3    O2 7247   3.223   1.281   1.429 -0.2010 -0.0894  0.0139
  484MPD2     C 7248   4.446   4.495  12.563 -0.2893  0.1547 -0.5149
  484MPD2    C1 7249   4.440   4.395  12.654 -0.3702  0.8542  0.6264
  484MPD2    C2 7250   4.548   4.319  12.689 -0.3035 -0.3972  0.1512
  484MPD2    C3 7251   4.666   4.341  12.624 -0.3709 -0.4916 -0.0082
  484MPD2    C4 7252   4.670   4.432  12.517  0.4460  0.0062 -0.2022
  484MPD2    C5 7253   4.556   4.509  12.489  0.6377 -0.9294 -0.6302
  484MPD2     H 7254   4.543   4.244  12.767  0.7118 -0.6969 -0.0613
  484MPD2    H1 7255   0.023   4.460  12.462  0.7387 -0.2858  0.1271
  484MPD2    H2 7256   4.360   4.554  12.533 -2.7724 -3.5370 -0.7185
  484MPD2    H3 7257   4.555   4.581  12.408  0.8501 -0.2454 -0.0184
  484MPD2     N 7258   0.053   4.304  12.680 -0.1311  0.5568 -0.1599
  484MPD2    H5 7259   0.138   4.333  12.633  0.1142  1.7474  1.0086
  484MPD2    N1 7260   4.315   4.395  12.715 -0.0427 -0.0668  0.4495
  484MPD2    H7 7261   4.250   4.459  12.671  2.3934  1.8475 -0.3157
  485TMC3    C1 7262   0.210   4.256  12.842 -0.6207 -0.0721 -1.3997
  485TMC3    C2 7263   0.285   4.148  12.854 -0.6247  0.7703  0.0327
  485TMC3    C3 7264   0.424   4.162  12.843 -0.0487 -0.3934  0.2462
  485TMC3    C4 7265   0.254   4.380  12.810 -0.3784  0.4316 -0.3655
  485TMC3    C5 7266   0.391   4.390  12.789 -0.1199  0.7646 -0.1246
  485TMC3    C6 7267   0.479   4.288  12.820  0.0938  0.1726  0.2517
  485TMC3     C 7268   0.080   4.227  12.794 -0.0048  0.7560  0.3728
  485TMC3     O 7269   0.004   4.161  12.862 -0.5042  0.1031 -0.0327
  485TMC3     H 7270   0.235   4.055  12.880 -0.7030  1.2997  1.7907
  485TMC3    H1 7271   0.180   4.459  12.815  0.0624  0.9967 -2.6568
  485TMC3    H2 7272   0.584   4.290  12.796 -0.1768  0.3780 -0.9181
  485TMC3    C7 7273   0.427   4.478  12.683 -0.3082 -0.3536 -0.4307
  485TMC3    C8 7274   0.480   4.067  12.745  0.0084  0.5036 -0.2613
  485TMC3    O1 7275   0.541   4.482  12.649 -0.1072 -0.3413 -0.3775
  485TMC3    O2 7276   0.402   4.012  12.674 -0.1031  0.0718 -0.2070
  486MPD2     C 7277   2.039   3.428  12.763 -0.2732 -0.3159  0.0243
  486MPD2    C1 7278   1.993   3.416  12.633  0.1804  0.1379  0.3185
  486MPD2    C2 7279   1.998   3.531  12.558 -0.1104 -0.4272  0.7290
  486MPD2    C3 7280   2.027   3.651  12.619  0.0214  0.5931 -0.2670
  486MPD2    C4 7281   2.080   3.661  12.743 -0.0760 -0.0268 -0.4284
  486MPD2    C5 7282   2.083   3.547  12.820  0.2288  0.1318  0.0701
  486MPD2     H 7283   1.986   3.530  12.450  1.3847 -1.2962  0.5698
  486MPD2    H1 7284   2.123   3.749  12.790  0.5564  0.4120 -1.8027
  486MPD2    H2 7285   2.049   3.351  12.839 -2.7110  0.1424  0.8046
  486MPD2    H3 7286   2.126   3.543  12.919 -1.8753 -1.0828  0.9308
  486MPD2     N 7287   2.023   3.770  12.538  0.0963 -0.4706  0.1772
  486MPD2    H5 7288   2.008   3.757  12.439 -0.4774  1.2158  0.0352
  486MPD2    N1 7289   1.961   3.291  12.585 -0.0043 -0.0061 -0.4152
  486MPD2    H7 7290   1.965   3.219  12.657 -0.5766  0.2872 -0.0863
  487TMC3    C1 7291   1.914   3.112  12.446 -0.4337 -0.5854  0.4532
  487TMC3    C2 7292   1.793   3.060  12.408  0.4749 -0.1315 -0.6338
  487TMC3    C3 7293   1.773   2.927  12.413 -0.3624 -0.4332  0.3407
  487TMC3    C4 7294   2.003   3.042  12.519  0.3669  0.0368 -0.7826
  487TMC3    C5 7295   1.977   2.910  12.534  0.4154 -0.3801  0.3392
  487TMC3    C6 7296   1.863   2.847  12.480 -0.1995  0.1028  0.0648
  487TMC3     C 7297   1.922   3.257  12.460 -0.1748 -0.5789  0.3405
  487TMC3     O 7298   1.899   3.328  12.364  0.2158 -0.6007  0.2359
  487TMC3     H 7299   1.717   3.123  12.363  1.9431  1.2433 -1.1940
  487TMC3    H1 7300   2.100   3.081  12.549 -1.6965  1.4806  3.9778
  487TMC3    H2 7301   1.839   2.744  12.501  0.3681 -0.0936 -0.2429
  487TMC3    C7 7302   2.051   2.838  12.636 -0.9849 -0.6379 -0.1782
  487TMC3    C8 7303   1.633   2.884  12.429 -0.2621 -0.0755  0.3372
  487TMC3    O1 7304   2.164   2.875  12.662 -0.5558 -0.1041 -0.1610
  487TMC3    O2 7305   1.549   2.969  12.448 -0.8082 -0.0305 -0.8113
  488MPD2     C 7306   1.790   4.687  16.548 -0.9794 -0.5173 -0.2559
  488MPD2    C1 7307   1.928   4.709  16.569 -0.8684  0.5378 -0.4243
  488MPD2    C2 7308   1.992   4.644  16.672 -0.0235  0.0998  0.0534
  488MPD2    C3 7309   1.913   4.581  16.760 -0.1369  0.3829 -0.0961
  488MPD2    C4 7310   1.780   4.568  16.748  0.5352  0.7771 -0.3353
  488MPD2    C5 7311   1.721   4.621  16.642 -0.5075 -0.5141 -0.1770
  488MPD2     H 7312   2.100   4.652  16.685 -0.1917  4.0469 -0.8768
  488MPD2    H1 7313   1.729   4.524  16.833  1.1796 -0.0266 -0.3706
  488MPD2    H2 7314   1.743   0.005  16.467 -1.6326  0.6942  0.9496
  488MPD2    H3 7315   1.613   4.614  16.628 -0.5208 -1.0877  0.1950
  488MPD2     N 7316   1.982   4.534  16.875 -0.4448 -0.0915 -0.8681
  488MPD2    H5 7317   2.083   4.540  16.863 -0.6072  2.9402 -0.5994
  488MPD2    N1 7318   2.010   0.053  16.482  0.6339  0.0947  0.5125
  488MPD2    H7 7319   2.087   0.100  16.530 -0.3387  1.0410  1.1673
  489TMC3    C1 7320   2.048   4.463  17.092 -0.5532  0.1435  0.2395
  489TMC3    C2 7321   2.136   4.566  17.110  0.6962  0.4652 -0.0223
  489TMC3    C3 7322   2.198   4.580  17.236  0.5841  0.4109 -0.0064
  489TMC3    C4 7323   2.015   4.376  17.196  0.2749  0.0992 -0.3489
  489TMC3    C5 7324   2.091   4.376  17.310 -0.3285 -0.3486  0.2776
  489TMC3    C6 7325   2.174   4.489  17.340 -0.0535  0.2401  0.3767
  489TMC3     C 7326   1.939   4.476  16.992  0.0816 -0.5163 -0.1148
  489TMC3     O 7327   1.828   4.457  17.033  0.1457 -0.1550  0.5491
  489TMC3     H 7328   2.143   4.641  17.031  1.1737 -0.7133 -1.1092
  489TMC3    H1 7329   1.935   4.305  17.178  0.2805 -0.6146  2.3757
  489TMC3    H2 7330   2.234   4.496  17.430 -1.0765 -0.8585  1.1457
  489TMC3    C7 7331   2.114   4.257  17.387 -0.0675 -0.5750  0.6088
  489TMC3    C8 7332   2.273   4.696  17.246 -0.2421 -0.6490 -0.2639
  489TMC3    O1 7333   2.172   4.278  17.494 -0.2471 -0.1600  0.2622
  489TMC3    O2 7334   2.292   0.022  17.145  0.0985  0.1230  0.7343
  490MPD2     C 7335   2.858   4.231  17.040 -0.2341  0.4258 -0.1365
  490MPD2    C1 7336   2.859   4.208  17.173 -0.0939  0.2696  0.4537
  490MPD2    C2 7337   2.918   4.294  17.259 -0.3657  0.4390 -0.7403
  490MPD2    C3 7338   3.001   4.393  17.209 -0.6623 -0.0189  0.0667
  490MPD2    C4 7339   3.006   4.422  17.073  0.6140  0.5324 -0.5166
  490MPD2    C5 7340   2.929   4.342  16.991  0.1772  0.2082  0.4861
  490MPD2     H 7341   2.907   4.282  17.366  0.7797 -0.8501 -0.7741
  490MPD2    H1 7342   3.059   4.505  17.025 -0.6297  2.7251  1.9268
  490MPD2    H2 7343   2.801   4.176  16.966 -0.8545 -1.1387  1.5198
  490MPD2    H3 7344   2.930   4.365  16.885 -0.5854  1.0382  0.6643
  490MPD2     N 7345   3.093   4.465  17.282  0.0534 -0.0709 -0.3686
  490MPD2    H5 7346   3.142   4.536  17.228  1.0238  2.2505  3.5951
  490MPD2    N1 7347   2.815   4.084  17.223 -0.5957  0.1130 -0.1867
  490MPD2    H7 7348   2.850   4.059  17.315  1.6888 -0.9075 -1.3239
  491TMC3    C1 7349   2.722   3.876  17.244  0.0749  0.3633 -0.2310
  491TMC3    C2 7350   2.751   3.890  17.382 -0.5415  0.3032  0.2052
  491TMC3    C3 7351   2.739   3.780  17.459 -0.3965  0.9746 -0.5041
  491TMC3    C4 7352   2.680   3.750  17.192  0.0156 -1.0693  0.3513
  491TMC3    C5 7353   2.678   3.647  17.281 -0.6915 -0.7292 -0.4169
  491TMC3    C6 7354   2.712   3.652  17.414 -0.0849 -0.5050 -0.1645
  491TMC3     C 7355   2.747   3.988  17.153 -0.1450 -0.5487  0.2574
  491TMC3     O 7356   2.726   3.974  17.036 -0.3350 -0.2688  0.3668
  491TMC3     H 7357   2.767   3.985  17.432 -1.2799 -0.2844  1.5568
  491TMC3    H1 7358   2.666   3.734  17.086 -0.7234  0.5542  0.2074
  491TMC3    H2 7359   2.708   3.574  17.489 -2.0780 -0.1906  0.0392
  491TMC3    C7 7360   2.625   3.521  17.229 -0.4781  0.1903  1.2667
  491TMC3    C8 7361   2.694   3.799  17.599  0.2330 -0.0085 -0.3859
  491TMC3    O1 7362   2.646   3.497  17.110 -0.1848 -0.0342  0.1135
  491TMC3    O2 7363   2.617   3.887  17.621 -0.2161  0.1910 -0.3654
  492MPD2     C 7364   3.436   4.737  11.364 -0.5268 -0.4167  0.2972
  492MPD2    C1 7365   3.315   4.695  11.303 -0.1671  0.1106 -0.0332
  492MPD2    C2 7366   3.232   4.614  11.379 -0.5129  0.0613 -0.1745
  492MPD2    C3 7367   3.263   4.575  11.510 -0.2155 -0.5656 -0.0276
  492MPD2    C4 7368   3.382   4.614  11.557 -0.8271 -0.5299  0.0925
  492MPD2    C5 7369   3.459   4.700  11.487 -0.3407  0.3275 -0.0518
  492MPD2     H 7370   3.140   4.574  11.338  0.0562 -1.0420 -0.3548
  492MPD2    H1 7371   3.418   4.590  11.657  0.2801 -1.6520 -0.5600
  492MPD2    H2 7372   3.517   0.044  11.306 -1.7257  0.4486 -0.7077
  492MPD2    H3 7373   3.553   4.726  11.533  0.3559 -1.1230 -0.6546
  492MPD2     N 7374   3.186   4.489  11.597 -0.2514 -0.0064 -0.1663
  492MPD2    H5 7375   3.216   4.486  11.694  0.5691 -0.0592 -0.4171
  492MPD2    N1 7376   3.275   4.727  11.175  0.0733  0.6091 -0.1220
  492MPD2    H7 7377   3.186   4.690  11.142  0.1965  0.8665 -0.7330
  493TMC3    C1 7378   3.274   0.094  10.978  0.2162 -0.7460  0.0991
  493TMC3    C2 7379   3.295   0.211  10.914 -0.5784  0.3573  0.1861
  493TMC3    C3 7380   3.250   0.219  10.787  0.2814  0.5168 -0.5836
  493TMC3    C4 7381   3.211   4.730  10.924  0.3606  0.7810  0.1403
  493TMC3    C5 7382   3.137   0.024  10.809 -0.4525 -0.5317 -0.4412
  493TMC3    C6 7383   3.158   0.139  10.737 -0.2562  0.1952  0.2976
  493TMC3     C 7384   3.348   0.074  11.095  0.7211 -0.4531  0.0076
  493TMC3     O 7385   3.455   0.134  11.112  0.3538 -1.0515  0.3287
  493TMC3     H 7386   3.349   0.291  10.962  0.0913  0.6172 -1.0137
  493TMC3    H1 7387   3.222   4.633  10.971 -1.6950  0.5556  0.1383
  493TMC3    H2 7388   3.122   0.142  10.635 -0.5215 -2.0141  0.3191
  493TMC3    C7 7389   3.032   4.678  10.755 -0.8568 -0.1928 -0.2238
  493TMC3    C8 7390   3.256   0.355  10.741 -0.2663  0.1930  0.3694
  493TMC3    O1 7391   2.970   4.726  10.660  0.0471  0.1175  0.4754
  493TMC3    O2 7392   3.180   0.394  10.656 -0.0048  0.4101 -0.3150
  494TMC3    C1 7393   3.675   1.201   0.794 -0.4697 -0.1189  0.7477
  494TMC3    C2 7394   3.636   1.078   0.762 -0.2397 -0.3940 -0.2335
  494TMC3    C3 7395   3.641   1.045   0.627 -0.0534  0.4427 -0.2382
  494TMC3    C4 7396   3.713   1.291   0.701 -0.1325 -0.2340  1.0475
  494TMC3    C5 7397   3.713   1.252   0.571 -0.3856 -0.4817  0.0071
  494TMC3    C6 7398   3.673   1.129   0.529 -0.6921  0.8387 -0.5615
  494TMC3     C 7399   3.727   1.215   0.936 -1.0441 -0.2089 -0.6347
  494TMC3     O 7400   3.721   1.115   1.006 -0.1200 -0.4858 -0.2581
  494TMC3     H 7401   3.609   1.002   0.835  0.9265 -0.1574  0.4316
  494TMC3    H1 7402   3.742   1.392   0.728  1.2315  0.3017 -2.5133
  494TMC3    H2 7403   3.680   1.095   0.426 -0.3543  2.5463 -1.1012
  494TMC3    C7 7404   3.756   1.339   0.460 -0.0380 -0.5836 -0.1345
  494TMC3    C8 7405   3.693   0.909   0.605  0.5530 -0.7413 -0.7928
  494TMC3    O1 7406   3.710   1.301   0.352 -0.3019  0.3290  0.2735
  494TMC3    O2 7407   3.779   0.880   0.691  0.2182  0.1684 -0.0978
  495TMC3    C1 7408   2.317   3.477  14.794  0.7309 -0.3314  0.4538
  495TMC3    C2 7409   2.244   3.390  14.711  0.0881 -0.7541 -0.3784
  495TMC3    C3 7410   2.197   3.274  14.768 -0.5737  0.3789  0.4835
  495TMC3    C4 7411   2.348   3.437  14.925 -0.5190  0.2437 -0.0044
  495TMC3    C5 7412   2.301   3.315  14.971  0.4468  0.4723 -0.3517
  495TMC3    C6 7413   2.231   3.230  14.890 -0.3741 -0.2846 -0.4616
  495TMC3     C 7414   2.414   3.566  14.736  0.0036  0.2769 -0.7635
  495TMC3     O 7415   2.469   3.645  14.814 -0.5923 -0.5902  0.0695
  495TMC3     H 7416   2.205   3.421  14.614  0.1426  0.2764 -0.0689
  495TMC3    H1 7417   2.407   3.505  14.986 -2.3356  1.2734  0.6230
  495TMC3    H2 7418   2.198   3.133  14.925  0.1795 -0.1106  0.5332
  495TMC3    C7 7419   2.326   3.277  15.106  0.0045 -0.1633  0.5071
  495TMC3    C8 7420   2.130   3.181  14.673 -0.4625  0.2658 -0.4302
  495TMC3    O1 7421   2.415   3.335  15.165  0.4439  0.3079 -0.2622
  495TMC3    O2 7422   2.059   3.241  14.597 -0.2819  0.9804  0.9679
  496MPD2     C 7423   0.149   3.359  15.610  0.6037  0.1650 -0.3451
  496MPD2    C1 7424   0.084   3.309  15.506  0.2920  0.0209 -0.2280
  496MPD2    C2 7425   4.735   3.204  15.532  0.4001 -0.4491 -0.1808
  496MPD2    C3 7426   4.721   3.158  15.665 -0.3573  0.0983 -0.7625
  496MPD2    C4 7427   0.041   3.218  15.774  0.5448  0.6477  0.2580
  496MPD2    C5 7428   0.129   3.312  15.738 -1.2114  0.3872 -0.1478
  496MPD2     H 7429   4.663   3.163  15.462 -0.3286  1.7075 -0.6885
  496MPD2    H1 7430   0.027   3.177  15.873 -3.7749 -0.9697 -0.9879
  496MPD2    H2 7431   0.219   3.442  15.602  2.1100 -0.8941  1.8607
  496MPD2    H3 7432   0.183   3.358  15.820 -2.8888  1.1842  0.5071
  496MPD2     N 7433   4.625   3.057  15.704  0.5371 -0.2378 -0.4735
  496MPD2    H5 7434   4.620   3.035  15.803 -1.2442  1.5615 -0.1735
  496MPD2    N1 7435   0.100   3.371  15.380 -0.1601 -0.2305  0.1087
  496MPD2    H7 7436   0.176   3.438  15.372  0.7501 -1.2503  0.0794
  497TMC3    C1 7437   4.418   2.930  15.687  0.2745 -0.0231 -0.1593
  497TMC3    C2 7438   4.317   2.874  15.616  0.5128  0.2109  0.0047
  497TMC3    C3 7439   4.236   2.786  15.681  0.4769  0.1640  1.4448
  497TMC3    C4 7440   4.432   2.911  15.822  0.5332  0.1625 -0.1690
  497TMC3    C5 7441   4.341   2.825  15.881  0.0227  0.0441  0.1754
  497TMC3    C6 7442   4.242   2.768  15.814  0.2000  0.0261  0.2764
  497TMC3     C 7443   4.526   2.996  15.619  0.7547  0.5192 -0.6330
  497TMC3     O 7444   4.524   2.994  15.498 -0.0990  0.1008  0.1443
  497TMC3     H 7445   4.303   2.898  15.511 -0.1040 -3.1702 -0.6698
  497TMC3    H1 7446   4.516   2.946  15.882  1.3157 -1.2417 -0.4491
  497TMC3    H2 7447   4.169   2.704  15.860 -1.7745  1.5788 -0.6916
  497TMC3    C7 7448   4.334   2.814  16.023  0.0318  0.4053 -0.3807
  497TMC3    C8 7449   4.100   2.774  15.628 -0.4286  0.1937 -0.9684
  497TMC3    O1 7450   4.265   2.715  16.066 -0.3608  0.6846 -0.2266
  497TMC3    O2 7451   4.009   2.759  15.712 -0.2171 -0.3160 -1.0965
  498MPD2     C 7452   0.401   4.590   9.856 -0.2154  0.3262 -0.5668
  498MPD2    C1 7453   0.465   4.468   9.890  0.1463 -0.1038 -0.1988
  498MPD2    C2 7454   0.398   4.348   9.899  0.1334  0.6261  0.2819
  498MPD2    C3 7455   0.255   4.344   9.906  0.0079 -0.0683 -0.1011
  498MPD2    C4 7456   0.191   4.467   9.888  0.2696  0.2869 -0.1185
  498MPD2    C5 7457   0.264   4.583   9.857 -0.1769 -0.5855 -0.3134
  498MPD2     H 7458   0.454   4.256   9.913  2.5524  1.6738 -2.6058
  498MPD2    H1 7459   0.084   4.475   9.901  0.9009  3.2016  3.4363
  498MPD2    H2 7460   0.455   4.683   9.840 -2.1691  1.3489 -1.1792
  498MPD2    H3 7461   0.210   4.674   9.834 -1.4480 -1.4519 -0.8158
  498MPD2     N 7462   0.196   4.218   9.926  0.0150  0.8292  0.1036
  498MPD2    H5 7463   0.256   4.137   9.933 -2.2712 -1.0599 -1.8968
  498MPD2    N1 7464   0.605   4.466   9.895  0.7707  0.0512 -0.2539
  498MPD2    H7 7465   0.646   4.373   9.902  0.2199 -0.1078  0.8265
  499TMC3    C1 7466   0.827   4.532   9.912  0.1175  0.2020 -0.2733
  499TMC3    C2 7467   0.857   4.396   9.917 -0.4252  0.2897 -0.6916
  499TMC3    C3 7468   0.992   4.362   9.932  0.2687 -0.0339  0.4573
  499TMC3    C4 7469   0.924   4.621   9.913  0.0922  1.1859 -0.1106
  499TMC3    C5 7470   1.054   4.582   9.941  0.1114  0.1363 -0.1617
  499TMC3    C6 7471   1.086   4.453   9.952  0.3637  0.7836 -0.5956
  499TMC3     C 7472   0.691   4.576   9.898  0.3779 -0.1706 -0.6733
  499TMC3     O 7473   0.661   4.694   9.914 -0.1940  0.4297  0.4113
  499TMC3     H 7474   0.777   4.325   9.934 -1.0252  1.0024 -0.5118
  499TMC3    H1 7475   0.900   4.727   9.907 -2.9215  0.5603  0.8542
  499TMC3    H2 7476   1.189   4.420   9.962  0.5821  1.7293  0.2920
  499TMC3    C7 7477   1.152   4.692   9.925 -0.2211 -0.7277  0.8656
  499TMC3    C8 7478   1.035   4.227   9.920 -0.5607  0.0878 -0.5216
  499TMC3    O1 7479   1.108   0.066   9.915  0.4405  0.0545 -0.2329
  499TMC3    O2 7480   1.154   4.206   9.934  0.5574 -0.0333 -0.6311
  500MPD2     C 7481   2.362   0.981  11.169 -0.0165 -1.1835 -0.1124
  500MPD2    C1 7482   2.423   1.047  11.060  0.2292 -0.2116 -0.4756
  500MPD2    C2 7483   2.338   1.088  10.953  0.5686 -0.5573  0.2742
  500MPD2    C3 7484   2.205   1.054  10.949 -0.4257  0.1073 -0.0651
  500MPD2    C4 7485   2.155   0.986  11.057  0.3834  0.5612 -0.8854
  500MPD2    C5 7486   2.223   0.968  11.172  0.0780 -0.5518  0.5040
  500MPD2     H 7487   2.375   1.147  10.870  0.4208  0.7659  1.1529
  500MPD2    H1 7488   2.047   0.978  11.052  0.7120 -3.1830 -1.4331
  500MPD2    H2 7489   2.415   0.960  11.260 -0.1081  2.6170  0.8293
  500MPD2    H3 7490   2.178   0.926  11.262 -1.6531 -0.7343 -0.4535
  500MPD2     N 7491   2.119   1.089  10.844 -0.5034 -0.3889 -0.8159
  500MPD2    H5 7492   2.023   1.059  10.862 -0.9361  0.0259 -2.4082
  500MPD2    N1 7493   2.557   1.086  11.064  0.4242  0.0154 -0.1244
  500MPD2    H7 7494   2.596   1.129  10.981 -0.7152  0.2984 -0.5133
  501TMC3    C1 7495   2.786   1.113  11.130  0.6299  0.8158  0.1939
  501TMC3    C2 7496   2.799   1.192  11.028  0.2561 -0.6607 -0.6137
  501TMC3    C3 7497   2.926   1.230  10.997 -1.1824 -0.0911  0.2284
  501TMC3    C4 7498   2.890   1.076  11.206 -0.5450 -0.2302 -0.5821
  501TMC3    C5 7499   3.015   1.113  11.182  0.8878 -0.2914  0.0583
  501TMC3    C6 7500   3.030   1.193  11.072  0.3983 -1.4050 -0.2048
  501TMC3     C 7501   2.649   1.076  11.171  0.7093  0.0970  0.9369
  501TMC3     O 7502   2.639   1.030  11.284  0.5825 -0.2314 -0.0029
  501TMC3     H 7503   2.715   1.243  10.981 -0.9659 -2.0500  0.0466
  501TMC3    H1 7504   2.870   1.007  11.287 -0.0685  0.3388  0.0251
  501TMC3    H2 7505   3.129   1.224  11.038 -0.5648 -0.8797 -2.5504
  501TMC3    C7 7506   3.117   1.023  11.236 -0.2080  1.2635  0.0738
  501TMC3    C8 7507   2.952   1.334  10.899 -0.3573  0.4251 -0.1077
  501TMC3    O1 7508   3.104   0.991  11.353 -0.0646 -0.4615  0.3944
  501TMC3    O2 7509   3.059   1.390  10.904 -0.0488  0.2722  0.3991
  502TMC3    C1 7510   2.055   4.113  14.891 -0.1333  0.0014  0.1306
  502TMC3    C2 7511   2.021   4.241  14.853  0.1752  0.0837 -0.1035
  502TMC3    C3 7512   1.901   4.277  14.802 -0.6870 -0.4627 -0.6280
  502TMC3    C4 7513   1.956   4.021  14.900 -0.8333 -0.3992  0.3497
  502TMC3    C5 7514   1.835   4.046  14.838 -0.0169 -0.2563 -0.0477
  502TMC3    C6 7515   1.804   4.175  14.799  0.9189 -0.0049 -0.8656
  502TMC3     C 7516   2.151   4.111  15.003  0.0816  0.5405 -0.2242
  502TMC3     O 7517   2.251   4.181  14.996 -0.5460  0.1095 -0.2212
  502TMC3     H 7518   2.107   4.308  14.857 -0.4541  0.9227 -0.8601
  502TMC3    H1 7519   1.979   3.917  14.919 -1.0908 -0.6371 -0.6242
  502TMC3    H2 7520   1.714   4.189  14.741 -0.1191  1.1520  1.0081
  502TMC3    C7 7521   1.726   3.967  14.889 -0.7042 -0.3365  0.5708
  502TMC3    C8 7522   1.874   4.425  14.798  0.0281 -0.3614  0.0754
  502TMC3    O1 7523   1.744   3.846  14.910 -0.2971  0.0257  0.0137
  502TMC3    O2 7524   1.954   4.484  14.871 -0.0139  0.0760  0.1902
  503MPD2     C 7525   3.932   0.313  16.956 -0.1514  0.0451  0.8604
  503MPD2    C1 7526   3.963   0.335  17.089  0.1872 -0.1516 -0.6153
  503MPD2    C2 7527   4.030   0.233  17.159  0.3528  0.6236 -0.2681
  503MPD2    C3 7528   4.074   0.118  17.097  0.2747 -0.0592  0.4824
  503MPD2    C4 7529   4.049   0.103  16.963  0.4426 -0.3055  0.3668
  503MPD2    C5 7530   3.971   0.188  16.895  0.8257  1.0481  0.1838
  503MPD2     H 7531   4.047   0.242  17.265 -3.3281 -1.5907  0.5243
  503MPD2    H1 7532   4.071   0.010  16.913 -0.6678 -0.7638  0.7225
  503MPD2    H2 7533   3.875   0.388  16.902  0.0543 -2.0070 -2.1935
  503MPD2    H3 7534   3.935   0.163  16.796 -2.3115 -1.1598  1.9062
  503MPD2     N 7535   4.149   0.014  17.171 -0.0955  0.0574 -0.0243
  503MPD2    H5 7536   4.139   0.022  17.272  0.6545 -1.1823  0.1535
  503MPD2    N1 7537   3.956   0.458  17.158 -0.4062  0.1358  0.1530
  503MPD2    H7 7538   3.978   0.461  17.256 -1.4795 -2.9556  0.4924
  504TMC3    C1 7539   4.307   4.584  17.234 -0.3134 -0.4387  0.6629
  504TMC3    C2 7540   4.278   4.590  17.368  0.2783 -0.1680 -0.0449
  504TMC3    C3 7541   4.360   4.539  17.466 -0.0553  0.7651 -0.1664
  504TMC3    C4 7542   4.426   4.521  17.194  0.3776  0.4337  0.3674
  504TMC3    C5 7543   4.502   4.460  17.290  0.9263  0.2020  0.0828
  504TMC3    C6 7544   4.476   4.473  17.429 -0.6721 -0.2652  0.0953
  504TMC3     C 7545   4.234   4.653  17.125 -0.6914 -0.6977  0.1512
  504TMC3     O 7546   4.262   4.626  17.006  0.1528 -0.1115  0.1796
  504TMC3     H 7547   4.198   4.657  17.399 -0.2435  0.0217 -1.7797
  504TMC3    H1 7548   4.449   4.512  17.088 -1.6083 -2.0596  0.1241
  504TMC3    H2 7549   4.551   4.444  17.502 -0.8479  2.0399  1.1948
  504TMC3    C7 7550   4.625   4.406  17.247  0.2858 -0.0703  0.5714
  504TMC3    C8 7551   4.285   4.508  17.589  0.1196 -0.3071 -0.3650
  504TMC3    O1 7552   4.664   4.421  17.135  0.2336 -0.0107 -0.1222
  504TMC3    O2 7553   4.183   4.580  17.605  0.4794  0.0358  0.0712
  505MPD2     C 7554   4.208   3.732  10.720 -0.3630 -1.0787 -0.2200
  505MPD2    C1 7555   4.204   3.598  10.697  0.3378 -0.1153 -0.4869
  505MPD2    C2 7556   4.307   3.518  10.756 -0.4341  0.2188  0.7172
  505MPD2    C3 7557   4.410   3.580  10.824 -0.2440  1.2436  0.1450
  505MPD2    C4 7558   4.398   3.711  10.853 -0.3054 -0.4386 -0.4710
  505MPD2    C5 7559   4.295   3.787  10.801  0.0327 -0.3059 -0.5146
  505MPD2     H 7560   4.316   3.413  10.728  2.2362  0.6902 -0.2031
  505MPD2    H1 7561   4.471   3.764  10.912 -0.0286 -1.1327 -0.1836
  505MPD2    H2 7562   4.133   3.798  10.677 -0.9246 -1.0479  0.8219
  505MPD2    H3 7563   4.290   3.893  10.827 -0.2712 -0.3574 -0.3600
  505MPD2     N 7564   4.527   3.513  10.869  0.2407  0.3316  0.0307
  505MPD2    H5 7565   4.597   3.570  10.914 -0.9527  1.5152  0.4037
  505MPD2    N1 7566   4.095   3.539  10.629 -0.2077  0.0302 -0.5853
  505MPD2    H7 7567   4.027   3.600  10.585 -1.4435 -0.8020  0.1954
  506TMC3    C1 7568   3.973   3.365  10.518 -0.9356  0.7644 -0.1398
  506TMC3    C2 7569   3.973   3.436  10.403 -0.7196 -0.5977  0.3875
  506TMC3    C3 7570   3.950   3.365  10.293 -0.3869  0.2788  0.2723
  506TMC3    C4 7571   3.965   3.224  10.525  0.0528  0.1642 -0.2912
  506TMC3    C5 7572   3.963   3.153  10.406  0.1566 -0.5091 -0.1492
  506TMC3    C6 7573   3.955   3.225  10.290  0.5692  0.2859 -0.6261
  506TMC3     C 7574   4.083   3.402  10.607 -0.3947  0.1222 -0.4389
  506TMC3     O 7575   4.159   3.307  10.620  0.9914 -0.9708 -0.5332
  506TMC3     H 7576   4.003   3.539  10.386 -0.3507 -0.7746 -0.0596
  506TMC3    H1 7577   3.974   3.170  10.618  0.6794 -0.1723 -0.5540
  506TMC3    H2 7578   3.972   3.175  10.195 -0.8738 -0.3151 -0.5762
  506TMC3    C7 7579   4.064   3.057  10.396  0.6022  0.6649  0.1670
  506TMC3    C8 7580   3.968   3.424  10.162 -0.2602  0.0052 -0.0187
  506TMC3    O1 7581   4.051   2.968  10.310  0.4139 -0.1652  0.6375
  506TMC3    O2 7582   3.887   3.387  10.078  0.5518  0.2204 -0.3400
  507TMC3    C1 7583   0.777   0.132  15.451  0.3565 -0.0367  0.6321
  507TMC3    C2 7584   0.805   0.057  15.337 -0.3183 -0.6308 -0.1591
  507TMC3    C3 7585   0.809   0.128  15.218  0.6335  0.0671  0.1732
  507TMC3    C4 7586   0.783   0.267  15.449  0.0786  1.0915 -0.0762
  507TMC3    C5 7587   0.811   0.334  15.337  0.2493 -0.7610 -0.2362
  507TMC3    C6 7588   0.836   0.264  15.220  0.7807 -0.2970  0.3679
  507TMC3     C 7589   0.711   0.087  15.572  0.1737 -0.1467 -0.0633
  507TMC3     O 7590   0.628   0.155  15.631 -0.8154  0.2612 -0.0836
  507TMC3     H 7591   0.785   4.687  15.343 -0.4411 -0.5908  0.1280
  507TMC3    H1 7592   0.752   0.321  15.538 -2.6764 -0.5848 -0.0248
  507TMC3    H2 7593   0.856   0.317  15.128  2.7298 -0.5594  0.6330
  507TMC3    C7 7594   0.719   0.444  15.311 -0.2491 -0.1999 -0.4009
  507TMC3    C8 7595   0.718   0.086  15.120  0.5212 -0.4225 -0.2190
  507TMC3    O1 7596   0.674   0.437  15.199  0.2253  0.1146  0.4664
  507TMC3    O2 7597   0.694   4.705  15.101 -0.3737 -0.1072 -0.1094
  508MPD2     C 7598   1.165   2.002  16.316 -0.8700  0.0429 -0.4582
  508MPD2    C1 7599   1.103   2.120  16.271  0.3289 -0.0353 -0.1294
  508MPD2    C2 7600   1.064   2.134  16.141 -0.5640 -0.1467  0.3769
  508MPD2    C3 7601   1.102   2.043  16.049  0.4129 -0.5654 -0.0391
  508MPD2    C4 7602   1.159   1.927  16.095 -0.4718 -0.0021  0.1005
  508MPD2    C5 7603   1.185   1.899  16.228 -0.2538  0.0024 -0.1465
  508MPD2     H 7604   1.008   2.222  16.109  0.1584  0.9627  2.1200
  508MPD2    H1 7605   1.191   1.842  16.035  1.4756  0.5359  0.3857
  508MPD2    H2 7606   1.189   1.976  16.418 -1.5481 -0.1022 -0.3404
  508MPD2    H3 7607   1.220   1.800  16.254 -0.3807  0.0100  0.0525
  508MPD2     N 7608   1.067   2.064  15.916 -0.7159  0.8394 -0.0409
  508MPD2    H5 7609   1.020   2.151  15.895 -0.7521  0.6708 -0.6552
  508MPD2    N1 7610   1.103   2.227  16.363 -0.2644  0.0107  0.1964
  508MPD2    H7 7611   1.131   2.201  16.457 -0.8987 -1.0481  0.0864
  509TMC3    C1 7612   1.031   2.247  15.591  0.3570 -0.1569 -0.2316
  509TMC3    C2 7613   1.152   2.255  15.532  0.9966  0.1311  0.1345
  509TMC3    C3 7614   1.230   2.151  15.530  0.0672  0.6042 -0.0449
  509TMC3    C4 7615   1.000   2.142  15.671  0.5462  0.1550 -0.3896
  509TMC3    C5 7616   1.089   2.036  15.676 -0.5537 -0.1369 -0.3455
  509TMC3    C6 7617   1.202   2.044  15.608  0.1064  0.2906  0.2795
  509TMC3     C 7618   0.926   2.342  15.539 -0.7660  1.3631  0.2522
  509TMC3     O 7619   0.809   2.325  15.574  0.0573 -0.2972 -0.0968
  509TMC3     H 7620   1.181   2.340  15.473  1.8656 -1.0146 -1.0902
  509TMC3    H1 7621   0.904   2.135  15.722  1.6922 -1.5974  1.5342
  509TMC3    H2 7622   1.268   1.958  15.616  2.7855  2.2767 -0.1761
  509TMC3    C7 7623   1.109   1.982  15.815  0.4013 -0.1031  0.2111
  509TMC3    C8 7624   1.375   2.174  15.517 -0.1972  1.2379  0.0892
  509TMC3    O1 7625   1.162   1.874  15.814  0.2829 -0.2483 -0.0789
  509TMC3    O2 7626   1.455   2.084  15.492 -0.8553  0.5992 -0.2595
  510MPD2     C 7627   3.340   3.770  14.769  0.0990 -0.2180 -0.2303
  510MPD2    C1 7628   3.430   3.666  14.782 -0.9520 -0.3673 -0.4481
  510MPD2    C2 7629   3.529   3.661  14.682  0.4344 -0.9053 -0.5711
  510MPD2    C3 7630   3.536   3.747  14.582  0.1834 -0.6999 -0.0712
  510MPD2    C4 7631   3.437   3.848  14.578  0.1858 -0.2009  0.0896
  510MPD2    C5 7632   3.333   3.854  14.663  0.5341 -0.2688  0.2119
  510MPD2     H 7633   3.611   3.592  14.695  0.0865 -1.5178 -1.6239
  510MPD2    H1 7634   3.438   3.924  14.501  1.3967 -0.3609 -0.0521
  510MPD2    H2 7635   3.251   3.783  14.828  0.2621  1.2379 -0.2948
  510MPD2    H3 7636   3.261   3.935  14.657  0.5577 -0.2871 -0.3783
  510MPD2     N 7637   3.640   3.722  14.489 -0.0480  0.1385 -0.4598
  510MPD2    H5 7638   3.698   3.639  14.499  0.0852  0.4700  1.3973
  510MPD2    N1 7639   3.417   3.578  14.893  0.2990  0.7059 -0.2935
  510MPD2    H7 7640   3.361   3.614  14.969  1.9052  2.6095 -0.0085
  511TMC3    C1 7641   3.446   3.387  15.027 -0.3785  0.1723 -0.2932
  511TMC3    C2 7642   3.357   3.439  15.118 -0.7252  0.5672 -0.4546
  511TMC3    C3 7643   3.271   3.356  15.181 -0.2779 -0.2478 -0.1899
  511TMC3    C4 7644   3.462   3.250  15.009 -0.7829  0.5409  0.0385
  511TMC3    C5 7645   3.373   3.170  15.080  0.2448  0.3514 -0.3497
  511TMC3    C6 7646   3.279   3.221  15.170  0.0064  0.2742  0.1023
  511TMC3     C 7647   3.487   3.458  14.909 -0.7828  0.3048  0.2730
  511TMC3     O 7648   3.564   3.401  14.830 -0.3030  0.1927 -0.2322
  511TMC3     H 7649   3.371   3.542  15.149  1.9401  0.9800 -2.9199
  511TMC3    H1 7650   3.536   3.203  14.945 -2.0588  0.6319 -1.4940
  511TMC3    H2 7651   3.198   3.157  15.202  0.5526  0.7716  2.4956
  511TMC3    C7 7652   3.377   3.029  15.047 -0.4698 -0.5127  0.4541
  511TMC3    C8 7653   3.193   3.424  15.285 -0.4262 -0.0582  0.2326
  511TMC3    O1 7654   3.444   3.008  14.942 -0.5312  0.3516  0.3560
  511TMC3    O2 7655   3.192   3.544  15.294  1.0157 -0.3229 -0.3294
  512TMC3    C1 7656   2.881   3.181  12.824  0.3459 -0.3447 -0.7852
  512TMC3    C2 7657   2.962   3.152  12.932  0.0619  0.0384  0.3699
  512TMC3    C3 7658   2.952   3.021  12.981  0.1383 -0.2679  0.3879
  512TMC3    C4 7659   2.794   3.084  12.772 -0.3913 -0.6673  0.0230
  512TMC3    C5 7660   2.793   2.955  12.826  0.0923  0.0732  0.6102
  512TMC3    C6 7661   2.870   2.922  12.933 -0.1322  0.1235 -0.0446
  512TMC3     C 7662   2.838   3.312  12.821 -0.1991 -0.1724 -0.5690
  512TMC3     O 7663   2.930   3.394  12.804  0.1475 -0.1244  0.0098
  512TMC3     H 7664   3.035   3.226  12.963 -0.9770  0.9884  0.5406
  512TMC3    H1 7665   2.737   3.118  12.686  0.9078  0.2280 -0.4825
  512TMC3    H2 7666   2.870   2.828  12.987 -0.0062  0.3208  0.3026
  512TMC3    C7 7667   2.676   2.879  12.800  0.0993  0.6316  0.2803
  512TMC3    C8 7668   3.003   2.997  13.116 -0.0661 -0.1608 -0.6205
  512TMC3    O1 7669   2.593   2.925  12.724 -0.6808 -0.0844 -0.0656
  512TMC3    O2 7670   2.987   2.883  13.160 -0.5630  0.1644  0.0028
  513MPD2     C 7671   4.256   2.865  13.250 -0.0019 -0.1230 -0.7130
  513MPD2    C1 7672   4.337   2.844  13.133 -0.2625  0.0257  0.0992
  513MPD2    C2 7673   4.438   2.928  13.111 -0.0262  0.3189  0.2452
  513MPD2    C3 7674   4.481   3.019  13.204  0.1771  0.6960  0.1544
  513MPD2    C4 7675   4.401   3.038  13.318  0.9690  0.3100 -0.0796
  513MPD2    C5 7676   4.290   2.963  13.343  0.0708  0.6825  0.2294
  513MPD2     H 7677   4.508   2.906  13.031 -1.5509  0.7679 -1.2212
  513MPD2    H1 7678   4.420   3.127  13.378  0.8972  0.0521  0.3308
  513MPD2    H2 7679   4.175   2.800  13.281 -0.6171  1.3884  0.8544
  513MPD2    H3 7680   4.220   2.983  13.423 -0.9069 -3.1849  0.3856
  513MPD2     N 7681   4.589   3.109  13.186 -0.5659 -0.7089 -0.3671
  513MPD2    H5 7682   4.618   3.159  13.269 -1.9249  0.2969 -0.5113
  513MPD2    N1 7683   4.305   2.752  13.026 -0.4489  1.7377  0.1666
  513MPD2    H7 7684   4.365   2.729  12.948 -1.5642 -0.7045  0.0264
  514TMC3    C1 7685   4.173   2.667  12.864  0.0351 -0.4699  0.5220
  514TMC3    C2 7686   4.101   2.751  12.779 -0.5991 -0.6145  0.5253
  514TMC3    C3 7687   4.160   2.798  12.669 -0.8703  0.0144  0.3712
  514TMC3    C4 7688   4.291   2.613  12.823  0.4892  0.0093 -0.0957
  514TMC3    C5 7689   4.337   2.657  12.704 -0.0089 -0.0887  0.2415
  514TMC3    C6 7690   4.279   2.751  12.627 -0.5277  0.5252 -0.0742
  514TMC3     C 7691   4.174   2.709  13.001 -0.3726  0.5281  0.2491
  514TMC3     O 7692   4.067   2.735  13.053 -0.0594 -0.8297  0.5026
  514TMC3     H 7693   4.014   2.802  12.820  0.3674  0.4345  1.2540
  514TMC3    H1 7694   4.341   2.539  12.884  0.3831 -0.8091 -1.0247
  514TMC3    H2 7695   4.312   2.785  12.529  2.1752 -0.3436  0.5244
  514TMC3    C7 7696   4.477   2.682  12.719 -0.0729 -0.0612  0.0505
  514TMC3    C8 7697   4.116   2.919  12.604  0.2126 -0.8723 -0.6690
  514TMC3    O1 7698   4.518   2.680  12.836  0.6683 -0.4057 -0.5059
  514TMC3    O2 7699   3.996   2.937  12.580 -0.1564 -0.2822 -0.1361
  515MPD2     C 7700   3.009   4.428  14.447 -0.0393 -0.6255  0.1838
  515MPD2    C1 7701   2.900   4.475  14.525  0.7247 -0.3414 -0.3711
  515MPD2    C2 7702   2.917   4.538  14.647  0.5939 -0.1995  0.1205
  515MPD2    C3 7703   3.046   4.550  14.695 -0.4145 -0.0562  0.2203
  515MPD2    C4 7704   3.155   4.500  14.621 -0.2756 -0.3909  0.5006
  515MPD2    C5 7705   3.133   4.430  14.503 -0.3045 -0.5146  1.1407
  515MPD2     H 7706   2.823   4.562  14.695 -0.4318  1.0487 -2.5159
  515MPD2    H1 7707   3.260   4.509  14.648 -0.0098 -1.2922 -0.2551
  515MPD2    H2 7708   3.013   4.382  14.349 -1.4128  0.0693 -0.2138
  515MPD2    H3 7709   3.227   4.401  14.458  0.8271  1.2702  2.3335
  515MPD2     N 7710   3.073   4.619  14.815 -0.1888  1.0708 -1.4757
  515MPD2    H5 7711   3.170   4.615  14.846 -1.8152 -0.4063  3.4116
  515MPD2    N1 7712   2.767   4.463  14.474  0.1022 -0.0589  0.4053
  515MPD2    H7 7713   2.692   4.454  14.543  0.8944  0.2301  1.3025
  516TMC3    C1 7714   2.608   4.359  14.337  1.0657 -0.5166 -1.1306
  516TMC3    C2 7715   2.529   4.391  14.234 -0.5774 -0.0693  0.8174
  516TMC3    C3 7716   2.402   4.335  14.228  0.3238  0.4558  0.4866
  516TMC3    C4 7717   2.569   4.287  14.444 -0.5144  0.3403 -0.0516
  516TMC3    C5 7718   2.446   4.235  14.433 -0.0146 -0.3141  0.5912
  516TMC3    C6 7719   2.356   4.261  14.332  0.6331  0.0093  0.4581
  516TMC3     C 7720   2.743   4.413  14.345  0.0118 -0.1127 -0.4329
  516TMC3     O 7721   2.811   4.428  14.243  0.3156  0.4104 -0.1276
  516TMC3     H 7722   2.579   4.442  14.153 -1.2799 -1.6469 -0.6165
  516TMC3    H1 7723   2.640   4.240  14.511 -0.9157  0.9540  0.8092
  516TMC3    H2 7724   2.251   4.234  14.341  0.6907 -0.1170  0.7606
  516TMC3    C7 7725   2.409   4.140  14.536  0.4707  0.6090  0.4873
  516TMC3    C8 7726   2.301   4.419  14.176  0.4668 -0.3513 -0.4903
  516TMC3    O1 7727   2.484   4.141  14.635  0.7606  0.1332 -0.1331
  516TMC3    O2 7728   2.209   4.376  14.110 -0.0545 -0.0677 -0.0644
  517MPD2     C 7729   2.767   1.353   0.658  0.4203  0.9245 -0.5352
  517MPD2    C1 7730   2.872   1.393   0.575  0.0060  0.2267 -0.0562
  517MPD2    C2 7731   2.969   1.468   0.636 -0.1571  0.3463 -0.5893
  517MPD2    C3 7732   2.962   1.511   0.766  0.8125  0.1415 -0.8460
  517MPD2    C4 7733   2.861   1.471   0.841 -0.1741  0.8880 -0.6192
  517MPD2    C5 7734   2.765   1.395   0.786 -0.1760  0.1894  0.5013
  517MPD2     H 7735   3.055   1.496   0.577  0.9898 -0.0562  0.9194
  517MPD2    H1 7736   2.851   1.485   0.948  1.5242 -0.1777 -0.3151
  517MPD2    H2 7737   2.680   1.297   0.627 -0.4972  0.9087  2.0806
  517MPD2    H3 7738   2.687   1.350   0.847 -0.8966 -2.8218 -2.6313
  517MPD2     N 7739   3.059   1.591   0.837 -0.5624 -0.7499  0.0951
  517MPD2    H5 7740   3.053   1.580   0.938  0.3547 -0.0700  0.2246
  517MPD2    N1 7741   2.893   1.349   0.443 -0.1358  0.3959 -0.0018
  517MPD2    H7 7742   2.977   1.379   0.394 -0.2699  0.6629 -0.0721
  518TMC3    C1 7743   2.844   1.234   0.248  0.0807 -0.6343 -0.4113
  518TMC3    C2 7744   2.760   1.148   0.182  0.0031 -0.5685  0.2681
  518TMC3    C3 7745   2.796   1.105   0.061  0.0006  0.0264  1.0668
  518TMC3    C4 7746   2.956   1.288   0.188  0.3017 -0.2119  0.7029
  518TMC3    C5 7747   2.994   1.234   0.071  0.3877  0.8681 -0.5875
  518TMC3    C6 7748   2.911   1.148  17.745 -0.6558 -0.4510  0.3493
  518TMC3     C 7749   2.820   1.248   0.387  0.2282  0.0918 -0.6843
  518TMC3     O 7750   2.733   1.176   0.439  0.3751 -0.8602  0.2792
  518TMC3     H 7751   2.662   1.124   0.222 -0.5133 -2.5651 -2.1656
  518TMC3    H1 7752   3.025   1.357   0.236  1.1255 -1.9842  2.0347
  518TMC3    H2 7753   2.937   1.110  17.647  1.4415  0.6429  0.4944
  518TMC3    C7 7754   3.124   1.265   0.021 -0.0166 -0.3937 -0.4886
  518TMC3    C8 7755   2.731   0.987  17.740  0.6969 -0.4502 -0.1677
  518TMC3    O1 7756   3.180   1.366   0.062  0.6324 -0.5645  0.3034
  518TMC3    O2 7757   2.791   0.938  17.650 -0.5503 -0.1409  0.3315
  519MPD2     C 7758   3.751   4.305  14.281  0.0830 -0.9340  0.5505
  519MPD2    C1 7759   3.820   4.402  14.212  0.6156 -0.3371 -0.6346
  519MPD2    C2 7760   3.943   4.364  14.163 -0.2636 -0.1458  0.1798
  519MPD2    C3 7761   3.997   4.240  14.192  0.2937 -0.1005  0.2352
  519MPD2    C4 7762   3.924   4.148  14.267 -0.3401 -0.6517 -0.6324
  519MPD2    C5 7763   3.797   4.182  14.304 -0.6672 -0.4305 -0.1333
  519MPD2     H 7764   3.997   4.436  14.103  0.4035 -2.2962 -1.8064
  519MPD2    H1 7765   3.949   4.046  14.293 -0.3248 -0.0161  1.8445
  519MPD2    H2 7766   3.649   4.326  14.313  1.0959  2.3029  1.6970
  519MPD2    H3 7767   3.747   4.113  14.371 -1.3178 -1.2771 -1.4743
  519MPD2     N 7768   4.128   4.208  14.148  0.7147  0.2577  0.4107
  519MPD2    H5 7769   4.167   4.121  14.185 -0.5923  0.2168  1.6896
  519MPD2    N1 7770   3.753   4.521  14.184 -0.0603  0.1427 -0.1447
  519MPD2    H7 7771   3.653   4.527  14.199 -0.2330 -1.4274 -0.6791
  520TMC3    C1 7772   4.301   4.227  13.982  0.5304 -0.1116 -0.5670
  520TMC3    C2 7773   4.326   4.275  13.853 -0.3237 -0.2737  0.5101
  520TMC3    C3 7774   4.406   4.200  13.774  0.2385 -0.0826 -0.0021
  520TMC3    C4 7775   4.348   4.101  14.017 -0.0528  0.9203  0.1658
  520TMC3    C5 7776   4.421   4.027  13.928 -0.2764 -0.2524  0.1147
  520TMC3    C6 7777   4.444   4.074  13.804  0.6047 -0.7315  0.0180
  520TMC3     C 7778   4.184   4.283  14.048 -0.1329 -1.0889 -0.1207
  520TMC3     O 7779   4.133   4.360  13.965 -0.0935  0.7385  0.2016
  520TMC3     H 7780   4.297   4.375  13.825 -0.5866 -0.0733  1.5068
  520TMC3    H1 7781   4.349   4.068  14.120  2.5874 -2.6445 -1.0162
  520TMC3    H2 7782   4.485   4.016  13.721  0.0055 -1.2729  0.1023
  520TMC3    C7 7783   4.482   3.902  13.967  0.8369  0.3289  0.1670
  520TMC3    C8 7784   4.433   4.248  13.640 -0.3462  1.1014 -0.1148
  520TMC3    O1 7785   4.515   3.895  14.084 -0.6422  0.9963  0.1811
  520TMC3    O2 7786   4.516   4.189  13.577  0.4717  0.1694 -0.0006
  521MPD2     C 7787   0.008   3.048  17.554 -0.0020 -0.4345  0.6333
  521MPD2    C1 7788   0.059   2.937  17.501  0.8259 -0.3779 -0.1054
  521MPD2    C2 7789   0.170   2.949  17.417  0.3301 -0.0797  0.1768
  521MPD2    C3 7790   0.226   3.067  17.384  1.1834  1.1890  0.6464
  521MPD2    C4 7791   0.171   3.183  17.439  0.2730  0.4251 -0.2313
  521MPD2    C5 7792   0.062   3.169  17.531  0.5576  0.8076  0.5346
  521MPD2     H 7793   0.212   2.861  17.370 -1.5415 -0.1570 -1.3290
  521MPD2    H1 7794   0.214   3.282  17.428 -0.4525  0.9549  1.7280
  521MPD2    H2 7795   4.666   3.041  17.628 -0.1356  2.5510  0.7623
  521MPD2    H3 7796   0.037   3.261  17.583  2.2037  0.5575  1.7703
  521MPD2     N 7797   0.334   3.075  17.294 -0.5859 -0.5705  0.0625
  521MPD2    H5 7798   0.368   2.991  17.248  0.7709 -0.9075  1.6908
  521MPD2    N1 7799   0.007   2.815  17.552 -0.3591 -0.2780 -0.7853
  521MPD2    H7 7800   4.686   2.831  17.633 -0.1461 -0.9882 -0.4896
  522TMC3    C1 7801   0.503   3.155  17.171 -0.4006 -0.0431  0.6310
  522TMC3    C2 7802   0.593   3.065  17.226 -0.1815  0.0068 -0.3139
  522TMC3    C3 7803   0.716   3.048  17.174 -0.1513  1.0009  0.6559
  522TMC3    C4 7804   0.540   3.227  17.064  0.0555 -0.2319 -0.2734
  522TMC3    C5 7805   0.665   3.201  17.009 -0.4720 -1.2513 -0.2165
  522TMC3    C6 7806   0.757   3.113  17.060 -0.0497  0.0406 -0.3797
  522TMC3     C 7807   0.387   3.189  17.244  0.1803 -0.5364 -0.1374
  522TMC3     O 7808   0.344   3.304  17.236  0.3314  0.0552  0.2885
  522TMC3     H 7809   0.575   3.014  17.320 -1.0158 -0.1509 -0.5640
  522TMC3    H1 7810   0.475   3.295  17.011  0.1593 -0.3310 -0.5282
  522TMC3    H2 7811   0.850   3.093  17.008 -1.0153 -1.1868 -1.6457
  522TMC3    C7 7812   0.678   3.208  16.864 -0.5974 -0.1219 -0.1216
  522TMC3    C8 7813   0.797   2.939  17.227 -0.5588  0.7086 -0.1600
  522TMC3    O1 7814   0.785   3.240  16.816 -0.4427  0.2221 -0.3686
  522TMC3    O2 7815   0.799   2.903  17.345 -0.2578  0.6631  0.3023
  523MPD2     C 7816   3.669   2.751  10.305  0.4512 -0.1770 -0.0422
  523MPD2    C1 7817   3.532   2.728  10.303  0.4781 -0.1800 -0.4428
  523MPD2    C2 7818   3.448   2.837  10.257 -1.1471 -0.1655  1.1459
  523MPD2    C3 7819   3.511   2.955  10.222  0.1794 -0.4245 -0.0480
  523MPD2    C4 7820   3.647   2.966  10.211 -0.4085 -0.5321  0.5392
  523MPD2    C5 7821   3.721   2.865  10.260  0.5563 -0.1560 -0.7145
  523MPD2     H 7822   3.340   2.832  10.265 -1.4740  0.4992 -3.0052
  523MPD2    H1 7823   3.691   3.060  10.180  2.2332 -1.0613  2.6626
  523MPD2    H2 7824   3.742   2.672  10.317 -0.0500 -0.5077  0.7894
  523MPD2    H3 7825   3.829   2.873  10.252  0.6781 -1.9629 -1.0366
  523MPD2     N 7826   3.435   3.067  10.182  0.1911 -0.2945 -0.4478
  523MPD2    H5 7827   3.483   3.153  10.159 -1.0163  0.2342 -0.9863
  523MPD2    N1 7828   3.475   2.600  10.323  0.3956 -0.4853 -0.5008
  523MPD2    H7 7829   3.536   2.522  10.344  0.3812 -0.4263 -0.2393
  524TMC3    C1 7830   3.257   3.206  10.124  0.4696 -1.0571  0.4316
  524TMC3    C2 7831   3.340   3.271  10.038  0.3012 -0.1522 -0.3750
  524TMC3    C3 7832   3.287   3.382   9.982 -0.0262  0.2372 -0.2987
  524TMC3    C4 7833   3.125   3.249  10.144  0.6862 -0.0237 -0.4679
  524TMC3    C5 7834   3.096   3.376  10.113  0.0241  0.7728 -0.5474
  524TMC3    C6 7835   3.173   3.443  10.031 -0.3485 -0.0672 -0.2310
  524TMC3     C 7836   3.301   3.083  10.190  0.0922 -0.5484  0.0635
  524TMC3     O 7837   3.219   3.015  10.253 -0.3599  0.5070  0.0336
  524TMC3     H 7838   3.424   3.224   9.988  0.7611  2.7304 -2.3500
  524TMC3    H1 7839   3.057   3.189  10.203  2.0786  0.1311  1.2989
  524TMC3    H2 7840   3.146   3.544  10.000  0.8950  0.4671  0.4096
  524TMC3    C7 7841   2.954   3.406  10.133  0.4640  0.0422 -0.1456
  524TMC3    C8 7842   3.387   3.458   9.916  0.0106 -0.2929 -0.3256
  524TMC3    O1 7843   2.880   3.310  10.158 -0.0617  0.6663  0.8476
  524TMC3    O2 7844   3.501   3.422   9.938  0.5101  0.1424  0.5108
  525MPD2     C 7845   0.895   3.844  14.257 -0.4461 -0.4622 -0.6350
  525MPD2    C1 7846   0.988   3.862  14.351 -0.6056  0.2559 -0.5105
  525MPD2    C2 7847   1.062   3.974  14.339 -0.4197  0.2093 -0.2601
  525MPD2    C3 7848   1.047   4.062  14.232  0.0063  1.1618 -0.0461
  525MPD2    C4 7849   0.967   4.031  14.127  0.8779  0.8005 -0.1882
  525MPD2    C5 7850   0.890   3.925  14.148 -0.0521 -0.0448 -0.2195
  525MPD2     H 7851   1.127   3.999  14.422 -2.1756 -0.5706  1.3309
  525MPD2    H1 7852   0.959   4.104  14.047  1.0438 -0.0265 -0.9487
  525MPD2    H2 7853   0.834   3.755  14.245 -0.1116 -0.9586  1.4369
  525MPD2    H3 7854   0.810   3.908  14.078  1.8691 -0.2687 -2.3636
  525MPD2     N 7855   1.122   4.189  14.227 -0.1782 -0.2276  0.0421
  525MPD2    H5 7856   1.109   4.249  14.146 -0.3686  1.3669  1.2491
  525MPD2    N1 7857   1.004   3.766  14.454 -0.5030 -0.0002 -0.3732
  525MPD2    H7 7858   1.078   3.779  14.522  0.2425 -0.2964 -1.1273
  526TMC3    C1 7859   0.927   3.609  14.610 -0.2077  0.1922  0.6014
  526TMC3    C2 7860   0.836   3.608  14.709  0.8513  0.3992  0.3431
  526TMC3    C3 7861   0.877   3.555  14.829  0.2831 -0.3683  0.0525
  526TMC3    C4 7862   1.055   3.564  14.619  0.3567  0.8373 -0.8183
  526TMC3    C5 7863   1.087   3.500  14.736  0.1730 -0.0049 -0.2820
  526TMC3    C6 7864   0.998   3.492  14.838  0.0263 -0.3784 -0.4121
  526TMC3     C 7865   0.897   3.686  14.490 -0.5357 -0.1729  0.5055
  526TMC3     O 7866   0.777   3.706  14.484 -0.2514  0.0760 -0.0294
  526TMC3     H 7867   0.743   3.663  14.698  1.7732  1.7895 -0.6381
  526TMC3    H1 7868   1.120   3.556  14.533 -0.5809 -1.3254 -1.3440
  526TMC3    H2 7869   1.020   3.414  14.910  1.4345 -1.3065 -1.8301
  526TMC3    C7 7870   1.217   3.431  14.754 -0.7255  0.0967  0.3599
  526TMC3    C8 7871   0.819   3.589  14.962 -0.1160  0.3889 -0.4645
  526TMC3    O1 7872   1.250   3.393  14.869 -0.9280 -0.4573 -0.4447
  526TMC3    O2 7873   0.884   3.547  15.061 -0.1604  0.3699  0.0425
  527MPD2     C 7874   3.835   2.016   1.525 -0.2521 -0.3080 -0.4246
  527MPD2    C1 7875   3.872   1.883   1.519  0.3825 -0.0571  0.0670
  527MPD2    C2 7876   4.007   1.853   1.506  0.0407 -0.1063  0.1276
  527MPD2    C3 7877   4.100   1.955   1.481 -0.6252  0.0765 -0.2789
  527MPD2    C4 7878   4.063   2.086   1.501  0.2072  0.7289 -0.0934
  527MPD2    C5 7879   3.931   2.112   1.513  0.2354 -0.2540 -0.1405
  527MPD2     H 7880   4.038   1.752   1.483  2.2075  0.0359  2.4661
  527MPD2    H1 7881   4.131   2.170   1.494 -0.0525  0.7845 -2.1859
  527MPD2    H2 7882   3.735   2.052   1.543  0.2326  0.6098  0.4324
  527MPD2    H3 7883   3.891   2.213   1.513  1.4929  0.2313  1.9302
  527MPD2     N 7884   4.235   1.939   1.451  0.3288 -0.9310 -0.3290
  527MPD2    H5 7885   4.292   2.022   1.462 -0.0301 -0.6956 -0.2464
  527MPD2    N1 7886   3.772   1.791   1.509  0.4889  0.4179 -0.3352
  527MPD2    H7 7887   3.687   1.829   1.469 -1.0857 -0.3386  2.2653
  528TMC3    C1 7888   3.667   1.573   1.500 -0.3106  0.1935  0.8384
  528TMC3    C2 7889   3.612   1.604   1.373 -0.2962 -0.0827 -0.4877
  528TMC3    C3 7890   3.541   1.505   1.308 -0.2920 -0.6340 -0.4899
  528TMC3    C4 7891   3.662   1.445   1.554  0.6032  0.9614 -0.6677
  528TMC3    C5 7892   3.589   1.354   1.481  0.4013  0.1606 -0.7385
  528TMC3    C6 7893   3.532   1.381   1.363 -0.4310  0.9536 -0.2571
  528TMC3     C 7894   3.781   1.655   1.540  0.0607  0.1377  0.2592
  528TMC3     O 7895   3.880   1.594   1.579  0.0825  0.3146 -0.3502
  528TMC3     H 7896   3.643   1.691   1.317  1.0805 -0.3575 -0.1582
  528TMC3    H1 7897   3.712   1.429   1.649 -3.4602 -1.8153  1.0436
  528TMC3    H2 7898   3.469   1.304   1.321  0.5820 -1.2053  2.2340
  528TMC3    C7 7899   3.582   1.221   1.514  0.4704 -0.3334  0.4119
  528TMC3    C8 7900   3.526   1.525   1.164  0.9512  0.0791 -0.4082
  528TMC3    O1 7901   3.585   1.150   1.416  0.0525  0.1779  0.4993
  528TMC3    O2 7902   3.579   1.620   1.106  0.0542 -0.4918 -0.6926
  529MPD2     C 7903   1.227   0.489   1.484  1.1576  0.3750  0.2616
  529MPD2    C1 7904   1.283   0.407   1.390 -0.4388 -0.8204 -0.5696
  529MPD2    C2 7905   1.224   0.405   1.267 -0.4151  0.9189 -0.3220
  529MPD2    C3 7906   1.110   0.483   1.240 -0.3852  0.3713 -0.1803
  529MPD2    C4 7907   1.058   0.567   1.341 -0.7797  0.2204  0.7634
  529MPD2    C5 7908   1.126   0.577   1.457 -0.6655 -0.2420  0.2417
  529MPD2     H 7909   1.267   0.338   1.193 -1.2244 -0.2864  0.3027
  529MPD2    H1 7910   0.967   0.623   1.327 -0.6275 -0.0274 -1.1537
  529MPD2    H2 7911   1.269   0.497   1.584  0.7085 -0.3989  0.5043
  529MPD2    H3 7912   1.072   0.636   1.530  2.5784  1.8329  0.9702
  529MPD2     N 7913   1.043   0.489   1.113 -0.3924 -0.2001  0.3812
  529MPD2    H5 7914   0.972   0.562   1.107 -0.8976 -0.9677 -3.3753
  529MPD2    N1 7915   1.399   0.325   1.416  0.3617 -0.0241 -0.5702
  529MPD2    H7 7916   1.423   0.271   1.334 -0.8468 -0.7421 -0.4482
  530TMC3    C1 7917   1.596   0.241   1.529  0.3225 -0.3862  0.7009
  530TMC3    C2 7918   1.683   0.256   1.635  0.2826  0.2600  0.0904
  530TMC3    C3 7919   1.803   0.189   1.623  0.1215  0.1938 -0.0998
  530TMC3    C4 7920   1.614   0.156   1.428  0.0394 -0.6799  0.1217
  530TMC3    C5 7921   1.726   0.080   1.425  0.1128  0.2473 -0.2565
  530TMC3    C6 7922   1.825   0.099   1.520 -0.0920  0.9301  0.8334
  530TMC3     C 7923   1.475   0.326   1.530 -0.1086  0.2151  0.4254
  530TMC3     O 7924   1.463   0.383   1.640 -0.4865  0.5375 -0.1510
  530TMC3     H 7925   1.668   0.321   1.721  0.5832  2.4784 -1.5392
  530TMC3    H1 7926   1.550   0.142   1.342 -1.6760 -1.4595  1.5237
  530TMC3    H2 7927   1.919   0.049   1.499 -0.6956  1.0858 -2.2434
  530TMC3    C7 7928   1.737   4.696   1.347 -0.2262  0.4311 -0.7913
  530TMC3    C8 7929   1.872   0.178   1.746  0.3384  0.6696  0.0109
  530TMC3    O1 7930   1.843   4.680   1.291  0.2115 -0.1871  0.2229
  530TMC3    O2 7931   1.906   0.282   1.798 -0.3609 -0.0041  0.3006
  531MPD2     C 7932   0.180   2.902  12.585 -0.2430  0.1333 -0.3620
  531MPD2    C1 7933   0.092   2.917  12.694  0.0966 -0.2764 -0.4428
  531MPD2    C2 7934   4.716   2.845  12.700 -0.3104 -0.1325  0.4508
  531MPD2    C3 7935   4.678   2.762  12.600 -0.1718  0.3265  0.0596
  531MPD2    C4 7936   0.018   2.760  12.484  0.2786 -0.2918 -0.2658
  531MPD2    C5 7937   0.137   2.818  12.482  0.4567  0.0111 -0.4318
  531MPD2     H 7938   4.649   2.859  12.784 -0.2094  1.7491  0.2156
  531MPD2    H1 7939   4.729   2.701  12.396 -1.0761  0.9395 -0.6956
  531MPD2    H2 7940   0.272   2.956  12.569 -0.6088  0.9659  0.3254
  531MPD2    H3 7941   0.200   2.795  12.397 -0.1730 -1.6161 -0.4700
  531MPD2     N 7942   4.546   2.701  12.602 -0.0874  0.1571  0.0709
  531MPD2    H5 7943   4.512   2.665  12.513 -0.2794  0.7995 -0.1173
  531MPD2    N1 7944   0.117   3.014  12.792 -0.3645 -0.7854  0.1518
  531MPD2    H7 7945   0.047   3.033  12.863 -2.2050  0.3508 -1.9711
  532TMC3    C1 7946   0.225   3.156  12.932  0.3847  0.1993  0.2396
  532TMC3    C2 7947   0.101   3.213  12.954 -0.1489 -0.0400 -0.0579
  532TMC3    C3 7948   0.036   3.218  13.077  0.8087 -0.0472 -0.3494
  532TMC3    C4 7949   0.297   3.116  13.045  0.1431  0.1945 -0.1150
  532TMC3    C5 7950   0.234   3.132  13.162  0.0242  0.0700  0.1496
  532TMC3    C6 7951   0.106   3.174  13.180  0.0783  0.0223  0.2960
  532TMC3     C 7952   0.239   3.063  12.822  0.6814  0.1172 -0.1386
  532TMC3     O 7953   0.349   3.025  12.789 -0.0380  0.0432  0.6914
  532TMC3     H 7954   0.038   3.242  12.871  1.9843  1.2540 -1.2140
  532TMC3    H1 7955   0.395   3.070  13.035  0.7066  1.1141  1.0827
  532TMC3    H2 7956   0.078   3.184  13.285 -4.9297 -0.6020 -0.9947
  532TMC3    C7 7957   0.284   3.048  13.264 -0.1800  0.5025 -0.0359
  532TMC3    C8 7958   4.654   3.133  13.067 -0.6706  0.5489 -0.1019
  532TMC3    O1 7959   0.283   3.098  13.375 -0.1231  0.3972  0.1381
  532TMC3    O2 7960   4.645   3.077  12.958 -0.5257 -0.1045 -0.4947
  533TMC3    C1 7961   1.275   4.358  14.286 -0.0689 -0.4223  0.1268
  533TMC3    C2 7962   1.409   4.381  14.319  0.0112  0.3890 -0.5849
  533TMC3    C3 7963   1.441   4.487  14.392 -0.8786  0.2632 -0.7152
  533TMC3    C4 7964   1.173   4.445  14.322  0.2038  0.4316 -0.1299
  533TMC3    C5 7965   1.213   4.543  14.414 -0.5678  0.2100  0.2864
  533TMC3    C6 7966   1.342   4.567  14.440 -0.2015  0.3338  0.0558
  533TMC3     C 7967   1.237   4.215  14.297 -0.3251  0.8072  0.7886
  533TMC3     O 7968   1.305   4.148  14.377  0.1729  0.0931 -0.1218
  533TMC3     H 7969   1.485   4.305  14.307 -0.1677  0.0831  0.2027
  533TMC3    H1 7970   1.069   4.418  14.315  0.3997 -0.0784 -1.0829
  533TMC3    H2 7971   1.379   4.640  14.511  2.7050 -3.6868  2.7334
  533TMC3    C7 7972   1.120   4.545  14.525 -0.0959 -0.2092  0.2692
  533TMC3    C8 7973   1.580   4.541  14.405 -0.0434 -0.4458 -0.3133
  533TMC3    O1 7974   1.048   4.450  14.539  0.2400 -0.0182 -0.3413
  533TMC3    O2 7975   1.585   4.664  14.417  0.3874 -0.1782  0.3499
  534MPD2     C 7976   4.578   0.069   1.087 -0.9511 -0.6278  0.0103
  534MPD2    C1 7977   4.506   0.120   1.191 -0.1357  0.5629  0.3970
  534MPD2    C2 7978   4.372   0.091   1.199 -0.0881  0.3375  0.0638
  534MPD2    C3 7979   4.307   0.026   1.096 -0.1065 -0.3332 -0.0606
  534MPD2    C4 7980   4.387   4.719   0.989 -0.1753  0.0474  1.0503
  534MPD2    C5 7981   4.518   0.002   0.983  0.3677 -0.4546  0.2052
  534MPD2     H 7982   4.313   0.141   1.276 -0.8895  1.2441 -1.1508
  534MPD2    H1 7983   4.331   4.661   0.916  0.5769 -0.5473  0.9463
  534MPD2    H2 7984   4.683   0.092   1.078 -1.7153  2.4160 -1.0401
  534MPD2    H3 7985   4.582   4.708   0.901  0.1222 -0.2161 -0.0752
  534MPD2     N 7986   4.164   0.006   1.100 -0.3022  0.2887  0.1745
  534MPD2    H5 7987   4.112   4.727   1.014 -0.1591  0.4541  0.0575
  534MPD2    N1 7988   4.565   0.209   1.287 -0.3891 -1.1462 -0.5076
  534MPD2    H7 7989   4.501   0.236   1.362 -1.7176 -0.6740 -1.8093
  535TMC3    C1 7990   3.954   4.719   1.215  0.8110 -0.2509 -0.2267
  535TMC3    C2 7991   3.896   4.652   1.320  0.7747 -0.0584 -0.6156
  535TMC3    C3 7992   3.760   4.635   1.304  0.6011  0.1618  0.8885
  535TMC3    C4 7993   3.892   0.052   1.117 -0.2140 -0.5753 -0.2797
  535TMC3    C5 7994   3.758   0.044   1.120  0.0358  0.0134  0.2760
  535TMC3    C6 7995   3.690   4.703   1.204 -0.2302 -0.4917 -0.6948
  535TMC3     C 7996   4.096   4.727   1.222  0.0374 -0.0234  0.1660
  535TMC3     O 7997   4.147   4.723   1.332  0.1271 -0.3981 -0.0351
  535TMC3     H 7998   3.960   4.588   1.379 -0.6878 -1.4230 -0.5245
  535TMC3    H1 7999   3.953   0.098   1.040 -2.3925  0.3845 -1.4296
  535TMC3    H2 8000   3.582   4.701   1.208 -0.2031 -1.8020 -0.6591
  535TMC3    C7 8001   3.683   0.143   1.054 -0.9560 -0.3809 -0.0472
  535TMC3    C8 8002   3.677   4.560   1.396 -0.2248 -0.1673  0.0866
  535TMC3    O1 8003   3.567   0.114   1.022 -0.0885  0.3314  0.8055
  535TMC3    O2 8004   3.557   4.544   1.370 -0.2581  0.0405  0.0994
  536MPD2     C 8005   2.344   3.631  16.334 -0.1955 -0.9529 -0.1467
  536MPD2    C1 8006   2.245   3.536  16.320  1.3510 -0.2431 -0.6507
  536MPD2    C2 8007   2.163   3.541  16.202 -0.3324 -0.0776 -0.5375
  536MPD2    C3 8008   2.184   3.637  16.111 -0.5564 -0.1181  0.1972
  536MPD2    C4 8009   2.292   3.725  16.118 -0.3695 -0.3366  0.8311
  536MPD2    C5 8010   2.364   3.725  16.235  0.1970 -0.1748  0.8390
  536MPD2     H 8011   2.080   3.472  16.190  0.0745 -0.4094 -1.4693
  536MPD2    H1 8012   2.314   3.797  16.040 -1.6270  0.2830  1.0587
  536MPD2    H2 8013   2.407   3.642  16.422  1.3341  3.3545 -1.8007
  536MPD2    H3 8014   2.442   3.801  16.239  0.4736 -0.3966 -0.2377
  536MPD2     N 8015   2.097   3.663  16.006  0.9419  0.1234  0.1214
  536MPD2    H5 8016   2.119   3.750  15.959  1.2186 -0.7674 -1.4071
  536MPD2    N1 8017   2.222   3.442  16.418 -0.1907  1.3876 -0.2864
  536MPD2    H7 8018   2.261   3.463  16.509  0.9146 -1.5293 -0.0844
  537TMC3    C1 8019   2.141   3.264  16.537 -0.0287 -0.1054  0.2769
  537TMC3    C2 8020   2.227   3.290  16.640  0.2771  0.5055  0.1967
  537TMC3    C3 8021   2.239   3.208  16.750 -0.6388  0.3452 -0.7882
  537TMC3    C4 8022   2.045   3.161  16.554 -0.9864 -0.6504 -0.4643
  537TMC3    C5 8023   2.063   3.075  16.662 -0.7043  0.0804 -0.3830
  537TMC3    C6 8024   2.167   3.097  16.761 -0.2511  0.1183  0.0576
  537TMC3     C 8025   2.130   3.345  16.414 -0.3615  0.1282  0.2919
  537TMC3     O 8026   2.069   3.293  16.322  0.3342  0.0563 -0.3854
  537TMC3     H 8027   2.306   3.364  16.629 -0.6509  1.4351 -0.2634
  537TMC3    H1 8028   1.987   3.135  16.466 -1.1338  0.2915 -0.6513
  537TMC3    H2 8029   2.182   3.018  16.833  1.0453 -0.3880 -0.7769
  537TMC3    C7 8030   1.978   2.961  16.657 -0.1322 -0.1312  0.4101
  537TMC3    C8 8031   2.313   3.256  16.867 -0.5201 -0.0410 -0.6279
  537TMC3    O1 8032   1.880   2.953  16.581 -0.1097  0.4670  0.7574
  537TMC3    O2 8033   2.369   3.364  16.863  0.2300  0.2122  0.4554
  538TMC3    C1 8034   3.493   2.237  11.352 -0.0298 -0.0635 -0.1316
  538TMC3    C2 8035   3.606   2.155  11.337  0.0436 -0.0593  0.5393
  538TMC3    C3 8036   3.660   2.153  11.210 -0.4147  0.0693 -0.3505
  538TMC3    C4 8037   3.446   2.321  11.250 -0.1441  1.0192 -0.2630
  538TMC3    C5 8038   3.506   2.314  11.124 -0.0334  0.3186  0.2540
  538TMC3    C6 8039   3.610   2.232  11.105 -0.0593 -0.8010  0.0781
  538TMC3     C 8040   3.392   2.214  11.458 -0.0002 -0.6366  0.7460
  538TMC3     O 8041   3.280   2.265  11.438  0.5432  0.1631 -0.5712
  538TMC3     H 8042   3.648   2.084  11.408 -2.1177 -1.0953  0.7908
  538TMC3    H1 8043   3.361   2.385  11.270 -0.1392  1.3012 -1.1109
  538TMC3    H2 8044   3.638   2.211  11.003 -0.0974 -2.2437  0.3620
  538TMC3    C7 8045   3.441   2.382  11.013 -0.5133  0.3683  0.0178
  538TMC3    C8 8046   3.765   2.060  11.184 -0.3462 -0.1860  0.2240
  538TMC3    O1 8047   3.320   2.384  11.029 -0.4467  0.1454 -0.3874
  538TMC3    O2 8048   3.788   1.973  11.264  0.3041 -0.5600 -0.1432
  539MPD2     C 8049   2.851   1.475  12.330  0.3302 -0.4291 -0.5737
  539MPD2    C1 8050   2.876   1.501  12.195 -0.4101  0.5825  0.9274
  539MPD2    C2 8051   2.851   1.638  12.146  0.2279 -0.5938  0.2299
  539MPD2    C3 8052   2.800   1.738  12.224  1.0957  0.1355  0.9625
  539MPD2    C4 8053   2.767   1.700  12.351  0.8702  0.1613 -0.2379
  539MPD2    C5 8054   2.789   1.575  12.399  0.6736 -0.6706  0.4337
  539MPD2     H 8055   2.887   1.665  12.048  2.4519 -0.6316  1.0486
  539MPD2    H1 8056   2.719   1.772  12.417  0.8667 -0.3905  0.3526
  539MPD2    H2 8057   2.886   1.387  12.383  0.1508 -1.1448 -1.6271
  539MPD2    H3 8058   2.759   1.553  12.501 -0.8701  2.2358  0.5783
  539MPD2     N 8059   2.779   1.875  12.184 -0.1174 -0.2167 -0.1231
  539MPD2    H5 8060   2.746   1.930  12.262  2.2125  1.4686 -0.3411
  539MPD2    N1 8061   2.954   1.403  12.125 -0.1860  0.0097 -0.4554
  539MPD2    H7 8062   2.972   1.314  12.169 -1.3807  0.6298  1.2625
  540TMC3    C1 8063   2.779   2.070  12.029 -0.4968  0.2506  1.0408
  540TMC3    C2 8064   2.781   2.114  11.900 -0.2026  0.4560  0.0891
  540TMC3    C3 8065   2.742   2.241  11.866  0.1008  0.4895 -0.0016
  540TMC3    C4 8066   2.729   2.153  12.121  0.4172 -0.4020  0.0162
  540TMC3    C5 8067   2.690   2.278  12.081  0.1715 -0.3803  0.3289
  540TMC3    C6 8068   2.701   2.331  11.958  0.1466  0.2356 -0.2067
  540TMC3     C 8069   2.800   1.925  12.054  0.4906 -0.2348 -0.3464
  540TMC3     O 8070   2.854   1.877  11.960 -0.1551 -0.3032 -0.2701
  540TMC3     H 8071   2.808   2.043  11.823 -1.4752 -1.2117  1.1769
  540TMC3    H1 8072   2.697   2.110  12.215 -3.4489  0.4666 -0.9093
  540TMC3    H2 8073   2.651   2.424  11.930  0.6947  0.4307 -0.5484
  540TMC3    C7 8074   2.581   2.341  12.166 -0.1086  0.3138 -0.2620
  540TMC3    C8 8075   2.739   2.292  11.728  1.0500  0.2461  0.6994
  540TMC3    O1 8076   2.479   2.380  12.108 -0.1204  0.1317  0.3110
  540TMC3    O2 8077   2.721   2.411  11.719  1.0337 -0.4946 -0.0681
  541MPD2     C 8078   1.067   3.354  13.118 -0.4324  0.3855 -0.4201
  541MPD2    C1 8079   1.148   3.263  13.056 -0.1110  0.1377  0.1427
  541MPD2    C2 8080   1.276   3.296  13.000 -1.2625  0.3584 -0.2864
  541MPD2    C3 8081   1.320   3.427  13.017 -0.4989 -0.0211  0.0215
  541MPD2    C4 8082   1.237   3.526  13.070  0.1054  0.5640  0.1666
  541MPD2    C5 8083   1.117   3.486  13.127  0.1151 -0.0581  0.6148
  541MPD2     H 8084   1.344   3.216  12.973 -0.5900  0.9172 -0.2327
  541MPD2    H1 8085   1.268   3.629  13.084  1.3603  0.0490  1.1780
  541MPD2    H2 8086   0.976   3.332  13.174 -0.1428  0.6784  0.1761
  541MPD2    H3 8087   1.062   3.568  13.172  0.0787  0.1033  0.2775
  541MPD2     N 8088   1.446   3.471  12.960  0.0289  0.2046 -0.0373
  541MPD2    H5 8089   1.458   3.571  12.974  0.2691  0.1670  0.0215
  541MPD2    N1 8090   1.097   3.128  13.049 -0.6304 -0.5696 -0.0798
  541MPD2    H7 8091   1.015   3.111  13.106 -1.1434 -0.3369 -0.7464
  542TMC3    C1 8092   1.627   3.484  12.819  0.4700  0.3646  0.3779
  542TMC3    C2 8093   1.644   3.432  12.690  0.1649 -0.0929 -0.6895
  542TMC3    C3 8094   1.672   3.522  12.596  0.0303  0.2471  0.2532
  542TMC3    C4 8095   1.612   3.616  12.846 -0.0881 -0.0073 -0.5782
  542TMC3    C5 8096   1.645   3.701  12.747 -0.0793  0.3512  1.0898
  542TMC3    C6 8097   1.681   3.659  12.623 -0.0728 -0.5752  0.3634
  542TMC3     C 8098   1.535   3.396  12.889 -0.1774  0.0778 -0.2433
  542TMC3     O 8099   1.543   3.271  12.880  0.0009  0.3691  0.0689
  542TMC3     H 8100   1.647   3.327  12.667  0.3032  0.2506 -2.2345
  542TMC3    H1 8101   1.584   3.656  12.942 -0.4284 -1.0372 -0.2445
  542TMC3    H2 8102   1.714   3.727  12.545 -1.0631  0.1993  0.6250
  542TMC3    C7 8103   1.696   3.819  12.791  0.2818 -0.2751 -0.5072
  542TMC3    C8 8104   1.648   3.483  12.462  0.5927 -1.3939 -0.0081
  542TMC3    O1 8105   1.745   3.827  12.908 -0.2935  0.4320  0.1336
  542TMC3    O2 8106   1.688   3.567  12.381 -0.1248  0.1562  0.1617
  543TMC3    C1 8107   0.921   4.434  17.379  0.2133 -0.7853  0.5821
  543TMC3    C2 8108   0.945   4.324  17.463 -0.2803  0.6729  0.2858
  543TMC3    C3 8109   0.921   4.330  17.594 -0.1216  0.0626  0.4767
  543TMC3    C4 8110   0.878   4.552  17.427 -0.1555 -0.6574 -0.0203
  543TMC3    C5 8111   0.839   4.550  17.563 -0.1571 -0.5202 -0.2086
  543TMC3    C6 8112   0.881   4.447  17.650  0.1822  0.3023  0.0506
  543TMC3     C 8113   0.980   4.430  17.250 -0.5603 -0.2327 -0.2329
  543TMC3     O 8114   1.028   4.322  17.213  0.1329 -0.3134  0.1676
  543TMC3     H 8115   0.983   4.230  17.425  1.7218  1.2274  0.9213
  543TMC3    H1 8116   0.846   4.636  17.366  0.6076 -2.0554 -2.3393
  543TMC3    H2 8117   0.828   4.433  17.744 -0.8421 -1.5949 -0.7910
  543TMC3    C7 8118   0.732   4.647  17.603  0.3113 -0.6778  1.1572
  543TMC3    C8 8119   0.978   4.219  17.674 -0.3073 -0.3314  0.2573
  543TMC3    O1 8120   0.703   4.646  17.721 -0.1701 -0.2751 -0.0852
  543TMC3    O2 8121   1.030   4.125  17.615 -0.4197 -0.6814 -0.3382
  544MPD2     C 8122   1.069   3.968   0.376  0.0920 -0.7253 -0.2038
  544MPD2    C1 8123   1.044   3.915   0.249  0.5297  0.0562  0.3283
  544MPD2    C2 8124   1.022   4.004   0.141 -0.2042 -0.2949  0.4081
  544MPD2    C3 8125   1.020   4.147   0.164  0.2826 -0.5730  0.3068
  544MPD2    C4 8126   1.044   4.194   0.289  0.2525  0.5998 -0.2676
  544MPD2    C5 8127   1.075   4.105   0.388 -0.5911 -0.3457  0.5235
  544MPD2     H 8128   1.019   3.966   0.040  1.2333 -3.6987  1.6457
  544MPD2    H1 8129   1.049   4.301   0.303  0.5706  0.2524  2.1883
  544MPD2    H2 8130   1.086   3.901   0.460  0.4794 -0.7275 -0.2811
  544MPD2    H3 8131   1.104   4.135   0.488 -0.8183 -0.8236  0.7316
  544MPD2     N 8132   0.984   4.243   0.061  0.3994  0.3227  0.1572
  544MPD2    H5 8133   0.960   4.338   0.087  1.2382  0.6787 -0.3898
  544MPD2    N1 8134   1.052   3.769   0.243 -0.0017  0.2893  0.3892
  544MPD2    H7 8135   1.087   3.720   0.325 -0.3974 -1.4350 -0.4895
  545TMC3    C1 8136   1.073   3.562   0.147  0.4717 -0.2377  0.1549
  545TMC3    C2 8137   1.201   3.559   0.200 -0.0051 -0.2308 -0.3232
  545TMC3    C3 8138   1.286   3.461   0.153 -0.4133  0.1532  0.2764
  545TMC3    C4 8139   1.035   3.481   0.044 -0.2802  0.6285  0.2247
  545TMC3    C5 8140   1.125   3.388  17.745  0.4204 -0.0960  0.3028
  545TMC3    C6 8141   1.249   3.370   0.056 -0.6898  0.4095 -0.7353
  545TMC3     C 8142   1.017   3.696   0.134 -0.4135 -0.1911 -0.8786
  545TMC3     O 8143   0.964   3.721   0.024 -0.3709 -0.0367 -0.4262
  545TMC3     H 8144   1.245   3.639   0.258 -1.4372 -0.3547  0.9333
  545TMC3    H1 8145   0.933   3.495   0.009 -0.7075 -1.2457  0.7440
  545TMC3    H2 8146   1.319   3.292   0.029 -2.8407 -1.2928 -1.3477
  545TMC3    C7 8147   1.095   3.333  17.610 -0.3553  0.4561  0.5811
  545TMC3    C8 8148   1.427   3.460   0.200  0.0198 -0.2540  0.3913
  545TMC3    O1 8149   0.999   3.383  17.549 -0.1222  0.7418 -0.3724
  545TMC3    O2 8150   1.472   3.567   0.235  0.7275 -0.1627 -0.7334
  546MPD2     C 8151   2.651   4.200  17.700  0.3431  0.1046  0.2569
  546MPD2    C1 8152   2.607   4.236  17.577  0.5405  0.0259 -0.6239
  546MPD2    C2 8153   2.617   4.366  17.536  0.3185  0.2072 -0.2466
  546MPD2    C3 8154   2.698   4.455  17.605 -1.0944 -0.3896  0.2003
  546MPD2    C4 8155   2.748   4.420  17.724 -0.4098 -0.8729  0.3058
  546MPD2    C5 8156   2.721   4.292   0.025 -0.3629  0.2303  0.1349
  546MPD2     H 8157   2.575   4.389  17.439 -1.4726  2.0548  0.9680
  546MPD2    H1 8158   2.808   4.488   0.037  0.7268 -0.0181 -1.8398
  546MPD2    H2 8159   2.652   4.097  17.732 -0.1072 -0.3496 -1.1929
  546MPD2    H3 8160   2.768   4.260   0.117  1.6074  1.4928 -0.4389
  546MPD2     N 8161   2.715   4.588  17.562  0.2668 -0.1623  0.2286
  546MPD2    H5 8162   2.770   4.648  17.623 -0.9788  0.3838  0.8200
  546MPD2    N1 8163   2.538   4.146  17.492  0.3452  0.2370  0.0195
  546MPD2    H7 8164   2.543   4.045  17.504  0.3872  0.6079  3.0688
  547TMC3    C1 8165   2.419   4.049  17.302 -0.1455 -0.5396 -0.2621
  547TMC3    C2 8166   2.346   4.063  17.180 -0.1284 -0.4063  0.3270
  547TMC3    C3 8167   2.267   3.960  17.132 -0.3962 -0.0383  0.0204
  547TMC3    C4 8168   2.407   3.929  17.366  0.2081  0.7545  0.0363
  547TMC3    C5 8169   2.329   3.828  17.314 -0.2154 -0.1929  0.6773
  547TMC3    C6 8170   2.257   3.835  17.195  0.2682 -0.1231 -0.1266
  547TMC3     C 8171   2.464   4.171  17.373  1.0303  0.1261 -0.6119
  547TMC3     O 8172   2.434   4.274  17.322 -0.3929  0.2892  0.2736
  547TMC3     H 8173   2.330   4.162  17.138 -2.5184 -0.8736  0.1382
  547TMC3    H1 8174   2.440   3.916  17.468  1.4419 -3.6748 -0.8988
  547TMC3    H2 8175   2.191   3.758  17.157  0.9363 -0.6799 -0.1662
  547TMC3    C7 8176   2.327   3.708  17.390  0.6868 -0.2487 -1.0187
  547TMC3    C8 8177   2.175   3.980  17.022  0.9991 -0.0882  0.2212
  547TMC3    O1 8178   2.382   3.704  17.492  0.8333 -0.8483 -0.1228
  547TMC3    O2 8179   2.062   3.933  17.039 -0.0740  0.0010 -0.3192
  548MPD2     C 8180   1.877   0.584  12.216  0.7861  0.1958 -0.1707
  548MPD2    C1 8181   1.945   0.516  12.315  0.4523 -0.1188  0.6056
  548MPD2    C2 8182   2.059   0.445  12.283  0.6083 -0.0238 -0.1816
  548MPD2    C3 8183   2.098   0.451  12.151  0.1759  0.1232  0.2212
  548MPD2    C4 8184   2.033   0.529  12.054 -0.3157  0.9814 -0.0143
  548MPD2    C5 8185   1.916   0.588  12.088 -0.4479  0.0810 -0.0625
  548MPD2     H 8186   2.109   0.387  12.360 -1.3602  0.8099  1.7346
  548MPD2    H1 8187   2.048   0.541  11.947  1.6046 -1.1675  0.0262
  548MPD2    H2 8188   1.775   0.622  12.225  0.5903 -0.0598 -1.3033
  548MPD2    H3 8189   1.851   0.639  12.018 -0.4397  0.8385  0.4731
  548MPD2     N 8190   2.215   0.375  12.116 -0.4349  0.3180  0.0229
  548MPD2    H5 8191   2.265   0.332  12.194  0.1184 -2.4756 -1.9002
  548MPD2    N1 8192   1.888   0.523  12.443 -0.1645 -0.2908 -0.0755
  548MPD2    H7 8193   1.809   0.585  12.454 -0.5891 -1.1032  1.4118
  549TMC3    C1 8194   1.824   0.417  12.639 -0.0220 -0.8798  0.4813
  549TMC3    C2 8195   1.695   0.450  12.617  0.2632  0.3064 -0.3100
  549TMC3    C3 8196   1.598   0.386  12.684 -0.3649 -0.0204 -0.1053
  549TMC3    C4 8197   1.849   0.305  12.718  0.2350  0.2266 -0.4577
  549TMC3    C5 8198   1.749   0.235  12.779 -0.0283 -0.1608 -0.1851
  549TMC3    C6 8199   1.625   0.277  12.767 -0.2769 -0.1451  0.4965
  549TMC3     C 8200   1.925   0.446  12.545 -0.1693  0.1399 -0.2477
  549TMC3     O 8201   2.033   0.388  12.563 -0.3901 -0.1386  0.1070
  549TMC3     H 8202   1.665   0.532  12.553 -1.1518  2.5381  3.2159
  549TMC3    H1 8203   1.951   0.276  12.743  0.4598  0.3205 -1.2830
  549TMC3    H2 8204   1.544   0.214  12.801 -1.5808  0.8240 -0.7739
  549TMC3    C7 8205   1.777   0.119  12.853  0.0466 -0.2870  0.3984
  549TMC3    C8 8206   1.460   0.425  12.672  0.5060  0.0399 -0.1379
  549TMC3    O1 8207   1.716   0.095  12.956 -0.0168  0.0933 -0.7591
  549TMC3    O2 8208   1.382   0.329  12.675 -0.1583  0.3255 -0.0550
  550TMC3    C1 8209   0.733   2.549  12.350 -0.2989 -0.2370  0.2388
  550TMC3    C2 8210   0.783   2.577  12.478  0.2136 -0.1757 -0.1622
  550TMC3    C3 8211   0.701   2.638  12.568 -0.1535  0.1930 -0.3831
  550TMC3    C4 8212   0.623   2.618  12.303 -0.0743 -0.2634  0.4065
  550TMC3    C5 8213   0.548   2.681  12.397 -0.1947  0.1072  0.2523
  550TMC3    C6 8214   0.573   2.681  12.528 -0.4091  0.7145  0.3757
  550TMC3     C 8215   0.823   2.493  12.260 -0.4562  0.3680  0.1152
  550TMC3     O 8216   0.935   2.470  12.296  0.2969  0.3925 -0.0932
  550TMC3     H 8217   0.880   2.544  12.513  1.4504  1.3793 -2.0534
  550TMC3    H1 8218   0.611   2.637  12.197  0.6978 -1.5492  0.0888
  550TMC3    H2 8219   0.512   2.736  12.599 -0.8538 -0.1287  0.6498
  550TMC3    C7 8220   0.503   2.812  12.356  0.0088 -0.3403  0.2572
  550TMC3    C8 8221   0.770   2.728  12.654  0.3418  0.8278 -0.2249
  550TMC3    O1 8222   0.416   2.819  12.266 -0.1764 -0.0041 -0.0268
  550TMC3    O2 8223   0.784   2.839  12.605 -0.5002  0.1439 -0.5658
  551TMC3    C1 8224   3.075   0.620  13.382 -0.1596 -0.3723 -0.8158
  551TMC3    C2 8225   3.193   0.554  13.359  0.2919  0.8865  0.2378
  551TMC3    C3 8226   3.297   0.576  13.438 -0.1610  0.1503  0.1852
  551TMC3    C4 8227   3.060   0.688  13.497  0.2640 -0.2182  0.1356
  551TMC3    C5 8228   3.165   0.705  13.579 -0.0581 -0.1969 -0.1508
  551TMC3    C6 8229   3.281   0.641  13.554 -0.5679 -0.0588 -1.0320
  551TMC3     C 8230   2.974   0.631  13.275  0.4379 -0.1882 -0.1430
  551TMC3     O 8231   2.971   0.539  13.195  0.3275  0.2267  0.2128
  551TMC3     H 8232   3.191   0.504  13.263 -1.6893  1.6469 -0.1255
  551TMC3    H1 8233   2.969   0.738  13.527 -0.0335 -1.0282  0.5669
  551TMC3    H2 8234   3.355   0.628  13.633  0.8030 -0.4059 -2.3781
  551TMC3    C7 8235   3.149   0.744  13.718 -0.2156 -0.5941 -0.9109
  551TMC3    C8 8236   3.425   0.556  13.381 -0.3251  0.6143  0.4016
  551TMC3    O1 8237   3.223   0.695  13.802 -0.0371 -0.3569 -0.2189
  551TMC3    O2 8238   3.434   0.500  13.272  0.2474 -0.2374  0.8783
  552MPD2     C 8239   0.238   2.767  13.852  0.1614 -0.3381 -0.1739
  552MPD2    C1 8240   0.200   2.682  13.956 -0.4256 -0.2022 -0.6211
  552MPD2    C2 8241   0.295   2.602  14.011  0.5795  0.2832  0.9775
  552MPD2    C3 8242   0.425   2.598  13.960 -0.5907 -0.0188 -0.0297
  552MPD2    C4 8243   0.462   2.682  13.856 -0.5656  0.3066  0.4634
  552MPD2    C5 8244   0.367   2.770  13.813 -0.1541 -0.2042  0.5854
  552MPD2     H 8245   0.254   2.542  14.091 -0.4779 -0.3812 -0.0711
  552MPD2    H1 8246   0.552   2.665  13.799 -0.3540  0.4404  0.7609
  552MPD2    H2 8247   0.173   2.833  13.795  1.3448 -0.6707 -1.9098
  552MPD2    H3 8248   0.395   2.834  13.730 -0.2075  0.4687  1.0836
  552MPD2     N 8249   0.527   2.522  14.018 -0.1358  0.0070  0.2248
  552MPD2    H5 8250   0.621   2.518  13.980 -0.4377  0.5447 -0.5706
  552MPD2    N1 8251   0.063   2.656  13.990  0.1307 -0.5454 -0.0517
  552MPD2    H7 8252   0.044   2.596  14.070 -0.9285  0.3515  0.3660
  553TMC3    C1 8253   4.573   2.653  13.978  0.2584  0.0134  0.0619
  553TMC3    C2 8254   4.481   2.635  13.880  0.2876 -0.1601 -0.4418
  553TMC3    C3 8255   4.419   2.513  13.872  0.2527 -0.1452 -0.2096
  553TMC3    C4 8256   4.588   2.574  14.086 -0.1703  0.2494  0.6013
  553TMC3    C5 8257   4.516   2.455  14.078 -0.9102  0.1728  0.1081
  553TMC3    C6 8258   4.440   2.423  13.974  0.5324  0.1555 -0.2336
  553TMC3     C 8259   4.694   2.715  13.930 -0.4319 -0.4795 -0.0809
  553TMC3     O 8260   4.691   2.778  13.824 -0.1765 -0.1986 -0.2450
  553TMC3     H 8261   4.474   2.702  13.795 -3.2894 -2.1348 -1.7141
  553TMC3    H1 8262   4.637   2.609  14.177 -1.0422  1.0681  0.7558
  553TMC3    H2 8263   4.409   2.319  13.971  0.6810  0.1623 -2.0417
  553TMC3    C7 8264   4.589   2.337  14.121 -0.5304  0.1743 -0.3039
  553TMC3    C8 8265   4.437   2.456  13.738  0.2407 -0.1539 -0.3752
  553TMC3    O1 8266   4.526   2.247  14.177  0.1626 -0.3775 -0.0591
  553TMC3    O2 8267   4.533   2.497  13.672 -0.5585  0.4111  0.0380
  554TMC3    C1 8268   2.417   2.117  11.535  0.9399  0.6669  0.3403
  554TMC3    C2 8269   2.369   2.003  11.472 -1.4912  0.2692  0.3773
  554TMC3    C3 8270   2.378   2.007  11.333  0.2444  0.1369  0.1238
  554TMC3    C4 8271   2.467   2.223  11.464  0.3199  0.2937  0.1799
  554TMC3    C5 8272   2.475   2.215  11.325 -0.1149 -0.1461  0.4357
  554TMC3    C6 8273   2.421   2.112  11.257 -0.1255  0.4327 -0.1661
  554TMC3     C 8274   2.397   2.134  11.681  0.0918  0.2950  0.5889
  554TMC3     O 8275   2.427   2.241  11.735  0.1675  0.1166 -0.0583
  554TMC3     H 8276   2.363   1.908  11.523  0.0230 -0.8008 -1.4361
  554TMC3    H1 8277   2.523   2.295  11.523 -1.5219  1.5390  0.4176
  554TMC3    H2 8278   2.409   2.114  11.149  0.6440 -2.5186 -0.3108
  554TMC3    C7 8279   2.515   2.328  11.230 -0.5253  0.6268  0.2188
  554TMC3    C8 8280   2.286   1.916  11.277  0.0283  0.3095 -0.6131
  554TMC3    O1 8281   2.506   2.313  11.105 -0.8092 -0.2993  0.6447
  554TMC3    O2 8282   2.213   1.869  11.363  0.6633  0.3107 -0.1906
  555TMC3    C1 8283   1.253   1.326  15.380  0.1782  0.1914 -0.5935
  555TMC3    C2 8284   1.311   1.408  15.472 -0.7975  0.2998 -0.8381
  555TMC3    C3 8285   1.337   1.353  15.592 -0.0348  0.6536  0.2805
  555TMC3    C4 8286   1.204   1.201  15.408 -0.3811 -0.3919  0.0033
  555TMC3    C5 8287   1.229   1.162  15.538  0.5174 -0.6308  0.1051
  555TMC3    C6 8288   1.300   1.233  15.631  0.4061 -0.0767  0.2248
  555TMC3     C 8289   1.283   1.359  15.243  0.0032  0.4208 -0.0768
  555TMC3     O 8290   1.334   1.470  15.223 -0.2118 -0.0745  0.3394
  555TMC3     H 8291   1.356   1.498  15.433  2.4674 -0.6044  0.8198
  555TMC3    H1 8292   1.131   1.158  15.340  0.6401  1.5503 -2.3340
  555TMC3    H2 8293   1.318   1.192  15.729 -1.5611  1.8912  1.4063
  555TMC3    C7 8294   1.257   1.021  15.561 -0.1266  0.3755  0.0855
  555TMC3    C8 8295   1.356   1.459  15.688  0.5309  0.0530  0.3116
  555TMC3    O1 8296   1.255   0.976  15.676 -0.1755 -0.1074  0.6685
  555TMC3    O2 8297   1.360   1.574  15.640  0.0931  0.1829  0.3316
  556MPD2     C 8298   3.967   2.972  10.848 -0.6181  0.7846  0.1333
  556MPD2    C1 8299   4.078   2.953  10.927 -0.2377  0.2549 -0.0356
  556MPD2    C2 8300   4.175   2.867  10.886 -0.0622 -0.1970  0.0970
  556MPD2    C3 8301   4.160   2.788  10.770 -0.6533  0.3630  0.2275
  556MPD2    C4 8302   4.053   2.816  10.692 -0.1639 -0.7717 -0.1040
  556MPD2    C5 8303   3.957   2.904  10.726  0.2085  0.4998 -0.3234
  556MPD2     H 8304   4.262   2.850  10.948  1.1275 -0.2350 -1.5894
  556MPD2    H1 8305   4.044   2.761  10.599  0.7117  2.4580 -2.0922
  556MPD2    H2 8306   3.886   3.040  10.871 -1.0801  0.8336 -1.6192
  556MPD2    H3 8307   3.872   2.923  10.661 -1.1350  0.6275  1.4928
  556MPD2     N 8308   4.255   2.688  10.734 -0.1154 -0.4841  0.6619
  556MPD2    H5 8309   4.333   2.675  10.799  0.6242 -0.9270 -0.3049
  556MPD2    N1 8310   4.101   3.015  11.049  0.1207 -0.1430 -0.7008
  556MPD2    H7 8311   4.179   2.980  11.104  0.5994  0.3495 -1.0631
  557TMC3    C1 8312   4.347   2.502  10.631  0.2388  0.2253  0.3266
  557TMC3    C2 8313   4.381   2.456  10.507  0.9458 -0.6946 -0.1154
  557TMC3    C3 8314   4.409   2.319  10.492  0.7160  0.6835  0.0425
  557TMC3    C4 8315   4.335   2.424  10.742  0.5686 -0.5414 -0.5806
  557TMC3    C5 8316   4.357   2.292  10.727  0.7726  0.2391 -0.1883
  557TMC3    C6 8317   4.408   2.241  10.607  0.4731 -0.6835 -0.7013
  557TMC3     C 8318   4.255   2.611  10.616  0.1113 -0.0118  0.3153
  557TMC3     O 8319   4.177   2.606  10.524 -0.1487 -0.0248  0.3206
  557TMC3     H 8320   4.390   2.521  10.420 -2.0973  1.1396  0.9423
  557TMC3    H1 8321   4.293   2.469  10.831  0.2638 -2.4149  0.2130
  557TMC3    H2 8322   4.439   2.138  10.602 -0.8461 -1.2069  2.0206
  557TMC3    C7 8323   4.248   2.224  10.777 -0.3915  0.1179 -0.7978
  557TMC3    C8 8324   4.444   2.267  10.359 -0.7198  0.3539  0.4510
  557TMC3    O1 8325   4.139   2.252  10.732 -0.4256  0.2549 -0.4951
  557TMC3    O2 8326   4.459   2.355  10.275  0.1758 -0.4599 -0.3552
  558TMC3    C1 8327   2.047   1.197  10.643 -0.4669 -0.0278 -0.3743
  558TMC3    C2 8328   1.920   1.186  10.686 -0.5061 -0.0670 -0.3284
  558TMC3    C3 8329   1.818   1.231  10.599  0.1731  0.4097 -0.9252
  558TMC3    C4 8330   2.078   1.248  10.521  0.2188 -0.0899 -0.5400
  558TMC3    C5 8331   1.978   1.299  10.444  0.3553 -0.1897 -0.6024
  558TMC3    C6 8332   1.845   1.293  10.477  0.3248 -0.0389  0.5246
  558TMC3     C 8333   2.158   1.153  10.725  0.6444  0.0241  0.0286
  558TMC3     O 8334   2.267   1.181  10.680  0.7231  0.1608  0.8277
  558TMC3     H 8335   1.881   1.149  10.781 -1.2241  1.5307 -0.0014
  558TMC3    H1 8336   2.179   1.239  10.482 -0.7187  0.7417 -3.1836
  558TMC3    H2 8337   1.763   1.321  10.412  2.0975 -0.1229 -1.7819
  558TMC3    C7 8338   2.003   1.296  10.300 -0.5835 -0.3014  0.2458
  558TMC3    C8 8339   1.700   1.153  10.594  0.0383 -0.4312 -0.5126
  558TMC3    O1 8340   2.103   1.348  10.259  0.4057  0.8715  0.0293
  558TMC3    O2 8341   1.672   1.116  10.481 -0.1122  0.8537  0.5609
  559MPD2     C 8342   1.775   1.581  10.630  0.0558  0.4185  0.1134
  559MPD2    C1 8343   1.722   1.532  10.743 -0.1244 -0.0822 -0.1468
  559MPD2    C2 8344   1.797   1.500  10.851  0.3748  0.3732  0.1849
  559MPD2    C3 8345   1.933   1.510  10.857  0.4086 -1.1169  0.0060
  559MPD2    C4 8346   1.993   1.562  10.742  0.2274 -1.0167  0.2441
  559MPD2    C5 8347   1.911   1.591  10.636 -0.5271 -0.8830 -0.4030
  559MPD2     H 8348   1.757   1.456  10.942  2.1466  2.6348  2.0453
  559MPD2    H1 8349   2.100   1.571  10.727  0.1681 -0.4946  0.1228
  559MPD2    H2 8350   1.734   1.594  10.531  0.4004  0.4702 -0.0237
  559MPD2    H3 8351   1.955   1.626  10.543  1.4549  1.1363  1.2734
  559MPD2     N 8352   2.000   1.469  10.979  0.2317  0.3434 -0.0002
  559MPD2    H5 8353   1.943   1.426  11.051 -1.3812 -1.3589 -2.3157
  559MPD2    N1 8354   1.577   1.517  10.743  0.5938 -0.1312  0.1110
  559MPD2    H7 8355   1.519   1.552  10.667 -0.6441 -0.1126  1.0515
  560TMC3    C1 8356   2.164   1.415  11.140  0.9905  0.4478  0.0855
  560TMC3    C2 8357   2.081   1.305  11.165  0.0910  0.1061  0.4286
  560TMC3    C3 8358   2.074   1.268  11.299  0.1850  0.5207  0.0388
  560TMC3    C4 8359   2.233   1.487  11.229 -0.1026  0.5889 -0.1536
  560TMC3    C5 8360   2.214   1.452  11.359 -0.1880  0.1503 -0.9025
  560TMC3    C6 8361   2.139   1.339  11.396  0.8363  0.4166 -0.1303
  560TMC3     C 8362   2.136   1.473  11.007 -1.1268  0.6132  0.7709
  560TMC3     O 8363   2.218   1.510  10.931  0.0178 -0.1051 -0.3218
  560TMC3     H 8364   2.021   1.260  11.087  2.4705 -0.8257 -0.8601
  560TMC3    H1 8365   2.294   1.574  11.206 -1.5730  1.6590  0.0333
  560TMC3    H2 8366   2.125   1.317  11.501 -0.3987  0.8254 -0.2068
  560TMC3    C7 8367   2.282   1.518  11.466 -0.4521  0.9212 -0.6448
  560TMC3    C8 8368   1.974   1.171  11.331 -0.3777  0.5374  0.2888
  560TMC3    O1 8369   2.225   1.509  11.574  0.1721 -0.0281  0.3554
  560TMC3    O2 8370   1.885   1.151  11.250 -0.1478 -0.5102  0.1283
  561TMC3    C1 8371   4.256   0.445  11.451 -0.9021  0.5482  0.5627
  561TMC3    C2 8372   4.176   0.362  11.533  0.1166 -0.9512  0.4912
  561TMC3    C3 8373   4.164   0.400  11.661  0.8910 -0.4157  0.6111
  561TMC3    C4 8374   4.316   0.558  11.490 -0.1032 -0.0408 -0.0950
  561TMC3    C5 8375   4.293   0.593  11.621  0.3241  0.1231 -0.5487
  561TMC3    C6 8376   4.223   0.517  11.706 -0.3663  0.0784  0.2249
  561TMC3     C 8377   4.289   0.376  11.327  0.7823  0.1123 -0.5340
  561TMC3     O 8378   4.239   0.267  11.299  0.7066 -0.0449  0.2692
  561TMC3     H 8379   4.139   0.265  11.500 -0.9773 -0.8982  1.5468
  561TMC3    H1 8380   4.392   0.602  11.428 -2.0380  1.9408 -1.0616
  561TMC3    H2 8381   4.228   0.558  11.807 -1.8351 -0.1020  0.3837
  561TMC3    C7 8382   4.367   0.700  11.673  0.1115 -0.2968 -0.0292
  561TMC3    C8 8383   4.114   0.306  11.761  0.3615 -0.1291  0.0351
  561TMC3    O1 8384   4.343   0.733  11.787 -0.3195 -0.2414 -0.7036
  561TMC3    O2 8385   4.127   0.187  11.735 -0.0743  0.5903  0.1124
  562TMC3    C1 8386   0.743   1.916  16.232 -0.0257 -0.5881 -0.0530
  562TMC3    C2 8387   0.628   1.969  16.175  0.0380 -0.3633  0.0027
  562TMC3    C3 8388   0.592   1.934  16.047  0.4684  0.2237  0.5548
  562TMC3    C4 8389   0.827   1.829  16.163 -0.6286 -0.0149 -0.3689
  562TMC3    C5 8390   0.789   1.797  16.035 -0.2114  0.5136 -0.4339
  562TMC3    C6 8391   0.672   1.845  15.976  0.2956 -0.1689  0.0338
  562TMC3     C 8392   0.778   1.951  16.363  0.0443  0.0962 -0.0464
  562TMC3     O 8393   0.846   1.866  16.416  0.0839 -0.3421  0.0123
  562TMC3     H 8394   0.555   2.021  16.236  0.2460 -0.1565  0.0758
  562TMC3    H1 8395   0.932   1.826  16.187 -0.8131 -0.5344  0.3647
  562TMC3    H2 8396   0.645   1.792  15.886  0.0949 -0.9744  0.5698
  562TMC3    C7 8397   0.852   1.676  15.973  0.0801  0.5076 -0.4053
  562TMC3    C8 8398   0.451   1.963  16.009 -0.5424 -0.0263  0.0890
  562TMC3    O1 8399   0.825   1.642  15.859 -0.3446  0.0928 -0.0747
  562TMC3    O2 8400   0.369   1.981  16.104 -0.2101  0.0281 -0.0612
  563MPD2     C 8401   3.409   2.576  15.499  0.0049 -0.0729  0.3679
  563MPD2    C1 8402   3.421   2.632  15.623  0.0414  0.8926 -0.5577
  563MPD2    C2 8403   3.531   2.612  15.699 -0.3772  0.1829  0.2781
  563MPD2    C3 8404   3.642   2.547  15.642 -0.2921 -0.1887 -0.2184
  563MPD2    C4 8405   3.631   2.501  15.513  0.3276 -0.1646 -0.4092
  563MPD2    C5 8406   3.515   2.513  15.440 -0.3489 -0.4165  0.2737
  563MPD2     H 8407   3.526   2.645  15.802 -1.3757 -0.6277  0.4870
  563MPD2    H1 8408   3.716   2.469  15.453  1.2186  0.0133  0.7669
  563MPD2    H2 8409   3.322   2.574  15.435  0.2649  0.4867 -0.0019
  563MPD2    H3 8410   3.510   2.483  15.336  1.0587  0.1537  0.0420
  563MPD2     N 8411   3.758   2.529  15.726  0.2682 -0.1576 -0.6562
  563MPD2    H5 8412   3.750   2.578  15.814  1.6014 -1.8735  0.4304
  563MPD2    N1 8413   3.312   2.688  15.690  0.0012  0.0234  0.0005
  563MPD2    H7 8414   3.331   2.713  15.786  0.0797 -1.7991  0.4649
  564TMC3    C1 8415   3.090   2.775  15.722 -1.6407  0.5076  0.1928
  564TMC3    C2 8416   2.984   2.693  15.740  0.5483  0.1474 -1.0054
  564TMC3    C3 8417   2.910   2.699  15.856 -0.3189 -0.3172  0.7112
  564TMC3    C4 8418   3.145   2.845  15.824 -0.5885  0.1182  1.3460
  564TMC3    C5 8419   3.087   2.834  15.947  0.7581  0.0237  0.7053
  564TMC3    C6 8420   2.963   2.777  15.960  0.0578  0.9994 -0.6201
  564TMC3     C 8421   3.182   2.706  15.634 -0.5032  0.4801  0.3621
  564TMC3     O 8422   3.137   2.680  15.524 -0.0591  0.3830  0.6695
  564TMC3     H 8423   2.966   2.631  15.653  0.5459 -2.3933  0.7896
  564TMC3    H1 8424   3.241   2.895  15.821  0.0715 -1.1157  1.9132
  564TMC3    H2 8425   2.904   2.781  16.051  0.3754 -1.0944 -0.3189
  564TMC3    C7 8426   3.180   2.760  16.038 -0.2774  0.1484  0.1900
  564TMC3    C8 8427   2.857   2.568  15.900  0.3765 -0.8726  0.7606
  564TMC3    O1 8428   3.298   2.769  16.012  0.3240 -0.7023  0.4590
  564TMC3    O2 8429   2.884   2.535  16.013 -0.3215  0.0604  0.1848
  565TMC3    C1 8430   3.591   3.715  10.225 -0.0973  0.2239 -0.2787
  565TMC3    C2 8431   3.574   3.624  10.326 -0.0615 -0.7577 -0.0016
  565TMC3    C3 8432   3.447   3.601  10.358  0.1847 -0.3415  0.5325
  565TMC3    C4 8433   3.489   3.769  10.147  0.1811 -0.3290 -0.4089
  565TMC3    C5 8434   3.359   3.740  10.189  0.0290  0.7700  0.0541
  565TMC3    C6 8435   3.335   3.658  10.298  0.1149 -0.3697  0.0042
  565TMC3     C 8436   3.725   3.752  10.195 -0.0155 -0.4873  0.4050
  565TMC3     O 8437   3.808   3.688  10.260  0.6997  0.1410 -0.3397
  565TMC3     H 8438   3.653   3.582  10.388  0.0224 -1.2777 -0.4675
  565TMC3    H1 8439   3.509   3.835  10.064 -0.8240  2.8452  1.8798
  565TMC3    H2 8440   3.236   3.635  10.336  0.0379  0.0595  0.0651
  565TMC3    C7 8441   3.245   3.788  10.112  0.2826 -0.0560  0.1625
  565TMC3    C8 8442   3.430   3.506  10.465 -0.3273  0.3831 -0.4360
  565TMC3    O1 8443   3.136   3.738  10.146  0.6137 -0.4004 -0.0815
  565TMC3    O2 8444   3.331   3.518  10.542 -0.0085 -0.4428  0.0324
  566MPD2     C 8445   0.511   0.090  14.477 -0.1320  0.2103  0.9519
  566MPD2    C1 8446   0.527   0.221  14.434 -0.1539 -0.0239 -0.3640
  566MPD2    C2 8447   0.409   0.276  14.376 -0.2785  0.0452  0.5182
  566MPD2    C3 8448   0.295   0.208  14.345 -0.3245 -0.2270 -0.4681
  566MPD2    C4 8449   0.296   0.073  14.371  0.4115  0.0517 -0.3018
  566MPD2    C5 8450   0.394   0.019  14.452 -0.2896 -0.3409  0.0515
  566MPD2     H 8451   0.401   0.380  14.346 -0.9880  0.2864  1.5604
  566MPD2    H1 8452   0.205   0.019  14.347  0.5274  0.1643 -0.9964
  566MPD2    H2 8453   0.588   0.036  14.530 -0.6842  0.5286  2.0786
  566MPD2    H3 8454   0.388   4.655  14.491 -0.8101 -1.2322 -2.3430
  566MPD2     N 8455   0.172   0.268  14.305  0.2362 -0.5454 -0.3021
  566MPD2    H5 8456   0.091   0.208  14.317  0.8888 -1.8479 -2.3135
  566MPD2    N1 8457   0.646   0.289  14.462 -0.7651  0.0058  0.2013
  566MPD2    H7 8458   0.730   0.244  14.497  0.6417  0.4626 -2.5708
  567TMC3    C1 8459   0.810   0.451  14.436 -0.7010  0.3463 -0.6685
  567TMC3    C2 8460   0.867   0.515  14.332  0.3741  0.2029 -0.6404
  567TMC3    C3 8461   0.984   0.576  14.359  0.0062 -0.3210 -0.4852
  567TMC3    C4 8462   0.864   0.427  14.558  0.0314  0.4061  0.5010
  567TMC3    C5 8463   0.976   0.499  14.579  0.0409  0.3721  0.4200
  567TMC3    C6 8464   1.033   0.575  14.480  0.0592 -0.0451  0.7165
  567TMC3     C 8465   0.674   0.413  14.410 -0.2576  0.2937 -0.7028
  567TMC3     O 8466   0.604   0.484  14.340  0.2761 -0.3150  0.7483
  567TMC3     H 8467   0.813   0.521  14.239  2.1838  0.8686 -1.6456
  567TMC3    H1 8468   0.806   0.379  14.636  0.7049 -1.7345 -0.3152
  567TMC3    H2 8469   1.130   0.620  14.502  0.1424 -1.1330  2.6193
  567TMC3    C7 8470   1.054   0.495  14.700 -0.7160 -0.1198  0.1453
  567TMC3    C8 8471   1.017   0.688  14.274  0.2290  0.4732  0.1145
  567TMC3    O1 8472   1.174   0.497  14.695 -0.5733 -0.3157 -0.0887
  567TMC3    O2 8473   0.920   0.745  14.224  0.5081  0.1996 -0.1082
  568MPD2     C 8474   2.583   1.143  16.569 -0.5117 -0.1736 -0.2914
  568MPD2    C1 8475   2.697   1.211  16.607 -0.1547 -1.2382  0.2028
  568MPD2    C2 8476   2.741   1.325  16.548  0.0763  0.0738 -0.9585
  568MPD2    C3 8477   2.662   1.381  16.451  0.2170 -0.1802  0.3992
  568MPD2    C4 8478   2.549   1.316  16.399  0.2317 -0.5235 -0.3731
  568MPD2    C5 8479   2.511   1.198  16.468 -0.3255  0.0282 -0.1773
  568MPD2     H 8480   2.824   1.383  16.586  0.8636 -0.4825 -1.8320
  568MPD2    H1 8481   2.494   1.348  16.311  0.1240 -2.0525 -0.8633
  568MPD2    H2 8482   2.548   1.049  16.608 -2.5699  0.8438  0.3329
  568MPD2    H3 8483   2.430   1.142  16.422 -1.5290  1.1569  0.5887
  568MPD2     N 8484   2.719   1.503  16.391  0.7330  0.3524  0.1082
  568MPD2    H5 8485   2.808   1.536  16.426  0.6005  0.9349 -0.1170
  568MPD2    N1 8486   2.771   1.154  16.709 -0.2278  0.4797 -0.2359
  568MPD2    H7 8487   2.729   1.072  16.753  2.6099 -0.1622  1.2954
  569TMC3    C1 8488   2.762   1.682  16.250 -0.1576  0.1395 -0.9224
  569TMC3    C2 8489   2.798   1.756  16.359 -0.0909  0.2798 -0.1471
  569TMC3    C3 8490   2.841   1.882  16.337 -0.0372 -0.6784 -0.0955
  569TMC3    C4 8491   2.735   1.735  16.132  0.5220 -0.3440 -0.6550
  569TMC3    C5 8492   2.772   1.870  16.111 -0.4143  0.1412 -0.4015
  569TMC3    C6 8493   2.825   1.939  16.219  0.2906 -0.2181 -0.1429
  569TMC3     C 8494   2.672   1.572  16.281  0.7557  1.0771  0.2271
  569TMC3     O 8495   2.589   1.542  16.200 -0.3137  0.3372 -0.4193
  569TMC3     H 8496   2.832   1.717  16.454 -1.4912  1.0898  0.6881
  569TMC3    H1 8497   2.711   1.681  16.042 -0.1709 -0.1456 -0.5888
  569TMC3    H2 8498   2.841   2.047  16.217 -1.5910  0.0989  1.9060
  569TMC3    C7 8499   2.696   1.942  16.004 -0.0948 -0.3247 -0.3066
  569TMC3    C8 8500   2.816   1.973  16.443  0.4518 -0.4942 -0.3373
  569TMC3    O1 8501   2.609   1.880  15.941 -0.4144  0.4870  0.1140
  569TMC3    O2 8502   2.720   1.951  16.518  0.2423  0.5078 -0.2777
  570TMC3    C1 8503   2.044   0.220  16.326 -0.5317 -0.3669  0.1485
  570TMC3    C2 8504   2.076   0.250  16.194 -0.4468  0.8788  0.5195
  570TMC3    C3 8505   2.135   0.374  16.169 -0.6656 -0.2507 -0.2468
  570TMC3    C4 8506   2.068   0.315  16.426  0.2760 -0.2358  0.1822
  570TMC3    C5 8507   2.122   0.439  16.392  0.0011 -1.4083  0.1848
  570TMC3    C6 8508   2.155   0.474  16.264 -0.3661  0.9508  0.3011
  570TMC3     C 8509   1.978   0.098  16.357  0.0052  0.5552 -0.1993
  570TMC3     O 8510   1.894   0.058  16.277  0.3991 -0.6183 -0.4811
  570TMC3     H 8511   2.048   0.175  16.121  0.9341 -0.2393  1.1325
  570TMC3    H1 8512   2.009   0.293  16.514  0.8893 -0.8169  0.4455
  570TMC3    H2 8513   2.214   0.561  16.238  0.7281  0.4405  1.0925
  570TMC3    C7 8514   2.132   0.533  16.503 -0.2440 -0.0565  0.0897
  570TMC3    C8 8515   2.256   0.364  16.086  0.1575  0.4362  0.3967
  570TMC3    O1 8516   2.109   0.492  16.619  0.3412 -0.0054 -0.4045
  570TMC3    O2 8517   2.330   0.461  16.077  0.0483 -0.3798  0.4597
  571MPD2     C 8518   0.113   2.315   0.051  0.2237 -0.1148 -0.4706
  571MPD2    C1 8519   0.092   2.337   0.184  0.3571  0.1970  0.6314
  571MPD2    C2 8520   0.128   2.462   0.247 -0.1407  0.8718 -0.0369
  571MPD2    C3 8521   0.174   2.564   0.167  0.1362 -0.2143 -0.0358
  571MPD2    C4 8522   0.182   2.546   0.027 -0.2956 -0.4517 -0.0513
  571MPD2    C5 8523   0.157   2.421  17.717 -0.3931  0.3290  0.4502
  571MPD2     H 8524   0.116   2.482   0.353  1.4696  0.5791  0.1989
  571MPD2    H1 8525   0.228   2.625  17.716  0.4104 -1.3605 -0.7489
  571MPD2    H2 8526   0.100   2.222  17.743  0.5103 -0.3790 -0.0748
  571MPD2    H3 8527   0.169   2.409  17.610 -1.9234 -1.0981  0.4300
  571MPD2     N 8528   0.213   2.691   0.217 -0.4334  0.2567 -0.5572
  571MPD2    H5 8529   0.235   2.762   0.147 -0.7222 -0.6951 -1.6168
  571MPD2    N1 8530   0.053   2.225   0.259  0.0501 -0.3016 -0.2795
  571MPD2    H7 8531   0.033   2.141   0.206  2.4754 -1.7078  1.0291
  572TMC3    C1 8532   0.317   2.843   0.349  0.3287  0.1740 -0.9937
  572TMC3    C2 8533   0.412   2.858   0.449  0.5557 -0.8389  0.1807
  572TMC3    C3 8534   0.509   2.951   0.430 -0.2690  0.4463 -0.0355
  572TMC3    C4 8535   0.299   2.932   0.252  0.2789  0.2039 -0.2060
  572TMC3    C5 8536   0.401   3.028   0.241  0.5668  0.3706 -0.1984
  572TMC3    C6 8537   0.511   3.040   0.330 -0.2634  0.7421  0.0225
  572TMC3     C 8538   0.252   2.716   0.347 -0.2935 -0.3927 -0.9254
  572TMC3     O 8539   0.262   2.632   0.439  0.6070  0.0678 -0.0014
  572TMC3     H 8540   0.431   2.775   0.516  2.1108  0.4119  1.2977
  572TMC3    H1 8541   0.217   2.926   0.181  2.2194 -3.2130 -2.1302
  572TMC3    H2 8542   0.577   3.126   0.327 -0.1974  0.6998  0.2768
  572TMC3    C7 8543   0.375   3.129   0.139 -0.1937 -0.4655  0.0630
  572TMC3    C8 8544   0.611   2.969   0.529  0.6110 -0.1923  0.3383
  572TMC3    O1 8545   0.264   3.138   0.093 -0.2975  0.1448 -0.3094
  572TMC3    O2 8546   0.699   3.048   0.498  0.8231 -0.7241  0.2062
  573MPD2     C 8547   2.015   2.902   0.099  0.2204 -0.0633  0.1044
  573MPD2    C1 8548   1.979   2.772   0.121 -0.2493  0.3293  0.5931
  573MPD2    C2 8549   1.920   2.699   0.020  0.6978  0.4745  0.9590
  573MPD2    C3 8550   1.871   2.765  17.652 -0.3518 -0.2156  0.0625
  573MPD2    C4 8551   1.895   2.903  17.637  0.8553 -0.6220  0.0558
  573MPD2    C5 8552   1.973   2.962  17.731  0.5568 -0.3622 -0.4705
  573MPD2     H 8553   1.900   2.595   0.042  0.6450  0.1601 -0.5964
  573MPD2    H1 8554   1.863   2.955  17.547 -1.8008 -0.0439  1.3412
  573MPD2    H2 8555   2.075   2.963   0.166 -0.6928  0.8651  0.0797
  573MPD2    H3 8556   1.996   3.067  17.717 -2.9063  0.8231  2.7647
  573MPD2     N 8557   1.785   2.711  17.552  0.3905 -0.4540  0.5990
  573MPD2    H5 8558   1.748   2.772  17.480  1.5679 -1.0052 -0.4691
  573MPD2    N1 8559   1.999   2.703   0.245 -0.2904  0.2325  0.3609
  573MPD2    H7 8560   1.959   2.610   0.250  1.7790 -0.6930 -0.2185
  574TMC3    C1 8561   1.624   2.572  17.453  0.5166  0.2785 -0.3307
  574TMC3    C2 8562   1.570   2.691  17.395  0.0776  0.2963 -0.0443
  574TMC3    C3 8563   1.499   2.684  17.274  0.3240  0.5725  0.6452
  574TMC3    C4 8564   1.606   2.454  17.393 -0.3530 -0.2866 -0.3103
  574TMC3    C5 8565   1.526   2.456  17.280 -0.4056 -0.7230  0.6653
  574TMC3    C6 8566   1.478   2.566  17.213  0.6244  0.3460  0.3520
  574TMC3     C 8567   1.737   2.583  17.542 -0.0984  0.4228  0.2955
  574TMC3     O 8568   1.776   2.485  17.601  0.3424  0.0408 -0.6847
  574TMC3     H 8569   1.586   2.787  17.443  0.6592 -0.1383  0.6211
  574TMC3    H1 8570   1.661   2.366  17.424  2.9976  0.9443 -2.7891
  574TMC3    H2 8571   1.414   2.557  17.126  0.7504  3.1346 -0.0090
  574TMC3    C7 8572   1.479   2.327  17.217  0.6276  0.1304  0.1233
  574TMC3    C8 8573   1.409   2.791  17.231  0.4251  0.5424 -0.3762
  574TMC3    O1 8574   1.410   2.330  17.116 -0.2880 -0.0610 -0.6492
  574TMC3    O2 8575   1.399   2.810  17.108 -0.1272  0.3934 -0.2024
  575TMC3    C1 8576   3.382   3.443  11.274 -0.2846 -0.2435 -0.4109
  575TMC3    C2 8577   3.376   3.334  11.357 -0.4023  0.0590  0.1697
  575TMC3    C3 8578   3.377   3.208  11.303 -0.0132 -0.4938  0.2604
  575TMC3    C4 8579   3.409   3.423  11.141 -0.1158 -0.5938 -0.2284
  575TMC3    C5 8580   3.409   3.294  11.090  0.0434  0.2544  0.1844
  575TMC3    C6 8581   3.394   3.186  11.169  0.0812  0.8853 -0.0173
  575TMC3     C 8582   3.433   3.554  11.341  0.5274 -0.1403  0.3375
  575TMC3     O 8583   3.451   3.550  11.461  0.3644 -0.3805 -0.2048
  575TMC3     H 8584   3.357   3.335  11.463  0.1944  0.4308  0.2743
  575TMC3    H1 8585   3.408   3.507  11.072  3.2220 -0.3678 -0.0152
  575TMC3    H2 8586   3.401   3.091  11.116  2.3699 -0.1802  2.1860
  575TMC3    C7 8587   3.389   3.283  10.947  0.2969  0.2529 -0.5283
  575TMC3    C8 8588   3.413   3.097  11.387  0.6959  0.6890 -0.0037
  575TMC3    O1 8589   3.321   3.371  10.895 -0.3657 -0.1175  0.1831
  575TMC3    O2 8590   3.507   3.113  11.463  0.4625  0.5609 -0.4456
  576MPD2     C 8591   3.349   0.674  12.903 -0.3559  0.3447 -0.1026
  576MPD2    C1 8592   3.473   0.728  12.929  1.0874  0.0658 -0.0551
  576MPD2    C2 8593   3.492   0.812  13.033 -0.1210  0.7807 -0.2621
  576MPD2    C3 8594   3.400   0.832  13.126  0.5912 -0.4848 -0.4027
  576MPD2    C4 8595   3.276   0.772  13.105  0.6083 -0.2498  0.2835
  576MPD2    C5 8596   3.248   0.693  12.996 -0.4692  0.1486 -1.1934
  576MPD2     H 8597   3.596   0.842  13.047 -0.2614  0.8545  0.6111
  576MPD2    H1 8598   3.194   0.789  13.174  1.1103  3.4531 -0.0442
  576MPD2    H2 8599   3.320   0.623  12.812 -0.9904 -0.5788  0.6105
  576MPD2    H3 8600   3.146   0.659  12.980 -1.3195  0.4622  3.7786
  576MPD2     N 8601   3.437   0.918  13.232  0.1195 -0.4847 -0.4586
  576MPD2    H5 8602   3.528   0.963  13.232 -0.6383  1.0520  0.3752
  576MPD2    N1 8603   3.579   0.701  12.841  0.0261  0.4031 -0.2218
  576MPD2    H7 8604   3.668   0.747  12.853 -0.8785  1.9291  0.6410
  577TMC3    C1 8605   3.693   0.618  12.665  0.9501 -0.0936 -0.4092
  577TMC3    C2 8606   3.754   0.498  12.634  0.1675  0.7688  0.2318
  577TMC3    C3 8607   3.855   0.500  12.536 -0.6789  0.5648  0.3853
  577TMC3    C4 8608   3.730   0.736  12.616  0.4449 -0.3898  0.4010
  577TMC3    C5 8609   3.842   0.733  12.535 -0.3908  0.6898  0.3830
  577TMC3    C6 8610   3.904   0.614  12.503  0.2984  1.0792 -0.3107
  577TMC3     C 8611   3.573   0.608  12.747  0.0148 -0.1829  0.4006
  577TMC3     O 8612   3.506   0.507  12.735 -0.0704 -0.1568 -0.0400
  577TMC3     H 8613   3.703   0.405  12.656  0.8760  0.3334  0.0103
  577TMC3    H1 8614   3.678   0.830  12.634  0.2081 -0.5038  0.3111
  577TMC3    H2 8615   3.998   0.622  12.449  0.5865  0.9053  0.1634
  577TMC3    C7 8616   3.864   0.840  12.441 -0.1179 -0.9300 -0.2179
  577TMC3    C8 8617   3.861   0.389  12.449 -1.3688  0.3152  0.1203
  577TMC3    O1 8618   3.981   0.860  12.419 -0.4502 -0.4979  0.2671
  577TMC3    O2 8619   3.829   0.283  12.499  0.0847 -0.4445 -0.0957
  578MPD2     C 8620   2.536   0.192   2.148 -0.1587 -0.9373 -0.1906
  578MPD2    C1 8621   2.525   0.158   2.016 -0.1139 -0.0822 -0.0591
  578MPD2    C2 8622   2.602   0.054   1.972  0.5554  0.9207 -0.2622
  578MPD2    C3 8623   2.699   4.734   2.048  0.2847 -0.2140  0.1869
  578MPD2    C4 8624   2.706   0.028   2.183 -0.3778  0.1443  0.5072
  578MPD2    C5 8625   2.622   0.124   2.233  0.4375  0.2366 -0.0492
  578MPD2     H 8626   2.595   0.023   1.869  1.6851  0.1576 -0.1030
  578MPD2    H1 8627   2.766   4.712   2.256  0.0120 -0.0030  0.0749
  578MPD2    H2 8628   2.481   0.281   2.179 -1.0800 -1.7872  0.6118
  578MPD2    H3 8629   2.631   0.161   2.334  2.8972 -0.1443 -0.1410
  578MPD2     N 8630   2.776   4.623   1.999 -0.0516 -0.2822  0.5891
  578MPD2    H5 8631   2.756   4.590   1.906 -0.3476  0.9528  0.2136
  578MPD2    N1 8632   2.438   0.229   1.933  0.2960 -0.5778  0.4820
  578MPD2    H7 8633   2.382   0.297   1.983 -2.9303 -3.6161  1.0180
  579TMC3    C1 8634   2.953   4.461   1.978  0.0870 -0.3062 -0.5904
  579TMC3    C2 8635   3.086   4.442   1.989  0.0880 -0.2392  0.7976
  579TMC3    C3 8636   3.140   4.363   1.890 -1.2096  0.6736  0.2353
  579TMC3    C4 8637   2.878   4.425   1.865  0.3755 -0.3224  0.9244
  579TMC3    C5 8638   2.938   4.345   1.771 -0.0519  0.2551  0.6580
  579TMC3    C6 8639   3.076   4.317   1.781  0.1701 -0.6058  0.1780
  579TMC3     C 8640   2.886   4.571   2.062  0.6884 -0.7848 -0.0318
  579TMC3     O 8641   2.951   4.604   2.156 -0.4937  0.1518 -0.2335
  579TMC3     H 8642   3.140   4.480   2.075 -1.8572  1.8884  1.0801
  579TMC3    H1 8643   2.770   4.414   1.869  0.6862 -2.4944  3.3988
  579TMC3    H2 8644   3.129   4.254   1.711  2.5837  1.9462 -0.2909
  579TMC3    C7 8645   2.858   4.247   1.704  0.7729  0.0571 -0.2269
  579TMC3    C8 8646   3.285   4.357   1.897  0.7090 -0.0109 -0.3247
  579TMC3    O1 8647   2.915   4.142   1.674  0.1482 -0.0595 -0.8459
  579TMC3    O2 8648   3.333   4.327   2.006  0.5830 -0.4659 -0.0483
  580TMC3    C1 8649   0.908   4.634  12.374 -0.8023  0.1045  0.4792
  580TMC3    C2 8650   0.950   0.016  12.427 -0.3747  0.1204  0.2835
  580TMC3    C3 8651   1.074   0.027  12.482 -0.5310 -0.7476  0.1797
  580TMC3    C4 8652   1.005   4.540  12.354 -0.2199 -0.1476  0.6139
  580TMC3    C5 8653   1.131   4.546  12.413 -0.0660  0.7308 -0.0655
  580TMC3    C6 8654   1.163   4.659  12.482 -0.4947 -0.0453 -0.4803
  580TMC3     C 8655   0.846   4.661  12.247  0.4470  0.0691 -0.3613
  580TMC3     O 8656   0.919   4.635  12.154 -0.5603 -0.0373 -0.2439
  580TMC3     H 8657   0.887   0.104  12.420 -0.9436 -0.3538 -0.4971
  580TMC3    H1 8658   0.983   4.442  12.312 -3.2888  1.2747 -1.1222
  580TMC3    H2 8659   1.252   4.671  12.543 -0.8017 -0.2994  0.0226
  580TMC3    C7 8660   1.233   4.443  12.402 -0.5646  0.1774  0.2034
  580TMC3    C8 8661   1.126   0.152  12.438 -0.4055  0.6236  0.2623
  580TMC3    O1 8662   1.332   4.457  12.473 -0.1974 -0.4823 -0.7372
  580TMC3    O2 8663   1.050   0.247  12.437 -0.1294  0.0743  0.0584
  581MPD2     C 8664   3.885   3.525  14.997 -0.3842 -0.2886  0.7299
  581MPD2    C1 8665   3.788   3.597  15.060  0.4005 -0.8727 -0.2653
  581MPD2    C2 8666   3.737   3.718  15.001  1.0787 -0.0126  0.4461
  581MPD2    C3 8667   3.795   3.776  14.891  0.3083  0.7336  0.2470
  581MPD2    C4 8668   3.908   3.718  14.835  0.3787  0.2352  0.7323
  581MPD2    C5 8669   3.945   3.589  14.890  0.1735  0.1211 -0.3437
  581MPD2     H 8670   3.663   3.777  15.054  0.9628 -1.9051  2.4227
  581MPD2    H1 8671   3.966   3.756  14.751 -0.0692 -2.5896 -0.8707
  581MPD2    H2 8672   3.920   3.430  15.036  3.2641  0.5433 -0.4624
  581MPD2    H3 8673   4.014   3.532  14.829 -0.2774 -0.6619 -0.1280
  581MPD2     N 8674   3.760   3.899  14.851 -0.0391  0.1698  0.5043
  581MPD2    H5 8675   3.690   3.944  14.910 -1.6646  1.0426 -2.0820
  581MPD2    N1 8676   3.739   3.539  15.175  0.7800 -0.1360 -1.5035
  581MPD2    H7 8677   3.788   3.458  15.214  1.3838  0.8576 -0.1917
  582TMC3    C1 8678   3.667   3.591  15.395  0.2360 -0.3096  0.8397
  582TMC3    C2 8679   3.798   3.604  15.422 -0.0392  0.1368  0.8481
  582TMC3    C3 8680   3.833   3.696  15.518  0.4257  0.0968  0.6662
  582TMC3    C4 8681   3.573   3.660  15.464  0.3759  0.1366  0.1302
  582TMC3    C5 8682   3.618   3.762  15.543  0.6563 -0.1768  0.4166
  582TMC3    C6 8683   3.750   3.789  15.565 -0.5086  0.9814  0.3933
  582TMC3     C 8684   3.639   3.601  15.252  0.2948 -0.6197 -0.3271
  582TMC3     O 8685   3.543   3.661  15.213 -0.5718 -0.3473  0.5100
  582TMC3     H 8686   3.881   3.559  15.370  0.2639  2.0946 -0.3659
  582TMC3    H1 8687   3.468   3.646  15.439 -0.0225 -0.2771  2.0832
  582TMC3    H2 8688   3.776   3.862  15.641 -3.2167  1.2298  1.0778
  582TMC3    C7 8689   3.525   3.873  15.554 -0.4623 -0.8340 -0.7567
  582TMC3    C8 8690   3.976   3.722  15.526 -0.5924 -0.0847 -0.2297
  582TMC3    O1 8691   3.412   3.845  15.522  0.3308 -0.3212 -0.3128
  582TMC3    O2 8692   4.048   3.704  15.429  0.1184  0.2872  0.5041
  583MPD2     C 8693   4.356   0.893  17.170 -0.0388  0.1211  0.3864
  583MPD2    C1 8694   4.352   1.010  17.087  0.1418  1.0121 -0.5949
  583MPD2    C2 8695   4.268   1.110  17.127  0.5822 -0.5871 -0.2354
  583MPD2    C3 8696   4.188   1.101  17.241 -0.7492  0.2968  0.9327
  583MPD2    C4 8697   4.182   0.984  17.311  0.2999  0.0770 -0.0497
  583MPD2    C5 8698   4.265   0.879  17.281 -0.1992 -0.5590  0.5034
  583MPD2     H 8699   4.272   1.207  17.078  1.4908 -0.7257 -0.4376
  583MPD2    H1 8700   4.126   0.967  17.402  1.7347 -0.7779  0.6757
  583MPD2    H2 8701   4.412   0.803  17.148  1.0970  0.7352  0.7422
  583MPD2    H3 8702   4.256   0.789  17.341  2.4825 -2.0370 -1.2996
  583MPD2     N 8703   4.118   1.219  17.274 -0.5387  0.8655 -0.3188
  583MPD2    H5 8704   4.121   1.287  17.200 -0.4749 -0.7263 -1.7768
  583MPD2    N1 8705   4.430   1.022  16.969  0.1055  0.5220 -0.3316
  583MPD2    H7 8706   4.403   1.096  16.905 -1.7284 -0.2415 -0.4150
  584TMC3    C1 8707   3.982   1.369  17.405  0.1830 -0.9901  0.1838
  584TMC3    C2 8708   4.050   1.478  17.355 -0.0902  0.0926  0.1004
  584TMC3    C3 8709   4.032   1.602  17.411  0.0194  0.2228 -0.2598
  584TMC3    C4 8710   3.894   1.386  17.508  0.4064  0.0730  0.8544
  584TMC3    C5 8711   3.880   1.506  17.573 -0.3324  0.0323 -0.4126
  584TMC3    C6 8712   3.950   1.616  17.520 -0.5089  0.0801 -0.8663
  584TMC3     C 8713   4.040   1.237  17.389  0.8364  0.6341  0.0333
  584TMC3     O 8714   4.010   1.155  17.474 -0.0477  0.0009 -0.5813
  584TMC3     H 8715   4.121   1.465  17.273  2.5705  2.2537  2.0550
  584TMC3    H1 8716   3.855   1.297  17.556  0.6744 -0.2479  0.4794
  584TMC3    H2 8717   3.937   1.715  17.562 -3.0831 -0.3302 -0.6981
  584TMC3    C7 8718   3.836   1.504  17.708  0.9122  0.5719  0.2264
  584TMC3    C8 8719   4.087   1.710  17.337 -0.3043 -0.5769  0.0892
  584TMC3    O1 8720   3.769   1.411   0.002  0.3312  0.3663  0.0344
  584TMC3    O2 8721   4.060   1.696  17.219 -0.2257 -0.0985  0.2042
  585MPD2     C 8722   3.237   4.693   0.501  0.5200 -0.8680  0.2342
  585MPD2    C1 8723   3.225   0.056   0.413 -0.7460  0.4698  0.1535
  585MPD2    C2 8724   3.241   0.019   0.280  0.1733  0.1566 -0.6994
  585MPD2    C3 8725   3.286   4.634   0.236  0.9012 -0.2880  0.4476
  585MPD2    C4 8726   3.291   4.536   0.329  0.0314  0.3331 -1.0698
  585MPD2    C5 8727   3.274   4.564   0.457 -0.1612 -0.7070  0.6510
  585MPD2     H 8728   3.231   0.094   0.201 -0.6132  0.3839 -0.3846
  585MPD2    H1 8729   3.323   4.434   0.309  0.7467  0.4053 -0.2636
  585MPD2    H2 8730   3.218   4.698   0.607  2.4496  0.9211  0.4937
  585MPD2    H3 8731   3.280   4.478   0.522  0.2373 -1.2671 -0.1191
  585MPD2     N 8732   3.321   4.596   0.105  0.0145 -0.3558  1.1378
  585MPD2    H5 8733   3.323   4.496   0.089 -0.0912 -0.5734  2.4348
  585MPD2    N1 8734   3.202   0.184   0.460 -0.7415  0.1895 -0.4770
  585MPD2    H7 8735   3.181   0.197   0.559 -0.3552  1.6013 -0.5858
  586TMC3    C1 8736   3.346   4.632  17.622 -0.3285  0.5099 -0.8473
  586TMC3    C2 8737   3.462   4.646  17.541  0.4444 -0.4467  0.3170
  586TMC3    C3 8738   3.457   4.580  17.426  0.3511  0.3824  0.4299
  586TMC3    C4 8739   3.230   4.569  17.588 -0.4232 -0.3107  0.0300
  586TMC3    C5 8740   3.226   4.529  17.460  0.2999  0.0807  0.6265
  586TMC3    C6 8741   3.336   4.529  17.383 -0.0495 -1.0394 -0.6032
  586TMC3     C 8742   3.344   4.692   0.005  0.8401  0.0813 -0.2668
  586TMC3     O 8743   3.373   0.073   0.017 -0.3886  0.0866 -0.4958
  586TMC3     H 8744   3.553   4.689  17.579 -0.1030  0.3307  0.7558
  586TMC3    H1 8745   3.146   4.561  17.656 -0.4657  2.7381  0.3102
  586TMC3    H2 8746   3.327   4.505  17.278 -0.5640 -0.5184 -0.6807
  586TMC3    C7 8747   3.124   4.449  17.412  1.0770 -0.7458  0.0427
  586TMC3    C8 8748   3.568   4.499  17.386 -0.2907 -0.5712 -0.5641
  586TMC3    O1 8749   3.040   4.418  17.501  0.1650 -0.9191 -0.6359
  586TMC3    O2 8750   3.537   4.421  17.296 -0.3405 -0.5368  0.0812
  587TMC3    C1 8751   1.004   3.782  16.153  0.0139 -0.8789 -0.6079
  587TMC3    C2 8752   1.039   3.822  16.277 -0.3358 -0.2935  0.3304
  587TMC3    C3 8753   1.169   3.799  16.312  0.6639 -0.4963 -0.5893
  587TMC3    C4 8754   1.090   3.734  16.059 -0.1656  0.0994  0.3772
  587TMC3    C5 8755   1.223   3.714  16.098  0.2949  0.4543  0.2369
  587TMC3    C6 8756   1.262   3.742  16.223  0.1232  0.6702 -0.3117
  587TMC3     C 8757   0.863   3.768  16.116 -0.1173  0.4235 -0.1011
  587TMC3     O 8758   0.842   3.782  15.999 -0.4698  0.3093  0.5920
  587TMC3     H 8759   0.965   3.871  16.339 -0.5772  0.3427 -0.4694
  587TMC3    H1 8760   1.043   3.700  15.967 -2.0686  2.2748  0.5392
  587TMC3    H2 8761   1.366   3.733  16.254  0.2968 -1.2579 -1.4482
  587TMC3    C7 8762   1.261   3.589  16.044  0.5455  0.0501  0.0825
  587TMC3    C8 8763   1.211   3.855  16.442 -0.0818 -0.9457 -0.3817
  587TMC3    O1 8764   1.170   3.515  16.010  0.2517  0.1597 -0.0923
  587TMC3    O2 8765   1.309   3.793  16.492  0.2984 -0.0921  0.1269
  588TMC3    C1 8766   3.593   1.886  10.094 -0.1318 -0.2890  1.4306
  588TMC3    C2 8767   3.541   1.762  10.142  0.1163  0.9287  0.2757
  588TMC3    C3 8768   3.631   1.665  10.177 -0.1155 -0.0793  0.1610
  588TMC3    C4 8769   3.730   1.902  10.086  0.4211 -0.2560  0.5182
  588TMC3    C5 8770   3.809   1.798  10.121  0.4812  0.6074 -0.3024
  588TMC3    C6 8771   3.766   1.676  10.169 -0.4443  0.3375 -0.2448
  588TMC3     C 8772   3.495   1.993  10.059 -0.1109 -0.2966  0.2582
  588TMC3     O 8773   3.405   1.975   9.972  0.0542 -0.5873  0.0121
  588TMC3     H 8774   3.433   1.748  10.137  0.0661  1.2604  0.4173
  588TMC3    H1 8775   3.771   1.992  10.041 -0.3886 -0.5031 -0.7022
  588TMC3    H2 8776   3.839   1.599  10.190  0.3979  0.5526 -2.3879
  588TMC3    C7 8777   3.951   1.828  10.138  0.5138  0.0956 -1.1082
  588TMC3    C8 8778   3.583   1.534  10.176  0.6416 -0.0704  0.0103
  588TMC3    O1 8779   4.033   1.742  10.112  0.1403  0.6140  0.3217
  588TMC3    O2 8780   3.470   1.527  10.125  0.0929 -0.1400  0.0615
  589TMC3    C1 8781   2.543   3.282   1.352 -0.2108 -0.0336 -0.0636
  589TMC3    C2 8782   2.667   3.289   1.407 -0.6667  0.6256  0.5779
  589TMC3    C3 8783   2.782   3.267   1.336 -1.1144 -0.0552 -0.0260
  589TMC3    C4 8784   2.530   3.246   1.222  0.3271  0.2869  0.4591
  589TMC3    C5 8785   2.648   3.235   1.149  1.0933 -0.3889 -0.3516
  589TMC3    C6 8786   2.772   3.230   1.205  0.3116  0.5353 -0.5762
  589TMC3     C 8787   2.425   3.306   1.432 -0.3917  0.4235  0.3228
  589TMC3     O 8788   2.322   3.267   1.381 -0.5467  0.2576  0.0599
  589TMC3     H 8789   2.675   3.318   1.511 -1.3141  0.4837  0.6692
  589TMC3    H1 8790   2.438   3.252   1.165 -0.6390  1.3224  2.1161
  589TMC3    H2 8791   2.855   3.205   1.140  0.4833  3.0292 -1.3109
  589TMC3    C7 8792   2.640   3.217   1.006  0.6997 -0.0277 -0.4154
  589TMC3    C8 8793   2.911   3.280   1.405  0.4956 -0.0005  0.1564
  589TMC3    O1 8794   2.548   3.147   0.970 -0.2286 -0.4200 -0.2154
  589TMC3    O2 8795   2.916   3.249   1.524 -0.2104  0.9720 -0.2663
  590MPD2     C 8796   1.631   2.219  16.907  0.2869 -0.3088  0.0754
  590MPD2    C1 8797   1.616   2.260  16.776 -0.0623  0.6028 -0.2286
  590MPD2    C2 8798   1.725   2.272  16.690 -0.1258 -0.3518  0.1632
  590MPD2    C3 8799   1.847   2.254  16.744  0.4812  0.6597 -0.2589
  590MPD2    C4 8800   1.866   2.199  16.871  0.1079 -0.4316 -0.2002
  590MPD2    C5 8801   1.760   2.169  16.946  0.1442  0.5942  0.0078
  590MPD2     H 8802   1.719   2.326  16.595  0.3466  0.1598  0.4221
  590MPD2    H1 8803   1.959   2.192  16.926  0.3347  0.3246 -0.4774
  590MPD2    H2 8804   1.545   2.206  16.972  1.0403 -0.8708  0.9660
  590MPD2    H3 8805   1.776   2.121  17.042 -0.7542  2.0012  0.8542
  590MPD2     N 8806   1.960   2.302  16.664 -0.2671 -0.0195 -0.1741
  590MPD2    H5 8807   1.937   2.350  16.578 -1.8059 -0.4453  0.0002
  590MPD2    N1 8808   1.489   2.308  16.732  0.0185 -0.1360 -0.2564
  590MPD2    H7 8809   1.415   2.327  16.799  0.0282 -0.0893 -0.2592
  591TMC3    C1 8810   2.174   2.372  16.597  0.0462 -0.2354 -0.4757
  591TMC3    C2 8811   2.155   2.316  16.476  0.0147  0.0425  0.5994
  591TMC3    C3 8812   2.265   2.310  16.392 -0.3228  0.1483  0.2410
  591TMC3    C4 8813   2.292   2.421  16.634  0.1763  0.7179 -0.1435
  591TMC3    C5 8814   2.396   2.419  16.544  0.2243 -0.1133  0.1775
  591TMC3    C6 8815   2.386   2.364  16.423 -0.2462 -0.7337  0.6418
  591TMC3     C 8816   2.092   2.292  16.688  0.2419 -1.2388  0.4834
  591TMC3     O 8817   2.149   2.239  16.784  0.3478 -0.2504  0.4721
  591TMC3     H 8818   2.066   2.267  16.436 -0.9379  2.7952 -0.6480
  591TMC3    H1 8819   2.306   2.481  16.723  2.0843  0.3746 -0.2273
  591TMC3    H2 8820   2.470   2.342  16.358 -0.7833 -1.4290  0.1867
  591TMC3    C7 8821   2.497   2.522  16.555  0.0669 -0.1245  0.8229
  591TMC3    C8 8822   2.274   2.200  16.288  0.1889  0.3858 -0.4013
  591TMC3    O1 8823   2.535   2.551  16.673  0.4270  0.6168 -0.4858
  591TMC3    O2 8824   2.382   2.143  16.281  0.0603  0.5519  0.0467
  592MPD2     C 8825   2.420   4.130  11.071 -0.6124 -0.1951  0.7195
  592MPD2    C1 8826   2.386   4.223  11.168 -0.0667 -0.0823  0.1462
  592MPD2    C2 8827   2.341   4.178  11.294 -0.1569 -0.2137 -0.8819
  592MPD2    C3 8828   2.335   4.039  11.325 -0.3735 -1.0787  0.2825
  592MPD2    C4 8829   2.375   3.947  11.223  0.4733 -0.0855 -0.0401
  592MPD2    C5 8830   2.407   4.000  11.101 -0.1191  0.4307  0.5310
  592MPD2     H 8831   2.318   4.250  11.371 -0.4207 -2.5833  1.2455
  592MPD2    H1 8832   2.373   3.839  11.230  1.6026 -0.0014  1.7229
  592MPD2    H2 8833   2.444   4.158  10.969 -0.3299  0.6330  1.0139
  592MPD2    H3 8834   2.420   3.928  11.020 -0.4637 -0.0204  0.8779
  592MPD2     N 8835   2.284   3.995  11.446  0.1175 -0.3304  0.0273
  592MPD2    H5 8836   2.257   4.065  11.515 -0.3438  1.4856 -2.0133
  592MPD2    N1 8837   2.418   4.363  11.144  0.1417 -0.1225 -0.2719
  592MPD2    H7 8838   2.462   4.386  11.056  0.8677  0.9830  0.3779
  593TMC3    C1 8839   2.424   4.591  11.189  0.2938 -0.4015  0.1221
  593TMC3    C2 8840   2.354   4.700  11.228  0.0904  0.8866 -0.5111
  593TMC3    C3 8841   2.379   0.078  11.158 -0.7055  0.6090  0.1829
  593TMC3    C4 8842   2.531   4.597  11.101  0.6070 -0.2272 -0.4373
  593TMC3    C5 8843   2.548   4.707  11.028  0.2454 -0.0063  0.3631
  593TMC3    C6 8844   2.463   0.078  11.056  0.2336  0.0316 -0.2946
  593TMC3     C 8845   2.375   4.463  11.226  0.9970  0.6155  0.2664
  593TMC3     O 8846   2.288   4.468  11.313 -0.2187  0.2916  0.2028
  593TMC3     H 8847   2.271   4.704  11.298  0.1359 -0.4561 -0.3710
  593TMC3    H1 8848   2.603   4.517  11.093  1.3535  0.4384 -0.3795
  593TMC3    H2 8849   2.471   0.174  11.007  0.0055  1.2104  2.0014
  593TMC3    C7 8850   2.685   0.012  11.007 -0.7701 -0.4555 -0.2554
  593TMC3    C8 8851   2.389   0.199  11.234 -0.6329 -0.0088 -0.1760
  593TMC3    O1 8852   2.777   4.681  11.059 -0.2404 -0.1995  1.2197
  593TMC3    O2 8853   2.375   0.307  11.184 -0.3793  0.0165 -0.7953
  594MPD2     C 8854   1.146   2.481  13.841  0.3550  0.1976 -0.2788
  594MPD2    C1 8855   1.128   2.501  13.981 -0.3048 -0.3278 -0.1943
  594MPD2    C2 8856   1.223   2.578  14.056  0.7586 -0.3288 -0.0767
  594MPD2    C3 8857   1.337   2.625  13.990  0.4297 -0.0968  0.3058
  594MPD2    C4 8858   1.360   2.589  13.858  0.1544  0.2100 -1.0309
  594MPD2    C5 8859   1.254   2.539  13.789  0.1040 -0.7810  0.4315
  594MPD2     H 8860   1.198   2.605  14.158 -0.4232 -0.5659 -0.3032
  594MPD2    H1 8861   1.448   2.626  13.807  0.6513 -1.3472 -1.3067
  594MPD2    H2 8862   1.075   2.444  13.767  0.2936  1.2805 -0.7582
  594MPD2    H3 8863   1.268   2.538  13.681 -1.9354  1.2022  0.1717
  594MPD2     N 8864   1.423   2.718  14.053  0.3714 -0.2008  0.7772
  594MPD2    H5 8865   1.393   2.752  14.144 -0.1884  0.4061  0.3716
  594MPD2    N1 8866   1.010   2.460  14.040 -0.3628  0.0279 -0.2289
  594MPD2    H7 8867   0.925   2.449  13.984  0.4510 -0.6951 -1.3248
  595TMC3    C1 8868   1.803   2.964  14.140  0.5536 -0.0106  0.2927
  595TMC3    C2 8869   1.752   2.842  14.096  0.1934 -0.1804 -0.1792
  595TMC3    C3 8870   1.619   2.835  14.103 -0.2369  0.5954  0.0926
  595TMC3    C4 8871   1.728   3.069  14.171  0.1120 -0.7846 -0.4844
  595TMC3    C5 8872   1.596   3.065  14.167 -0.7462  0.1960 -0.4003
  595TMC3    C6 8873   1.541   2.946  14.129  0.6165 -0.3048  0.7784
  595TMC3     C 8874   1.920   2.972  14.228  0.1602  0.3495 -1.0695
  595TMC3     O 8875   1.972   3.077  14.238 -0.0496 -0.5611 -0.0471
  595TMC3     H 8876   1.811   2.759  14.057  1.5162 -0.3420  2.2097
  595TMC3    H1 8877   1.778   3.165  14.187  0.7262 -1.3755  1.1386
  595TMC3    H2 8878   1.433   2.943  14.133  0.6754 -3.7326 -0.1962
  595TMC3    C7 8879   1.529   3.144  14.266  0.0537  0.0725  0.3053
  595TMC3    C8 8880   1.561   2.726  14.016 -0.1670  0.4288  0.5738
  595TMC3    O1 8881   1.407   3.125  14.277 -0.2713  0.1735  0.1376
  595TMC3    O2 8882   1.633   2.664  13.940 -1.0659 -0.6148 -0.7484
  596MPD2     C 8883   0.464   0.866  17.153 -0.1441  0.3572  0.2006
  596MPD2    C1 8884   0.481   0.978  17.071  0.6293 -0.2636 -0.4610
  596MPD2    C2 8885   0.538   0.965  16.947 -0.2226  0.3331 -0.0182
  596MPD2    C3 8886   0.562   0.849  16.887 -0.2109  0.9096  0.4957
  596MPD2    C4 8887   0.537   0.732  16.958 -1.0353 -0.4916 -0.5018
  596MPD2    C5 8888   0.490   0.742  17.094 -0.1315  0.2654  0.4670
  596MPD2     H 8889   0.555   1.060  16.899 -0.3624  0.0942 -0.5364
  596MPD2    H1 8890   0.547   0.630  16.923  1.2137 -0.5834  0.3472
  596MPD2    H2 8891   0.422   0.865  17.253  0.2497  0.5720  0.3641
  596MPD2    H3 8892   0.488   0.647  17.147 -3.2462 -0.4632 -0.9406
  596MPD2     N 8893   0.604   0.832  16.756  0.1957  0.1917 -0.0173
  596MPD2    H5 8894   0.605   0.737  16.719 -0.8309  0.3401 -0.4322
  596MPD2    N1 8895   0.469   1.113  17.120  0.1649 -0.1082 -0.4150
  596MPD2    H7 8896   0.480   1.197  17.064 -0.5919  0.1126 -0.2330
  597TMC3    C1 8897   0.384   1.291  17.266  0.5189  0.0372  0.8634
  597TMC3    C2 8898   0.427   1.384  17.183 -1.0759 -0.5499  0.0681
  597TMC3    C3 8899   0.404   1.510  17.207 -0.3605  0.2926 -0.1209
  597TMC3    C4 8900   0.310   1.323  17.381  0.8485 -0.5724 -0.1473
  597TMC3    C5 8901   0.279   1.459  17.389 -0.7008  0.0332 -0.8569
  597TMC3    C6 8902   0.326   1.556  17.310  0.1628  0.3043 -0.0457
  597TMC3     C 8903   0.417   1.149  17.247  0.5264  0.1798 -0.7147
  597TMC3     O 8904   0.402   1.080  17.345 -0.1200 -0.1574  0.6860
  597TMC3     H 8905   0.483   1.361  17.093 -0.2584  0.8888  0.2052
  597TMC3    H1 8906   0.267   1.253  17.451 -1.9686  0.7246 -0.5925
  597TMC3    H2 8907   0.304   1.662  17.314 -0.4472  0.2978 -3.4681
  597TMC3    C7 8908   0.158   1.489  17.466  0.1759 -0.0056  0.3819
  597TMC3    C8 8909   0.440   1.611  17.105  0.5334  0.1916 -0.4081
  597TMC3    O1 8910   0.113   1.399  17.535  0.0618  0.1753 -0.3390
  597TMC3    O2 8911   0.416   1.726  17.127  0.5509  0.5024 -0.0609
  598TMC3    C1 8912   2.995   2.265  15.604 -0.1985 -0.1163 -0.5936
  598TMC3    C2 8913   2.907   2.161  15.591  0.0729 -0.0928 -0.2442
  598TMC3    C3 8914   2.847   2.151  15.468  0.6186  0.0800 -0.4888
  598TMC3    C4 8915   3.033   2.354  15.502 -0.2032  0.1538  0.3792
  598TMC3    C5 8916   2.956   2.345  15.384  0.3169  0.0109 -0.1418
  598TMC3    C6 8917   2.856   2.250  15.374  0.2976 -0.5881  0.4826
  598TMC3     C 8918   3.054   2.300  15.734 -0.3024  0.1766 -0.0402
  598TMC3     O 8919   3.083   2.416  15.757  0.1505  0.3075 -0.3788
  598TMC3     H 8920   2.884   2.091  15.671  0.4843  2.3145  1.9758
  598TMC3    H1 8921   3.110   2.431  15.508 -0.1440  0.1009  0.3012
  598TMC3    H2 8922   2.800   2.282  15.286 -0.6057 -3.6518 -0.0416
  598TMC3    C7 8923   2.997   2.424  15.267  0.3078 -0.0069 -0.5894
  598TMC3    C8 8924   2.752   2.049  15.440 -0.3931  0.2863 -1.0560
  598TMC3    O1 8925   2.980   2.368  15.160  0.2320  0.1461  0.6348
  598TMC3    O2 8926   2.701   1.995  15.534 -0.0373 -0.0249  0.0750
  599MPD2     C 8927   3.267   0.053  16.063  0.0823  0.5272  0.0862
  599MPD2    C1 8928   3.193   4.675  16.045  0.3022  0.0664 -0.4116
  599MPD2    C2 8929   3.052   4.672  16.065 -0.1167  0.3922  1.2060
  599MPD2    C3 8930   2.989   0.052  16.105 -0.0810  0.3807 -0.5249
  599MPD2    C4 8931   3.062   0.169  16.110 -0.8109 -0.1145  0.1460
  599MPD2    C5 8932   3.196   0.168  16.086  0.4345  0.0295 -0.3111
  599MPD2     H 8933   2.996   4.579  16.062 -0.5083  0.7384 -2.1811
  599MPD2    H1 8934   3.004   0.258  16.130  0.2521  0.5917  0.0534
  599MPD2    H2 8935   3.376   0.055  16.059  0.1234  0.4074  1.1121
  599MPD2    H3 8936   3.250   0.261  16.096 -4.1156  2.7775 -1.4106
  599MPD2     N 8937   2.855   0.057  16.141 -0.2392  0.5638 -0.1464
  599MPD2    H5 8938   2.828   0.141  16.191 -1.6656 -0.4062  0.7217
  599MPD2    N1 8939   3.260   4.566  16.000  0.2923  0.0260 -0.0590
  599MPD2    H7 8940   3.360   4.580  16.007  0.1112  1.6146 -0.6623
  600TMC3    C1 8941   2.634   4.732  16.196 -0.3973 -0.2535 -0.1316
  600TMC3    C2 8942   2.545   4.637  16.224  0.4375  0.6749  0.2232
  600TMC3    C3 8943   2.427   4.669  16.285  0.2948  0.2164 -0.9370
  600TMC3    C4 8944   2.613   0.128  16.243  0.2117  0.4242 -0.5986
  600TMC3    C5 8945   2.496   0.158  16.306  0.3926 -0.7189  0.3682
  600TMC3    C6 8946   2.404   0.062  16.324 -0.6032 -0.3432 -0.3977
  600TMC3     C 8947   2.755   4.696  16.133  0.0785  0.0554  0.5492
  600TMC3     O 8948   2.755   4.589  16.073  0.0125 -0.4468 -0.2124
  600TMC3     H 8949   2.553   4.539  16.180  1.4002  0.8972 -0.0975
  600TMC3    H1 8950   2.684   0.208  16.229 -0.7229  1.3381 -0.1797
  600TMC3    H2 8951   2.314   0.079  16.381  0.8446 -0.8511  2.0819
  600TMC3    C7 8952   2.492   0.280  16.395  0.3407 -0.7237  0.4593
  600TMC3    C8 8953   2.324   4.567  16.303 -0.4264  0.6287  0.2396
  600TMC3    O1 8954   2.418   0.273  16.489 -0.2685  0.3916  0.0119
  600TMC3    O2 8955   2.208   4.613  16.302 -0.8800  0.1329  0.3104
  601MPD2     C 8956   0.520   3.559  17.652  0.4464 -0.1913  0.4220
  601MPD2    C1 8957   0.399   3.505  17.677 -0.2534 -0.1980 -0.4811
  601MPD2    C2 8958   0.385   3.382  17.737  0.3620 -0.2201  1.2592
  601MPD2    C3 8959   0.497   3.309   0.027 -0.1165 -0.1921  0.1263
  601MPD2    C4 8960   0.620   3.365  17.741  0.1556 -0.0479 -0.6793
  601MPD2    C5 8961   0.629   3.491  17.689  0.3896 -0.4033  0.2827
  601MPD2     H 8962   0.286   3.341   0.009  0.7267 -0.9019  1.7314
  601MPD2    H1 8963   0.714   3.316   0.017  1.5788  3.1575  0.4318
  601MPD2    H2 8964   0.548   3.653  17.607 -3.0306  1.1106  1.0023
  601MPD2    H3 8965   0.724   3.539  17.667 -0.0245  0.0511 -0.5277
  601MPD2     N 8966   0.488   3.197   0.106  0.3239  0.3250  0.2290
  601MPD2    H5 8967   0.573   3.154   0.141 -0.4370 -1.5727 -0.2708
  601MPD2    N1 8968   0.287   3.571  17.624 -0.1211  0.1289 -0.0604
  601MPD2    H7 8969   0.208   3.507  17.629 -0.6900  0.8823  0.5140
  602TMC3    C1 8970   0.155   3.741  17.514  0.1226  0.6363 -0.5664
  602TMC3    C2 8971   0.099   3.862  17.541  0.7961  0.1113  0.2210
  602TMC3    C3 8972   4.711   3.873  17.485 -0.2490 -0.4108 -0.7562
  602TMC3    C4 8973   0.093   3.640  17.443  0.3857 -0.8658 -0.1767
  602TMC3    C5 8974   4.706   3.658  17.392 -0.2707  0.0892  0.2591
  602TMC3    C6 8975   4.636   3.776  17.416  0.2134 -0.1349 -1.1484
  602TMC3     C 8976   0.281   3.701  17.588 -0.3474 -0.3284 -0.6980
  602TMC3     O 8977   0.362   3.790  17.610  0.4961 -0.6032  0.0827
  602TMC3     H 8978   0.148   3.939  17.599  1.3689  0.1795 -0.3523
  602TMC3    H1 8979   0.148   3.549  17.421 -0.4939 -1.1837 -1.0319
  602TMC3    H2 8980   4.533   3.794  17.386  0.6125  0.5303 -2.1143
  602TMC3    C7 8981   4.642   3.549  17.314 -0.1863  0.0501  0.0397
  602TMC3    C8 8982   4.640   3.993  17.490 -0.5310 -0.2121  0.0982
  602TMC3    O1 8983   4.680   3.431  17.329  0.9083  0.0002 -0.3650
  602TMC3    O2 8984   4.643   4.050  17.599  0.1867 -0.1752 -0.2535
  603TMC3    C1 8985   3.145   3.856  11.360 -0.2794  0.1028  0.5859
  603TMC3    C2 8986   3.141   3.833  11.498 -0.2386 -0.0695  0.0120
  603TMC3    C3 8987   3.187   3.927  11.584 -0.3766  0.2904 -0.5517
  603TMC3    C4 8988   3.183   3.975  11.310  0.1498  0.4493  0.6065
  603TMC3    C5 8989   3.218   4.068  11.405 -0.5056 -0.3770 -0.0413
  603TMC3    C6 8990   3.232   4.049  11.537  0.0695 -0.1261  0.1586
  603TMC3     C 8991   3.107   3.763  11.259 -0.0103  0.3070  0.1458
  603TMC3     O 8992   3.121   3.798  11.142  0.3667 -0.4368  0.1328
  603TMC3     H 8993   3.097   3.743  11.538 -0.6877  1.2423  2.4189
  603TMC3    H1 8994   3.194   3.993  11.204  0.4520 -1.1454  0.3675
  603TMC3    H2 8995   3.272   4.125  11.603 -0.1070  0.1329 -0.0326
  603TMC3    C7 8996   3.284   4.189  11.357  0.1095  0.1464  0.4990
  603TMC3    C8 8997   3.251   3.872  11.699  0.5674  0.3466  0.5458
  603TMC3    O1 8998   3.380   4.226  11.427  0.0567 -0.8478 -0.0117
  603TMC3    O2 8999   3.242   3.752  11.713  0.3955  0.1830 -0.0401
  604MPD2     C 9000   3.956   1.929  16.561 -0.2309  0.5824  0.1784
  604MPD2    C1 9001   3.932   2.011  16.450  0.3024  0.3598 -0.2379
  604MPD2    C2 9002   3.974   1.972  16.324  0.7757 -0.2634 -0.3197
  604MPD2    C3 9003   4.035   1.851  16.306 -0.1773 -0.4803  0.2341
  604MPD2    C4 9004   4.063   1.771  16.413 -0.2463  0.9468  0.0280
  604MPD2    C5 9005   4.026   1.816  16.541  0.1469 -0.4096 -0.0935
  604MPD2     H 9006   3.961   2.043  16.243 -2.5367 -0.6802 -0.1470
  604MPD2    H1 9007   4.107   1.672  16.408 -0.9848  0.6602 -0.9522
  604MPD2    H2 9008   3.931   1.961  16.661  0.9346  1.1585  0.2892
  604MPD2    H3 9009   4.015   1.743  16.620 -2.0876  0.2491  0.2031
  604MPD2     N 9010   4.081   1.824  16.181 -0.2365 -0.0174 -0.3060
  604MPD2    H5 9011   4.067   1.891  16.106  1.0002  0.4848 -0.0906
  604MPD2    N1 9012   3.882   2.146  16.474 -0.6230  0.7702  0.1873
  604MPD2    H7 9013   3.884   2.171  16.573  0.9640  0.9572  0.1088
  605TMC3    C1 9014   3.835   2.374  16.428 -0.1909  0.3943 -0.7146
  605TMC3    C2 9015   3.917   2.397  16.537  0.1038  0.2415 -0.2011
  605TMC3    C3 9016   3.885   2.493  16.621 -0.1788  0.0256 -0.3447
  605TMC3    C4 9017   3.725   2.445  16.403 -0.0463  0.3252 -0.3676
  605TMC3    C5 9018   3.692   2.537  16.493 -0.4704 -0.6008  0.1607
  605TMC3    C6 9019   3.769   2.562  16.607 -0.0920 -0.0381 -0.2660
  605TMC3     C 9020   3.845   2.237  16.376 -0.1060  0.1728 -0.0085
  605TMC3     O 9021   3.811   2.222  16.259 -0.1420 -0.3430 -0.2322
  605TMC3     H 9022   4.008   2.344  16.562  0.8144  1.1159 -0.9141
  605TMC3    H1 9023   3.652   2.407  16.333  1.2096 -3.8022  0.5540
  605TMC3    H2 9024   3.738   2.639  16.677 -0.2603  0.2657 -0.6793
  605TMC3    C7 9025   3.546   2.552  16.510 -0.0395  0.0027 -0.1245
  605TMC3    C8 9026   3.984   2.551  16.711 -0.3097 -0.4300  0.4547
  605TMC3    O1 9027   3.503   2.505  16.613 -0.2684 -0.2086  0.2730
  605TMC3    O2 9028   3.939   2.609  16.810  0.5852  0.3187  0.5499
  606TMC3    C1 9029   0.309   1.418   0.440  0.3366 -0.3872  0.3533
  606TMC3    C2 9030   0.370   1.327   0.529  0.0702 -0.4812 -0.1871
  606TMC3    C3 9031   0.352   1.196   0.493 -0.6966 -0.1370  0.1918
  606TMC3    C4 9032   0.234   1.389   0.329 -0.0760 -0.3700  0.3957
  606TMC3    C5 9033   0.215   1.253   0.306  0.0674 -1.2365 -0.3398
  606TMC3    C6 9034   0.275   1.160   0.384 -0.1980  0.1629  0.0091
  606TMC3     C 9035   0.330   1.561   0.482 -0.2915 -0.2715 -0.1379
  606TMC3     O 9036   0.369   1.574   0.595 -0.2421  0.1497  0.0908
  606TMC3     H 9037   0.452   1.360   0.592 -0.9254 -2.6497  2.2491
  606TMC3    H1 9038   0.192   1.466   0.265  1.3791 -2.2335 -2.8058
  606TMC3    H2 9039   0.264   1.058   0.350  3.3948 -0.4113  0.4951
  606TMC3    C7 9040   0.184   1.220   0.167 -0.2205  0.2231 -0.2081
  606TMC3    C8 9041   0.406   1.090   0.573 -0.0070 -0.2653 -0.1230
  606TMC3    O1 9042   0.167   1.322   0.096  1.0411  0.3827 -0.7455
  606TMC3    O2 9043   0.399   0.973   0.532 -0.6351  0.1696  0.2833
  607MPD2     C 9044   2.542   3.893  11.750  0.1998 -0.3703  0.0930
  607MPD2    C1 9045   2.568   3.984  11.848 -0.5274  0.9438  0.4706
  607MPD2    C2 9046   2.547   3.949  11.984 -0.2905 -0.1737 -0.0641
  607MPD2    C3 9047   2.499   3.825  12.014 -0.4791  1.0608 -0.9898
  607MPD2    C4 9048   2.455   3.739  11.911  0.7283  1.4488 -0.0955
  607MPD2    C5 9049   2.478   3.776  11.782 -0.1230  0.2954  0.1446
  607MPD2     H 9050   2.575   4.022  12.060 -0.2149 -0.6822  0.3940
  607MPD2    H1 9051   2.414   3.640  11.924  1.2410  1.5208  2.0623
  607MPD2    H2 9052   2.570   3.924  11.650 -1.8445  0.7336 -0.1277
  607MPD2    H3 9053   2.460   3.701  11.706  0.5393  0.7145 -0.4243
  607MPD2     N 9054   2.482   3.794  12.148  0.1652 -0.1315 -0.1849
  607MPD2    H5 9055   2.500   3.863  12.220 -0.6756 -0.5244  0.3974
  607MPD2    N1 9056   2.651   4.094  11.830 -0.2750  0.2662  0.8041
  607MPD2    H7 9057   2.685   4.134  11.917  0.7643 -0.5731  0.7789
  608TMC3    C1 9058   2.836   4.205  11.732 -0.3079  0.3861  0.3793
  608TMC3    C2 9059   2.912   4.160  11.838  0.3934 -0.2715 -0.1162
  608TMC3    C3 9060   3.030   4.222  11.876 -0.0304 -0.0391 -0.0080
  608TMC3    C4 9061   2.891   4.290  11.639  0.3229 -0.7251  0.1891
  608TMC3    C5 9062   3.011   4.346  11.674  0.7709  0.1361  0.0001
  608TMC3    C6 9063   3.068   4.326  11.795  0.7604  0.1538 -0.0499
  608TMC3     C 9064   2.707   4.138  11.713  0.2371  0.0075 -0.3813
  608TMC3     O 9065   2.657   4.125  11.598  0.2925 -0.2664  0.0423
  608TMC3     H 9066   2.877   4.075  11.896 -2.6016  1.2740  0.4051
  608TMC3    H1 9067   2.839   4.316  11.548  1.8949 -1.0864 -0.8060
  608TMC3    H2 9068   3.161   4.373  11.824  2.1495 -1.0353 -2.5906
  608TMC3    C7 9069   3.076   4.417  11.564 -0.4062 -0.8195 -0.8051
  608TMC3    C8 9070   3.060   4.240  12.023  0.2250 -0.4364  0.3730
  608TMC3    O1 9071   3.018   4.412  11.460  0.1311  0.8037 -0.9694
  608TMC3    O2 9072   3.178   4.258  12.047 -0.1421 -0.0079 -0.1966
  609TMC3    C1 9073   1.845   3.254   9.211 -0.1685 -0.5159 -0.9197
  609TMC3    C2 9074   1.846   3.297   9.081 -0.6371  0.3162 -0.3146
  609TMC3    C3 9075   1.956   3.340   9.024 -0.3226 -0.4894 -0.2120
  609TMC3    C4 9076   1.952   3.268   9.289 -0.0567  1.0923 -0.2125
  609TMC3    C5 9077   2.065   3.319   9.230 -0.4080 -0.4140 -0.5126
  609TMC3    C6 9078   2.076   3.349   9.094 -0.2778  0.2984  0.3770
  609TMC3     C 9079   1.725   3.193   9.267 -0.3659 -0.1723 -0.3624
  609TMC3     O 9080   1.726   3.205   9.389  0.1512  0.1918 -0.1489
  609TMC3     H 9081   1.755   3.310   9.025 -0.8171 -1.0375 -0.3385
  609TMC3    H1 9082   1.953   3.249   9.396 -0.3629 -0.4607 -0.4775
  609TMC3    H2 9083   2.166   3.391   9.051 -1.5482 -0.4112 -2.9380
  609TMC3    C7 9084   2.176   3.315   9.322 -0.4104  0.9049 -0.1702
  609TMC3    C8 9085   1.959   3.377   8.877  0.9879 -0.2069 -0.0031
  609TMC3    O1 9086   2.149   3.321   9.443 -0.2182 -0.3500 -0.1543
  609TMC3    O2 9087   2.065   3.426   8.834 -0.1494 -0.0836 -0.0766
  610TMC3    C1 9088   3.129   3.668  13.063  0.4091  0.4764  0.4012
  610TMC3    C2 9089   3.173   3.761  12.974  0.0802  0.5569 -0.1173
  610TMC3    C3 9090   3.236   3.721  12.861 -0.3256  0.0559 -0.0100
  610TMC3    C4 9091   3.169   3.539  13.050  0.6808  0.0944  0.0790
  610TMC3    C5 9092   3.240   3.499  12.939 -0.6886 -0.3370  0.9111
  610TMC3    C6 9093   3.262   3.586  12.847  0.1109 -0.2589 -0.1902
  610TMC3     C 9094   3.048   3.700  13.177 -0.2268  0.3523  0.0362
  610TMC3     O 9095   3.043   3.618  13.269 -0.0330  0.5464  0.2961
  610TMC3     H 9096   3.141   3.863  12.990  1.6772  0.9691  0.3451
  610TMC3    H1 9097   3.152   3.468  13.130  0.2553 -0.6499 -0.6661
  610TMC3    H2 9098   3.309   3.550  12.757  0.2373  0.4539 -0.4102
  610TMC3    C7 9099   3.270   3.358  12.924  0.4856 -0.7428 -0.1629
  610TMC3    C8 9100   3.252   3.822  12.754  0.0454 -0.1824 -0.0092
  610TMC3    O1 9101   3.277   3.294  13.025 -0.3458 -0.4707  0.2193
  610TMC3    O2 9102   3.246   3.939  12.788  0.1240  0.1926 -0.2219
  611MPD2     C 9103   2.873   3.708  10.467  0.4279  0.7997  0.6293
  611MPD2    C1 9104   2.790   3.820  10.461 -0.2935  0.1352 -0.0304
  611MPD2    C2 9105   2.846   3.951  10.459 -0.2511 -0.1963 -0.3464
  611MPD2    C3 9106   2.985   3.969  10.467 -0.2470 -0.4954  0.2594
  611MPD2    C4 9107   3.061   3.855  10.484  0.4469 -0.0412  0.2832
  611MPD2    C5 9108   3.008   3.734  10.492  0.3518 -0.2382 -0.5637
  611MPD2     H 9109   2.777   4.035  10.455 -0.2123 -0.1936 -1.0024
  611MPD2    H1 9110   3.168   3.862  10.499  0.5993 -0.5826 -0.6234
  611MPD2    H2 9111   2.835   3.609  10.488  0.5934  0.4594 -0.7009
  611MPD2    H3 9112   3.079   3.652  10.501 -0.2994 -0.8390 -0.9437
  611MPD2     N 9113   3.053   4.088  10.470  0.0406 -0.3335 -0.0749
  611MPD2    H5 9114   3.151   4.087  10.496  0.7001  2.3654 -2.5293
  611MPD2    N1 9115   2.653   3.781  10.451  0.1729 -0.1734 -0.0984
  611MPD2    H7 9116   2.631   3.682  10.445  3.4672 -0.7946 -1.7354
  612TMC3    C1 9117   3.080   4.340  10.483 -0.0264 -0.0649  0.0618
  612TMC3    C2 9118   3.188   4.329  10.563 -1.1365  0.0528 -0.0139
  612TMC3    C3 9119   3.271   4.429  10.569  0.0947 -0.4894 -0.3883
  612TMC3    C4 9120   3.039   4.453  10.418  0.5945  0.3725 -0.7124
  612TMC3    C5 9121   3.120   4.557  10.433  0.0218  1.0364 -0.1804
  612TMC3    C6 9122   3.241   4.547  10.499  0.2585  0.2460 -0.3708
  612TMC3     C 9123   3.001   4.216  10.446 -0.2851  0.4050  0.0670
  612TMC3     O 9124   2.901   4.227  10.377 -0.2783 -0.0126 -0.2804
  612TMC3     H 9125   3.206   4.235  10.614  0.5790 -0.4000 -1.4505
  612TMC3    H1 9126   2.956   4.441  10.349 -0.6657  1.9323  0.5615
  612TMC3    H2 9127   3.305   4.634  10.504  2.7625 -1.6471  0.3931
  612TMC3    C7 9128   3.100   4.672  10.357  0.1033  0.5504 -0.2291
  612TMC3    C8 9129   3.359   4.439  10.681 -0.4707  0.2727 -0.8563
  612TMC3    O1 9130   3.186   0.027  10.352  0.6081  0.3161 -0.6479
  612TMC3    O2 9131   3.441   4.529  10.680 -0.2882 -0.0170 -0.3922
  613MPD2     C 9132   1.496   1.575  16.894  0.5693  0.1771  0.7003
  613MPD2    C1 9133   1.569   1.467  16.853 -0.2221 -0.8866 -0.4313
  613MPD2    C2 9134   1.506   1.367  16.787  0.5855  0.0570  0.2213
  613MPD2    C3 9135   1.369   1.362  16.771  0.4489 -0.5201 -0.0781
  613MPD2    C4 9136   1.299   1.470  16.806  0.4283  1.4755  0.7485
  613MPD2    C5 9137   1.358   1.574  16.867 -0.4226  0.3235 -0.3577
  613MPD2     H 9138   1.561   1.292  16.731  1.8796  0.4984  0.8922
  613MPD2    H1 9139   1.194   1.475  16.779  0.3372 -1.3325  0.6520
  613MPD2    H2 9140   1.545   1.650  16.955  0.9195  1.0992 -0.6883
  613MPD2    H3 9141   1.303   1.664  16.892  0.7971  0.5815  1.3760
  613MPD2     N 9142   1.300   1.251  16.718 -0.3459  0.1402 -0.0254
  613MPD2    H5 9143   1.202   1.267  16.699  0.7306  0.8170 -4.9788
  613MPD2    N1 9144   1.715   1.477  16.865  0.1292 -0.4871  0.3380
  613MPD2    H7 9145   1.746   1.535  16.942  1.4942 -1.4358  0.4857
  614TMC3    C1 9146   1.795   1.365  16.672  0.1777  0.6788  0.2543
  614TMC3    C2 9147   1.816   1.234  16.631 -0.5015  0.1063  0.5616
  614TMC3    C3 9148   1.784   1.202  16.502 -0.2579  0.7149 -0.5066
  614TMC3    C4 9149   1.738   1.462  16.594  0.1305 -0.0679 -0.1944
  614TMC3    C5 9150   1.708   1.423  16.468 -0.2702  0.1370  0.3403
  614TMC3    C6 9151   1.731   1.294  16.415 -0.0633  0.7862  0.0013
  614TMC3     C 9152   1.807   1.392  16.812  0.5217  0.2426  0.2425
  614TMC3     O 9153   1.911   1.348  16.864  0.4262 -0.1154  0.4202
  614TMC3     H 9154   1.854   1.154  16.693  0.2393  1.0086  1.2657
  614TMC3    H1 9155   1.739   1.566  16.624  0.7116 -0.1419  0.0442
  614TMC3    H2 9156   1.706   1.260  16.315 -0.5958 -2.1884  1.1483
  614TMC3    C7 9157   1.636   1.512  16.375  0.3846 -0.1045 -0.0068
  614TMC3    C8 9158   1.755   1.064  16.480 -0.7660  0.1482 -0.7491
  614TMC3    O1 9159   1.597   1.616  16.418 -0.6143  0.4100 -0.5709
  614TMC3    O2 9160   1.730   0.995  16.578  0.4374  0.0970 -0.0960
  615MPD2     C 9161   1.247   2.964  15.749 -0.0274  0.4689 -0.3683
  615MPD2    C1 9162   1.230   2.947  15.884 -0.3824  1.0094  0.2839
  615MPD2    C2 9163   1.133   3.015  15.955 -0.8350 -0.2452 -0.8308
  615MPD2    C3 9164   1.070   3.122  15.888 -0.2009  0.7087 -0.1898
  615MPD2    C4 9165   1.093   3.149  15.757  0.0921  0.6515 -0.0374
  615MPD2    C5 9166   1.175   3.067  15.686 -0.0068  0.8817  0.9145
  615MPD2     H 9167   1.114   3.007  16.061 -1.8864  2.8743 -0.8017
  615MPD2    H1 9168   1.040   3.232  15.710  0.4031  0.6826 -0.3324
  615MPD2    H2 9169   1.316   2.908  15.686 -0.1580 -1.0945  0.8655
  615MPD2    H3 9170   1.194   3.079  15.580 -3.4036 -2.0967 -0.0342
  615MPD2     N 9171   0.972   3.214  15.934 -0.3191  0.3030  0.4609
  615MPD2    H5 9172   0.948   3.291  15.873  0.6115  1.5620  1.6561
  615MPD2    N1 9173   1.315   2.854  15.949  0.1287 -0.1332  0.3756
  615MPD2    H7 9174   1.298   2.842  16.049 -2.3173  1.5058  0.1439
  616TMC3    C1 9175   1.463   2.687  16.004  0.6178 -0.2245  0.0302
  616TMC3    C2 9176   1.522   2.569  15.961  0.0116  0.1617  0.4206
  616TMC3    C3 9177   1.607   2.496  16.042 -0.3196 -0.8399  0.0560
  616TMC3    C4 9178   1.475   2.719  16.132 -1.0237  0.1519 -0.0023
  616TMC3    C5 9179   1.530   2.632  16.218 -0.4693  0.3682  0.3983
  616TMC3    C6 9180   1.605   2.522  16.174  0.5018 -0.0625  0.5477
  616TMC3     C 9181   1.418   2.778  15.898 -0.1919  0.0172  0.0875
  616TMC3     O 9182   1.465   2.763  15.789 -0.0716  0.5659 -0.0938
  616TMC3     H 9183   1.506   2.548  15.856 -0.3026 -1.4565  0.8005
  616TMC3    H1 9184   1.435   2.816  16.159 -1.6170 -0.2018  0.4068
  616TMC3    H2 9185   1.649   2.447  16.239  2.2590 -0.7324 -1.4274
  616TMC3    C7 9186   1.513   2.646  16.363 -0.0935  0.8465 -0.2709
  616TMC3    C8 9187   1.741   2.517  15.993  0.8235  0.4078 -0.3431
  616TMC3    O1 9188   1.612   2.608  16.429 -0.0863 -0.1460  0.0151
  616TMC3    O2 9189   1.781   2.462  15.891  0.0796  0.4122 -0.2956
  617MPD2     C 9190   4.109   0.413  14.467  0.1496 -0.3696  0.3489
  617MPD2    C1 9191   4.105   0.359  14.342  0.1301  0.3423  0.3759
  617MPD2    C2 9192   4.004   0.400  14.254  0.1105 -0.0880  0.3206
  617MPD2    C3 9193   3.908   0.490  14.292  0.0371  0.3687 -0.1866
  617MPD2    C4 9194   3.918   0.551  14.418  0.3516 -0.6483  0.3486
  617MPD2    C5 9195   4.022   0.511  14.497 -0.1355 -0.9459 -0.0088
  617MPD2     H 9196   3.995   0.351  14.158 -2.8244 -1.9152  1.5197
  617MPD2    H1 9197   3.843   0.625  14.445  1.2606  0.2521  0.4139
  617MPD2    H2 9198   4.182   0.377  14.539 -0.9544 -1.7043  0.8096
  617MPD2    H3 9199   4.033   0.558  14.594 -0.8783 -1.0799  0.1374
  617MPD2     N 9200   3.788   0.518  14.224 -0.5475  0.3296  0.2936
  617MPD2    H5 9201   3.726   0.582  14.273 -1.0501 -0.4056  0.6187
  617MPD2    N1 9202   4.180   0.249  14.304 -0.1417 -0.0977  1.0078
  617MPD2    H7 9203   4.149   0.217  14.213 -2.5618 -1.0533  2.1667
  618TMC3    C1 9204   4.331   0.065  14.322  0.3100  0.3740  0.1968
  618TMC3    C2 9205   4.270   4.737  14.220 -0.2912  0.4960  0.2820
  618TMC3    C3 9206   4.347   4.637  14.169  0.0762  0.7386  0.0434
  618TMC3    C4 9207   4.457   0.032  14.366  0.2367 -0.3024 -0.4102
  618TMC3    C5 9208   4.533   4.680  14.294 -0.2474 -0.0947  0.1007
  618TMC3    C6 9209   4.473   4.601  14.207  0.1333  0.4973  0.3884
  618TMC3     C 9210   4.279   0.183  14.379  0.9407  0.4967 -0.1511
  618TMC3     O 9211   4.322   0.218  14.485 -0.6138 -0.5738  0.0526
  618TMC3     H 9212   4.163   0.008  14.201 -0.3648  1.0878  0.9716
  618TMC3    H1 9213   4.509   0.089  14.443  1.9796 -1.9486 -0.3581
  618TMC3    H2 9214   4.526   4.514  14.169 -0.6313  0.3227 -0.2796
  618TMC3    C7 9215   4.666   4.720  14.270  0.4527 -0.1150 -0.1706
  618TMC3    C8 9216   4.328   4.629  14.030 -0.0274 -0.0452  0.2610
  618TMC3    O1 9217   4.679   0.102  14.280  0.1257 -0.3206  0.7793
  618TMC3    O2 9218   4.219   4.665  13.996  0.2484 -0.0935 -0.2614
  619MPD2     C 9219   0.322   1.729  13.799 -0.7139  0.0521 -0.0660
  619MPD2    C1 9220   0.213   1.804  13.773  0.1834 -0.0181 -0.2013
  619MPD2    C2 9221   0.092   1.782  13.841  0.4028  0.5874  0.3187
  619MPD2    C3 9222   0.078   1.683  13.935  0.0226 -0.3013  0.2961
  619MPD2    C4 9223   0.189   1.603  13.955  0.0332  0.4838  0.9543
  619MPD2    C5 9224   0.311   1.624  13.886  0.3681  0.1212  0.3646
  619MPD2     H 9225   0.007   1.849  13.829 -0.1581 -0.3811 -1.1612
  619MPD2    H1 9226   0.185   1.522  14.027  0.5683  1.1789  1.7637
  619MPD2    H2 9227   0.414   1.741  13.741 -0.6684  0.1623  0.0279
  619MPD2    H3 9228   0.396   1.559  13.904  0.6939  0.1594 -1.0342
  619MPD2     N 9229   4.701   1.662  14.019  0.6830 -0.0239 -0.4717
  619MPD2    H5 9230   4.714   1.610  14.105 -1.6249 -0.6310 -0.4778
  619MPD2    N1 9231   0.217   1.908  13.675  0.0984  0.3397 -0.2889
  619MPD2    H7 9232   0.156   1.988  13.685  1.3128  1.1936  0.3104
  620TMC3    C1 9233   0.284   2.042  13.496 -0.5404  0.3960 -0.1527
  620TMC3    C2 9234   0.153   2.053  13.458  0.3122 -0.4404  0.2478
  620TMC3    C3 9235   0.120   2.150  13.357  0.5498 -0.5207 -0.2688
  620TMC3    C4 9236   0.388   2.113  13.448  0.8205  0.6374 -0.0510
  620TMC3    C5 9237   0.352   2.215  13.361 -0.8258  0.2041 -0.2572
  620TMC3    C6 9238   0.222   2.231  13.315  0.0778 -0.0799  0.0979
  620TMC3     C 9239   0.318   1.945  13.591  0.8443 -0.3751  0.4789
  620TMC3     O 9240   0.428   1.900  13.584  0.2514 -0.0466 -0.3977
  620TMC3     H 9241   0.077   1.986  13.497 -0.8988  0.1808 -1.0504
  620TMC3    H1 9242   0.491   2.102  13.480  1.1776  2.8627 -0.4488
  620TMC3    H2 9243   0.196   2.307  13.242 -2.1087  0.1178  1.0605
  620TMC3    C7 9244   0.411   2.346  13.395  0.1826 -0.2833  0.0097
  620TMC3    C8 9245   4.721   2.208  13.363  0.2092  0.7894  0.7186
  620TMC3    O1 9246   0.500   2.333  13.479  0.4408  0.2614 -0.5038
  620TMC3    O2 9247   4.714   2.330  13.347 -0.4638  0.6395  0.2556
  621MPD2     C 9248   0.806   1.955  10.648 -0.0648 -0.5326  0.6338
  621MPD2    C1 9249   0.901   1.930  10.551  0.0051 -0.5399 -0.1001
  621MPD2    C2 9250   0.990   2.025  10.515 -0.4234  0.6436  0.6894
  621MPD2    C3 9251   0.980   2.151  10.561 -0.5577 -0.1581  0.1385
  621MPD2    C4 9252   0.886   2.178  10.661 -0.2865  0.2076 -0.6275
  621MPD2    C5 9253   0.799   2.081  10.696 -0.3472 -0.5006  0.1251
  621MPD2     H 9254   1.060   2.000  10.436 -1.4005 -0.2418  0.1035
  621MPD2    H1 9255   0.862   2.275  10.703  0.6818 -0.3984  1.3438
  621MPD2    H2 9256   0.723   1.889  10.665  0.8398 -1.9058 -0.2724
  621MPD2    H3 9257   0.722   2.101  10.770 -1.5596 -1.6320 -0.8407
  621MPD2     N 9258   1.053   2.249  10.502  0.6143 -0.1031  0.3339
  621MPD2    H5 9259   1.129   2.223  10.440  1.0620  1.7264  0.0954
  621MPD2    N1 9260   0.902   1.814  10.476 -0.5203 -0.0729 -0.4499
  621MPD2    H7 9261   0.952   1.820  10.387  2.0152 -0.1240  0.9553
  622TMC3    C1 9262   0.846   1.609  10.399  0.2854  0.1274 -0.6627
  622TMC3    C2 9263   0.781   1.491  10.425  0.0859 -0.3545  0.3544
  622TMC3    C3 9264   0.737   1.417  10.319  0.4381  0.0163 -0.0994
  622TMC3    C4 9265   0.874   1.653  10.272 -0.0751 -0.1492 -0.5718
  622TMC3    C5 9266   0.846   1.563  10.170 -0.3593  0.0159  0.1494
  622TMC3    C6 9267   0.776   1.449  10.194 -0.8749  0.0367 -0.3496
  622TMC3     C 9268   0.836   1.702  10.506 -0.0897 -0.0497  0.1728
  622TMC3     O 9269   0.779   1.667  10.608 -0.4692 -0.2091  0.0793
  622TMC3     H 9270   0.749   1.466  10.526 -2.0299 -1.0811 -0.4868
  622TMC3    H1 9271   0.919   1.750  10.254 -0.2639  0.2081  0.8411
  622TMC3    H2 9272   0.748   1.384  10.112  0.6679 -0.9865 -0.0654
  622TMC3    C7 9273   0.865   1.604  10.029 -0.0043 -0.1400  0.2387
  622TMC3    C8 9274   0.634   1.309  10.344  0.3694 -0.1808  0.9831
  622TMC3    O1 9275   0.819   1.529   9.940 -0.3650  0.2267  0.3203
  622TMC3    O2 9276   0.648   1.214  10.273  0.3759 -0.5510 -0.6138
  623MPD2     C 9277   4.526   2.582  15.674 -0.9091 -0.0467  0.0191
  623MPD2    C1 9278   4.481   2.505  15.774  0.3207 -0.0846  0.0233
  623MPD2    C2 9279   4.537   2.516  15.897 -0.2628  0.4627 -0.6078
  623MPD2    C3 9280   4.643   2.608  15.919 -0.2932 -0.1411 -0.4482
  623MPD2    C4 9281   4.695   2.679  15.819 -0.4451  0.2836 -0.5104
  623MPD2    C5 9282   4.639   2.659  15.696  0.5609  0.7759  0.0940
  623MPD2     H 9283   4.500   2.463  15.984 -1.6489 -0.6464 -1.8714
  623MPD2    H1 9284   0.040   2.750  15.827  0.4465 -0.8314  0.4527
  623MPD2    H2 9285   4.478   2.593  15.577 -1.0556 -2.5440 -0.2005
  623MPD2    H3 9286   4.680   2.715  15.613 -0.3095  1.8896  0.4201
  623MPD2     N 9287   4.688   2.606  16.055 -0.2594 -0.2310  0.1028
  623MPD2    H5 9288   4.633   2.545  16.115  2.6057 -2.9233 -0.0293
  623MPD2    N1 9289   4.360   2.442  15.758 -0.5878 -0.0998  0.1852
  623MPD2    H7 9290   4.303   2.475  15.680  0.1247  1.9644  0.5434
  624TMC3    C1 9291   0.152   2.775  16.450  0.2474  0.5652 -0.7698
  624TMC3    C2 9292   0.080   2.690  16.528 -0.0936  0.1911 -0.0860
  624TMC3    C3 9293   4.735   2.604  16.462  0.3495  0.3133  0.3735
  624TMC3    C4 9294   0.149   2.777  16.312 -0.4239  0.1240 -0.4079
  624TMC3    C5 9295   0.069   2.684  16.253 -0.0694 -0.1383 -0.7001
  624TMC3    C6 9296   4.726   2.602  16.327 -0.1129 -0.0971  0.1195
  624TMC3     C 9297   0.242   2.869  16.518  0.0437 -0.0342  0.0778
  624TMC3     O 9298   0.246   2.856  16.641 -0.9148 -0.0439 -0.2811
  624TMC3     H 9299   0.106   2.680  16.633 -4.3286  1.1619  1.0742
  624TMC3    H1 9300   0.218   2.839  16.256 -0.1781 -0.5718 -0.8827
  624TMC3    H2 9301   4.681   2.512  16.286 -1.7080  0.0423  1.5451
  624TMC3    C7 9302   0.059   2.677  16.108  0.3484 -0.1503  0.0223
  624TMC3    C8 9303   4.620   2.548  16.528  0.6879 -0.0020  0.3719
  624TMC3    O1 9304   0.133   2.757  16.049 -0.0774 -0.6826  0.7355
  624TMC3    O2 9305   4.546   2.489  16.453  0.6153 -0.8762 -0.6903
  625MPD2     C 9306   0.350   3.859   0.608  0.5916  0.0550 -0.0103
  625MPD2    C1 9307   0.363   3.997   0.634 -0.1431 -0.2063  0.8763
  625MPD2    C2 9308   0.479   4.064   0.656 -0.0429  0.3310 -0.1834
  625MPD2    C3 9309   0.589   3.987   0.675 -0.3450 -0.2899  0.4088
  625MPD2    C4 9310   0.583   3.848   0.659  0.4502 -0.2362  0.2246
  625MPD2    C5 9311   0.465   3.781   0.619 -0.4327 -0.5710  0.3652
  625MPD2     H 9312   0.477   4.172   0.663  0.0994  0.2587  0.9787
  625MPD2    H1 9313   0.658   3.780   0.699 -0.8598 -1.5245  0.4618
  625MPD2    H2 9314   0.259   3.803   0.590 -0.0884  1.6452 -1.4327
  625MPD2    H3 9315   0.463   3.674   0.606 -0.0778 -0.6575  1.0591
  625MPD2     N 9316   0.706   4.046   0.721 -0.1148 -0.2071  0.7998
  625MPD2    H5 9317   0.698   4.142   0.756 -1.9105  0.2979 -1.0270
  625MPD2    N1 9318   0.252   4.090   0.631  0.1659 -0.2111  0.0969
  625MPD2    H7 9319   0.271   4.184   0.663  0.7606 -0.8579  1.6510
  626TMC3    C1 9320   0.030   4.172   0.607  0.1316 -0.6484 -0.4874
  626TMC3    C2 9321   4.701   4.163   0.492  0.7656  0.4351 -0.4850
  626TMC3    C3 9322   4.574   4.207   0.496 -0.5188 -0.3594 -0.6691
  626TMC3    C4 9323   4.713   4.223   0.720  0.4231  0.6875 -0.2192
  626TMC3    C5 9324   4.580   4.255   0.725  0.2437 -0.1739  0.5527
  626TMC3    C6 9325   4.507   4.238   0.611  0.1983 -0.2445  0.3620
  626TMC3     C 9326   0.122   4.054   0.625 -0.3509 -0.4250 -0.4021
  626TMC3     O 9327   0.077   3.949   0.579  0.0838  0.0826 -0.2321
  626TMC3     H 9328   0.005   4.095   0.418 -1.4995 -3.4339  1.7837
  626TMC3    H1 9329   0.042   4.229   0.806 -0.7477 -1.7832  0.8242
  626TMC3    H2 9330   4.400   4.260   0.614  0.3718  0.5299  1.0104
  626TMC3    C7 9331   4.527   4.293   0.852  0.0823 -0.4550  0.7256
  626TMC3    C8 9332   4.496   4.203   0.372  0.1751 -0.4222 -0.9183
  626TMC3    O1 9333   4.597   4.296   0.948 -0.3530 -0.4684  0.6863
  626TMC3    O2 9334   4.561   4.163   0.274  0.3823 -0.2474 -0.3182
  627MPD2     C 9335   3.150   4.230  14.802 -0.2061 -0.7063 -0.0835
  627MPD2    C1 9336   3.218   4.132  14.872 -0.0609 -0.0798 -0.0754
  627MPD2    C2 9337   3.154   4.019  14.921 -0.8184 -0.7903  1.0649
  627MPD2    C3 9338   3.019   3.998  14.887  0.0038 -0.0491  0.6567
  627MPD2    C4 9339   2.953   4.098  14.807 -0.0884  0.5892 -0.4130
  627MPD2    C5 9340   3.022   4.204  14.757 -0.5258 -0.2346  0.3487
  627MPD2     H 9341   3.206   3.945  14.981  0.7423  0.5266  1.3665
  627MPD2    H1 9342   2.848   4.095  14.781 -0.4093  1.8565  0.7274
  627MPD2    H2 9343   3.204   4.320  14.775  0.6562 -1.0971  0.3274
  627MPD2    H3 9344   2.963   4.268  14.692 -0.5670  0.3969  1.0115
  627MPD2     N 9345   2.952   3.880  14.931 -0.3939  0.5127  0.2135
  627MPD2    H5 9346   2.993   3.825  15.006 -0.0614 -1.9683 -1.7896
  627MPD2    N1 9347   3.363   4.139  14.881  0.2282  0.5398  0.2602
  627MPD2    H7 9348   3.413   4.059  14.917  2.0541  1.2802 -0.6344
  628TMC3    C1 9349   3.565   4.230  14.796  0.4610 -0.4764  0.3639
  628TMC3    C2 9350   3.620   4.104  14.789  0.1442 -0.4270  0.1852
  628TMC3    C3 9351   3.735   4.081  14.727 -0.8909  0.1940 -0.2618
  628TMC3    C4 9352   3.620   4.328  14.722  1.0130  0.3292 -0.3569
  628TMC3    C5 9353   3.740   4.303  14.664 -0.0558  0.5800  0.2661
  628TMC3    C6 9354   3.807   4.187  14.674 -0.1162 -0.5106 -0.3011
  628TMC3     C 9355   3.438   4.257  14.856  0.4014  0.8410 -0.2284
  628TMC3     O 9356   3.415   4.377  14.853  0.2569  0.2210  0.2652
  628TMC3     H 9357   3.557   4.018  14.811 -2.9519  1.7324 -0.2795
  628TMC3    H1 9358   3.598   4.433  14.740 -2.6656 -1.0430  3.2400
  628TMC3    H2 9359   3.903   4.163  14.630  0.1181 -2.0684  1.0389
  628TMC3    C7 9360   3.810   4.411  14.603 -0.3045  0.2385 -0.4777
  628TMC3    C8 9361   3.794   3.962  14.736 -0.1090  0.1966  0.4582
  628TMC3    O1 9362   3.933   4.394  14.608  0.1646 -0.1434  0.1025
  628TMC3    O2 9363   3.861   3.923  14.644  0.5482  0.0388 -0.4221
  629MPD2     C 9364   2.188   2.774  16.002  0.7753  0.1642  0.4439
  629MPD2    C1 9365   2.135   2.766  16.125 -0.0325 -0.2634  0.1742
  629MPD2    C2 9366   2.012   2.709  16.148 -0.0265  0.0734  0.2324
  629MPD2    C3 9367   1.944   2.653  16.041 -0.1156 -0.3190  0.0995
  629MPD2    C4 9368   2.000   2.664  15.918  0.5220  0.6781 -0.4020
  629MPD2    C5 9369   2.115   2.727  15.894 -0.6500  0.1546 -0.1621
  629MPD2     H 9370   1.959   2.707  16.243 -0.4235 -0.2566  0.0047
  629MPD2    H1 9371   1.949   2.622  15.832 -0.5458  1.3761 -0.1091
  629MPD2    H2 9372   2.286   2.817  15.986  1.4381 -0.1472  3.7110
  629MPD2    H3 9373   2.146   2.741  15.791 -1.5764  1.7132 -0.2391
  629MPD2     N 9374   1.824   2.585  16.077 -0.1621 -0.4620 -0.2092
  629MPD2    H5 9375   1.784   2.610  16.167  1.3915  2.1861 -0.2621
  629MPD2    N1 9376   2.226   2.811  16.219  0.4126 -0.4592 -0.7582
  629MPD2    H7 9377   2.312   2.852  16.184  0.2490 -1.0399 -1.8349
  630TMC3    C1 9378   2.324   2.864  16.429 -0.0488  0.0294  0.4738
  630TMC3    C2 9379   2.398   2.970  16.385 -0.3007 -1.1348  0.0784
  630TMC3    C3 9380   2.476   3.039  16.475 -0.5078  0.5864  0.2913
  630TMC3    C4 9381   2.322   2.827  16.560 -0.3644 -0.5511  0.5102
  630TMC3    C5 9382   2.397   2.898  16.652  0.1174  0.7029 -0.8845
  630TMC3    C6 9383   2.475   2.999  16.608 -0.1561 -0.0095 -0.3556
  630TMC3     C 9384   2.208   2.818  16.355  0.0885 -0.1271  0.6576
  630TMC3     O 9385   2.109   2.787  16.421  0.0088  0.3433 -0.3290
  630TMC3     H 9386   2.370   3.015  16.290 -1.6946  0.5877  1.2995
  630TMC3    H1 9387   2.256   2.747  16.591  0.4008 -0.7993  1.5016
  630TMC3    H2 9388   2.538   3.054  16.677 -0.4744 -1.9997  1.5400
  630TMC3    C7 9389   2.397   2.865  16.791 -1.0764  0.9907 -0.0340
  630TMC3    C8 9390   2.576   3.137  16.445 -0.3318  0.8005 -0.1559
  630TMC3    O1 9391   2.301   2.804  16.827 -0.1703  0.3413 -0.2120
  630TMC3    O2 9392   2.678   3.147  16.512 -0.3631  0.4999  0.0880
  631MPD2     C 9393   0.744   3.372  15.283  0.0914  0.3131  0.1371
  631MPD2    C1 9394   0.641   3.451  15.328 -0.2600  0.3191 -0.0590
  631MPD2    C2 9395   0.643   3.503  15.460  0.2355  0.7773  0.5084
  631MPD2    C3 9396   0.749   3.479  15.544 -0.3147 -0.0343  0.0665
  631MPD2    C4 9397   0.856   3.402  15.494 -0.9097  0.1347  0.0601
  631MPD2    C5 9398   0.850   3.348  15.364  0.7077  0.6634 -0.4117
  631MPD2     H 9399   0.551   3.550  15.493  0.2335  1.3706 -0.3438
  631MPD2    H1 9400   0.937   3.370  15.558 -0.1169  1.9908 -0.0224
  631MPD2    H2 9401   0.758   3.332  15.183  0.3148  3.6219 -1.1474
  631MPD2    H3 9402   0.932   3.295  15.316 -0.3883 -1.8288  0.4559
  631MPD2     N 9403   0.729   3.518  15.686  0.2240  0.6489  0.3705
  631MPD2    H5 9404   0.642   3.566  15.706 -0.6100  0.2148 -2.2177
  631MPD2    N1 9405   0.532   3.476  15.242 -0.4550 -0.0013  0.0101
  631MPD2    H7 9406   0.566   3.476  15.146 -1.4634  2.4646 -0.3285
  632TMC3    C1 9407   0.315   3.524  15.164  0.1175  1.2290  0.2326
  632TMC3    C2 9408   0.189   3.526  15.211  0.4738  0.4480  0.5461
  632TMC3    C3 9409   0.099   3.439  15.165 -0.3000  0.0641 -0.4889
  632TMC3    C4 9410   0.351   3.451  15.056 -0.1860 -0.0561 -0.5183
  632TMC3    C5 9411   0.250   3.376  15.006  0.8124  0.2121  0.1780
  632TMC3    C6 9412   0.117   3.363  15.056  0.7213 -0.5051  0.4458
  632TMC3     C 9413   0.409   3.523  15.281 -0.0496 -0.3280  0.1138
  632TMC3     O 9414   0.350   3.527  15.388 -0.6721 -0.4389 -0.1267
  632TMC3     H 9415   0.163   3.590  15.295  0.8318 -0.2931  1.2142
  632TMC3    H1 9416   0.443   3.462  15.000  1.1301  1.6406  1.9556
  632TMC3    H2 9417   0.036   3.302  15.017 -0.9001  1.1511  1.2042
  632TMC3    C7 9418   0.284   3.288  14.891  0.1900 -0.4461  0.6393
  632TMC3    C8 9419   0.040   3.352  15.259  0.0697 -0.0416 -0.6362
  632TMC3    O1 9420   0.364   3.328  14.803  0.2277  0.0076  0.5389
  632TMC3    O2 9421   4.692   3.269  15.237  0.2186 -0.6049  0.0062
  633MPD2     C 9422   4.344   1.061   0.045  1.0260 -0.0869 -0.5248
  633MPD2    C1 9423   4.377   0.995  17.670 -0.4681  0.2291  0.3309
  633MPD2    C2 9424   4.376   0.857  17.667 -0.1108  0.0421 -0.2436
  633MPD2    C3 9425   4.329   0.779   0.021 -0.8612  0.3320  0.5325
  633MPD2    C4 9426   4.293   0.848   0.127 -0.1477 -0.5079  0.1611
  633MPD2    C5 9427   4.291   0.984   0.142  0.0566  0.0143  0.8344
  633MPD2     H 9428   4.401   0.811  17.572 -0.2167  0.5117 -0.4969
  633MPD2    H1 9429   4.258   0.796   0.215 -2.0029  1.4999  0.6098
  633MPD2    H2 9430   4.355   1.168   0.059 -2.3452  0.3764 -1.5674
  633MPD2    H3 9431   4.257   1.033   0.232 -0.4043 -0.3291  0.8465
  633MPD2     N 9432   4.324   0.636   0.031  0.2291 -0.2095 -0.0742
  633MPD2    H5 9433   4.291   0.608   0.123 -0.2670 -0.0830 -0.2103
  633MPD2    N1 9434   4.417   1.075  17.563  0.8393  0.9070  0.0357
  633MPD2    H7 9435   4.433   1.024  17.477  1.4605  1.2136 -0.0269
  634TMC3    C1 9436   4.453   1.254  17.414 -0.9705  0.3856 -0.5623
  634TMC3    C2 9437   4.561   1.193  17.362 -0.4580 -0.2569  0.1696
  634TMC3    C3 9438   4.621   1.259  17.264 -0.0812  0.9302 -0.0271
  634TMC3    C4 9439   4.412   1.382  17.383 -0.0619 -0.4698  0.2352
  634TMC3    C5 9440   4.489   1.451  17.297 -0.1647  0.3519  0.6733
  634TMC3    C6 9441   4.587   1.391  17.237 -0.7131  0.1886 -0.0279
  634TMC3     C 9442   4.395   1.208  17.541  0.4204  0.3726 -0.0069
  634TMC3     O 9443   4.349   1.295  17.619 -0.2513  0.6932  0.3854
  634TMC3     H 9444   4.597   1.095  17.390 -0.9754 -0.7190 -0.7727
  634TMC3    H1 9445   4.319   1.422  17.421  1.7703  1.0847  3.0807
  634TMC3    H2 9446   4.621   1.422  17.139 -3.2540 -2.4439 -1.7464
  634TMC3    C7 9447   4.421   1.529  17.193  0.5848 -0.3557 -0.1108
  634TMC3    C8 9448   4.728   1.193  17.190 -0.2379 -0.3567 -0.1110
  634TMC3    O1 9449   4.333   1.487  17.121 -0.3909 -0.3327 -0.5016
  634TMC3    O2 9450   0.014   1.078  17.224  0.1028 -0.1892 -0.1831
  635TMC3    C1 9451   0.037   2.070   0.442 -0.4806 -0.0660 -0.5211
  635TMC3    C2 9452   0.006   1.963   0.360 -0.0904  0.5213  0.0215
  635TMC3    C3 9453   4.727   1.841   0.420  0.3400  0.2788 -0.3276
  635TMC3    C4 9454   0.067   2.051   0.575  0.9074  0.4785 -0.0915
  635TMC3    C5 9455   0.049   1.927   0.629 -0.4003  0.1944 -0.1384
  635TMC3    C6 9456   0.021   1.820   0.550 -0.0367  0.6402 -0.6588
  635TMC3     C 9457   0.048   2.209   0.394 -1.3365 -0.8448 -0.1583
  635TMC3     O 9458   0.060   2.290   0.482 -0.7486 -0.2870 -0.0996
  635TMC3     H 9459   4.717   1.976   0.256 -0.6372  1.2742  0.2537
  635TMC3    H1 9460   0.095   2.135   0.636 -1.3277  2.2044 -1.4345
  635TMC3    H2 9461   0.019   1.723   0.598  0.0447  2.0337  2.1788
  635TMC3    C7 9462   0.123   1.887   0.752  0.3177 -0.8213  0.4912
  635TMC3    C8 9463   4.706   1.726   0.328  0.1351 -0.1479  0.4706
  635TMC3    O1 9464   0.115   1.774   0.795  0.1111 -0.8553  0.0110
  635TMC3    O2 9465   4.693   1.755   0.211 -0.3942 -0.4198 -0.5389
  636MPD2     C 9466   1.022   1.427  15.923  0.3581 -0.1320  0.4743
  636MPD2    C1 9467   0.994   1.484  16.039 -0.7708 -0.0490 -0.0735
  636MPD2    C2 9468   1.047   1.419  16.146 -0.6541 -0.0759  0.2340
  636MPD2    C3 9469   1.126   1.307  16.140  0.0606 -0.4591 -0.2317
  636MPD2    C4 9470   1.137   1.252  16.018 -0.3322  0.1844 -0.5269
  636MPD2    C5 9471   1.083   1.309  15.908 -0.0804 -0.2503  0.3232
  636MPD2     H 9472   1.028   1.450  16.248  1.4974 -0.7499  0.8316
  636MPD2    H1 9473   1.190   1.160  15.998  1.8681  2.0580 -3.2711
  636MPD2    H2 9474   0.986   1.475  15.833  1.1092 -0.7133 -0.1416
  636MPD2    H3 9475   1.082   1.254  15.815 -0.1846  0.2365  0.0360
  636MPD2     N 9476   1.167   1.242  16.253 -0.8035 -0.0979  0.5208
  636MPD2    H5 9477   1.149   1.289  16.341 -1.0610  0.8651 -0.0430
  636MPD2    N1 9478   0.921   1.603  16.067  0.1512 -0.1816  1.0819
  636MPD2    H7 9479   0.920   1.635  16.164  2.0553 -0.9022  1.3428
  637TMC3    C1 9480   1.263   1.050  16.376  0.5338  0.2158  0.0634
  637TMC3    C2 9481   1.259   1.118  16.496  0.6295  0.4824 -0.3024
  637TMC3    C3 9482   1.278   1.049  16.612  0.6387 -0.0914 -0.4098
  637TMC3    C4 9483   1.300   0.922  16.364  0.3041  0.5382 -0.1155
  637TMC3    C5 9484   1.328   0.854  16.478  0.1005  0.0790  0.8971
  637TMC3    C6 9485   1.314   0.915  16.599 -0.0872 -0.2484 -0.0912
  637TMC3     C 9486   1.245   1.126  16.253 -0.4248 -0.2456 -0.2362
  637TMC3     O 9487   1.309   1.070  16.163 -0.2251 -0.0096 -0.1749
  637TMC3     H 9488   1.239   1.225  16.499  0.8041  0.5077 -0.0295
  637TMC3    H1 9489   1.312   0.881  16.265  2.3863  1.5709 -0.2997
  637TMC3    H2 9490   1.358   0.868  16.687 -1.3125  1.4346  1.4298
  637TMC3    C7 9491   1.356   0.712  16.476  0.2839 -0.7391 -0.1914
  637TMC3    C8 9492   1.349   1.123  16.713  0.2523  0.4904 -0.7481
  637TMC3    O1 9493   1.319   0.642  16.567  0.2780  0.0701  0.5642
  637TMC3    O2 9494   1.437   1.077  16.779  0.7375 -0.2845 -0.0940
  638MPD2     C 9495   1.143   0.022  14.813  0.7764 -0.2284 -0.5295
  638MPD2    C1 9496   1.091   4.658  14.743 -0.2731  0.2069 -0.0457
  638MPD2    C2 9497   1.019   4.559  14.804  0.0984 -0.0114 -0.1098
  638MPD2    C3 9498   0.995   4.562  14.943  0.0138  0.4254 -0.3418
  638MPD2    C4 9499   1.048   4.667  15.015  0.0287  0.2118 -0.5236
  638MPD2    C5 9500   1.115   0.032  14.945 -1.0158 -0.1009  0.2226
  638MPD2     H 9501   0.973   4.475  14.754  1.4971 -0.5757 -0.4576
  638MPD2    H1 9502   1.046   4.681  15.122  1.2264 -0.4032 -0.4123
  638MPD2    H2 9503   1.201   0.093  14.756 -2.2710  0.5241 -2.6765
  638MPD2    H3 9504   1.151   0.115  15.004 -2.6681  1.3551 -0.8379
  638MPD2     N 9505   0.926   4.455  15.004  0.0984  0.1697 -0.7341
  638MPD2    H5 9506   0.903   4.379  14.941 -0.2312 -1.2892  1.1414
  638MPD2    N1 9507   1.129   4.659  14.602  0.1075 -0.2930  0.5939
  638MPD2    H7 9508   1.194   4.728  14.565 -0.5767  0.1010  0.1088
  639TMC3    C1 9509   0.867   4.307  15.169 -0.2951 -0.5950  0.4048
  639TMC3    C2 9510   0.807   4.237  15.057  0.2432  0.4987  0.1027
  639TMC3    C3 9511   0.847   4.109  15.029 -0.4566 -0.4675 -0.2582
  639TMC3    C4 9512   0.961   4.235  15.245 -0.8494  1.0296 -0.3137
  639TMC3    C5 9513   0.992   4.107  15.212  0.4341 -0.3447 -0.5118
  639TMC3    C6 9514   0.953   4.047  15.091  0.0132  0.0151  0.0410
  639TMC3     C 9515   0.914   4.439  15.140 -0.6269  0.2880 -0.1574
  639TMC3     O 9516   0.952   4.509  15.234 -0.5899 -0.2799 -0.1514
  639TMC3     H 9517   0.733   4.285  14.995 -0.6706  1.8692  2.2396
  639TMC3    H1 9518   1.019   4.293  15.315 -2.0501 -1.5334  2.7994
  639TMC3    H2 9519   0.976   3.942  15.078  0.9872  0.1088  0.9735
  639TMC3    C7 9520   1.109   4.055  15.264  0.0286  0.2271  0.1191
  639TMC3    C8 9521   0.785   4.046  14.915  0.3729  0.1346  0.8214
  639TMC3    O1 9522   1.112   3.977  15.362 -0.2160  0.5173 -0.6480
  639TMC3    O2 9523   0.840   3.955  14.861  0.2633 -0.5213  0.0446
  640MPD2     C 9524   1.326   3.509  10.312 -0.2504 -0.5145  0.0312
  640MPD2    C1 9525   1.360   3.630  10.267  0.3390 -0.3523  0.0378
  640MPD2    C2 9526   1.279   3.735  10.292  0.3069 -0.2864  0.3081
  640MPD2    C3 9527   1.161   3.729  10.356  0.5104  0.4680 -0.0614
  640MPD2    C4 9528   1.122   3.606  10.408 -0.4317 -0.0217  0.2783
  640MPD2    C5 9529   1.209   3.506  10.381  0.1888 -0.0222 -0.2989
  640MPD2     H 9530   1.306   3.834  10.257  0.1216  0.2461  1.6797
  640MPD2    H1 9531   1.032   3.588  10.465  0.9196 -0.0888  2.4428
  640MPD2    H2 9532   1.377   3.416  10.290  1.8978  0.0688  2.5379
  640MPD2    H3 9533   1.177   3.416  10.433 -2.9094  1.8088  0.9136
  640MPD2     N 9534   1.072   3.840  10.359  0.2119 -0.2967 -0.0069
  640MPD2    H5 9535   0.971   3.836  10.364  0.4259 -2.7010  1.9986
  640MPD2    N1 9536   1.476   3.648  10.198 -0.8271 -0.4068  0.4889
  640MPD2    H7 9537   1.543   3.572  10.210  0.1595  0.6123  1.5069
  641TMC3    C1 9538   1.649   3.774  10.096 -0.6064  0.0846 -0.3531
  641TMC3    C2 9539   1.738   3.680  10.151  0.1824 -0.1063 -0.0744
  641TMC3    C3 9540   1.871   3.697  10.123 -0.0292  0.4729  0.7667
  641TMC3    C4 9541   1.687   3.873  10.023 -0.6061  0.6187 -0.2468
  641TMC3    C5 9542   1.823   3.885   9.990 -0.4550  0.1365  0.3262
  641TMC3    C6 9543   1.915   3.802  10.037  0.6783  0.3009 -0.3771
  641TMC3     C 9544   1.509   3.758  10.126  0.1602 -0.1745 -0.7714
  641TMC3     O 9545   1.436   3.851  10.084  0.0674 -0.0300 -0.0919
  641TMC3     H 9546   1.702   3.587  10.193  0.8668 -1.0572 -1.6102
  641TMC3    H1 9547   1.611   3.942   9.990 -0.3013  0.0648 -2.0819
  641TMC3    H2 9548   2.021   3.810  10.015  1.1671  0.5810  2.0778
  641TMC3    C7 9549   1.862   4.014   9.925 -0.5411 -0.1824  0.4003
  641TMC3    C8 9550   1.960   3.588  10.131  0.2618 -0.4014  0.3655
  641TMC3    O1 9551   1.781   4.102   9.925  0.0468 -0.3457  0.2236
  641TMC3    O2 9552   2.056   3.591  10.056 -0.4492  0.5903 -0.2873
  642TMC3    C1 9553   2.348   0.241  11.991 -0.3528 -0.1034 -0.6964
  642TMC3    C2 9554   2.443   0.271  12.077  0.1689  0.3895  0.8030
  642TMC3    C3 9555   2.527   0.176  12.120  0.4407 -0.1759 -0.4646
  642TMC3    C4 9556   2.332   0.116  11.945 -0.1679 -0.5205 -0.0106
  642TMC3    C5 9557   2.401   0.010  12.006 -0.1585  0.0148  0.4590
  642TMC3    C6 9558   2.506   0.040  12.098  0.0314  0.7002 -0.4753
  642TMC3     C 9559   2.242   0.331  11.990  0.1955 -0.1930  0.5853
  642TMC3     O 9560   2.178   0.335  11.886 -0.4414 -0.5830 -1.1300
  642TMC3     H 9561   2.465   0.373  12.109  1.0448  0.9457 -1.5639
  642TMC3    H1 9562   2.233   0.092  11.910 -0.5365  0.1959  0.5283
  642TMC3    H2 9563   2.572   4.711  12.153 -0.1387  0.8535 -0.0911
  642TMC3    C7 9564   2.360   4.614  12.002 -0.9842  0.1526 -0.8915
  642TMC3    C8 9565   2.622   0.200  12.228 -0.5474 -0.4261  0.0063
  642TMC3    O1 9566   2.298   4.592  11.898  0.0110 -0.5771  0.0463
  642TMC3    O2 9567   2.624   0.125  12.326  0.5564  0.0647 -0.2935
  643TMC3    C1 9568   1.969   3.721   0.315  0.5877  0.3684 -0.7735
  643TMC3    C2 9569   1.853   3.757   0.250  0.1638  0.9966 -0.3210
  643TMC3    C3 9570   1.815   3.695   0.139 -0.1345  0.8180 -0.0824
  643TMC3    C4 9571   2.058   3.635   0.253  0.3760 -0.3670  0.9581
  643TMC3    C5 9572   2.004   3.568   0.147  0.8321  0.0698  0.0447
  643TMC3    C6 9573   1.880   3.586   0.089  0.1465 -0.7485 -0.0779
  643TMC3     C 9574   2.010   3.804   0.430  0.2473 -0.1315 -0.2784
  643TMC3     O 9575   1.952   3.912   0.432 -0.3671  0.3489  0.3637
  643TMC3     H 9576   1.782   3.827   0.293  2.1955  2.3977  0.7637
  643TMC3    H1 9577   2.161   3.626   0.288  1.4371 -0.8344 -2.2275
  643TMC3    H2 9578   1.860   3.534  17.741 -0.9317  1.3623 -1.0136
  643TMC3    C7 9579   2.107   3.520   0.063  0.4652  0.3246  0.4590
  643TMC3    C8 9580   1.706   3.748   0.055 -0.0617 -0.0928 -0.8273
  643TMC3    O1 9581   2.212   3.586   0.055  0.2126 -0.0287  0.2005
  643TMC3    O2 9582   1.633   3.668  17.742 -0.5741  0.3356  0.3435
  644MPD2     C 9583   2.097   4.378  10.132 -0.5943  0.2267 -0.1498
  644MPD2    C1 9584   2.194   4.456  10.073 -0.3860  0.2620  0.3787
  644MPD2    C2 9585   2.163   4.583  10.019 -0.0312  0.4729 -0.4289
  644MPD2    C3 9586   2.031   4.633  10.029 -0.2334 -0.2363 -0.1740
  644MPD2    C4 9587   1.937   4.547  10.092 -0.2691  0.0527  0.4026
  644MPD2    C5 9588   1.965   4.419  10.139 -0.1489  0.3753  0.2696
  644MPD2     H 9589   2.241   4.644   9.975  1.1964 -0.8084 -0.0245
  644MPD2    H1 9590   1.830   4.560  10.101  0.0446  2.3686  0.7420
  644MPD2    H2 9591   2.117   4.280  10.173 -0.8621  0.1460 -0.2130
  644MPD2    H3 9592   1.887   4.359  10.183  2.0530 -2.5501  0.1792
  644MPD2     N 9593   2.003   0.028   9.985  0.7436  0.0757  0.5360
  644MPD2    H5 9594   2.084   0.083   9.955  0.9014 -0.4170  0.0661
  644MPD2    N1 9595   2.323   4.400  10.077 -0.5474  0.1539  0.1886
  644MPD2    H7 9596   2.332   4.304  10.109 -4.1086 -0.4163 -0.4776
  645TMC3    C1 9597   1.874   0.213   9.930  0.2389 -0.0596 -0.0068
  645TMC3    C2 9598   1.785   0.303   9.977 -0.3883 -0.2037  0.5010
  645TMC3    C3 9599   1.792   0.433   9.932  0.1539 -0.2271  0.1647
  645TMC3    C4 9600   1.960   0.243   9.824 -0.5535 -0.0929  0.0751
  645TMC3    C5 9601   1.944   0.365   9.759  0.0845 -0.0838  0.0131
  645TMC3    C6 9602   1.876   0.464   9.824  0.0153  0.9012 -0.1223
  645TMC3     C 9603   1.878   0.080   9.993  0.2273  0.1756 -0.1046
  645TMC3     O 9604   1.781   0.039  10.048  0.3644 -0.3973 -0.0889
  645TMC3     H 9605   1.724   0.285  10.065  0.1883  0.0216  0.9429
  645TMC3    H1 9606   2.021   0.160   9.789 -1.2697 -0.2796 -0.7393
  645TMC3    H2 9607   1.864   0.562   9.779 -2.6601  1.4671  1.8599
  645TMC3    C7 9608   2.005   0.387   9.634 -0.0691 -0.0864 -0.9234
  645TMC3    C8 9609   1.768   0.549  10.016 -0.6115  0.4857 -0.4310
  645TMC3    O1 9610   2.019   0.294   9.561 -0.2136  0.3085  0.3888
  645TMC3    O2 9611   1.824   0.653   9.975  0.5441  0.6689 -0.3386
  646MPD2     C 9612   1.103   3.199  14.461 -0.5541 -0.7312 -0.6947
  646MPD2    C1 9613   1.017   3.201  14.568 -0.3510  0.2885  0.2819
  646MPD2    C2 9614   0.894   3.258  14.548  0.1793 -0.3107 -0.4524
  646MPD2    C3 9615   0.863   3.314  14.426  0.0299 -0.5880  0.2878
  646MPD2    C4 9616   0.957   3.318  14.320  0.0556 -0.8254 -0.3647
  646MPD2    C5 9617   1.079   3.263  14.345  0.6135  0.0553  0.6115
  646MPD2     H 9618   0.825   3.270  14.631  1.6952 -0.7210  0.8809
  646MPD2    H1 9619   0.933   3.358  14.222 -0.5034  1.2211  0.5920
  646MPD2    H2 9620   1.203   3.160  14.476 -0.5513 -0.4439  0.0880
  646MPD2    H3 9621   1.155   3.265  14.269  1.9917  0.7729  2.0001
  646MPD2     N 9622   0.732   3.364  14.407  0.3174 -0.2509 -0.5584
  646MPD2    H5 9623   0.665   3.362  14.483  0.1143 -3.1111 -0.7843
  646MPD2    N1 9624   1.068   3.144  14.686  0.2268  0.5190  0.4227
  646MPD2    H7 9625   1.163   3.110  14.686  0.6049  1.5830 -0.1154
  647TMC3    C1 9626   1.091   3.090  14.913 -0.2343  0.3185  0.4383
  647TMC3    C2 9627   1.030   3.027  15.017  0.1745  0.1003  0.3384
  647TMC3    C3 9628   1.113   2.983  15.116  0.6909  0.4885 -0.7661
  647TMC3    C4 9629   1.230   3.090  14.892  0.7726 -0.4767  0.8379
  647TMC3    C5 9630   1.307   3.046  14.998  0.2510 -0.6181  0.6355
  647TMC3    C6 9631   1.249   2.991  15.110 -0.7516  0.8523  0.1820
  647TMC3     C 9632   1.001   3.135  14.806 -0.3612  0.2054 -0.3405
  647TMC3     O 9633   0.889   3.168  14.836  0.2984  0.2787 -0.1726
  647TMC3     H 9634   0.924   3.031  15.040  0.0981 -1.2048  0.2121
  647TMC3    H1 9635   1.280   3.134  14.806 -1.5534  0.9807  0.2353
  647TMC3    H2 9636   1.315   2.969  15.193 -0.9591  1.7734  0.5857
  647TMC3    C7 9637   1.449   3.038  14.973  0.6198 -0.5411  0.2501
  647TMC3    C8 9638   1.065   2.880  15.204 -0.2330 -0.0139  0.4233
  647TMC3    O1 9639   1.524   3.077  15.063  0.4273  0.1807  0.5161
  647TMC3    O2 9640   1.096   2.884  15.322 -0.8162  0.3564  0.1824
  648TMC3    C1 9641   0.618   0.897  16.526 -0.7767 -0.1081 -0.1944
  648TMC3    C2 9642   0.641   0.763  16.500 -0.4049  0.6428 -0.1391
  648TMC3    C3 9643   0.621   0.730  16.367  0.3917  0.2053 -0.4163
  648TMC3    C4 9644   0.588   0.998  16.435 -0.2660 -0.5605 -0.5107
  648TMC3    C5 9645   0.557   0.955  16.308  0.0690  0.1071 -0.7111
  648TMC3    C6 9646   0.584   0.824  16.271 -0.9496 -0.1270 -0.3565
  648TMC3     C 9647   0.617   0.932  16.666  0.4435 -0.5330 -0.1551
  648TMC3     O 9648   0.621   1.052  16.679 -0.2003  0.4421 -0.1486
  648TMC3     H 9649   0.689   0.696  16.571 -0.2971  1.1179  0.2400
  648TMC3    H1 9650   0.562   1.098  16.468  0.8874 -1.0669  1.9603
  648TMC3    H2 9651   0.580   0.802  16.165  0.8580  0.0974 -0.4771
  648TMC3    C7 9652   0.466   1.028  16.215  0.5148  0.3854 -0.4357
  648TMC3    C8 9653   0.681   0.611  16.307  0.1258 -0.4834  0.2984
  648TMC3    O1 9654   0.466   0.993  16.098  0.3979 -0.4306 -0.7457
  648TMC3    O2 9655   0.699   0.614  16.185  0.1300  0.1405 -0.2354
  649TMC3    C1 9656   3.892   2.039  12.903 -0.1069  0.5373  0.2837
  649TMC3    C2 9657   4.024   2.076  12.892  0.3845 -0.3614  0.1715
  649TMC3    C3 9658   4.101   2.045  12.999 -0.7596 -0.0079 -0.4362
  649TMC3    C4 9659   3.834   1.995  13.020 -0.2126  0.6274  0.1429
  649TMC3    C5 9660   3.912   1.973  13.129  0.0521 -0.2737  0.5698
  649TMC3    C6 9661   4.049   1.999  13.116 -0.1489  0.7897 -0.3198
  649TMC3     C 9662   3.791   2.096  12.807  0.1807 -0.0000 -0.2771
  649TMC3     O 9663   3.679   2.105  12.858 -0.5888  0.2991  0.2977
  649TMC3     H 9664   4.069   2.115  12.802  0.3042 -1.4547 -0.3428
  649TMC3    H1 9665   3.729   1.969  13.026 -0.0198  0.1318  1.3665
  649TMC3    H2 9666   4.117   1.983  13.199 -0.9367  0.0152  0.1735
  649TMC3    C7 9667   3.853   1.920  13.249  0.0802 -0.3163 -0.1098
  649TMC3    C8 9668   4.234   2.011  12.973  0.6693  0.5831 -0.1241
  649TMC3    O1 9669   3.735   1.928  13.273 -0.0994 -0.4159 -0.2020
  649TMC3    O2 9670   4.294   1.961  13.069 -0.1603  0.3864 -0.0122
  650TMC3    C1 9671   2.022   4.005  12.488 -0.0777  0.2085 -0.5386
  650TMC3    C2 9672   2.067   4.125  12.517  0.6596  0.7236  0.4354
  650TMC3    C3 9673   2.022   4.236  12.439 -0.3393  0.4773  0.0196
  650TMC3    C4 9674   1.927   3.984  12.391 -0.1744 -0.0190 -0.0333
  650TMC3    C5 9675   1.873   4.090  12.330 -0.4182  0.7623 -0.3553
  650TMC3    C6 9676   1.909   4.217  12.364 -0.5123  0.5134  0.7738
  650TMC3     C 9677   2.047   3.898  12.584  0.8527  0.5202  0.3853
  650TMC3     O 9678   2.065   3.926  12.704  0.0643  0.2837 -0.2588
  650TMC3     H 9679   2.142   4.134  12.595  1.0661  0.5092  0.0683
  650TMC3    H1 9680   1.887   3.888  12.359  1.2600 -0.8784  0.7575
  650TMC3    H2 9681   1.862   4.302  12.316 -0.6058 -0.4805 -0.9105
  650TMC3    C7 9682   1.752   4.069  12.260 -0.2414 -0.3541  0.0413
  650TMC3    C8 9683   2.028   4.369  12.500  0.1995  0.7907 -0.4434
  650TMC3    O1 9684   1.737   3.960  12.205  0.3463  0.2894  0.3670
  650TMC3    O2 9685   1.997   4.461  12.428  0.0292  0.1819  0.1648
  651MPD2     C 9686   0.757   1.079  11.263 -0.5731 -0.4422  0.6336
  651MPD2    C1 9687   0.713   1.174  11.172  0.2449 -0.3038 -0.3427
  651MPD2    C2 9688   0.804   1.262  11.125 -0.0455 -0.4099 -0.3940
  651MPD2    C3 9689   0.937   1.259  11.161  0.4571 -0.2014  0.2907
  651MPD2    C4 9690   0.985   1.156  11.239  0.3328  0.0714  0.4921
  651MPD2    C5 9691   0.893   1.071  11.299  0.2278 -0.5176  0.0071
  651MPD2     H 9692   0.782   1.355  11.073  0.6709 -0.8995 -1.5798
  651MPD2    H1 9693   1.086   1.142  11.277  0.8563 -0.4725 -1.1004
  651MPD2    H2 9694   0.684   1.025  11.322  0.1464 -1.3396  0.7122
  651MPD2    H3 9695   0.936   0.995  11.364 -0.4355 -1.5991 -0.8236
  651MPD2     N 9696   1.028   1.357  11.116 -0.1199  0.3123  0.6900
  651MPD2    H5 9697   0.992   1.426  11.052 -1.1498 -0.3330  0.5708
  651MPD2    N1 9698   0.576   1.188  11.136 -0.5417  0.4185  0.2636
  651MPD2    H7 9699   0.557   1.268  11.077 -0.3897  0.1816 -0.1041
  652TMC3    C1 9700   1.381   1.489  10.870  0.5235 -0.0909  0.4735
  652TMC3    C2 9701   1.311   1.391  10.936 -0.0517 -0.2859 -0.6344
  652TMC3    C3 9702   1.220   1.432  11.028 -0.5189  0.2269 -0.2519
  652TMC3    C4 9703   1.356   1.621  10.887  0.1109  0.1900  0.0221
  652TMC3    C5 9704   1.260   1.666  10.970 -0.1759  1.0145 -0.6364
  652TMC3    C6 9705   1.182   1.564  11.034  0.0202  0.1181 -0.4806
  652TMC3     C 9706   1.516   1.453  10.845 -0.5734 -0.7997 -0.8887
  652TMC3     O 9707   1.557   1.359  10.916  0.0695  0.1898  0.2884
  652TMC3     H 9708   1.339   1.286  10.934  1.3010  0.0127  2.0965
  652TMC3    H1 9709   1.436   1.684  10.849 -0.2235  0.3710 -0.3816
  652TMC3    H2 9710   1.112   1.591  11.113  0.3903 -0.7415  0.1401
  652TMC3    C7 9711   1.278   1.783  11.052  0.8183 -0.3055 -0.1258
  652TMC3    C8 9712   1.162   1.330  11.108  0.1432  0.8743  0.6259
  652TMC3    O1 9713   1.236   1.774  11.167  0.1627  0.3883  0.6210
  652TMC3    O2 9714   1.243   1.240  11.136 -0.2930 -0.4929 -0.3785
  653MPD2     C 9715   3.952   1.000   0.258  0.4326  0.4984 -0.4412
  653MPD2    C1 9716   3.976   1.088   0.158  1.0170 -0.1880  0.4918
  653MPD2    C2 9717   3.951   1.055   0.030  0.9372 -1.4670  0.0870
  653MPD2    C3 9718   3.934   0.928  17.738 -0.2176 -0.1429  0.5907
  653MPD2    C4 9719   3.919   0.835   0.092 -0.9060  0.1053 -0.1461
  653MPD2    C5 9720   3.915   0.874   0.216  0.3245  0.1123 -0.3522
  653MPD2     H 9721   3.966   1.120  17.690 -3.2453  0.2855  0.7045
  653MPD2    H1 9722   3.911   0.730   0.068  1.5929 -0.2551  0.6665
  653MPD2    H2 9723   3.957   1.024   0.363  0.5609 -0.8474 -0.1425
  653MPD2    H3 9724   3.881   0.803   0.290 -1.6580  0.5634 -0.8195
  653MPD2     N 9725   3.916   0.913  17.598 -0.2648 -0.0826  0.2038
  653MPD2    H5 9726   3.942   0.985  17.531 -1.0539  1.1189  1.1981
  653MPD2    N1 9727   4.028   1.218   0.175 -0.3117  0.1033 -0.2394
  653MPD2    H7 9728   4.032   1.275   0.091  0.6766  0.7709  0.2589
  654TMC3    C1 9729   3.885   0.794  17.399 -0.9990 -0.1098  0.3730
  654TMC3    C2 9730   3.855   0.906  17.326  1.0720  0.2120  0.1475
  654TMC3    C3 9731   3.888   0.916  17.196 -0.4828 -0.7522 -0.0990
  654TMC3    C4 9732   3.921   0.681  17.328  0.1031  0.2202 -0.1813
  654TMC3    C5 9733   3.938   0.695  17.192 -0.0641 -0.6354  0.3246
  654TMC3    C6 9734   3.928   0.815  17.123  0.0178 -0.4774  0.8409
  654TMC3     C 9735   3.899   0.792  17.539  0.3328  0.2883 -0.5895
  654TMC3     O 9736   3.887   0.683  17.590 -0.7360  0.2648 -0.2548
  654TMC3     H 9737   3.837   1.001  17.375 -1.6508  0.3569 -1.1608
  654TMC3    H1 9738   3.934   0.587  17.380 -1.2258  0.4705  0.6236
  654TMC3    H2 9739   3.957   0.824  17.019  0.0443  0.7294  0.9542
  654TMC3    C7 9740   3.941   0.578  17.104  0.3691  0.0238  0.1730
  654TMC3    C8 9741   3.785   0.989  17.135 -0.0423  0.0255 -0.4644
  654TMC3    O1 9742   3.950   0.607  16.982 -0.2747  0.2216 -0.4241
  654TMC3    O2 9743   3.684   0.997  17.204 -0.7699 -0.1421  0.0906
  655MPD2     C 9744   0.824   1.034  16.056 -0.9081  0.3073  0.2152
  655MPD2    C1 9745   0.777   1.139  15.976 -0.1364 -0.3646  0.2868
  655MPD2    C2 9746   0.788   1.135  15.838  0.3234 -0.0391  0.4269
  655MPD2    C3 9747   0.847   1.026  15.780  0.4133  0.6185  0.0079
  655MPD2    C4 9748   0.884   0.914  15.857 -0.2609 -0.0300  0.2248
  655MPD2    C5 9749   0.876   0.923  15.998  0.0013  0.2890 -0.0112
  655MPD2     H 9750   0.741   1.216  15.783  0.7522 -0.5958 -0.7600
  655MPD2    H1 9751   0.917   0.819  15.817  1.1801  1.2745 -1.7005
  655MPD2    H2 9752   0.819   1.039  16.164  1.3666  2.2099  0.2229
  655MPD2    H3 9753   0.918   0.845  16.061 -2.3074 -1.9044 -1.1675
  655MPD2     N 9754   0.859   1.018  15.639  0.1643  0.2626 -0.5043
  655MPD2    H5 9755   0.898   0.929  15.610  0.1880  0.0329  0.2486
  655MPD2    N1 9756   0.729   1.260  16.029  0.1306 -0.2965 -0.3227
  655MPD2    H7 9757   0.687   1.319  15.958 -0.1458 -1.8808 -1.4828
  656TMC3    C1 9758   0.651   1.419  16.172 -0.3621  0.0312  0.1534
  656TMC3    C2 9759   0.593   1.439  16.299  0.4166 -0.2836 -0.5254
  656TMC3    C3 9760   0.490   1.520  16.312 -0.5975 -0.0164 -0.3127
  656TMC3    C4 9761   0.605   1.480  16.057 -0.0262  0.3217 -0.4914
  656TMC3    C5 9762   0.494   1.559  16.078  0.3220  0.3986 -0.1469
  656TMC3    C6 9763   0.437   1.583  16.204 -0.9672 -0.4176  0.1549
  656TMC3     C 9764   0.712   1.289  16.165  0.9995  0.1179 -0.5524
  656TMC3     O 9765   0.723   1.211  16.258 -0.1563  0.2621  0.1368
  656TMC3     H 9766   0.634   1.377  16.377  2.0316  0.6460 -0.6182
  656TMC3    H1 9767   0.646   1.474  15.957  0.8541  0.4977 -0.1357
  656TMC3    H2 9768   0.349   1.644  16.219  0.8245  2.9796 -3.0406
  656TMC3    C7 9769   0.414   1.579  15.955 -0.8919 -0.4227 -0.2741
  656TMC3    C8 9770   0.412   1.489  16.434  0.1850 -0.1014 -0.5603
  656TMC3    O1 9771   0.476   1.551  15.854 -0.2503  0.1802 -0.5550
  656TMC3    O2 9772   0.430   1.384  16.491 -0.2115 -0.1990 -0.6461
  657TMC3    C1 9773   4.500   0.476  15.263 -0.6651 -1.0450 -0.0559
  657TMC3    C2 9774   4.477   0.575  15.354 -0.4336  0.8759 -0.2818
  657TMC3    C3 9775   4.342   0.603  15.382 -0.6379 -0.3649 -0.0251
  657TMC3    C4 9776   4.397   0.401  15.215 -0.0995  0.7101 -0.4054
  657TMC3    C5 9777   4.266   0.426  15.256 -0.0975  0.7816  0.1391
  657TMC3    C6 9778   4.237   0.524  15.338  0.0110  0.1381  0.3901
  657TMC3     C 9779   4.632   0.422  15.237  0.3630 -0.3754 -0.5184
  657TMC3     O 9780   4.644   0.363  15.132 -0.6036  0.0943 -0.1387
  657TMC3     H 9781   4.563   0.630  15.392  0.5239 -0.9375  0.1915
  657TMC3    H1 9782   4.422   0.326  15.142  1.4622 -0.5452  1.4210
  657TMC3    H2 9783   4.139   0.542  15.379  0.2503  3.3846 -0.3875
  657TMC3    C7 9784   4.182   0.313  15.252  0.2974 -0.1548  1.5394
  657TMC3    C8 9785   4.315   0.704  15.482 -0.5929 -0.3072 -0.4716
  657TMC3    O1 9786   4.065   0.333  15.279  0.6615 -0.1654  0.8438
  657TMC3    O2 9787   4.208   0.759  15.470  0.3339 -1.0655 -0.2485
  658MPD2     C 9788   1.105   0.643  15.180  0.3279  0.3550  0.0120
  658MPD2    C1 9789   0.971   0.656  15.143 -0.3223  1.4327  0.5120
  658MPD2    C2 9790   0.927   0.618  15.020 -0.4238  0.0222 -0.2949
  658MPD2    C3 9791   1.018   0.554  14.935  0.0543  0.3876 -0.2997
  658MPD2    C4 9792   1.146   0.515  14.984  0.1267  0.4437 -0.6814
  658MPD2    C5 9793   1.180   0.549  15.114 -0.2320  0.1719  0.2851
  658MPD2     H 9794   0.830   0.651  14.984  0.2965  0.3680 -1.8972
  658MPD2    H1 9795   1.207   0.455  14.917  0.7347  0.7415 -0.3885
  658MPD2    H2 9796   1.145   0.665  15.279  0.4587 -2.7562  0.6521
  658MPD2    H3 9797   1.280   0.514  15.139  1.1498  0.2805 -5.0771
  658MPD2     N 9798   0.974   0.531  14.807 -0.0554  0.2200 -0.8469
  658MPD2    H5 9799   0.879   0.558  14.786  0.4306  1.7758 -1.1097
  658MPD2    N1 9800   0.900   0.741  15.230  1.3578  0.1758  0.0382
  658MPD2    H7 9801   0.936   0.765  15.322  1.8957 -1.5500  0.2663
  659TMC3    C1 9802   0.727   0.892  15.277 -0.7480 -0.3575 -0.6289
  659TMC3    C2 9803   0.809   0.941  15.380 -0.2039 -0.2468 -0.2375
  659TMC3    C3 9804   0.769   1.060  15.427 -0.3384  0.5278  0.0765
  659TMC3    C4 9805   0.618   0.957  15.227 -0.3038  0.0841 -0.2764
  659TMC3    C5 9806   0.599   1.084  15.269 -0.3118  0.0431  0.0266
  659TMC3    C6 9807   0.677   1.138  15.365 -0.3284  0.3331  0.2346
  659TMC3     C 9808   0.777   0.790  15.192  0.3374  0.1778  0.1421
  659TMC3     O 9809   0.715   0.784  15.091  0.4244  0.1721 -0.0279
  659TMC3     H 9810   0.898   0.896  15.424 -0.2406 -0.7265 -0.6485
  659TMC3    H1 9811   0.539   0.906  15.174  0.1997 -0.4717 -0.4942
  659TMC3    H2 9812   0.644   1.232  15.407 -1.0770 -0.4163  1.3272
  659TMC3    C7 9813   0.459   1.109  15.304 -0.7882 -0.3658 -0.1076
  659TMC3    C8 9814   0.822   1.116  15.551  0.2403 -0.1885 -0.8730
  659TMC3    O1 9815   0.443   1.118  15.428 -0.2747  0.1439  0.1979
  659TMC3    O2 9816   0.816   1.237  15.559  0.0930 -0.0479 -0.8579
  660MPD2     C 9817   3.328   0.148  12.433 -0.3122  0.3046  1.0147
  660MPD2    C1 9818   3.190   0.146  12.409 -0.8469 -0.0017  0.0678
  660MPD2    C2 9819   3.107   0.105  12.515  0.0806 -0.1539 -0.1608
  660MPD2    C3 9820   3.161   0.075  12.646  0.5546 -0.5162  0.7601
  660MPD2    C4 9821   3.300   0.080  12.657 -0.1991  0.6588  0.1549
  660MPD2    C5 9822   3.373   0.114  12.553  0.2790  0.8405  1.2063
  660MPD2     H 9823   3.003   0.089  12.490  0.0155 -1.3064  0.8675
  660MPD2    H1 9824   3.344   0.057  12.753  3.0192 -2.0580 -1.9656
  660MPD2    H2 9825   3.392   0.185  12.353 -0.2175 -2.0034  0.0338
  660MPD2    H3 9826   3.480   0.125  12.568  0.8344 -0.6151 -1.7712
  660MPD2     N 9827   3.075   0.020  12.751 -0.1572  0.3091  0.5129
  660MPD2    H5 9828   3.126   4.717  12.829  1.0439  1.2770  0.2168
  660MPD2    N1 9829   3.146   0.191  12.286 -0.1228 -0.4994 -0.9462
  660MPD2    H7 9830   3.218   0.237  12.231 -0.9343  0.4775 -1.1878
  661TMC3    C1 9831   3.010   0.234  12.100 -0.0428  0.2544  0.2636
  661TMC3    C2 9832   3.083   0.344  12.074  0.2112 -0.0184  0.5143
  661TMC3    C3 9833   3.068   0.403  11.950  0.3030  0.1879 -0.5858
  661TMC3    C4 9834   2.911   0.192  12.008  0.1631 -0.0989 -0.8297
  661TMC3    C5 9835   2.898   0.250  11.885 -0.4066  0.3403 -0.0174
  661TMC3    C6 9836   2.976   0.356  11.853  1.0146 -0.5121  0.1418
  661TMC3     C 9837   3.021   0.167  12.231  0.4988  0.0838  0.3112
  661TMC3     O 9838   2.936   0.084  12.251  0.4790  0.4675 -0.3828
  661TMC3     H 9839   3.144   0.389  12.151  1.5628 -0.4568 -0.2939
  661TMC3    H1 9840   2.845   0.109  12.032  2.5697 -1.7120  0.2329
  661TMC3    H2 9841   2.941   0.408  11.764 -2.3282 -2.9315  0.0241
  661TMC3    C7 9842   2.762   0.288  11.848 -0.0963  0.3824 -0.0308
  661TMC3    C8 9843   3.169   0.487  11.894  0.7437  0.2893 -0.2944
  661TMC3    O1 9844   2.725   0.375  11.923  0.0195  0.3283  0.2929
  661TMC3    O2 9845   3.157   0.515  11.774 -0.1371  0.0780 -0.2817
  662MPD2     C 9846   3.931   4.176  17.520 -0.0884  0.1776 -0.2241
  662MPD2    C1 9847   3.848   4.176  17.415 -0.4156  0.1173 -0.1831
  662MPD2    C2 9848   3.764   4.281  17.403  0.5602 -0.2614  0.2829
  662MPD2    C3 9849   3.769   4.393  17.484 -0.0851 -0.9088  0.6479
  662MPD2    C4 9850   3.871   4.398  17.577  0.4256 -0.4831 -1.2763
  662MPD2    C5 9851   3.934   4.286  17.605 -0.6097  0.0107  0.4664
  662MPD2     H 9852   3.690   4.267  17.324  1.5810 -2.7225 -0.2034
  662MPD2    H1 9853   3.890   4.486  17.638 -0.6826 -0.8209 -0.4351
  662MPD2    H2 9854   3.997   4.092  17.538 -0.3932  0.0252  0.1747
  662MPD2    H3 9855   4.007   4.279  17.685  1.3588  0.9862 -1.2554
  662MPD2     N 9856   3.665   4.492  17.481  0.4559  1.0258 -0.1635
  662MPD2    H5 9857   3.666   4.561  17.555  0.1401  0.5718  0.2661
  662MPD2    N1 9858   3.850   4.076  17.316  0.0548 -0.1198 -0.1528
  662MPD2    H7 9859   3.778   4.080  17.245  2.6921 -2.4401 -2.9442
  663TMC3    C1 9860   3.898   3.876  17.207 -0.0268  0.4773 -0.1752
  663TMC3    C2 9861   3.828   3.941  17.104  0.0382  0.3189  0.0574
  663TMC3    C3 9862   3.718   3.883  17.041 -0.2060 -0.2614 -0.4662
  663TMC3    C4 9863   3.863   3.750  17.241 -0.2793  0.8292 -0.3421
  663TMC3    C5 9864   3.759   3.684  17.171  0.0529 -0.1053 -0.1598
  663TMC3    C6 9865   3.685   3.760  17.084  0.2401 -0.2210 -0.2248
  663TMC3     C 9866   3.921   3.959  17.323  0.4106 -0.1668 -0.6235
  663TMC3     O 9867   3.979   3.910  17.418 -0.4853  0.2664  0.0349
  663TMC3     H 9868   3.845   4.043  17.072 -0.5434 -0.0299 -1.3922
  663TMC3    H1 9869   3.913   3.699  17.322  0.4548  1.6371 -0.2820
  663TMC3    H2 9870   3.610   3.707  17.026 -0.3755  0.6060 -0.1648
  663TMC3    C7 9871   3.679   3.589  17.255  0.2644  0.1163 -0.8599
  663TMC3    C8 9872   3.609   3.976  17.069  0.1451  0.4021 -0.4858
  663TMC3    O1 9873   3.558   3.589  17.242  0.0509  0.0548 -0.1040
  663TMC3    O2 9874   3.604   4.092  17.026  0.3385 -0.5060  0.0418
  664MPD2     C 9875   2.147   1.928  17.574  0.5401 -0.3846  0.2304
  664MPD2    C1 9876   2.190   2.056  17.610 -0.7658 -0.2931  0.0214
  664MPD2    C2 9877   2.231   2.079  17.743  0.3718  0.2963 -0.1760
  664MPD2    C3 9878   2.238   1.976   0.090  0.5389 -0.3088 -0.3781
  664MPD2    C4 9879   2.187   1.854   0.057 -0.0352 -0.0633  0.1040
  664MPD2    C5 9880   2.142   1.824  17.676  0.1396 -0.0159  0.0565
  664MPD2     H 9881   2.273   2.174   0.029 -1.3578  1.1450 -0.4298
  664MPD2    H1 9882   2.197   1.770   0.125  2.2434  0.1015 -0.0204
  664MPD2    H2 9883   2.118   1.908  17.472  1.5524 -0.8594  0.0426
  664MPD2    H3 9884   2.102   1.726  17.654 -1.5169  0.3116  1.6561
  664MPD2     N 9885   2.287   2.002   0.217 -0.0716  0.6905 -0.3913
  664MPD2    H5 9886   2.311   2.101   0.227 -1.0459  0.6368  2.4438
  664MPD2    N1 9887   2.186   2.158  17.513  0.2595  0.1489  0.3008
  664MPD2    H7 9888   2.137   2.137  17.427 -1.7735  0.9590  1.2793
  665TMC3    C1 9889   2.340   1.980   0.444 -0.0586  0.3211  0.5274
  665TMC3    C2 9890   2.379   1.902   0.552 -0.5268  0.0581 -0.7130
  665TMC3    C3 9891   2.401   1.965   0.674 -0.8541 -0.3291 -0.2137
  665TMC3    C4 9892   2.323   2.119   0.456 -0.3800  0.0773  0.5605
  665TMC3    C5 9893   2.334   2.167   0.584  0.0372 -0.4427 -0.1544
  665TMC3    C6 9894   2.395   2.104   0.687 -0.1528  0.0417  0.4854
  665TMC3     C 9895   2.301   1.915   0.322  0.3655  0.3431 -0.8196
  665TMC3     O 9896   2.279   1.795   0.319  0.3112  0.2475  0.0941
  665TMC3     H 9897   2.365   1.795   0.562 -1.1472  0.4429  2.4266
  665TMC3    H1 9898   2.285   2.184   0.378 -1.9764  0.1459  1.3842
  665TMC3    H2 9899   2.419   2.154   0.780  1.3815 -2.1183  1.2435
  665TMC3    C7 9900   2.314   2.313   0.596 -0.7618 -0.1173  0.5023
  665TMC3    C8 9901   2.354   1.902   0.794 -0.0262  0.0024 -0.6032
  665TMC3    O1 9902   2.333   2.379   0.493 -0.0209  0.1699 -0.2236
  665TMC3    O2 9903   2.393   1.946   0.900  0.2566  0.5706 -0.1043
  666TMC3    C1 9904   1.145   2.464  10.458 -0.0471 -0.1024 -0.8168
  666TMC3    C2 9905   1.271   2.412  10.446  0.5462 -0.1686  0.3662
  666TMC3    C3 9906   1.370   2.486  10.391 -0.6743  0.0962  0.6940
  666TMC3    C4 9907   1.113   2.594  10.412  0.7910  0.4232  0.2511
  666TMC3    C5 9908   1.214   2.656  10.348 -0.6625  0.2724 -0.5601
  666TMC3    C6 9909   1.344   2.612  10.340  0.4141 -0.0298  0.0882
  666TMC3     C 9910   1.040   2.383  10.520  0.1600  0.8230 -0.1032
  666TMC3     O 9911   0.946   2.448  10.568  0.6807 -0.3036  0.5129
  666TMC3     H 9912   1.293   2.311  10.480  0.8248  0.5589  2.3784
  666TMC3    H1 9913   1.012   2.633  10.419  1.1499  1.5675 -1.0836
  666TMC3    H2 9914   1.423   2.683  10.322  0.3661 -0.0614 -0.2477
  666TMC3    C7 9915   1.189   2.793  10.314 -0.1377 -0.6234  0.7456
  666TMC3    C8 9916   1.501   2.429  10.370  0.0847  0.7212  0.1590
  666TMC3    O1 9917   1.077   2.832  10.344  0.2587 -0.7855  0.3551
  666TMC3    O2 9918   1.517   2.319  10.410 -0.5431  0.0313 -0.1064
  667MPD2     C 9919   2.495   2.746  14.451  0.3456 -0.4935  0.2056
  667MPD2    C1 9920   2.536   2.654  14.540  0.4639  0.3855 -0.4966
  667MPD2    C2 9921   2.502   2.524  14.528  0.1248  1.0753  1.2945
  667MPD2    C3 9922   2.431   2.476  14.415  0.3406  0.0007 -0.2178
  667MPD2    C4 9923   2.391   2.569  14.323 -0.5505 -0.3242  0.3291
  667MPD2    C5 9924   2.416   2.702  14.351  0.1173  0.3843 -0.2395
  667MPD2     H 9925   2.528   2.457  14.609 -0.5756  0.5310  1.0676
  667MPD2    H1 9926   2.319   2.542  14.247  0.0209  1.8081 -0.9502
  667MPD2    H2 9927   2.506   2.852  14.472 -3.1474 -0.3737  1.4352
  667MPD2    H3 9928   2.374   2.777  14.283  2.1927 -0.9452 -2.9846
  667MPD2     N 9929   2.397   2.340  14.392  0.6617 -0.3328  0.4864
  667MPD2    H5 9930   2.352   2.311  14.305  1.3784 -0.0248  0.0142
  667MPD2    N1 9931   2.601   2.683  14.666  0.7001 -0.4908 -0.3384
  667MPD2    H7 9932   2.614   2.615  14.740 -0.5607  0.1938  0.5193
  668TMC3    C1 9933   2.741   2.781  14.819 -0.3093 -0.8930 -0.0145
  668TMC3    C2 9934   2.856   2.857  14.832  0.4029  0.3857  0.0485
  668TMC3    C3 9935   2.911   2.864  14.956  0.0689  0.0155 -0.7612
  668TMC3    C4 9936   2.694   2.702  14.919  0.2115  0.0597 -0.3016
  668TMC3    C5 9937   2.760   2.703  15.040  0.5781  0.1883  0.3608
  668TMC3    C6 9938   2.867   2.783  15.059  0.7748  0.1884 -0.5452
  668TMC3     C 9939   2.650   2.804  14.706  0.1423 -0.0033 -0.3883
  668TMC3     O 9940   2.665   2.903  14.632 -0.2427 -0.4672 -0.3373
  668TMC3     H 9941   2.877   2.928  14.753 -1.5838  0.8470 -0.0528
  668TMC3    H1 9942   2.602   2.650  14.897  0.7763 -2.7799  4.0988
  668TMC3    H2 9943   2.912   2.798  15.157  1.0602  2.6069 -1.0542
  668TMC3    C7 9944   2.720   2.630  15.163 -0.2847  0.9096 -0.1152
  668TMC3    C8 9945   2.972   2.993  14.990  0.3323 -0.4506 -0.4325
  668TMC3    O1 9946   2.759   2.664  15.272 -0.0501 -0.7481 -0.3926
  668TMC3    O2 9947   2.986   3.018  15.109 -0.5738 -0.0004 -0.1982
  669TMC3    C1 9948   0.734   2.258  14.351 -0.1461  0.3288 -0.1576
  669TMC3    C2 9949   0.615   2.315  14.300  0.5704 -0.1112  0.6654
  669TMC3    C3 9950   0.633   2.415  14.209  0.1948  0.0765 -0.1132
  669TMC3    C4 9951   0.860   2.299  14.321 -0.6901 -0.1961  0.0489
  669TMC3    C5 9952   0.871   2.381  14.214 -0.2320  0.1271  0.3878
  669TMC3    C6 9953   0.758   2.439  14.155  0.7559  0.1451  0.2797
  669TMC3     C 9954   0.702   2.149  14.445 -0.0519  0.0840  0.1367
  669TMC3     O 9955   0.588   2.105  14.452 -0.1014 -0.5063 -0.0191
  669TMC3     H 9956   0.516   2.271  14.311 -0.3518  1.8796  0.3203
  669TMC3    H1 9957   0.950   2.255  14.361 -0.7867 -0.7702 -0.3616
  669TMC3    H2 9958   0.766   2.514  14.077 -1.7162 -0.2326 -0.3087
  669TMC3    C7 9959   1.004   2.419  14.171 -0.1940  0.2828  0.3304
  669TMC3    C8 9960   0.511   2.465  14.142  0.2497 -0.3271  0.0634
  669TMC3    O1 9961   1.103   2.396  14.240 -0.5912  0.1723 -0.1604
  669TMC3    O2 9962   0.408   2.442  14.204 -0.1154  0.3940  0.3235
  670MPD2     C 9963   4.183   0.518  13.562  0.5751 -0.0750 -0.4693
  670MPD2    C1 9964   4.242   0.421  13.637  0.0052  0.3197 -0.9174
  670MPD2    C2 9965   4.163   0.334  13.710 -0.0340 -0.0222  0.5927
  670MPD2    C3 9966   4.024   0.342  13.705  0.5956  0.1750  0.2585
  670MPD2    C4 9967   3.968   0.438  13.625  0.2209  0.1782 -0.8374
  670MPD2    C5 9968   4.047   0.528  13.559 -0.1409 -0.5044  0.3699
  670MPD2     H 9969   4.198   0.255  13.774  2.7509 -0.1146 -1.0299
  670MPD2    H1 9970   3.862   0.458  13.628  0.0568 -1.1369  2.0094
  670MPD2    H2 9971   4.235   0.583  13.492  0.8708  1.5173  1.2310
  670MPD2    H3 9972   3.994   0.598  13.495  2.8422  0.7462 -0.7033
  670MPD2     N 9973   3.956   0.246  13.781 -0.6723  0.3907 -0.6559
  670MPD2    H5 9974   4.013   0.200  13.852 -0.3797  0.8247 -0.6120
  670MPD2    N1 9975   4.381   0.413  13.655  0.3459  0.5991  0.2374
  670MPD2    H7 9976   4.415   0.341  13.719 -1.8752 -1.8094 -1.2779
  671TMC3    C1 9977   3.783   0.105  13.864 -0.1273  0.2075 -0.5978
  671TMC3    C2 9978   3.829   0.070  13.983 -1.3665 -0.2629 -0.0101
  671TMC3    C3 9979   3.754   4.709  14.050 -0.1467 -0.2194  1.1085
  671TMC3    C4 9980   3.679   0.040  13.806 -0.2266  0.4008 -0.0195
  671TMC3    C5 9981   3.617   4.671  13.864  1.1186 -0.0131  0.9751
  671TMC3    C6 9982   3.650   4.636  13.990 -0.2256  0.5169 -0.4281
  671TMC3     C 9983   3.820   0.231  13.799  0.3581  1.1637 -0.3566
  671TMC3     O 9984   3.740   0.289  13.729 -0.3105  0.2506 -0.1000
  671TMC3     H 9985   3.873   0.143  14.050 -1.5300  1.2819 -1.5717
  671TMC3    H1 9986   3.658   0.062  13.702  0.2258  1.6513  0.1516
  671TMC3    H2 9987   3.592   4.562  14.045  0.0791 -0.0537 -0.8757
  671TMC3    C7 9988   3.502   4.624  13.797 -0.2530  0.0333  0.2588
  671TMC3    C8 9989   3.827   4.633  14.145  0.4031  0.1409 -0.7328
  671TMC3    O1 9990   3.400   4.605  13.863 -0.5350  0.7028  0.2854
  671TMC3    O2 9991   3.949   4.659  14.160  0.3181 -0.9997 -0.1681
  672MPD2     C 9992   4.274   0.496   1.210  0.4464 -0.1210  0.2472
  672MPD2    C1 9993   4.358   0.478   1.107  0.5140 -0.0424  0.6547
  672MPD2    C2 9994   4.485   0.539   1.118 -0.6588 -0.5849  0.6055
  672MPD2    C3 9995   4.521   0.621   1.226  0.4180  0.0897 -0.1275
  672MPD2    C4 9996   4.428   0.638   1.325 -0.6125 -0.0831 -0.1793
  672MPD2    C5 9997   4.303   0.576   1.318  0.4671  0.0872 -0.1085
  672MPD2     H 9998   4.564   0.513   1.048 -0.2587  0.7802  0.5388
  672MPD2    H1 9999   4.463   0.693   1.412 -0.9475 -0.2170  0.0397
  672MPD2    H210000   4.177   0.451   1.225  0.6535  0.1802  2.4968
  672MPD2    H310001   4.232   0.594   1.398 -0.1786  1.1691 -0.9341
  672MPD2     N10002   4.637   0.701   1.226 -0.3879 -0.1850  0.1828
  672MPD2    H510003   4.649   0.760   1.308 -3.1314  0.3672  0.1777
  672MPD2    N110004   4.318   0.405   0.990 -1.0835 -0.9996 -0.3377
  672MPD2    H710005   4.386   0.417   0.916  0.2223 -1.7591  0.7220
  673TMC3    C110006   4.192   0.297   0.823 -0.4492 -0.3539  0.5062
  673TMC3    C210007   4.303   0.238   0.762  0.6942 -0.6231  0.3362
  673TMC3    C310008   4.285   0.180   0.638 -0.3978 -0.1113  1.0631
  673TMC3    C410009   4.072   0.313   0.761  0.1952 -0.2690 -0.2385
  673TMC3    C510010   4.066   0.271   0.629  0.0997  0.3039  0.7085
  673TMC3    C610011   4.170   0.209   0.566 -0.1194 -0.0569  0.3454
  673TMC3     C10012   4.196   0.346   0.958  0.2495  0.2333 -0.5862
  673TMC3     O10013   4.098   0.325   1.032 -0.1955  0.2782  0.2647
  673TMC3     H10014   4.400   0.236   0.810  0.5296  2.8688  0.8500
  673TMC3    H110015   3.992   0.369   0.807  0.9450  0.3672  0.2776
  673TMC3    H210016   4.174   0.197   0.458  1.9169 -2.5632  0.6901
  673TMC3    C710017   3.961   0.307   0.536 -0.5022 -0.2610 -0.5605
  673TMC3    C810018   4.364   0.069   0.593  0.1132  0.9556  0.0155
  673TMC3    O110019   3.950   0.245   0.432 -0.3362 -0.2284  0.0767
  673TMC3    O210020   4.316   4.733   0.509 -0.2046  0.1425 -0.2659
  674MPD2     C10021   3.559   0.819  17.731 -0.0976 -0.4206 -0.0623
  674MPD2    C110022   3.541   0.681  17.731 -0.1927  0.0045  0.4820
  674MPD2    C210023   3.435   0.623   0.070 -0.2806 -0.1062  0.3298
  674MPD2    C310024   3.351   0.713   0.130 -0.1260  0.8319 -0.2352
  674MPD2    C410025   3.356   0.846   0.096 -0.0919  0.5442 -0.0027
  674MPD2    C510026   3.461   0.894   0.028 -0.1582 -0.0470  0.2427
  674MPD2     H10027   3.428   0.519   0.100 -1.9959 -0.1356 -0.2301
  674MPD2    H110028   3.279   0.918   0.121 -0.5081 -0.0103  0.3235
  674MPD2    H210029   3.633   0.875  17.675  0.0693 -0.8890 -0.3072
  674MPD2    H310030   3.469   1.000   0.009  1.6863  0.1825  2.2637
  674MPD2     N10031   3.273   0.664   0.237 -0.1343 -0.0205 -0.0215
  674MPD2    H510032   3.282   0.565   0.258  0.4280 -0.1984 -1.1096
  674MPD2    N110033   3.633   0.597  17.673  0.0082  0.1280 -0.6674
  674MPD2    H710034   3.728   0.628  17.654 -0.0402  1.0932  0.7278
  675TMC3    C110035   3.732   0.382  17.668  0.1384  0.7153 -0.6018
  675TMC3    C210036   3.710   0.248  17.669  0.1493 -0.2303  0.4088
  675TMC3    C310037   3.785   0.168   0.007  0.1490  0.2613  0.0423
  675TMC3    C410038   3.840   0.435  17.735  0.3394  0.3001  0.9890
  675TMC3    C510039   3.930   0.355   0.056 -0.0383 -0.1932  0.0441
  675TMC3    C610040   3.901   0.215   0.075  0.7695 -1.2160  0.7106
  675TMC3     C10041   3.608   0.461  17.666  1.5628  0.3345  0.0212
  675TMC3     O10042   3.499   0.405  17.645 -0.2300 -0.5739  0.2444
  675TMC3     H10043   3.629   0.211  17.606 -0.3549  2.6843 -0.6465
  675TMC3    H110044   3.851   0.541   0.011  0.6492  0.1660  1.5057
  675TMC3    H210045   3.966   0.158   0.140 -0.7985 -1.7172  1.8488
  675TMC3    C710046   4.045   0.420   0.113  0.4994  0.6214 -0.0891
  675TMC3    C810047   3.762   0.029   0.021  1.0652  0.6360 -0.1444
  675TMC3    O110048   4.036   0.543   0.132  0.1309 -0.1751  0.0349
  675TMC3    O210049   3.757   4.696  17.668  0.5699  0.5205  0.3539
  676MPD2     C10050   1.913   3.877  11.127 -0.2374 -0.2241 -0.3965
  676MPD2    C110051   1.800   3.805  11.152 -0.1002  0.2197 -0.1106
  676MPD2    C210052   1.811   3.667  11.171 -1.0780 -0.8323 -0.8058
  676MPD2    C310053   1.933   3.608  11.175  0.4021  0.4595  0.1298
  676MPD2    C410054   2.046   3.683  11.169 -0.2986  0.1746  0.8462
  676MPD2    C510055   2.035   3.817  11.135  0.8658  0.4336 -0.0683
  676MPD2     H10056   1.718   3.610  11.174 -2.0324  0.8016  0.6481
  676MPD2    H110057   2.145   3.639  11.166 -1.3600 -2.1907  0.0938
  676MPD2    H210058   1.907   3.983  11.105  0.3112 -0.0245  0.4063
  676MPD2    H310059   2.122   3.878  11.112  0.3503  1.0169 -0.4650
  676MPD2     N10060   1.949   3.468  11.178 -0.0103 -0.4880 -0.0554
  676MPD2    H510061   2.044   3.434  11.190 -1.0045 -2.5756  1.7907
  676MPD2    N110062   1.663   3.854  11.173 -0.0766 -0.1462 -0.6011
  676MPD2    H710063   1.598   3.794  11.222  0.1950 -0.7284 -0.9664
  677TMC3    C110064   1.475   3.991  11.181  1.0427 -0.3259  0.6697
  677TMC3    C210065   1.416   3.867  11.190  0.3653 -0.0753 -0.4646
  677TMC3    C310066   1.326   3.848  11.295  0.7419  0.0345  0.6011
  677TMC3    C410067   1.447   4.099  11.260  1.1126  0.1919 -0.2716
  677TMC3    C510068   1.355   4.078  11.351  1.1175  0.0446 -0.8488
  677TMC3    C610069   1.292   3.962  11.360 -0.1953 -0.1640 -0.0110
  677TMC3     C10070   1.617   3.981  11.160 -0.3182 -0.1664  0.1975
  677TMC3     O10071   1.675   4.085  11.132 -0.0764  0.2017  0.5066
  677TMC3     H10072   1.438   3.788  11.119 -0.7673 -0.6312 -0.2062
  677TMC3    H110073   1.502   4.190  11.242  2.3909 -0.2819  1.2418
  677TMC3    H210074   1.209   3.960  11.429 -1.2880  0.2347 -1.2997
  677TMC3    C710075   1.292   4.201  11.401 -0.5040 -0.3374  0.4576
  677TMC3    C810076   1.389   3.759  11.385  0.1495 -0.4887  0.6205
  677TMC3    O110077   1.175   4.191  11.419 -0.2803 -0.2565  0.3586
  677TMC3    O210078   1.492   3.705  11.342 -0.0672  0.1403 -0.3644
  678MPD2     C10079   3.422   3.296   1.426  0.7304  0.4004  0.1447
  678MPD2    C110080   3.385   3.304   1.294  0.1288  0.1543  0.5696
  678MPD2    C210081   3.249   3.315   1.263  0.2304  0.7979 -0.7720
  678MPD2    C310082   3.153   3.308   1.363 -0.0479  0.0386  0.2817
  678MPD2    C410083   3.195   3.294   1.492 -0.8095  0.1780  0.7900
  678MPD2    C510084   3.327   3.293   1.523  0.4552  0.9512 -0.3556
  678MPD2     H10085   3.207   3.325   1.163  0.3909 -1.1940 -1.0389
  678MPD2    H110086   3.126   3.290   1.575 -1.0739 -2.4212  0.4537
  678MPD2    H210087   3.522   3.293   1.467 -0.1297  0.5775  2.3076
  678MPD2    H310088   3.362   3.283   1.625 -0.8499  2.6138  0.2414
  678MPD2     N10089   3.016   3.292   1.325 -0.0632  0.3338 -0.1923
  678MPD2    H510090   2.988   3.304   1.229 -0.5418  1.6609  0.1090
  678MPD2    N110091   3.478   3.317   1.190  0.5911  0.5768  0.3149
  678MPD2    H710092   3.432   3.315   1.099  0.6116 -2.4364  0.3630
  679TMC3    C110093   3.842   3.221   0.940 -0.6902  0.5319 -0.1500
  679TMC3    C210094   3.789   3.236   1.063 -0.2510  0.0160  0.0541
  679TMC3    C310095   3.688   3.326   1.077  0.2806 -0.0724  0.3107
  679TMC3    C410096   3.799   3.303   0.840  1.3066  0.7876  0.3270
  679TMC3    C510097   3.709   3.398   0.855  0.1264 -0.0980  0.3681
  679TMC3    C610098   3.638   3.405   0.972 -0.0380 -0.3933  0.7009
  679TMC3     C10099   3.904   3.102   0.901  0.5774 -0.1485 -0.6363
  679TMC3     O10100   3.901   3.069   0.783  0.5847 -0.3936 -0.3964
  679TMC3     H10101   3.834   3.190   1.150  0.8680  2.9164  1.0036
  679TMC3    H110102   3.834   3.287   0.739  2.1397  2.5060  0.3388
  679TMC3    H210103   3.555   3.474   0.982  0.9854  0.9667 -0.0657
  679TMC3    C710104   3.660   3.484   0.746 -0.5507 -0.1622  0.2999
  679TMC3    C810105   3.612   3.318   1.198 -0.3327  0.0756  0.8042
  679TMC3    O110106   3.547   3.531   0.752  0.9304  0.2705  0.0315
  679TMC3    O210107   3.676   3.324   1.303 -0.0448  0.6350  0.3269
  680MPD2     C10108   3.178   2.147  13.700  0.2995  0.6708 -1.2819
  680MPD2    C110109   3.282   2.084  13.765 -0.1420  0.1342  0.8652
  680MPD2    C210110   3.372   2.172  13.831 -0.4226 -0.2839  0.2607
  680MPD2    C310111   3.362   2.303  13.831  0.3018 -0.1298  0.5642
  680MPD2    C410112   3.274   2.359  13.736 -0.3782  0.7312 -1.0159
  680MPD2    C510113   3.183   2.284  13.676 -0.0542  0.1667 -0.4184
  680MPD2     H10114   3.449   2.119  13.886  0.3631 -0.3191 -0.8673
  680MPD2    H110115   3.269   2.467  13.724 -2.9032  0.6584 -0.5659
  680MPD2    H210116   3.100   2.093  13.648 -1.6807  1.2301  1.0524
  680MPD2    H310117   3.103   2.332  13.621 -1.0241 -0.6531  0.2798
  680MPD2     N10118   3.440   2.390  13.908 -0.3152  0.0956 -0.0487
  680MPD2    H510119   3.431   2.490  13.892  4.3114  0.5223  0.0517
  680MPD2    N110120   3.302   1.946  13.779 -0.3752 -0.5137  0.2587
  680MPD2    H710121   3.394   1.912  13.806 -0.3249 -2.8311 -2.7412
  681TMC3    C110122   3.259   1.713  13.766 -0.7278 -1.1571 -0.3445
  681TMC3    C210123   3.195   1.624  13.849 -0.3394  0.0194 -0.2535
  681TMC3    C310124   3.266   1.520  13.909 -0.4133 -0.0366 -0.3875
  681TMC3    C410125   3.394   1.705  13.741  0.4599  0.6152 -0.2610
  681TMC3    C510126   3.462   1.610  13.804  0.3311  0.1548 -0.8850
  681TMC3    C610127   3.407   1.528  13.897 -0.1614  0.2169 -0.3210
  681TMC3     C10128   3.205   1.850  13.763 -0.5638 -0.1262 -0.4090
  681TMC3     O10129   3.083   1.872  13.768  0.0107  0.0123 -0.2149
  681TMC3     H10130   3.091   1.644  13.873 -0.9244  0.1600 -2.8442
  681TMC3    H110131   3.448   1.784  13.689  2.6822 -1.0470 -0.4512
  681TMC3    H210132   3.467   1.448  13.940  0.8176  0.9057 -0.4079
  681TMC3    C710133   3.607   1.599  13.776 -0.2823 -0.1548  0.1692
  681TMC3    C810134   3.206   1.449  14.021 -0.0722 -0.3232 -0.6908
  681TMC3    O110135   3.662   1.528  13.856 -0.5021  0.6176  0.0984
  681TMC3    O210136   3.083   1.442  14.024 -0.1558 -0.3463  0.1406
  682MPD2     C10137   0.744   3.908  10.583 -0.5274  0.1712 -0.2705
  682MPD2    C110138   0.721   3.776  10.617  0.5821  0.2224  0.2090
  682MPD2    C210139   0.703   3.729  10.745 -0.1919 -0.3134 -0.3600
  682MPD2    C310140   0.698   3.825  10.845  0.0099 -0.4392 -0.4214
  682MPD2    C410141   0.712   3.959  10.811  0.1099  0.8639  0.7428
  682MPD2    C510142   0.743   4.000  10.686  0.3887 -0.4052 -0.3246
  682MPD2     H10143   0.679   3.625  10.764 -1.9363  0.0831 -0.3458
  682MPD2    H110144   0.691   4.035  10.885 -0.7433 -0.2967  1.6979
  682MPD2    H210145   0.756   3.937  10.479 -0.1018 -0.9627 -0.5280
  682MPD2    H310146   0.751   4.107  10.673 -0.5900 -0.4185 -1.0206
  682MPD2     N10147   0.673   3.801  10.989 -0.2621  0.3017  0.5213
  682MPD2    H510148   0.673   3.881  11.051  1.1154  0.4751  0.3073
  682MPD2    N110149   0.720   3.675  10.518  0.1070 -0.1250  0.1153
  682MPD2    H710150   0.703   3.583  10.557 -2.8067 -0.4087 -1.8697
  683TMC3    C110151   0.685   3.788  11.386 -1.0005  1.2321  0.3315
  683TMC3    C210152   0.609   3.690  11.450  0.0738 -0.3779 -0.1949
  683TMC3    C310153   0.577   3.581  11.378 -0.3265 -0.1011 -0.1259
  683TMC3    C410154   0.710   3.787  11.253 -0.8461 -0.4239  0.1768
  683TMC3    C510155   0.657   3.680  11.189  0.2642 -0.1375 -0.5901
  683TMC3    C610156   0.602   3.574  11.249  0.3600 -0.3177 -0.2718
  683TMC3     C10157   0.725   3.897  11.476 -0.1717 -0.6498  0.2181
  683TMC3     O10158   0.716   3.878  11.595 -0.3896  0.5591 -0.2963
  683TMC3     H10159   0.593   3.695  11.557  1.5760  0.1511  0.0105
  683TMC3    H110160   0.773   3.868  11.218  0.9189 -2.1413 -0.6550
  683TMC3    H210161   0.577   3.481  11.200  0.2244  0.2384 -1.2672
  683TMC3    C710162   0.662   3.673  11.039  0.1084 -0.4222  0.5103
  683TMC3    C810163   0.488   3.485  11.431 -0.4388 -0.0023 -0.4106
  683TMC3    O110164   0.643   3.566  10.987  0.6708 -0.1702  0.1511
  683TMC3    O210165   0.406   3.530  11.511 -0.7007  0.1042 -0.1916
  684MPD2     C10166   4.013   2.710  16.360  0.1253  0.2036 -0.2400
  684MPD2    C110167   3.972   2.736  16.234  0.3116 -0.2497  0.2032
  684MPD2    C210168   3.967   2.869  16.189  0.9301 -0.7970 -0.3884
  684MPD2    C310169   4.022   2.973  16.266  0.1183 -0.1207 -0.3669
  684MPD2    C410170   4.064   2.941  16.391 -0.9912  0.5591  0.5691
  684MPD2    C510171   4.056   2.814  16.438 -0.0654  0.2721  0.0433
  684MPD2     H10172   3.931   2.883  16.088 -2.6572  0.0737  1.0407
  684MPD2    H110173   4.082   3.015  16.468  0.3621 -1.4563  2.1496
  684MPD2    H210174   4.023   2.616  16.414  0.1190 -0.1119 -0.7757
  684MPD2    H310175   4.102   2.795  16.534  2.5701 -1.6766 -1.5936
  684MPD2     N10176   4.032   3.105  16.222 -0.1416 -1.1328 -0.5731
  684MPD2    H510177   4.075   3.175  16.281 -2.3480 -0.3683  0.1354
  684MPD2    N110178   3.943   2.636  16.137  0.6349  0.2978  0.4409
  684MPD2    H710179   3.921   2.673  16.045 -1.7397  1.0093  1.2878
  685TMC3    C110180   4.013   2.439  16.030 -0.5860  0.4134 -0.9284
  685TMC3    C210181   3.922   2.456  15.926 -0.3207  0.5577 -0.2707
  685TMC3    C310182   3.961   2.436  15.796 -0.1253 -0.1680 -0.3178
  685TMC3    C410183   4.135   2.388  16.005 -0.2259  0.2151  1.5192
  685TMC3    C510184   4.169   2.363  15.876  0.4191 -0.0737 -0.7673
  685TMC3    C610185   4.084   2.380  15.773  0.0516 -0.5382 -0.2191
  685TMC3     C10186   3.995   2.508  16.149 -0.2653  0.2671 -0.4013
  685TMC3     O10187   4.055   2.461  16.249  0.3392  0.2712 -0.5362
  685TMC3     H10188   3.826   2.502  15.944  0.1203  1.0653  0.7607
  685TMC3    H110189   4.217   2.390  16.075  1.6790 -0.6044 -0.6743
  685TMC3    H210190   4.105   2.332  15.678 -0.0814  1.7957 -1.4215
  685TMC3    C710191   4.311   2.354  15.852  0.1850  0.2483  0.4338
  685TMC3    C810192   3.860   2.443  15.691 -0.6532 -0.1863 -0.2767
  685TMC3    O110193   4.378   2.290  15.931 -0.2932  0.2114 -0.0984
  685TMC3    O210194   3.891   2.380  15.591 -0.2712 -0.0444 -0.1476
  686MPD2     C10195   0.343   3.008  15.489  0.3637  0.3990 -0.1418
  686MPD2    C110196   0.352   2.953  15.614 -0.2505  0.5988 -0.1076
  686MPD2    C210197   0.399   3.042  15.710 -0.0633  0.2946 -0.1452
  686MPD2    C310198   0.437   3.174  15.682  0.2280 -0.3076  0.4432
  686MPD2    C410199   0.418   3.220  15.558 -0.2840 -0.2070  1.3051
  686MPD2    C510200   0.368   3.140  15.464  0.4574 -0.1734  0.6269
  686MPD2     H10201   0.416   3.004  15.810 -2.9503 -1.4897 -0.3539
  686MPD2    H110202   0.447   3.323  15.541 -2.5621  0.2624  0.2279
  686MPD2    H210203   0.331   2.949  15.399  1.2187  0.9617 -0.6338
  686MPD2    H310204   0.375   3.176  15.362 -1.3209 -0.1955  0.5008
  686MPD2     N10205   0.497   3.254  15.782 -0.7347  0.3857 -0.6199
  686MPD2    H510206   0.532   3.341  15.744  2.3350 -0.7603 -0.4052
  686MPD2    N110207   0.317   2.813  15.635  0.6046  0.0991 -0.6500
  686MPD2    H710208   0.275   2.759  15.560  2.0404 -1.3495 -0.3966
  687TMC3    C110209   0.592   3.322  15.981  0.0097 -0.6297  0.2608
  687TMC3    C210210   0.619   3.440  15.917 -0.2539 -0.9528 -0.4393
  687TMC3    C310211   0.759   3.484  15.915 -0.4702 -0.3606 -0.5288
  687TMC3    C410212   0.680   3.260  16.061 -0.4116 -0.0943  0.1562
  687TMC3    C510213   0.811   3.301  16.060 -0.6862  0.4860  0.3118
  687TMC3    C610214   0.847   3.410  15.987  0.3826 -0.4843  0.8289
  687TMC3     C10215   0.510   3.224  15.914 -0.3594  0.2819  0.2830
  687TMC3     O10216   0.451   3.138  15.978  0.0834  0.5638  0.5687
  687TMC3     H10217   0.549   3.490  15.852  1.0408  1.2021 -0.1531
  687TMC3    H110218   0.651   3.177  16.125  3.5953  0.1227  2.3063
  687TMC3    H210219   0.952   3.437  15.991  0.1488  0.6199 -0.6020
  687TMC3    C710220   0.910   3.201  16.060  0.6240  0.5508 -0.1884
  687TMC3    C810221   0.818   3.497  15.788 -0.3670  0.8054  0.6837
  687TMC3    O110222   0.895   3.106  16.137 -0.4389  0.2305  0.5984
  687TMC3    O210223   0.928   3.445  15.769 -0.6015 -0.4051  0.1483
  688MPD2     C10224   4.473   1.773  17.574 -0.1697  0.6594  0.0492
  688MPD2    C110225   4.512   1.644  17.607 -0.1131 -0.0065 -0.9770
  688MPD2    C210226   4.626   1.590  17.553  0.8118 -0.1835 -0.2365
  688MPD2    C310227   4.715   1.663  17.479 -0.5204 -0.0321 -0.1393
  688MPD2    C410228   4.678   1.784  17.436  0.1665 -0.3516  0.0267
  688MPD2    C510229   4.564   1.842  17.489 -0.5919 -0.6211  0.6761
  688MPD2     H10230   4.650   1.490  17.587 -1.1813 -0.3208  0.7825
  688MPD2    H110231   4.732   1.849  17.369 -1.7636  0.7845 -0.4155
  688MPD2    H210232   4.375   1.811  17.598 -1.5315 -2.2954 -0.8952
  688MPD2    H310233   4.549   1.946  17.463  3.3659  0.0882  1.2447
  688MPD2     N10234   0.100   1.608  17.429 -0.4376 -0.7916  0.1826
  688MPD2    H510235   0.140   1.669  17.358  0.0486 -1.9476 -0.5407
  688MPD2    N110236   4.435   1.565  17.698  0.0947  0.1386  0.2754
  688MPD2    H710237   4.477   1.480  17.736 -2.7298 -1.6431 -0.5873
  689TMC3    C110238   4.290   1.521   0.131  0.3182 -0.0471 -0.4542
  689TMC3    C210239   4.341   1.583   0.243  0.9425 -0.4532 -0.2546
  689TMC3    C310240   4.292   1.550   0.368  0.1053 -0.1331  0.1174
  689TMC3    C410241   4.184   1.433   0.141 -0.3611  0.3574  0.4245
  689TMC3    C510242   4.153   1.393   0.267 -0.4508  0.2388 -0.3451
  689TMC3    C610243   4.196   1.454   0.388 -0.3492 -0.2601  0.8896
  689TMC3     C10244   4.316   1.590   0.006  0.0221  0.7193  0.1853
  689TMC3     O10245   4.229   1.671  17.727 -0.3863 -0.5178  0.2581
  689TMC3     H10246   4.426   1.648   0.228  0.8494 -0.0680  0.8946
  689TMC3    H110247   4.167   1.393   0.041 -0.9484  1.5997  0.0224
  689TMC3    H210248   4.151   1.433   0.485  0.5188  1.5639  1.6977
  689TMC3    C710249   4.086   1.267   0.287 -0.3432  0.4110  0.2008
  689TMC3    C810250   4.337   1.622   0.486 -0.1366 -0.8135  0.7470
  689TMC3    O110251   4.115   1.205   0.387 -0.2370  0.5054  0.2427
  689TMC3    O210252   4.335   1.563   0.593 -0.4301  0.2829  1.0297
  690MPD2     C10253   2.140   3.380  15.841  0.5816  0.6408 -0.0836
  690MPD2    C110254   2.079   3.375  15.724  0.0019 -0.2996  0.6970
  690MPD2    C210255   2.127   3.448  15.617  0.7570 -0.4014 -0.4988
  690MPD2    C310256   2.245   3.512  15.627 -0.1598  0.3656  0.0960
  690MPD2    C410257   2.306   3.522  15.748 -0.5580  0.4022  0.6487
  690MPD2    C510258   2.256   3.455  15.854  0.5124  0.4455  0.1357
  690MPD2     H10259   2.076   3.447  15.521 -0.1276  2.9980 -0.0684
  690MPD2    H110260   2.396   3.581  15.765  0.5380 -0.4161 -2.2994
  690MPD2    H210261   2.106   3.318  15.923 -2.6757  2.3671 -0.1690
  690MPD2    H310262   2.303   3.460  15.951  2.0214  0.0767 -0.5778
  690MPD2     N10263   2.296   3.580  15.516 -0.5724  0.3904  0.1223
  690MPD2    H510264   2.248   3.570  15.427 -1.7172  2.1894  0.5411
  690MPD2    N110265   1.969   3.293  15.691 -0.3000  0.0805  0.3131
  690MPD2    H710266   1.934   3.290  15.596  1.0091  0.7724 -0.1853
  691TMC3    C110267   1.829   3.110  15.706  0.5292 -1.0164 -0.1553
  691TMC3    C210268   1.707   3.161  15.662  0.2085  0.1433  0.0073
  691TMC3    C310269   1.615   3.072  15.617 -0.0838  0.4653 -0.2075
  691TMC3    C410270   1.853   2.975  15.708  0.2046 -0.0819  0.4715
  691TMC3    C510271   1.752   2.893  15.670 -0.2139  0.3110 -0.4097
  691TMC3    C610272   1.632   2.936  15.619  0.0116  0.5202 -0.0909
  691TMC3     C10273   1.921   3.196  15.770  0.4203 -0.2691 -0.5215
  691TMC3     O10274   1.956   3.155  15.881 -0.2587 -0.0038  0.0041
  691TMC3     H10275   1.689   3.266  15.683  0.2512  0.0384  0.5638
  691TMC3    H110276   1.950   2.941  15.743  0.1336 -1.2809 -0.4776
  691TMC3    H210277   1.547   2.877  15.587  0.4490 -0.5920  0.8231
  691TMC3    C710278   1.782   2.756  15.627  0.0809 -0.0664 -0.7340
  691TMC3    C810279   1.493   3.120  15.553 -0.2077  0.0855 -0.0190
  691TMC3    O110280   1.903   2.749  15.598 -0.2257 -0.2182 -0.6548
  691TMC3    O210281   1.443   3.038  15.480 -0.4692 -0.0197  0.7823
  692TMC3    C110282   3.321   4.364  15.906  0.3475 -0.6221 -0.4476
  692TMC3    C210283   3.447   4.417  15.900  0.7471 -0.0315  0.9256
  692TMC3    C310284   3.556   4.338  15.877 -1.1540 -0.7476  0.8721
  692TMC3    C410285   3.302   4.232  15.902 -0.7427 -0.3949 -0.2631
  692TMC3    C510286   3.412   4.154  15.902  0.2225 -0.2070  0.4151
  692TMC3    C610287   3.536   4.206  15.890  0.3805 -0.3446  0.1491
  692TMC3     C10288   3.218   4.440  15.965 -0.0796  0.3621  0.3603
  692TMC3     O10289   3.105   4.394  15.983 -0.5151  0.5777  0.2716
  692TMC3     H10290   3.458   4.521  15.872 -1.6541  0.1648  0.7660
  692TMC3    H110291   3.207   4.187  15.926 -0.7392 -0.5655 -0.5723
  692TMC3    H210292   3.619   4.142  15.864  1.0829  2.2467 -4.0325
  692TMC3    C710293   3.394   4.008  15.871  0.3096  0.2444 -0.3952
  692TMC3    C810294   3.664   4.364  15.960 -0.2190 -0.9358 -0.4416
  692TMC3    O110295   3.290   3.975  15.818  0.2668  0.5757  0.2414
  692TMC3    O210296   3.732   4.274  16.002  0.0603 -0.4906 -0.4643
  693MPD2     C10297   3.448   2.694  10.604 -0.0016  0.5738 -0.5601
  693MPD2    C110298   3.335   2.634  10.666  0.2652  0.6961 -0.5417
  693MPD2    C210299   3.355   2.547  10.772  0.4045  0.4560  0.0813
  693MPD2    C310300   3.488   2.509  10.807 -0.7805  0.4573  0.2527
  693MPD2    C410301   3.592   2.556  10.734  0.1023 -0.4415  0.0344
  693MPD2    C510302   3.574   2.653  10.648 -1.0956 -0.8742 -0.3148
  693MPD2     H10303   3.265   2.525  10.827  0.5470  0.3315  0.2638
  693MPD2    H110304   3.691   2.537  10.774  1.6189  0.3647 -3.3839
  693MPD2    H210305   3.431   2.779  10.539  1.1250  1.0468 -0.2302
  693MPD2    H310306   3.663   2.710  10.624 -1.5708 -0.7244 -1.7319
  693MPD2     N10307   3.526   2.432  10.914 -0.2494  0.6142 -0.1951
  693MPD2    H510308   3.626   2.414  10.914  0.0724  2.3708  0.1607
  693MPD2    N110309   3.205   2.681  10.628 -0.2900 -0.2740 -0.4136
  693MPD2    H710310   3.195   2.774  10.590  1.9071  0.9991  2.1561
  694TMC3    C110311   2.961   2.694  10.624 -0.3162  0.1179 -0.0615
  694TMC3    C210312   2.870   2.637  10.535  0.4448  0.7198 -0.3852
  694TMC3    C310313   2.737   2.661  10.560 -0.4210 -0.7243  0.7445
  694TMC3    C410314   2.920   2.777  10.731 -0.2581  0.0590  0.7207
  694TMC3    C510315   2.790   2.814  10.743  0.0173 -0.3970 -0.1528
  694TMC3    C610316   2.697   2.743  10.663  0.1080 -0.2975  0.5981
  694TMC3     C10317   3.083   2.607  10.645 -0.8857  0.0220 -1.7135
  694TMC3     O10318   3.066   2.492  10.678 -0.3611  0.1956  0.2395
  694TMC3     H10319   2.902   2.556  10.471  0.5950 -0.0054  0.6007
  694TMC3    H110320   2.994   2.811  10.803  1.4143 -0.3410 -0.8069
  694TMC3    H210321   2.594   2.774  10.673 -0.3086 -1.1801 -1.0733
  694TMC3    C710322   2.740   2.849  10.868 -0.2251  0.4748 -0.3293
  694TMC3    C810323   2.627   2.584  10.495 -0.2049 -0.0704 -0.0859
  694TMC3    O110324   2.768   2.960  10.914  0.2744 -0.2752 -0.4526
  694TMC3    O210325   2.519   2.579  10.552  0.4380  0.5317  0.0195
  695MPD2     C10326   4.417   4.415  13.393 -0.2218 -0.2542 -1.0335
  695MPD2    C110327   4.312   4.378  13.471 -0.3408  0.2958 -0.0684
  695MPD2    C210328   4.186   4.434  13.436  0.4880 -0.6916 -0.4445
  695MPD2    C310329   4.168   4.491  13.312 -0.2131  0.4877  0.5692
  695MPD2    C410330   4.278   4.533  13.238  0.1536  0.1441  0.5133
  695MPD2    C510331   4.403   4.493  13.283  0.5087  0.3947 -0.1352
  695MPD2     H10332   4.105   4.407  13.502  1.5137 -2.5440  0.0673
  695MPD2    H110333   4.266   4.580  13.141 -1.0387 -0.9738  0.1140
  695MPD2    H210334   4.514   4.375  13.421 -0.8895 -1.6368 -0.7166
  695MPD2    H310335   4.487   4.532  13.226  0.5077  1.9648  0.9421
  695MPD2     N10336   4.038   4.532  13.275 -0.1438  0.2995  0.3770
  695MPD2    H510337   3.963   4.484  13.325  0.6501  0.8004  2.0316
  695MPD2    N110338   4.322   4.319  13.595 -0.1328 -0.5260 -0.2182
  695MPD2    H710339   4.249   4.322  13.665 -0.8636 -0.5115 -0.9781
  696TMC3    C110340   3.864   4.657  13.191 -0.4435 -0.5466 -0.8480
  696TMC3    C210341   3.787   4.542  13.187 -0.7376  0.4881  0.4894
  696TMC3    C310342   3.654   4.559  13.164  0.2098  1.0182  0.3271
  696TMC3    C410343   3.804   0.047  13.165  0.1216 -0.0893  0.8361
  696TMC3    C510344   3.665   0.053  13.163  0.5352  0.7819  0.7188
  696TMC3    C610345   3.592   4.678  13.149 -0.0024 -0.3977 -0.0519
  696TMC3     C10346   4.007   4.645  13.208 -0.1552  0.4732 -0.2296
  696TMC3     O10347   4.080   0.003  13.176  0.1450  0.2519 -0.0067
  696TMC3     H10348   3.821   4.441  13.204  1.0289  1.0199  0.1339
  696TMC3    H110349   3.861   0.139  13.168 -1.1332  0.6805  1.0418
  696TMC3    H210350   3.487   4.683  13.121 -0.4257 -2.6479  1.1796
  696TMC3    C710351   3.613   0.130  13.278 -0.6899  0.0857  1.2670
  696TMC3    C810352   3.584   4.429  13.174  0.3167 -0.4685  0.4363
  696TMC3    O110353   3.695   0.182  13.361 -0.2117  0.0330 -0.1128
  696TMC3    O210354   3.639   4.341  13.107 -0.3485  0.3509  0.3227
  697MPD2     C10355   2.818   1.155  16.003 -0.3454  0.2020 -0.2569
  697MPD2    C110356   2.856   1.112  15.872 -0.3742  0.4011  0.1940
  697MPD2    C210357   2.879   1.213  15.777  0.2755  0.7283 -0.0486
  697MPD2    C310358   2.856   1.345  15.799  0.0038  0.1227 -0.3090
  697MPD2    C410359   2.832   1.376  15.927  0.4107  0.2685 -0.4342
  697MPD2    C510360   2.818   1.289  16.026  0.1438 -0.2571  0.8126
  697MPD2     H10361   2.896   1.170  15.679  1.7929  0.7949  0.1903
  697MPD2    H110362   2.805   1.475  15.961 -1.0586 -0.0165 -0.7873
  697MPD2    H210363   2.811   1.082  16.083 -1.5208  1.2045  0.5446
  697MPD2    H310364   2.808   1.320  16.129  0.2938  0.9684  0.4578
  697MPD2     N10365   2.870   1.438  15.699 -0.2008 -0.9869 -0.3124
  697MPD2    H510366   2.914   1.395  15.619  0.0363 -0.9958 -0.1774
  697MPD2    N110367   2.857   0.973  15.834  0.4755  0.5128  0.1280
  697MPD2    H710368   2.883   0.957  15.738 -0.0945 -0.8417  0.2040
  698TMC3    C110369   2.885   1.636  15.586  0.2834 -0.3547 -0.1921
  698TMC3    C210370   2.949   1.754  15.603 -0.5658 -0.6337 -0.9566
  698TMC3    C310371   3.016   1.815  15.499  0.4700 -0.0822  0.2939
  698TMC3    C410372   2.895   1.578  15.461  0.2781  1.1413  0.3528
  698TMC3    C510373   2.938   1.653  15.348 -0.1767  1.0409 -0.4216
  698TMC3    C610374   3.005   1.773  15.366  0.2701 -0.2258  0.4626
  698TMC3     C10375   2.843   1.571  15.710 -0.1425  0.0026  0.3543
  698TMC3     O10376   2.811   1.641  15.804 -0.3243  0.8464  0.5668
  698TMC3     H10377   2.950   1.803  15.700 -0.3555 -1.0057 -0.7697
  698TMC3    H110378   2.848   1.481  15.450 -0.5219  1.4510  1.1003
  698TMC3    H210379   3.033   1.831  15.279  0.4374  1.9951  1.9676
  698TMC3    C710380   2.866   1.625  15.226  0.3287 -0.2557 -0.0256
  698TMC3    C810381   3.124   1.910  15.535 -0.0155  0.3574 -0.0933
  698TMC3    O110382   2.924   1.670  15.127 -0.2628  0.2453 -0.4018
  698TMC3    O210383   3.130   1.946  15.652  0.3191  0.3474  0.3717
  699TMC3    C110384   2.872   4.692  12.868  0.2790 -0.5057  0.2739
  699TMC3    C210385   2.956   4.605  12.934  0.0569 -0.2301 -0.5988
  699TMC3    C310386   2.910   4.554  13.054 -1.0255  0.1528 -0.4315
  699TMC3    C410387   2.761   0.013  12.921 -0.2726 -0.2660 -0.1458
  699TMC3    C510388   2.727   4.712  13.048  1.0722 -0.3744 -0.0887
  699TMC3    C610389   2.792   4.607  13.113  0.2831  0.2462 -0.0345
  699TMC3     C10390   2.935   0.026  12.754  0.6175  0.1177  0.3592
  699TMC3     O10391   2.857   0.085  12.675  0.2953 -0.0407 -0.0048
  699TMC3     H10392   3.035   4.551  12.883  0.1834 -2.1444  1.6182
  699TMC3    H110393   2.698   0.082  12.866 -0.7696 -1.0461 -0.5584
  699TMC3    H210394   2.781   4.580  13.217 -0.9868 -0.1917 -0.2870
  699TMC3    C710395   2.605   0.022  13.106 -0.0489 -0.5569  0.1148
  699TMC3    C810396   2.968   4.434  13.121 -0.3497  0.0503 -0.5671
  699TMC3    O110397   2.571   4.720  13.216  0.0089 -0.0611  0.1132
  699TMC3    O210398   2.925   4.398  13.229  0.8430  0.1534  0.9621
  700TMC3    C110399   2.430   1.903  17.327 -0.1154  0.1659 -0.0072
  700TMC3    C210400   2.397   1.775  17.311 -0.1961  0.3576 -0.1369
  700TMC3    C310401   2.446   1.678  17.397  0.7057  0.0851  0.0558
  700TMC3    C410402   2.509   1.939  17.431  0.3831  0.5408 -0.1359
  700TMC3    C510403   2.567   1.846  17.514  0.4733  0.2645 -0.4380
  700TMC3    C610404   2.530   1.713  17.498  0.6042 -0.5141  0.2755
  700TMC3     C10405   2.354   2.006  17.255  0.0345 -0.0695  0.0032
  700TMC3     O10406   2.235   1.987  17.223 -0.1019  0.0742 -0.2531
  700TMC3     H10407   2.323   1.743  17.239  0.5443  3.2861 -2.1914
  700TMC3    H110408   2.519   2.039  17.471 -2.7392  1.6455 -2.1634
  700TMC3    H210409   2.564   1.633  17.563 -1.7501 -1.6949  0.0419
  700TMC3    C710410   2.626   1.894  17.643 -0.3854 -0.3585 -0.0189
  700TMC3    C810411   2.474   1.549  17.325 -0.7628  0.0469 -0.0557
  700TMC3    O110412   2.669   2.008  17.648 -0.1059 -0.1745 -0.1121
  700TMC3    O210413   2.479   1.547  17.203 -0.3133 -0.5403  0.2666
  701TMC3    C110414   2.316   0.400  15.663 -0.0609  0.1828 -0.4706
  701TMC3    C210415   2.393   0.361  15.554  0.0588 -0.3575 -0.0359
  701TMC3    C310416   2.523   0.417  15.549  0.0679  1.0979 -0.6704
  701TMC3    C410417   2.368   0.466  15.766 -0.6596 -0.3396  0.5287
  701TMC3    C510418   2.493   0.514  15.762  0.8788  0.1923  0.3722
  701TMC3    C610419   2.570   0.499  15.650  0.7635  0.4300  0.2613
  701TMC3     C10420   2.169   0.395  15.656  0.1828 -0.1575  0.7341
  701TMC3     O10421   2.115   0.409  15.765 -0.2402 -0.3075  0.3529
  701TMC3     H10422   2.360   0.285  15.484 -0.2933  0.0352 -0.2996
  701TMC3    H110423   2.303   0.498  15.848 -1.2415  2.4396 -1.0263
  701TMC3    H210424   2.668   0.547  15.644  1.2269 -0.6909 -0.9887
  701TMC3    C710425   2.510   0.649  15.806  0.3692 -0.1728 -0.0990
  701TMC3    C810426   2.600   0.400  15.423 -0.7587 -0.6298  0.4240
  701TMC3    O110427   2.557   0.724  15.722  0.2774  0.6587 -0.1360
  701TMC3    O210428   2.718   0.436  15.430 -0.0589 -0.1672  0.1299
  702MPD2     C10429   2.349   3.063  10.779  0.4471  0.4795  0.0208
  702MPD2    C110430   2.243   3.146  10.788  0.2189  0.8326  0.4183
  702MPD2    C210431   2.231   3.256  10.710 -0.1567  0.0660  0.5054
  702MPD2    C310432   2.324   3.282  10.612 -0.5953 -0.3117  0.4459
  702MPD2    C410433   2.429   3.203  10.591  0.1153 -0.2822 -0.1557
  702MPD2    C510434   2.438   3.091  10.678  0.4120 -0.3635 -0.2633
  702MPD2     H10435   2.139   3.314  10.713 -0.6391 -0.6205 -0.8198
  702MPD2    H110436   2.500   3.220  10.511  0.5729  1.7549  0.6931
  702MPD2    H210437   2.357   2.978  10.845  0.9401  0.5291  0.0276
  702MPD2    H310438   2.528   3.031  10.673  0.5888  0.1896 -3.6690
  702MPD2     N10439   2.336   3.402  10.536  0.2345 -0.7578  0.3936
  702MPD2    H510440   2.416   3.425  10.478 -0.6988 -2.6099 -1.6094
  702MPD2    N110441   2.146   3.142  10.897  0.6265 -0.2013  0.4488
  702MPD2    H710442   2.076   3.217  10.895  0.0602 -0.7693 -1.3918
  703TMC3    C110443   2.263   3.613  10.452  0.7992  0.0842  0.6276
  703TMC3    C210444   2.159   3.689  10.407  0.8070 -0.3672 -0.6150
  703TMC3    C310445   2.179   3.817  10.379 -0.3323 -1.2706  0.6547
  703TMC3    C410446   2.390   3.671  10.463 -0.1234 -0.5822 -0.4359
  703TMC3    C510447   2.408   3.802  10.420 -0.1087 -0.5273 -0.2377
  703TMC3    C610448   2.302   3.878  10.384 -0.4409 -0.0453 -0.1260
  703TMC3     C10449   2.231   3.488  10.525  0.4511 -0.1071 -0.3483
  703TMC3     O10450   2.124   3.492  10.586 -0.1653  0.2873  0.2846
  703TMC3     H10451   2.062   3.641  10.399  0.5052  0.0292  0.7486
  703TMC3    H110452   2.462   3.616  10.522  0.5139  1.5995  0.8425
  703TMC3    H210453   2.307   3.986  10.374  1.0241 -0.0377  0.5741
  703TMC3    C710454   2.539   3.869  10.438 -0.2189 -0.3432 -0.4632
  703TMC3    C810455   2.066   3.895  10.332 -0.4428  0.5774  0.2472
  703TMC3    O110456   2.539   3.989  10.457  0.6138  0.1469  0.2341
  703TMC3    O210457   2.094   3.976  10.241  0.4042 -0.0897  0.3201
  704TMC3    C110458   0.272   1.274  12.873 -0.1391  0.2929  0.1267
  704TMC3    C210459   0.305   1.293  12.738  0.3964 -0.1864  0.1591
  704TMC3    C310460   0.426   1.248  12.696 -0.2775 -0.2799 -0.1788
  704TMC3    C410461   0.356   1.205  12.955 -0.5623 -0.7058  0.4523
  704TMC3    C510462   0.472   1.153  12.906 -0.4333 -0.6412 -0.4383
  704TMC3    C610463   0.506   1.173  12.775  0.2978  0.4699  0.6825
  704TMC3     C10464   0.132   1.282  12.917 -0.4003  0.3332 -0.3761
  704TMC3     O10465   0.110   1.315  13.032  0.1769  0.0066  0.2939
  704TMC3     H10466   0.248   1.351  12.666 -1.1134 -1.6274  0.1981
  704TMC3    H110467   0.320   1.183  13.055  0.1113 -0.1661  0.8129
  704TMC3    H210468   0.594   1.118  12.742 -0.5617 -0.7291  0.4029
  704TMC3    C710469   0.505   1.023  12.975  0.8165  0.8630  0.0497
  704TMC3    C810470   0.424   1.231  12.551  0.4560 -0.0822 -0.2911
  704TMC3    O110471   0.546   0.930  12.907  0.7327  0.9523  0.0332
  704TMC3    O210472   0.524   1.268  12.489 -0.3465 -0.1576 -0.3504
  705MPD2     C10473   3.883   3.950  16.614  0.0761  0.2180  0.1744
  705MPD2    C110474   3.884   4.081  16.572 -0.1431  0.2010 -0.4686
  705MPD2    C210475   3.785   4.168  16.611 -1.1275  0.0153  0.2302
  705MPD2    C310476   3.672   4.117  16.668 -0.0970  0.0365  0.6223
  705MPD2    C410477   3.670   3.976  16.694 -0.6658  0.0960  0.1045
  705MPD2    C510478   3.774   3.897  16.674  0.3521 -0.3786  0.3672
  705MPD2     H10479   3.800   4.270  16.578 -0.6605 -0.0919  0.1097
  705MPD2    H110480   3.578   3.933  16.733 -0.8222  1.3984  1.2129
  705MPD2    H210481   3.964   3.880  16.594 -2.9447 -3.1400 -0.2232
  705MPD2    H310482   3.764   3.790  16.680  4.1914 -0.7768 -0.3191
  705MPD2     N10483   3.556   4.182  16.700 -0.1999 -0.4279 -0.2261
  705MPD2    H510484   3.489   4.120  16.744 -1.3374  1.7241  1.0803
  705MPD2    N110485   3.998   4.138  16.509  0.3073 -0.5198 -0.2116
  705MPD2    H710486   4.019   4.238  16.513  1.0846 -0.5306 -4.2790
  706TMC3    C110487   4.316   4.147  16.164 -0.2799 -0.1315  0.5119
  706TMC3    C210488   4.349   4.279  16.187  0.2732 -0.4117 -0.0641
  706TMC3    C310489   4.289   4.338  16.298 -0.8622 -0.2627  0.6729
  706TMC3    C410490   4.219   4.079  16.234 -0.3192  0.1365  0.1024
  706TMC3    C510491   4.172   4.139  16.346  0.5734 -0.5302 -0.3051
  706TMC3    C610492   4.196   4.272  16.374  0.0905  0.1308  0.2565
  706TMC3     C10493   4.361   4.088  16.044 -0.3936  0.3122 -0.3063
  706TMC3     O10494   4.455   4.139  15.983 -0.2484  0.2963 -0.8674
  706TMC3     H10495   4.407   4.334  16.113 -0.4316 -0.9992 -1.0575
  706TMC3    H110496   4.217   3.971  16.229  1.1033  0.1485 -0.6987
  706TMC3    H210497   4.158   4.308  16.468 -0.0946  0.6085 -0.0008
  706TMC3    C710498   4.078   4.065  16.427 -0.2023 -0.5548  0.0949
  706TMC3    C810499   4.234   4.463  16.262 -0.0918 -0.1602  0.0197
  706TMC3    O110500   4.059   3.945  16.400  0.0721 -0.2208  0.3686
  706TMC3    O210501   4.228   4.483  16.139 -0.0773  0.2022 -0.0282
  707TMC3    C110502   1.314   2.878   1.259 -0.1178  0.3337  0.0224
  707TMC3    C210503   1.357   2.745   1.281 -0.2908  0.6113  0.6857
  707TMC3    C310504   1.264   2.660   1.339 -0.4061  0.5228 -0.1350
  707TMC3    C410505   1.194   2.925   1.301 -0.3372  0.0900  0.3499
  707TMC3    C510506   1.106   2.834   1.355  0.2398  0.2874 -0.1017
  707TMC3    C610507   1.137   2.704   1.375 -0.7656  0.3907  0.0423
  707TMC3     C10508   1.407   2.975   1.215  0.6964  0.2223 -0.2691
  707TMC3     O10509   1.421   3.084   1.266  0.2958 -0.2336  0.3187
  707TMC3     H10510   1.459   2.717   1.259  0.2937  1.4835  2.3106
  707TMC3    H110511   1.170   3.031   1.300  1.5058  0.5188  1.5850
  707TMC3    H210512   1.077   2.638   1.436 -1.6168  0.2216 -0.9850
  707TMC3    C710513   0.972   2.887   1.368  1.1877  0.3042 -0.0803
  707TMC3    C810514   1.279   2.517   1.348  0.2722  0.7132 -0.0971
  707TMC3    O110515   0.954   2.987   1.305 -0.2645  0.4454 -0.3489
  707TMC3    O210516   1.173   2.457   1.336 -0.1525 -0.3326  1.0474
  708MPD2     C10517   2.713   3.258  13.252 -0.0337  0.4142  0.4694
  708MPD2    C110518   2.710   3.154  13.344  0.0144 -0.3830  0.2361
  708MPD2    C210519   2.737   3.178  13.476 -0.4430 -0.2715  0.4094
  708MPD2    C310520   2.760   3.309  13.520 -0.0212 -0.1908  0.4990
  708MPD2    C410521   2.774   3.418  13.431  0.1688 -0.1285 -0.7197
  708MPD2    C510522   2.752   3.386  13.302  0.2143 -0.3750 -1.0671
  708MPD2     H10523   2.727   3.103  13.553 -1.0279 -1.2896 -0.6686
  708MPD2    H110524   2.794   3.520  13.462  1.3663 -0.0688 -1.6759
  708MPD2    H210525   2.714   3.238  13.145  0.5962 -0.6934  0.6914
  708MPD2    H310526   2.756   3.462  13.225 -0.2123  0.1239 -0.5975
  708MPD2     N10527   2.783   3.322  13.660  0.3705 -0.2305 -0.2589
  708MPD2    H510528   2.785   3.237  13.715 -1.8133 -0.2828 -0.2718
  708MPD2    N110529   2.688   3.022  13.316 -0.9317 -0.3679 -0.5114
  708MPD2    H710530   2.704   2.956  13.392 -0.8097 -1.1574 -1.2233
  709TMC3    C110531   2.625   2.828  13.210  0.1676  0.3239  0.2355
  709TMC3    C210532   2.492   2.795  13.174  0.0804  0.3295 -0.0154
  709TMC3    C310533   2.429   2.706  13.254  1.2416  0.2189  0.5685
  709TMC3    C410534   2.695   2.770  13.309  0.4455  0.3240 -0.9299
  709TMC3    C510535   2.628   2.682  13.392 -0.5808 -1.0789  0.1637
  709TMC3    C610536   2.496   2.663  13.370  0.5328  0.3478  0.0654
  709TMC3     C10537   2.658   2.964  13.191 -0.1751 -0.7016 -0.4241
  709TMC3     O10538   2.611   3.024  13.094 -0.3020  0.4648  0.4738
  709TMC3     H10539   2.443   2.853  13.096 -0.5022 -0.4619 -0.2340
  709TMC3    H110540   2.802   2.779  13.325 -0.0072  3.3237  0.4351
  709TMC3    H210541   2.441   2.598  13.438 -0.1774  0.7400 -0.1396
  709TMC3    C710542   2.655   2.723  13.530 -0.2386 -0.7058  0.5608
  709TMC3    C810543   2.293   2.653  13.222 -0.1574 -0.7419  0.4721
  709TMC3    O110544   2.712   2.832  13.538  0.2065  0.1152  0.0978
  709TMC3    O210545   2.228   2.580  13.292 -0.6314 -0.0985 -0.1049
  710TMC3    C110546   3.108   3.839   0.175  0.1309  0.5652 -0.8895
  710TMC3    C210547   3.137   3.832   0.042  0.2613  0.3494 -0.5095
  710TMC3    C310548   3.247   3.766  17.744  0.7024 -0.2769 -0.5482
  710TMC3    C410549   3.185   3.771   0.267 -0.0216 -0.0939 -0.8033
  710TMC3    C510550   3.291   3.706   0.216  0.8023 -0.1723  0.3527
  710TMC3    C610551   3.324   3.701   0.082 -1.0812 -0.2455 -0.4807
  710TMC3     C10552   3.002   3.925   0.221 -0.5053 -0.4308 -0.2763
  710TMC3     O10553   2.974   4.016   0.144 -0.0400  0.6064 -0.0402
  710TMC3     H10554   3.070   3.872  17.711 -0.6076  2.7918  1.5130
  710TMC3    H110555   3.183   3.801   0.371 -0.5431 -0.6945 -0.6462
  710TMC3    H210556   3.423   3.668   0.051 -1.4105  0.5190 -2.3072
  710TMC3    C710557   3.396   3.687   0.324 -0.2694  0.0817 -0.1352
  710TMC3    C810558   3.316   3.810  17.625 -0.1477  0.2695  0.5912
  710TMC3    O110559   3.357   3.652   0.437  0.0602  0.3815  0.0769
  710TMC3    O210560   3.410   3.743  17.586 -0.6090  0.5616  0.1144
  711TMC3    C110561   3.034   0.067  14.958  0.5284  0.2134  0.3996
  711TMC3    C210562   2.969   0.105  15.065 -1.0270  0.6659 -0.2873
  711TMC3    C310563   3.010   0.207  15.146 -0.7201 -1.0612  0.0674
  711TMC3    C410564   3.156   0.126  14.924 -1.0520  0.2894 -0.1429
  711TMC3    C510565   3.203   0.223  15.005  0.0734  0.7146  0.4531
  711TMC3    C610566   3.128   0.266  15.117  0.0535  0.2145 -0.4603
  711TMC3     C10567   2.974   4.700  14.876  0.0309 -0.3758 -0.3449
  711TMC3     O10568   2.853   4.704  14.868 -0.1847 -0.4695 -0.3263
  711TMC3     H10569   2.876   0.058  15.096 -0.3554 -0.7292 -0.3785
  711TMC3    H110570   3.201   0.087  14.833 -0.9861  0.2815 -0.1066
  711TMC3    H210571   3.160   0.349  15.179 -1.2393 -0.1533  0.7032
  711TMC3    C710572   3.346   0.231  15.025  0.7166 -0.0199  0.8697
  711TMC3    C810573   3.010   0.152  15.282  0.7907 -0.0837 -0.0143
  711TMC3    O110574   3.387   0.129  15.075 -0.6112 -0.6467 -0.2546
  711TMC3    O210575   2.905   0.113  15.331  0.0725 -0.5453  0.4078
  712MPD2     C10576   4.667   0.962  14.258  0.0602  0.1093  0.1192
  712MPD2    C110577   4.544   1.001  14.202  0.0410  0.5915 -0.4974
  712MPD2    C210578   4.490   1.130  14.234 -0.6292  0.0234  0.4764
  712MPD2    C310579   4.560   1.209  14.320  0.3593 -0.0118  0.3733
  712MPD2    C410580   4.684   1.172  14.368  0.3668  0.5712  0.5102
  712MPD2    C510581   4.735   1.047  14.341  0.3528 -0.2327 -0.1949
  712MPD2     H10582   4.398   1.157  14.183 -0.3310 -1.5386 -0.8903
  712MPD2    H110583   0.006   1.235  14.434 -0.2149  1.8009 -0.1331
  712MPD2    H210584   4.717   0.872  14.226 -0.7355 -1.0567  2.1349
  712MPD2    H310585   0.094   1.022  14.385  0.3429 -0.3765 -0.2528
  712MPD2     N10586   4.521   1.341  14.350 -0.2622 -0.5502 -0.0896
  712MPD2    H510587   4.580   1.409  14.396 -0.3682  0.6185 -1.6994
  712MPD2    N110588   4.493   0.926  14.102 -0.6054  0.1571  0.7611
  712MPD2    H710589   4.423   0.963  14.039 -1.5741 -1.3215  0.9745
  713TMC3    C110590   4.408   1.535  14.293 -0.6634  1.0859  0.3387
  713TMC3    C210591   4.511   1.575  14.211  1.0135  0.3924 -0.5621
  713TMC3    C310592   4.487   1.682  14.130 -0.0884  0.0103 -0.0924
  713TMC3    C410593   4.284   1.593  14.283  0.7668 -0.9468  0.6207
  713TMC3    C510594   4.262   1.694  14.197 -0.9735 -0.4644  0.7972
  713TMC3    C610595   4.365   1.741  14.127  0.1832 -0.3331  0.3970
  713TMC3     C10596   4.396   1.393  14.315 -0.0495  0.2619 -0.1546
  713TMC3     O10597   4.287   1.336  14.300 -0.1114 -0.9856  1.1877
  713TMC3     H10598   4.598   1.512  14.199  0.7271  0.0971 -1.0989
  713TMC3    H110599   4.201   1.561  14.344 -1.2766  0.3689 -1.4734
  713TMC3    H210600   4.353   1.838  14.080 -0.0344  1.1475  3.5499
  713TMC3    C710601   4.136   1.769  14.199 -0.0670 -1.3638 -0.2857
  713TMC3    C810602   4.580   1.726  14.020  0.4625 -0.2282  0.4954
  713TMC3    O110603   4.064   1.765  14.300  0.1037 -0.1776  0.1516
  713TMC3    O210604   4.529   1.808  13.941  0.5663 -0.6294 -0.7725
  714MPD2     C10605   2.213   4.649   2.021  0.4083  0.7225  0.4037
  714MPD2    C110606   2.150   4.563   1.943 -0.1873  0.1368  0.2388
  714MPD2    C210607   2.048   4.615   1.861 -0.5302 -0.2971 -0.0231
  714MPD2    C310608   2.021   0.012   1.850 -0.0843  0.3380  0.4498
  714MPD2    C410609   2.098   0.094   1.927  0.3123 -0.2574 -0.6161
  714MPD2    C510610   2.186   0.044   2.017  0.2878 -0.8079  0.1251
  714MPD2     H10611   1.996   4.555   1.787 -1.1082  0.7980 -0.4884
  714MPD2    H110612   2.088   0.201   1.916 -0.6054 -0.5843 -3.0228
  714MPD2    H210613   2.291   4.612   2.088  1.2297  2.6329  0.5182
  714MPD2    H310614   2.235   0.106   2.090  2.1989 -1.0593 -0.9541
  714MPD2     N10615   1.915   0.052   1.768 -0.1419  0.0571  0.4738
  714MPD2    H510616   1.874   4.717   1.709 -3.1385 -0.2904  2.9929
  714MPD2    N110617   2.199   4.429   1.935 -0.4339 -0.0526 -0.1182
  714MPD2    H710618   2.263   4.402   2.009 -0.6989 -1.6612 -0.4897
  715TMC3    C110619   2.233   4.214   1.855  0.0599  0.2598 -0.2991
  715TMC3    C210620   2.185   4.106   1.785  0.8097 -0.5288  0.0573
  715TMC3    C310621   2.274   4.003   1.777 -0.3142 -0.3273  0.4477
  715TMC3    C410622   2.360   4.220   1.902  0.3658  0.2023 -0.2360
  715TMC3    C510623   2.447   4.116   1.871 -0.4992  0.8949  0.1425
  715TMC3    C610624   2.406   4.004   1.811 -0.1548  0.6399 -0.1454
  715TMC3     C10625   2.158   4.333   1.842 -0.0822  0.3511  0.6221
  715TMC3     O10626   2.062   4.333   1.767  0.0761 -0.3103 -0.3522
  715TMC3     H10627   2.084   4.101   1.747  0.3771 -1.6756  1.3676
  715TMC3    H110628   2.402   4.316   1.931  1.3827 -0.1075 -0.6960
  715TMC3    H210629   2.471   3.918   1.803 -0.1066  0.8487 -2.0031
  715TMC3    C710630   2.583   4.113   1.936  0.3928  0.5785 -0.1924
  715TMC3    C810631   2.225   3.889   1.704  0.7772  0.0969 -0.0939
  715TMC3    O110632   2.660   4.023   1.900  0.5475 -0.1185  0.0418
  715TMC3    O210633   2.302   3.826   1.631 -0.6375 -0.7559 -0.4500
  716MPD2     C10634   1.958   3.313  10.375  0.0621 -0.5180 -0.1592
  716MPD2    C110635   2.000   3.383  10.263 -0.3386 -0.2970 -0.0895
  716MPD2    C210636   2.120   3.352  10.199  0.1279  0.1924 -0.0078
  716MPD2    C310637   2.201   3.251  10.242 -0.1620  0.3590  0.3160
  716MPD2    C410638   2.167   3.187  10.360  0.9819 -1.2517  0.2516
  716MPD2    C510639   2.049   3.218  10.425 -0.7062 -0.2766 -0.1057
  716MPD2     H10640   2.161   3.405  10.114  0.5205 -3.3628 -2.0292
  716MPD2    H110641   2.223   3.103  10.400  0.4700 -1.7711 -0.1145
  716MPD2    H210642   1.864   3.328  10.426  1.4814  2.5162  1.5267
  716MPD2    H310643   2.009   3.173  10.515  1.2712 -0.8939  0.4441
  716MPD2     N10644   2.317   3.228  10.159 -0.4989 -0.2337 -0.1390
  716MPD2    H510645   2.324   3.296  10.084  1.1230 -0.0510  0.1807
  716MPD2    N110646   1.931   3.503  10.236  0.0949 -0.4446 -0.4694
  716MPD2    H710647   1.851   3.529  10.292  1.0886 -1.6235  1.4962
  717TMC3    C110648   2.524   3.144  10.079  0.7089 -0.2753  0.2094
  717TMC3    C210649   2.497   3.210   9.966 -0.1412  0.3349  0.3341
  717TMC3    C310650   2.574   3.182   9.856  0.3009  0.2255  0.4687
  717TMC3    C410651   2.642   3.082  10.106  0.4133 -0.5025 -1.1919
  717TMC3    C510652   2.711   3.048   9.988 -0.2088 -0.4268  0.4550
  717TMC3    C610653   2.677   3.096   9.861 -0.7046  0.0663 -0.0237
  717TMC3     C10654   2.427   3.144  10.187 -0.0270  0.8241 -0.7019
  717TMC3     O10655   2.442   3.063  10.274  0.1453  0.4138  0.2891
  717TMC3     H10656   2.410   3.269   9.941  1.1874  2.1932  0.0853
  717TMC3    H110657   2.669   3.039  10.202  0.1982  0.0672 -0.8764
  717TMC3    H210658   2.741   3.074   9.776 -0.7671  3.1899 -0.8639
  717TMC3    C710659   2.833   2.976   9.996  0.3832  0.3582 -0.8520
  717TMC3    C810660   2.516   3.226   9.733  0.2601  0.6876 -0.5361
  717TMC3    O110661   2.844   2.905  10.092 -0.4508 -0.9457 -0.1778
  717TMC3    O210662   2.394   3.235   9.733  0.0804  0.4613 -0.5907
  718MPD2     C10663   1.197   1.732  12.553 -0.5042  0.4996  0.2568
  718MPD2    C110664   1.082   1.678  12.588  0.1268 -0.0376  0.2727
  718MPD2    C210665   1.072   1.624  12.717  0.2775  0.1171  0.5849
  718MPD2    C310666   1.174   1.631  12.808 -0.1975 -0.0246 -0.2963
  718MPD2    C410667   1.299   1.675  12.761  0.0413 -0.0154 -0.4973
  718MPD2    C510668   1.311   1.721  12.635  0.8473  0.5299  0.1932
  718MPD2     H10669   0.977   1.581  12.749 -0.1980 -0.6407 -1.8264
  718MPD2    H110670   1.385   1.672  12.827 -0.0610  0.8649 -0.3247
  718MPD2    H210671   1.205   1.802  12.471 -2.2833 -0.5106 -0.7708
  718MPD2    H310672   1.405   1.772  12.613 -0.3097  1.9097 -1.5683
  718MPD2     N10673   1.162   1.565  12.937 -0.3944 -0.4321  0.1184
  718MPD2    H510674   1.071   1.521  12.951 -0.9098  0.8351  0.7265
  718MPD2    N110675   0.972   1.706  12.504 -0.6468 -0.0204  0.0903
  718MPD2    H710676   0.999   1.755  12.419 -0.3542 -0.5153 -0.1034
  719TMC3    C110677   0.785   1.641  12.375 -0.2973 -0.7113 -0.9016
  719TMC3    C210678   0.759   1.511  12.369  0.0785  0.2228  0.6099
  719TMC3    C310679   0.837   1.430  12.293  0.0694 -0.6561  0.4362
  719TMC3    C410680   0.868   1.697  12.287 -0.1231  0.2468  0.1663
  719TMC3    C510681   0.942   1.618  12.205  0.8759  0.1863  0.6427
  719TMC3    C610682   0.928   1.484  12.204  0.4461  0.2576  0.5645
  719TMC3     C10683   0.843   1.657  12.511 -0.0417  0.2869  0.1218
  719TMC3     O10684   0.797   1.589  12.601  0.1918 -0.1192  0.7018
  719TMC3     H10685   0.683   1.463  12.431  1.0218 -0.6504  1.0825
  719TMC3    H110686   0.884   1.804  12.283 -1.5986  0.4838  0.5602
  719TMC3    H210687   0.986   1.423  12.135 -2.3366  1.2486 -2.6563
  719TMC3    C710688   1.081   1.671  12.204 -1.8870  0.0915 -0.5743
  719TMC3    C810689   0.900   1.327  12.371  0.1469  0.5192 -0.6044
  719TMC3    O110690   1.108   1.792  12.189 -0.3672  0.2308 -0.4791
  719TMC3    O210691   1.021   1.325  12.359  0.3728 -0.3376  0.0528
  720MPD2     C10692   4.417   3.532  14.133  0.0843 -0.5162 -0.4649
  720MPD2    C110693   4.438   3.454  14.023  0.1217 -0.5676 -0.3157
  720MPD2    C210694   4.548   3.368  14.024 -0.0918 -0.3847  0.0961
  720MPD2    C310695   4.637   3.362  14.136 -0.3773 -0.3207 -0.0985
  720MPD2    C410696   4.596   3.424  14.251 -0.2104  0.1664  0.5248
  720MPD2    C510697   4.487   3.508  14.247  0.2693  0.3550 -0.1807
  720MPD2     H10698   4.563   3.314  13.931 -0.1355  1.5105 -1.0010
  720MPD2    H110699   4.646   3.409  14.346  1.2637 -1.5977 -0.5307
  720MPD2    H210700   4.338   3.606  14.139  0.2843 -0.3801  0.4992
  720MPD2    H310701   4.460   3.555  14.341  0.1600  1.9221 -0.9900
  720MPD2     N10702   0.011   3.279  14.144 -1.1344  0.1008 -0.1946
  720MPD2    H510703   0.069   3.277  14.227  0.4815 -0.7308 -1.3452
  720MPD2    N110704   4.353   3.461  13.907  0.5008  0.2482  0.3621
  720MPD2    H710705   4.384   3.402  13.831  0.3979  1.5886 -0.7186
  721TMC3    C110706   0.196   3.143  14.080 -0.9634  0.4719 -0.8990
  721TMC3    C210707   0.195   3.052  14.182 -0.6012  0.2303 -0.3624
  721TMC3    C310708   0.295   2.967  14.195  0.6258  0.3940  0.1025
  721TMC3    C410709   0.291   3.138  13.986  0.5912  0.0076  0.1717
  721TMC3    C510710   0.403   3.064  14.017 -0.2132 -0.6862 -0.2779
  721TMC3    C610711   0.403   2.974  14.115 -0.0486 -0.0494  0.0335
  721TMC3     C10712   0.070   3.212  14.042 -0.1227  0.7234  0.0691
  721TMC3     O10713   0.038   3.213  13.924 -0.2191 -0.1313 -0.0014
  721TMC3     H10714   0.108   3.043  14.246  0.0026 -1.2599  0.2501
  721TMC3    H110715   0.283   3.223  13.919  3.0789  1.3757  1.6325
  721TMC3    H210716   0.471   2.889  14.113 -0.6240 -0.4804 -1.0212
  721TMC3    C710717   0.513   3.064  13.923  0.3242 -0.2503  0.4089
  721TMC3    C810718   0.316   2.906  14.329  0.3641  0.2865  0.3592
  721TMC3    O110719   0.613   3.001  13.951 -0.2648  0.2635  0.1468
  721TMC3    O210720   0.370   2.796  14.340  0.4393 -0.0242 -0.3119
  722MPD2     C10721   3.250   1.777  13.413 -0.1534 -0.1646  0.1804
  722MPD2    C110722   3.233   1.916  13.401 -0.3352 -0.2542 -0.3904
  722MPD2    C210723   3.116   1.963  13.354 -0.6349 -0.3655 -0.3738
  722MPD2    C310724   3.003   1.889  13.340  0.1271 -0.1950  0.0423
  722MPD2    C410725   3.018   1.753  13.345  0.8113 -0.5736  0.1886
  722MPD2    C510726   3.139   1.701  13.378  0.5550  0.2826  0.0202
  722MPD2     H10727   3.106   2.071  13.346  2.0971 -0.1696 -1.2542
  722MPD2    H110728   2.938   1.683  13.322  1.7524 -1.8823  0.9044
  722MPD2    H210729   3.343   1.726  13.434  1.5842  2.1872 -1.8148
  722MPD2    H310730   3.150   1.593  13.378 -1.4289  0.0646 -2.8686
  722MPD2     N10731   2.882   1.961  13.307 -0.2442 -0.3029  0.1644
  722MPD2    H510732   2.892   2.062  13.313  1.3190 -0.4092 -0.5632
  722MPD2    N110733   3.341   2.008  13.431 -0.3592 -0.3408  0.3132
  722MPD2    H710734   3.312   2.105  13.428 -0.5898 -0.3997  0.5651
  723TMC3    C110735   2.650   1.985  13.281  0.0840 -0.5798  0.4401
  723TMC3    C210736   2.520   1.927  13.279 -0.5427  0.3844 -0.2011
  723TMC3    C310737   2.419   2.004  13.225 -0.4131 -0.1861 -0.4950
  723TMC3    C410738   2.666   2.117  13.233  0.5217  0.3250 -0.2331
  723TMC3    C510739   2.551   2.195  13.205 -0.1718  0.2151 -0.1424
  723TMC3    C610740   2.428   2.135  13.197 -0.7656  0.1146 -0.3489
  723TMC3     C10741   2.763   1.891  13.291 -0.2993 -0.6454  0.2213
  723TMC3     O10742   2.735   1.781  13.326 -0.0968  1.0342  1.0771
  723TMC3     H10743   2.500   1.821  13.290 -0.9205  0.6173  1.3803
  723TMC3    H110744   2.760   2.161  13.201  1.0781  0.2795  1.3369
  723TMC3    H210745   2.336   2.187  13.175 -0.1548  0.4668 -2.0508
  723TMC3    C710746   2.567   2.325  13.134  0.4160  0.8647  0.9992
  723TMC3    C810747   2.304   1.939  13.163 -0.7635 -0.2219  0.6848
  723TMC3    O110748   2.679   2.362  13.149  0.2293  0.4983 -0.4257
  723TMC3    O210749   2.199   2.006  13.153  0.2281 -0.1195 -0.0418
  724TMC3    C110750   4.305   0.141  10.492  0.2781  0.3171  0.7962
  724TMC3    C210751   4.243   0.263  10.465  0.4061  0.1742  0.9787
  724TMC3    C310752   4.310   0.376  10.443  0.2821 -0.2470  0.1481
  724TMC3    C410753   4.445   0.137  10.489 -0.4155 -0.4710  0.4490
  724TMC3    C510754   4.511   0.253  10.463 -0.1680 -0.1754 -0.5935
  724TMC3    C610755   4.450   0.379  10.449 -0.1663 -0.2072  0.3862
  724TMC3     C10756   4.230   0.025  10.530  0.1743  0.2199 -0.6861
  724TMC3     O10757   4.291   4.655  10.526 -1.1690  0.0014  0.8449
  724TMC3     H10758   4.137   0.261  10.444  0.0368  0.1969  2.8218
  724TMC3    H110759   4.498   0.044  10.511  2.4758  1.4543  1.6039
  724TMC3    H210760   4.500   0.467  10.411  0.4362 -0.1420  1.3204
  724TMC3    C710761   4.658   0.242  10.463 -0.0745 -0.1019  0.0237
  724TMC3    C810762   4.243   0.483  10.364  0.6733  0.9870  0.5199
  724TMC3    O110763   4.699   0.128  10.470 -0.4253 -0.4641 -0.7053
  724TMC3    O210764   4.164   0.451  10.279  0.1080  0.2113 -0.5255
  725TMC3    C110765   0.678   3.488  12.869  0.0504 -0.8506 -0.6427
  725TMC3    C210766   0.557   3.549  12.875 -0.3362  0.5303 -0.2249
  725TMC3    C310767   0.470   3.518  12.973 -0.1255 -0.0807  0.7713
  725TMC3    C410768   0.707   3.380  12.942  0.4206 -0.1509  0.2647
  725TMC3    C510769   0.608   3.341  13.028  0.4738  0.0712  0.0117
  725TMC3    C610770   0.489   3.409  13.048  1.1295  0.0659 -0.8919
  725TMC3     C10771   0.786   3.580  12.852  0.6844 -0.1745  0.4135
  725TMC3     O10772   0.758   3.698  12.864  0.0879  0.4885 -0.3488
  725TMC3     H10773   0.549   3.641  12.818 -0.4574  0.0386 -1.0051
  725TMC3    H110774   0.805   3.334  12.937  0.6048  0.1040  1.4666
  725TMC3    H210775   0.420   3.379  13.126 -0.1695  2.1743 -1.2096
  725TMC3    C710776   0.613   3.204  13.075  0.4213 -0.3745 -0.6018
  725TMC3    C810777   0.325   3.554  12.956 -0.1568 -0.8938 -0.0477
  725TMC3    O110778   0.577   3.183  13.190 -0.0588 -0.3592 -0.1034
  725TMC3    O210779   0.248   3.506  13.036  0.2541  0.2463  0.0091
  726MPD2     C10780   2.976   0.817  10.959 -0.0429  0.4788  0.7305
  726MPD2    C110781   2.902   0.883  10.861 -0.7205  0.4869 -0.4968
  726MPD2    C210782   2.773   0.839  10.853  0.4148 -0.7815 -0.7630
  726MPD2    C310783   2.725   0.749  10.946 -0.1963 -0.6358  0.5677
  726MPD2    C410784   2.802   0.699  11.048  0.6620 -0.2688 -0.4316
  726MPD2    C510785   2.929   0.731  11.050 -0.1151  0.2043  0.4235
  726MPD2     H10786   2.707   0.876  10.775  0.4082  0.4073 -0.1867
  726MPD2    H110787   2.760   0.638  11.126  1.4481  0.3980  0.5120
  726MPD2    H210788   3.078   0.851  10.967  0.0833  0.6644 -1.5702
  726MPD2    H310789   2.989   0.702  11.135  0.3838  0.0020  0.0034
  726MPD2     N10790   2.586   0.716  10.947 -0.3011 -0.1558 -0.3769
  726MPD2    H510791   2.556   0.653  11.020 -1.0074 -0.8033 -1.2227
  726MPD2    N110792   2.954   0.969  10.764  0.4323 -0.1416  0.1618
  726MPD2    H710793   2.892   0.987  10.686 -0.2811  0.3020  0.8271
  727TMC3    C110794   3.096   1.116  10.648  0.0611 -0.2021  0.0850
  727TMC3    C210795   3.176   1.223  10.666 -0.4858  0.6552 -0.3688
  727TMC3    C310796   3.180   1.326  10.574  0.8383 -0.0771  0.6198
  727TMC3    C410797   3.012   1.117  10.542  0.3609  0.0008  0.2640
  727TMC3    C510798   3.022   1.211  10.441 -0.8884 -0.1293 -0.1004
  727TMC3    C610799   3.104   1.322  10.460 -0.0490 -0.2051  0.2525
  727TMC3     C10800   3.086   1.016  10.761  0.4369 -0.1355 -0.0675
  727TMC3     O10801   3.176   1.014  10.841  0.4809  0.2777  0.1945
  727TMC3     H10802   3.247   1.220  10.748 -1.0099 -0.8626  0.0201
  727TMC3    H110803   2.943   1.036  10.523  0.0244  0.0074  1.4467
  727TMC3    H210804   3.112   1.400  10.386 -1.0090 -3.0397 -2.8276
  727TMC3    C710805   2.908   1.227  10.349 -0.2866  0.0398  0.0327
  727TMC3    C810806   3.295   1.419  10.585 -0.3775 -0.4931 -0.2410
  727TMC3    O110807   2.802   1.196  10.398  0.3997  0.3492  0.2730
  727TMC3    O210808   3.390   1.385  10.653 -0.0566  0.8183 -0.2295
  728TMC3    C110809   2.411   3.752  15.385 -0.5972 -0.2664 -0.6298
  728TMC3    C210810   2.505   3.844  15.383  0.4377 -0.6965 -0.0534
  728TMC3    C310811   2.538   3.893  15.261 -0.7516 -0.2759  0.3297
  728TMC3    C410812   2.342   3.718  15.265 -0.5288 -0.2837  0.4636
  728TMC3    C510813   2.371   3.788  15.150 -0.1454 -0.2215 -0.8710
  728TMC3    C610814   2.479   3.871  15.145  0.3667  0.1936  0.2968
  728TMC3     C10815   2.391   3.681  15.517  0.4225  0.8334 -0.3911
  728TMC3     O10816   2.462   3.726  15.607  0.0373  0.1856  0.2872
  728TMC3     H10817   2.574   3.855  15.466 -0.6659  0.0690  0.7656
  728TMC3    H110818   2.255   3.655  15.268 -2.1178  1.9036  0.7113
  728TMC3    H210819   2.522   3.904  15.051 -0.1008 -0.2188 -0.0637
  728TMC3    C710820   2.269   3.778  15.045 -0.3623 -0.5733 -0.6022
  728TMC3    C810821   2.655   3.975  15.264  0.0595  0.3679 -0.6061
  728TMC3    O110822   2.184   3.691  15.063 -0.3726 -0.2528 -0.0470
  728TMC3    O210823   2.736   3.968  15.354 -0.6344  0.8710 -0.1784
  729MPD2     C10824   4.385   0.606  16.909 -0.9095 -0.0428  0.0338
  729MPD2    C110825   4.508   0.541  16.923 -0.1728 -0.1277 -0.2475
  729MPD2    C210826   4.532   0.496  17.052  0.0391  1.1285 -0.0224
  729MPD2    C310827   4.436   0.496  17.149  0.6856 -0.8825 -1.1055
  729MPD2    C410828   4.311   0.541  17.120 -0.0888  0.4251 -0.8040
  729MPD2    C510829   4.290   0.606  17.007 -0.0378 -0.2393 -0.0658
  729MPD2     H10830   4.630   0.457  17.075 -1.1002 -0.2230  2.5154
  729MPD2    H110831   4.237   0.542  17.200  1.1823 -0.1008  0.3817
  729MPD2    H210832   4.367   0.671  16.824  1.1302  0.6760  0.1439
  729MPD2    H310833   4.203   0.665  16.981 -1.5607 -2.3303  0.3306
  729MPD2     N10834   4.462   0.470  17.281  0.7945  0.4484  0.3323
  729MPD2    H510835   4.385   0.474  17.347  1.1347  0.8590  0.7011
  729MPD2    N110836   4.608   0.549  16.819 -0.4688  0.7181  0.4368
  729MPD2    H710837   4.580   0.590  16.731 -0.9656  0.1900  0.3523
  730TMC3    C110838   4.577   0.430  17.493  0.1372 -0.5651  0.3832
  730TMC3    C210839   4.673   0.478  17.576 -0.1913  0.3927 -0.6233
  730TMC3    C310840   4.646   0.504  17.703  0.2061 -0.3155  0.5528
  730TMC3    C410841   4.452   0.410  17.548 -0.7531 -0.4285 -0.2111
  730TMC3    C510842   4.417   0.449  17.677  0.5595 -0.2741  0.0303
  730TMC3    C610843   4.521   0.482   0.011 -0.4801  0.1024  0.0016
  730TMC3     C10844   4.584   0.443  17.342  0.0021  0.4345  0.2368
  730TMC3     O10845   4.698   0.437  17.293  0.5731 -0.2212  0.2713
  730TMC3     H10846   0.037   0.494  17.539  1.3515 -0.2124  3.3662
  730TMC3    H110847   4.368   0.364  17.497 -1.8127  0.2857  0.9024
  730TMC3    H210848   4.514   0.507   0.116 -2.1023 -0.7595  0.1031
  730TMC3    C710849   4.323   0.549  17.671 -0.4440  0.6974  0.4851
  730TMC3    C810850   4.696   0.627   0.002 -0.1760 -0.2747 -0.3180
  730TMC3    O110851   4.288   0.574  17.556  0.1308  0.2327  0.9205
  730TMC3    O210852   4.693   0.647   0.123  0.4267  0.3400 -0.8060
  731MPD2     C10853   4.210   3.405  12.457 -0.1889 -0.1837  0.4560
  731MPD2    C110854   4.330   3.348  12.492  0.0141 -0.0978  0.2369
  731MPD2    C210855   4.327   3.215  12.532 -0.3695  0.1896 -0.6283
  731MPD2    C310856   4.210   3.146  12.552  0.7134 -0.6196  0.1467
  731MPD2    C410857   4.091   3.206  12.519  0.4981  0.3182 -0.5133
  731MPD2    C510858   4.090   3.334  12.468 -0.0116 -0.2566 -0.1348
  731MPD2     H10859   4.415   3.154  12.548 -0.8995  0.2069  2.3027
  731MPD2    H110860   4.000   3.148  12.534  0.0276  1.1492 -0.0948
  731MPD2    H210861   4.206   3.508  12.425  0.0551  0.2323  1.7862
  731MPD2    H310862   4.001   3.385  12.435  0.5678  1.6432  1.2489
  731MPD2     N10863   4.222   3.008  12.591  0.1819 -0.7885  0.6100
  731MPD2    H510864   4.315   2.978  12.618 -0.6364 -2.1001  1.9351
  731MPD2    N110865   4.442   3.430  12.460 -0.1467 -0.5860 -0.9978
  731MPD2    H710866   4.420   3.519  12.416 -0.3441 -0.1423 -0.0140
  732TMC3    C110867   4.667   3.477  12.398  0.2356  0.5130 -0.1126
  732TMC3    C210868   4.627   3.549  12.284  0.6600 -0.2795 -0.2642
  732TMC3    C310869   4.720   3.573  12.176  0.2431  0.6652  0.2301
  732TMC3    C410870   0.061   3.436  12.416  0.9023  0.1097 -0.1619
  732TMC3    C510871   0.143   3.467  12.309  0.1941  0.9882 -0.4341
  732TMC3    C610872   0.114   3.544  12.200 -0.1139 -0.1510 -0.1691
  732TMC3     C10873   4.576   3.396  12.470 -0.6937 -0.2468 -0.6225
  732TMC3     O10874   4.622   3.303  12.539 -0.1763  0.1144 -1.0787
  732TMC3     H10875   4.525   3.587  12.279  1.0365  0.4865 -1.7516
  732TMC3    H110876   0.093   3.375  12.500 -0.7103  0.5465  0.7551
  732TMC3    H210877   0.179   3.545  12.114 -2.2806  2.4506 -1.7997
  732TMC3    C710878   0.278   3.419  12.313 -0.0064  0.2906  0.3322
  732TMC3    C810879   4.677   3.546  12.042  0.6429 -0.3945 -0.2536
  732TMC3    O110880   0.359   3.494  12.258  0.0168  0.2035  0.1260
  732TMC3    O210881   0.022   3.532  11.951 -0.1741  0.2103 -0.5591
  733TMC3    C110882   1.148   1.291  13.259 -0.2608  1.1499 -0.2897
  733TMC3    C210883   1.194   1.415  13.223 -0.0859  0.5784 -0.0166
  733TMC3    C310884   1.233   1.428  13.093 -0.2801  0.3806  0.3342
  733TMC3    C410885   1.138   1.188  13.161  0.2230 -0.0805  0.1723
  733TMC3    C510886   1.188   1.207  13.043 -0.2994  0.5806 -0.3543
  733TMC3    C610887   1.225   1.328  13.004 -0.1450 -0.7770  0.7666
  733TMC3     C10888   1.069   1.284  13.380  0.3497 -0.1376  0.6527
  733TMC3     O10889   1.054   1.385  13.447  0.1864 -0.1202  0.0783
  733TMC3     H10890   1.208   1.494  13.296  0.8462 -0.9103  1.4145
  733TMC3    H110891   1.129   1.085  13.195  2.7530  0.7296  3.3441
  733TMC3    H210892   1.254   1.349  12.902  1.1644 -1.0143  1.0981
  733TMC3    C710893   1.152   1.105  12.943  0.2486 -0.2021  0.4975
  733TMC3    C810894   1.258   1.551  13.036  0.2676 -0.1707 -0.0448
  733TMC3    O110895   1.137   0.990  12.977 -0.0423  0.1103  0.2082
  733TMC3    O210896   1.373   1.587  13.031  0.6635  0.5373  0.0875
  734MPD2     C10897   2.959   4.063  12.503 -0.1495  0.2909  0.2514
  734MPD2    C110898   2.855   4.034  12.418  0.3455 -0.2685 -0.2478
  734MPD2    C210899   2.859   4.076  12.288 -0.2477  0.6880  0.7367
  734MPD2    C310900   2.973   4.141  12.233  0.0139 -0.2394  0.8230
  734MPD2    C410901   3.074   4.160  12.322 -0.0963 -0.1781 -0.0867
  734MPD2    C510902   3.069   4.133  12.456  0.1373  0.2094  0.1458
  734MPD2     H10903   2.783   4.051  12.216 -1.2935  1.0351  1.7255
  734MPD2    H110904   3.170   4.203  12.295  0.0726 -1.3915 -1.4025
  734MPD2    H210905   2.943   4.035  12.606 -1.9604 -1.0626 -0.3910
  734MPD2    H310906   3.151   4.166  12.520  0.2444  1.5108 -0.6666
  734MPD2     N10907   2.967   4.182  12.095  0.2615 -0.4532  0.6448
  734MPD2    H510908   2.875   4.174  12.053  0.2203 -2.4591  1.1013
  734MPD2    N110909   2.758   3.951  12.479 -0.1366 -0.4166  0.1174
  734MPD2    H710910   2.764   3.926  12.577 -1.0620 -2.8661 -0.4574
  735TMC3    C110911   2.567   3.808  12.474 -0.2306 -0.3276 -0.5466
  735TMC3    C210912   2.459   3.790  12.393 -0.1759 -0.1634  0.0191
  735TMC3    C310913   2.456   3.663  12.339  0.6680 -0.0237 -1.0379
  735TMC3    C410914   2.647   3.710  12.523 -0.3147  0.2810 -0.6357
  735TMC3    C510915   2.625   3.579  12.482  0.2648 -0.1415 -0.6242
  735TMC3    C610916   2.533   3.557  12.385 -0.6928 -0.4963  0.0862
  735TMC3     C10917   2.635   3.918  12.414 -0.2166 -0.0329  0.1000
  735TMC3     O10918   2.584   3.974  12.318  0.4293  0.1874 -0.2518
  735TMC3     H10919   2.393   3.866  12.353 -0.8187  0.2960  1.9729
  735TMC3    H110920   2.730   3.731  12.589 -1.4674 -0.9424  1.1887
  735TMC3    H210921   2.510   3.457  12.348 -0.4041 -1.4307  2.4269
  735TMC3    C710922   2.735   3.481  12.495 -0.0633 -0.1380 -0.6233
  735TMC3    C810923   2.450   3.665  12.194 -0.2256 -1.0277 -0.1382
  735TMC3    O110924   2.841   3.543  12.488  0.1187 -0.3038 -0.3242
  735TMC3    O210925   2.441   3.554  12.130  0.4366  0.1448 -0.0684
  736MPD2     C10926   2.729   3.131  12.415  0.5649 -0.0911 -0.3711
  736MPD2    C110927   2.786   3.252  12.427 -0.2155  0.5544 -0.8048
  736MPD2    C210928   2.914   3.270  12.381  0.0049 -0.2435  0.2762
  736MPD2    C310929   2.990   3.172  12.331 -0.4621 -0.4175 -0.2503
  736MPD2    C410930   2.933   3.045  12.318  0.2869 -0.3376  0.1438
  736MPD2    C510931   2.806   3.022  12.367 -0.2644 -0.4401  0.3224
  736MPD2     H10932   2.949   3.373  12.383 -1.3916  0.2665 -2.0546
  736MPD2    H110933   2.990   2.966  12.271 -2.8315 -1.8254 -1.2004
  736MPD2    H210934   2.629   3.118  12.454  0.0731  0.1975 -1.5330
  736MPD2    H310935   2.763   2.923  12.359 -1.1783 -0.0187  0.0559
  736MPD2     N10936   3.124   3.197  12.278  0.6870 -0.1618  0.0468
  736MPD2    H510937   3.172   3.120  12.234 -2.5292 -3.0658  1.5727
  736MPD2    N110938   2.698   3.354  12.473  0.1583  0.0660 -0.0161
  736MPD2    H710939   2.601   3.338  12.500  0.4077  0.2965  1.0029
  737TMC3    C110940   3.329   3.310  12.238 -0.4814  0.2776 -1.3465
  737TMC3    C210941   3.378   3.435  12.208  0.3991 -0.4508  0.1289
  737TMC3    C310942   3.509   3.439  12.168  0.6039 -0.6315  1.5568
  737TMC3    C410943   3.391   3.192  12.211  0.0645 -0.3226  0.1175
  737TMC3    C510944   3.516   3.204  12.153  0.4298 -0.3488 -0.5039
  737TMC3    C610945   3.579   3.327  12.132  0.1660  0.2182 -0.2252
  737TMC3     C10946   3.186   3.319  12.280  0.0753 -0.0585 -0.0618
  737TMC3     O10947   3.142   3.427  12.314  0.1906 -0.0533 -0.3377
  737TMC3     H10948   3.338   3.530  12.240  0.4454  0.4676 -2.5216
  737TMC3    H110949   3.360   3.097  12.252  1.8345 -0.8537  0.1872
  737TMC3    H210950   3.678   3.331  12.089  1.0847 -1.3607  1.7004
  737TMC3    C710951   3.572   3.077  12.102  0.0317 -0.1929  0.0568
  737TMC3    C810952   3.573   3.564  12.135 -0.0906 -0.0483  0.0413
  737TMC3    O110953   3.543   2.968  12.155  0.0841  0.0326  0.1622
  737TMC3    O210954   3.695   3.580  12.148 -0.1768  0.2125 -0.4802
  738MPD2     C10955   3.338   2.110  15.563  0.2119  0.1603 -0.0576
  738MPD2    C110956   3.330   2.018  15.453 -0.0035 -0.0825 -0.6232
  738MPD2    C210957   3.437   2.018  15.369 -0.1728 -0.5332 -0.0490
  738MPD2    C310958   3.545   2.095  15.395 -0.3743  0.1464  0.1551
  738MPD2    C410959   3.543   2.183  15.504 -0.4355  0.0738 -0.4596
  738MPD2    C510960   3.442   2.190  15.590 -0.7835 -0.1437  0.3783
  738MPD2     H10961   3.444   1.948  15.287  0.4259  1.1162 -1.4163
  738MPD2    H110962   3.623   2.253  15.522 -0.1191 -0.3819 -0.1060
  738MPD2    H210963   3.258   2.125  15.635 -0.4449  2.6038 -1.2792
  738MPD2    H310964   3.450   2.261  15.672 -1.2836 -1.0173  1.1958
  738MPD2     N10965   3.668   2.086  15.317 -0.2765  0.0753 -0.5908
  738MPD2    H510966   3.745   2.136  15.361  0.5405 -0.1867 -1.7171
  738MPD2    N110967   3.222   1.925  15.439  0.1196  0.3600 -0.0810
  738MPD2    H710968   3.226   1.873  15.351 -0.6858 -0.6238  0.4561
  739TMC3    C110969   3.805   2.062  15.119  0.5527 -0.3477 -0.0694
  739TMC3    C210970   3.816   2.111  14.997  0.3417 -0.5766  0.6767
  739TMC3    C310971   3.938   2.102  14.936  0.3742 -0.1396 -0.0043
  739TMC3    C410972   3.907   2.023  15.200 -0.6802 -0.0503  0.3110
  739TMC3    C510973   4.029   2.019  15.134  0.0433  0.4828  0.2170
  739TMC3    C610974   4.044   2.057  15.004  0.0483 -0.3414 -0.4294
  739TMC3     C10975   3.676   2.042  15.185  0.0053 -0.1993  0.2001
  739TMC3     O10976   3.577   2.019  15.115  0.4029  0.6690  0.0775
  739TMC3     H10977   3.733   2.166  14.954  1.6331  0.7999 -0.0249
  739TMC3    H110978   3.878   1.968  15.288  0.8892  1.5175  1.8270
  739TMC3    H210979   4.141   2.043  14.958  0.8382  4.4358 -0.2688
  739TMC3    C710980   4.142   1.969  15.208 -0.3950  0.5607 -0.0473
  739TMC3    C810981   3.944   2.187  14.814 -0.2495  0.2788  0.6185
  739TMC3    O110982   4.240   1.941  15.142  0.4581 -0.1733 -0.5017
  739TMC3    O210983   3.841   2.232  14.768  0.0702 -0.0529 -1.0850
  740TMC3    C110984   3.780   3.764  14.301 -0.1227  0.6366 -0.0897
  740TMC3    C210985   3.896   3.717  14.367 -0.3261 -0.2169 -0.2604
  740TMC3    C310986   4.014   3.725  14.299  0.2694 -0.2551  0.5034
  740TMC3    C410987   3.785   3.820  14.179 -0.1155  0.4887  0.9899
  740TMC3    C510988   3.906   3.830  14.117 -0.2927 -0.7280 -1.0483
  740TMC3    C610989   4.023   3.792  14.181  0.4082 -0.1333  0.8481
  740TMC3     C10990   3.661   3.797  14.373 -0.0086  0.4426 -0.3396
  740TMC3     O10991   3.592   3.882  14.323  0.6440  0.7474 -0.3502
  740TMC3     H10992   3.902   3.692  14.472  0.3983 -2.0920 -0.7438
  740TMC3    H110993   3.695   3.855  14.129  0.0313 -0.5558 -0.0020
  740TMC3    H210994   4.122   3.812  14.142 -0.2371 -1.0765 -1.2768
  740TMC3    C710995   3.917   3.920  14.011  0.2920 -0.5528 -0.8909
  740TMC3    C810996   4.131   3.669  14.365 -0.3901  0.2443  0.6878
  740TMC3    O110997   3.816   3.987  13.994  0.6265 -0.6131  0.4163
  740TMC3    O210998   4.237   3.728  14.346 -0.0611  0.0811  0.4424
  741TMC3    C110999   3.936   2.722  14.513  0.3583 -0.8824 -0.1821
  741TMC3    C211000   3.800   2.692  14.520 -0.2892 -0.2806 -0.5973
  741TMC3    C311001   3.755   2.597  14.606 -0.2954 -0.3754  0.2814
  741TMC3    C411002   4.026   2.680  14.605  0.0075 -0.9461 -0.8003
  741TMC3    C511003   3.966   2.604  14.705 -0.3116 -0.1454 -0.2545
  741TMC3    C611004   3.840   2.553  14.705 -0.1313  0.1417  0.2448
  741TMC3     C11005   3.974   2.813  14.411  0.0821  0.3576 -0.3923
  741TMC3     O11006   3.899   2.825  14.314  0.0123  0.1920  0.4292
  741TMC3     H11007   3.730   2.735  14.450  2.0501  1.8316 -1.6273
  741TMC3    H111008   4.132   2.694  14.589 -0.1818  0.0215 -1.2852
  741TMC3    H211009   3.805   2.480  14.777 -1.7409 -0.8367 -1.5208
  741TMC3    C711010   4.055   2.564  14.809  0.4253 -0.2817 -0.0123
  741TMC3    C811011   3.622   2.549  14.586 -0.2820 -0.4626  0.5134
  741TMC3    O111012   4.173   2.578  14.786  0.2279  0.2841 -0.0015
  741TMC3    O211013   3.553   2.602  14.500  0.1412 -0.4024 -0.0805
  742TMC3    C111014   3.531   0.922  15.637  0.1118 -0.8718 -0.6825
  742TMC3    C211015   3.472   0.915  15.512 -0.6235  0.2705  1.3209
  742TMC3    C311016   3.517   1.001  15.420 -0.2047 -0.3103 -0.4868
  742TMC3    C411017   3.631   1.010  15.670 -0.1259  0.3138  0.7836
  742TMC3    C511018   3.668   1.100  15.568  0.2348 -0.0602 -0.1665
  742TMC3    C611019   3.610   1.099  15.442 -0.6025 -0.0593  0.4897
  742TMC3     C11020   3.494   0.823  15.736  0.0435 -0.5962  0.2869
  742TMC3     O11021   3.397   0.751  15.708  0.2328  0.6650  0.1727
  742TMC3     H11022   3.422   0.822  15.487 -0.1168 -0.0662  1.5438
  742TMC3    H111023   3.675   1.023  15.768 -0.4528 -2.5221  1.2999
  742TMC3    H211024   3.647   1.166  15.365 -1.4147  1.4685  1.4266
  742TMC3    C711025   3.764   1.199  15.594 -0.1468  0.3662 -0.1202
  742TMC3    C811026   3.437   1.017  15.301 -0.1588  0.3046  0.3971
  742TMC3    O111027   3.850   1.216  15.510 -0.1187 -0.1764 -0.1722
  742TMC3    O211028   3.497   1.071  15.203 -0.1946  0.2935  0.5284
  743MPD2     C11029   2.619   2.028   1.740 -0.9011 -0.0079  0.6066
  743MPD2    C111030   2.562   2.110   1.650 -0.2770  0.6720 -0.5398
  743MPD2    C211031   2.630   2.200   1.585 -0.2987 -1.1550 -0.2527
  743MPD2    C311032   2.769   2.213   1.602 -0.5150  0.2653  0.4022
  743MPD2    C411033   2.831   2.141   1.706 -0.4474  0.2702 -0.2255
  743MPD2    C511034   2.749   2.048   1.773 -0.7312  0.0922 -0.1552
  743MPD2     H11035   2.579   2.254   1.506 -0.6897  0.0758  0.8245
  743MPD2    H111036   2.932   2.155   1.740 -0.1353  1.9868 -1.8746
  743MPD2    H211037   2.565   1.944   1.783  0.0178  0.4450  2.6373
  743MPD2    H311038   2.790   1.983   1.849 -0.4764 -1.3463 -1.5241
  743MPD2     N11039   2.833   2.312   1.523 -0.1301  0.9475  0.1190
  743MPD2    H511040   2.775   2.363   1.458  2.1830  1.4240 -1.5660
  743MPD2    N111041   2.424   2.083   1.625 -0.1325  0.0139  0.2848
  743MPD2    H711042   2.387   2.005   1.679 -0.8352 -0.4367 -0.8463
  744TMC3    C111043   2.197   2.098   1.551 -0.2643  0.1676  0.2643
  744TMC3    C211044   2.083   2.172   1.538  0.6584 -0.2400  0.3633
  744TMC3    C311045   1.984   2.123   1.457  0.2938 -0.0636 -0.0886
  744TMC3    C411046   2.207   1.985   1.477  0.9060 -0.2694 -0.3634
  744TMC3    C511047   2.105   1.934   1.405  0.3960  0.5375 -0.1191
  744TMC3    C611048   1.991   1.999   1.398 -0.2787  0.7725 -0.3344
  744TMC3     C11049   2.326   2.157   1.557 -0.2923  0.3709 -0.0483
  744TMC3     O11050   2.348   2.256   1.490  0.6195  0.5783 -0.4056
  744TMC3     H11051   2.069   2.265   1.591  3.3421 -0.0299  0.7072
  744TMC3    H111052   2.300   1.929   1.475  0.9354 -0.3431  3.2209
  744TMC3    H211053   1.920   1.968   1.322 -0.2242  0.3780 -0.2254
  744TMC3    C711054   2.156   1.873   1.285  0.4007  0.4587  0.4159
  744TMC3    C811055   1.863   2.203   1.442 -0.1131 -0.5401 -0.0354
  744TMC3    O111056   2.274   1.881   1.254 -0.5482 -0.6295  0.5433
  744TMC3    O211057   1.864   2.316   1.480 -0.1973  0.3387 -0.6826
  745TMC3    C111058   4.481   0.764  13.942  0.0910  0.1878  0.5524
  745TMC3    C211059   4.378   0.671  13.959  0.2977 -0.2989  0.0710
  745TMC3    C311060   4.272   0.686  13.874  0.5758 -0.2190 -0.7033
  745TMC3    C411061   4.489   0.857  13.845 -0.4831  0.2834 -0.5055
  745TMC3    C511062   4.388   0.847  13.745 -0.2836  0.0996  0.9006
  745TMC3    C611063   4.271   0.769  13.766  0.2753  0.0619 -0.1134
  745TMC3     C11064   4.536   0.801  14.064  0.4355  0.1040 -1.1446
  745TMC3     O11065   4.576   0.710  14.136 -0.0618  0.2413 -0.9568
  745TMC3     H11066   4.390   0.591  14.032 -1.0222 -0.8052 -0.2632
  745TMC3    H111067   4.566   0.933  13.855  0.2542 -0.7494  1.8358
  745TMC3    H211068   4.184   0.779  13.702 -0.9295 -0.3826  1.4427
  745TMC3    C711069   4.398   0.924  13.619 -0.3473  0.2344  0.3926
  745TMC3    C811070   4.148   0.701  13.952  0.1923  0.0719  0.1994
  745TMC3    O111071   4.316   0.900  13.527  0.1328  0.3702 -0.0096
  745TMC3    O211072   4.042   0.731  13.897 -0.5400 -0.6277 -0.0702
  746TMC3    C111073   1.883   3.237  11.177 -0.4999 -0.4156  0.3141
  746TMC3    C211074   1.998   3.211  11.116  0.0929  0.4738  0.3251
  746TMC3    C311075   2.024   3.075  11.087 -0.1083  0.2449  0.1221
  746TMC3    C411076   1.790   3.145  11.207  0.2711 -0.5918 -0.0342
  746TMC3    C511077   1.816   3.018  11.184  0.5941  0.0332  0.5207
  746TMC3    C611078   1.928   2.984  11.112 -0.7146  0.0510 -0.1655
  746TMC3     C11079   1.847   3.373  11.196 -0.4143 -0.2159  0.1916
  746TMC3     O11080   1.740   3.395  11.247  0.0550 -0.2744 -0.0887
  746TMC3     H11081   2.075   3.287  11.107 -0.2498  0.6456 -1.1325
  746TMC3    H111082   1.702   3.176  11.261 -1.4521  0.4668 -3.4162
  746TMC3    H211083   1.944   2.878  11.095 -1.3201 -0.0449 -0.1430
  746TMC3    C711084   1.707   2.930  11.192 -0.3093 -0.4659 -0.2530
  746TMC3    C811085   2.129   3.041  10.990  0.7202  0.3495  0.5324
  746TMC3    O111086   1.678   2.868  11.089  0.0805 -0.2484  0.2285
  746TMC3    O211087   2.189   2.934  10.996 -0.3281 -0.0585 -0.0897
  747TMC3    C111088   4.070   3.173  11.222  0.3706  0.4373  0.6605
  747TMC3    C211089   4.071   3.071  11.316  0.0125 -0.0449 -0.6683
  747TMC3    C311090   4.066   3.102  11.450 -0.0919  0.3770  0.4561
  747TMC3    C411091   4.057   3.300  11.261  0.2751 -0.0501 -0.2150
  747TMC3    C511092   4.058   3.334  11.396 -0.1138  0.2957 -0.0208
  747TMC3    C611093   4.064   3.233  11.496 -0.5889 -0.0849 -0.2816
  747TMC3     C11094   4.025   3.130  11.093  0.1730 -0.4470  1.0667
  747TMC3     O11095   3.952   3.200  11.020  0.8906 -0.2534  0.3993
  747TMC3     H11096   4.072   2.966  11.288 -1.8709 -0.2080 -0.1134
  747TMC3    H111097   4.032   3.382  11.196  1.1244  0.5476  0.2168
  747TMC3    H211098   4.075   3.256  11.602  1.3731 -1.4249 -0.2073
  747TMC3    C711099   4.110   3.458  11.442 -1.0409  0.2987  0.0276
  747TMC3    C811100   3.991   2.999  11.529 -0.0761 -0.6111 -0.2826
  747TMC3    O111101   4.101   3.493  11.559  0.5755  0.0999  0.2514
  747TMC3    O211102   4.029   2.885  11.508 -0.1354  0.6140 -0.2135
  748MPD2     C11103   0.635   3.670   1.232 -0.1989 -0.0991  0.5316
  748MPD2    C111104   0.722   3.570   1.204  0.7191 -0.0101 -0.4277
  748MPD2    C211105   0.805   3.529   1.302 -0.1328  0.2793 -0.0790
  748MPD2    C311106   0.812   3.582   1.429  0.7686  0.1964  0.0447
  748MPD2    C411107   0.723   3.683   1.459 -1.3444 -0.0474  0.6583
  748MPD2    C511108   0.638   3.723   1.360  0.6896 -0.2218  0.2465
  748MPD2     H11109   0.876   3.450   1.282  0.9279  1.3004 -0.3586
  748MPD2    H111110   0.718   3.726   1.558  0.6233 -1.7934  1.5186
  748MPD2    H211111   0.574   3.710   1.152 -1.7673 -0.6061  1.4574
  748MPD2    H311112   0.565   3.801   1.378 -0.0130 -0.2194 -2.5170
  748MPD2     N11113   0.919   3.540   1.506 -0.2308  0.1593 -0.2273
  748MPD2    H511114   0.961   3.453   1.475 -0.0506 -0.5046  1.8493
  748MPD2    N111115   0.726   3.520   1.072 -0.1491  0.1755  0.3388
  748MPD2    H711116   0.653   3.559   1.013 -1.1328 -0.6177  1.0387
  749TMC3    C111117   1.093   3.548   1.663 -0.8360 -0.8148 -0.4634
  749TMC3    C211118   1.103   3.412   1.653 -0.0198  0.6675  0.4839
  749TMC3    C311119   1.226   3.360   1.639  0.3192 -0.3882  0.2132
  749TMC3    C411120   1.205   3.628   1.651  0.2553 -0.2860  0.2716
  749TMC3    C511121   1.322   3.575   1.624  0.8543 -0.1985  0.3380
  749TMC3    C611122   1.341   3.440   1.626  0.5387 -0.1346 -0.0521
  749TMC3     C11123   0.966   3.604   1.621  0.0828 -0.0092 -0.3132
  749TMC3     O11124   0.927   3.712   1.665 -0.0964  0.2166 -0.0021
  749TMC3     H11125   1.012   3.357   1.674 -0.9819  2.1962  0.2316
  749TMC3    H111126   1.192   3.735   1.641 -2.0726 -0.4275  1.7917
  749TMC3    H211127   1.439   3.396   1.612  0.2888 -0.4821 -0.6975
  749TMC3    C711128   1.431   3.659   1.583  0.3391  0.1279 -0.1890
  749TMC3    C811129   1.231   3.215   1.645  0.0986  0.0598 -0.5364
  749TMC3    O111130   1.433   3.776   1.622 -0.4188  0.0775 -0.1487
  749TMC3    O211131   1.125   3.156   1.663  0.2634 -0.6885  0.3700
  750MPD2     C11132   1.486   0.459  11.566 -0.0142 -0.6426 -0.3842
  750MPD2    C111133   1.389   0.380  11.518  0.1589  0.1450  0.3305
  750MPD2    C211134   1.425   0.279  11.431 -0.1413 -1.0837  0.0771
  750MPD2    C311135   1.550   0.272  11.378 -0.8213 -0.3699  0.4112
  750MPD2    C411136   1.641   0.364  11.417 -0.6699 -0.1729  0.3428
  750MPD2    C511137   1.608   0.458  11.506  0.5508  0.1670 -0.1725
  750MPD2     H11138   1.354   0.204  11.396  0.3596  0.2803 -3.8596
  750MPD2    H111139   1.744   0.368  11.383 -1.3069  3.2210 -1.1599
  750MPD2    H211140   1.465   0.543  11.632 -0.6313 -0.4356 -0.8468
  750MPD2    H311141   1.690   0.526  11.526 -0.2195  1.0505 -0.0131
  750MPD2     N11142   1.583   0.162  11.293 -0.3442 -0.1233  0.2199
  750MPD2    H511143   1.514   0.088  11.288 -1.0399  0.4121  1.8883
  750MPD2    N111144   1.265   0.401  11.572  0.3031  0.0476 -0.5844
  750MPD2    H711145   1.270   0.476  11.640 -0.8199  1.8419 -2.4781
  751TMC3    C111146   1.706   0.007  11.171  0.6016 -0.1533  0.6379
  751TMC3    C211147   1.594   4.667  11.164  0.3521  0.0008 -0.4451
  751TMC3    C311148   1.611   4.536  11.138 -0.3976 -0.2156 -0.6419
  751TMC3    C411149   1.827   4.699  11.133  0.0995  0.2094  0.2628
  751TMC3    C511150   1.844   4.568  11.112  0.7910  0.3907  0.1736
  751TMC3    C611151   1.735   4.484  11.135 -0.0272 -0.0334 -0.3446
  751TMC3     C11152   1.698   0.142  11.223 -0.5012 -0.4640  0.7008
  751TMC3     O11153   1.789   0.224  11.201 -0.2480  0.1108 -0.0251
  751TMC3     H11154   1.502   4.721  11.147 -1.0072 -2.6893 -1.5134
  751TMC3    H111155   1.905   0.035  11.114  2.5892 -2.2597  1.0390
  751TMC3    H211156   1.740   4.376  11.121  0.7291  0.2113 -1.9465
  751TMC3    C711157   1.917   4.537  10.994 -1.2132  0.2906  0.0353
  751TMC3    C811158   1.511   4.460  11.076 -0.7179 -0.6496 -0.3060
  751TMC3    O111159   2.027   4.584  10.972  0.2760 -0.3813  0.3447
  751TMC3    O211160   1.563   4.396  10.986  0.2360 -0.6509  0.0348
  752TMC3    C111161   0.485   4.580  17.246 -0.0181 -0.4708 -0.0073
  752TMC3    C211162   0.538   4.497  17.339 -0.1788 -1.0330 -0.2669
  752TMC3    C311163   0.472   4.464  17.456 -0.5507  0.6588  1.0349
  752TMC3    C411164   0.356   4.614  17.270 -0.3160 -0.1417 -0.0441
  752TMC3    C511165   0.289   4.573  17.380  0.1117  0.0978  0.5564
  752TMC3    C611166   0.345   4.497  17.477  0.5626  0.3781 -0.3149
  752TMC3     C11167   0.574   4.666  17.174 -0.1474 -0.1473 -0.2645
  752TMC3     O11168   0.691   4.660  17.204  0.4012 -0.2792  0.1136
  752TMC3     H11169   0.643   4.470  17.334  0.2760  0.5891  0.7187
  752TMC3    H111170   0.305   4.681  17.202  2.1489  0.0105 -1.7448
  752TMC3    H211171   0.282   4.445  17.548  0.7362  1.4018  0.5850
  752TMC3    C711172   0.152   4.622  17.407  0.6671 -0.2853 -0.1008
  752TMC3    C811173   0.525   4.371  17.550  0.5969  0.5398  0.2294
  752TMC3    O111174   0.084   4.659  17.310  0.7926  0.6352 -0.4672
  752TMC3    O211175   0.487   4.365  17.665  0.3446  0.0119  0.0287
  753TMC3    C111176   2.239   1.090  13.582  0.3849 -0.2471 -0.6949
  753TMC3    C211177   2.313   1.042  13.683  0.2609  0.0176 -0.5863
  753TMC3    C311178   2.384   0.929  13.652  0.1339 -0.1128  0.4222
  753TMC3    C411179   2.237   1.048  13.454 -0.2868 -0.7250  0.1726
  753TMC3    C511180   2.316   0.936  13.425  0.2784 -0.4419  0.2465
  753TMC3    C611181   2.383   0.870  13.529  0.5307  0.3649  0.2022
  753TMC3     C11182   2.161   1.206  13.600  0.3324 -0.4186  0.7662
  753TMC3     O11183   2.109   1.214  13.710 -0.1312 -0.1812 -0.4156
  753TMC3     H11184   2.322   1.111  13.766 -2.2333 -0.3875  0.0102
  753TMC3    H111185   2.167   1.095  13.387 -0.3224 -0.2794  0.5269
  753TMC3    H211186   2.434   0.774  13.523 -0.4043 -0.0990 -0.3642
  753TMC3    C711187   2.292   0.878  13.298  0.2644  0.7771 -0.4944
  753TMC3    C811188   2.461   0.861  13.755  0.0184  0.2924 -0.7450
  753TMC3    O111189   2.198   0.911  13.229  0.2872  0.0199  0.5879
  753TMC3    O211190   2.471   0.737  13.752  0.3161 -0.1393  0.2498
  754MPD2     C11191   1.842   4.529  13.323  0.2286  0.1412  0.3092
  754MPD2    C111192   1.843   4.397  13.283 -0.3308  0.6300 -0.8494
  754MPD2    C211193   1.753   4.346  13.187 -0.1395 -0.8664 -0.1208
  754MPD2    C311194   1.652   4.427  13.148 -0.7900 -0.2778  0.1990
  754MPD2    C411195   1.645   4.558  13.184  0.3378  0.2661  0.0309
  754MPD2    C511196   1.737   4.609  13.276  0.3955  0.1159  0.6092
  754MPD2     H11197   1.760   4.244  13.152 -0.5080  0.0737 -2.9319
  754MPD2    H111198   1.568   4.624  13.147  0.2519 -0.0051 -0.2702
  754MPD2    H211199   1.928   4.567  13.378  1.3216 -0.1520 -1.1919
  754MPD2    H311200   1.737   4.716  13.295  0.8242  0.7168 -2.7540
  754MPD2     N11201   1.531   4.390  13.078  0.5782  0.4436  0.0971
  754MPD2    H511202   1.460   4.450  13.039  0.0247  0.7982  1.6568
  754MPD2    N111203   1.954   4.326  13.336 -0.1518  0.6169 -0.2821
  754MPD2    H711204   2.023   4.383  13.384  0.7067 -0.4228 -0.2721
  755MPD2     C11205   0.849   0.092  13.286 -0.1734 -0.0425 -0.0787
  755MPD2    C111206   0.805   4.701  13.302  0.2546  0.8735  0.4068
  755MPD2    C211207   0.884   4.597  13.254 -0.7031 -0.4299  0.1773
  755MPD2    C311208   0.998   4.629  13.193 -0.2532  0.9331  0.5812
  755MPD2    C411209   1.044   0.018  13.176 -0.9537 -0.3443 -0.0659
  755MPD2    C511210   0.968   0.116  13.213 -0.0643 -0.1424  0.2055
  755MPD2     H11211   0.855   4.494  13.273 -0.3495 -0.6212 -0.3320
  755MPD2    H111212   1.142   0.048  13.140 -0.2184 -1.5260  0.9604
  755MPD2    H211213   0.788   0.180  13.302 -3.6026 -2.0241 -2.2663
  755MPD2    H311214   1.010   0.215  13.202 -0.5052 -0.0792 -0.8483
  755MPD2     N11215   1.085   4.521  13.149 -0.1804  0.0697  0.2886
  755MPD2    H511216   1.175   4.553  13.115  0.5942 -1.9572  0.3983
  755MPD2    N111217   0.689   4.674  13.374 -0.0131  0.2932  0.0919
  755MPD2    H711218   0.668   4.579  13.404  0.9315 -0.6607 -2.2844
  756MPD2     C11219   1.957   1.250  10.009 -0.0481 -0.8040 -0.0584
  756MPD2    C111220   1.892   1.180  10.107 -0.0684  0.3208  0.1562
  756MPD2    C211221   1.796   1.082  10.075 -0.8068  0.9435 -0.4901
  756MPD2    C311222   1.776   1.048   9.942 -0.3340  0.0229 -0.0656
  756MPD2    C411223   1.843   1.113   9.845 -0.3535 -0.3215  0.4541
  756MPD2    C511224   1.922   1.223   9.879 -0.2756 -0.0816  0.5148
  756MPD2     H11225   1.731   1.045  10.153 -0.6087  0.3882 -0.5829
  756MPD2    H111226   1.817   1.106   9.741  0.9534 -0.3613  0.1227
  756MPD2    H211227   2.025   1.332  10.029  0.5287 -0.9127 -1.5906
  756MPD2    H311228   1.969   1.270   9.793  1.5630  1.0192  2.1365
  756MPD2     N11229   1.681   0.953   9.907  0.0074  0.2267  0.2898
  756MPD2    H511230   1.617   0.921   9.979  1.8030 -1.5627  1.1094
  756MPD2    N111231   1.911   1.217  10.244  0.6767 -0.3966 -0.2350
  756MPD2    H711232   1.852   1.170  10.312 -0.2958 -1.2746 -1.6799
  757MPD2     C11233   1.488   4.679   9.796  0.2478  0.0740 -0.0514
  757MPD2    C111234   1.377   4.736   9.854 -0.1459  0.1294 -0.7826
  757MPD2    C211235   1.368   0.138   9.844  0.7277  0.0541 -0.1124
  757MPD2    C311236   1.474   0.215   9.789 -0.2389  0.3210  0.2544
  757MPD2    C411237   1.585   0.151   9.740 -0.2077  0.3629 -0.3249
  757MPD2    C511238   1.586   0.013   9.741  0.3487 -0.4680 -0.4019
  757MPD2     H11239   1.279   0.182   9.886 -0.9295  0.2157 -3.8237
  757MPD2    H111240   1.670   0.190   9.685  2.0603 -0.9267  2.2844
  757MPD2    H211241   1.496   4.571   9.793 -0.8683 -0.0028 -0.6353
  757MPD2    H311242   1.657   4.700   9.675  1.7688  1.0212 -0.0055
  757MPD2     N11243   1.448   0.353   9.787  0.1705  0.2887  0.1582
  757MPD2    H511244   1.380   0.388   9.854  0.0325 -0.4606  0.4100
  757MPD2    N111245   1.274   4.646   9.905  0.1949 -0.1044  0.4558
  757MPD2    H711246   1.283   4.545   9.910  0.2055 -0.1538 -0.5595
  758MPD2     C11247   1.383   4.155  15.879  0.3307 -0.3990 -0.9444
  758MPD2    C111248   1.442   4.048  15.948 -0.4438 -0.3130  0.0239
  758MPD2    C211249   1.441   4.047  16.081 -0.1890 -0.4776 -0.0307
  758MPD2    C311250   1.388   4.153  16.157 -0.1245  0.5737 -0.5082
  758MPD2    C411251   1.326   4.252  16.084 -0.3638  0.0897  0.1556
  758MPD2    C511252   1.321   4.256  15.953  0.2103 -0.1470  0.0772
  758MPD2     H11253   1.484   3.959  16.128 -2.7213 -1.5422  0.3275
  758MPD2    H111254   1.283   4.339  16.133  0.8646  1.2726 -0.8457
  758MPD2    H211255   1.381   4.175  15.772  3.3375 -0.6240 -1.0312
  758MPD2    H311256   1.279   4.334  15.892 -0.3799  1.9111  3.0816
  758MPD2     N11257   1.395   4.168  16.294 -0.1801 -0.7459  0.1663
  758MPD2    H511258   1.351   4.251  16.332  0.6623 -0.5155  0.6320
  758MPD2    N111259   1.522   3.957  15.875 -0.0495 -0.1160 -0.0835
  758MPD2    H711260   1.521   3.967  15.774  1.5686  0.6019 -0.0238
  759MPD2     C11261   1.087   2.293  10.120  0.2641  0.3349  0.3999
  759MPD2    C111262   0.980   2.376  10.157  0.3619  0.2484  0.5406
  759MPD2    C211263   0.982   2.509  10.119  0.2464  0.5668 -0.6117
  759MPD2    C311264   1.089   2.556  10.037 -0.1827  0.2671  0.1420
  759MPD2    C411265   1.196   2.470  10.013  0.1446  0.3229 -0.5448
  759MPD2    C511266   1.186   2.345  10.050 -0.3834  0.2566  0.5672
  759MPD2     H11267   0.897   2.574  10.132  0.9848  1.0149  1.9275
  759MPD2    H111268   1.277   2.507   9.951  1.3338  0.4494  1.0818
  759MPD2    H211269   1.099   2.194  10.163 -1.6622  0.4986  1.3309
  759MPD2    H311270   1.262   2.271  10.028 -0.6624 -0.7350  2.9447
  759MPD2     N11271   1.082   2.696   9.999  0.1006  0.3952 -0.1548
  759MPD2    H511272   1.010   2.745  10.050  0.2067 -1.5650  1.8564
  759MPD2    N111273   0.877   2.330  10.237  0.3505 -0.1252 -0.1523
  759MPD2    H711274   0.813   2.403  10.268 -0.5887 -1.4747  1.0544
  760MPD2     C11275   4.137   4.576  12.330  0.2938  0.1842 -0.3928
  760MPD2    C111276   4.253   4.604  12.261  0.4811 -0.0511  0.1766
  760MPD2    C211277   4.338   4.510  12.222 -0.1420  0.5823  0.4104
  760MPD2    C311278   4.317   4.383  12.264  0.4755 -0.1639  0.1409
  760MPD2    C411279   4.197   4.352  12.321 -0.3238  0.2556 -0.4368
  760MPD2    C511280   4.108   4.451  12.348  0.0703  0.0849 -0.0727
  760MPD2     H11281   4.435   4.545  12.188  0.1151 -0.7181 -0.1872
  760MPD2    H111282   4.174   4.249  12.346  2.8717 -0.2925  0.1908
  760MPD2    H211283   4.067   4.655  12.354  0.0922  0.5272 -2.0983
  760MPD2    H311284   4.013   4.435  12.397  0.2708 -0.6926  0.0596
  760MPD2     N11285   4.414   4.287  12.240  0.4080  0.2536  0.5832
  760MPD2    H511286   4.381   4.197  12.276  1.0060 -0.1501  0.1128
  760MPD2    N111287   4.309   4.732  12.263  0.4446 -0.3948  0.1541
  760MPD2    H711288   4.401   0.002  12.223 -0.0311  0.3153 -0.8016
  761MPD2     C11289   1.061   4.237  11.049  0.3406 -0.0974  0.7648
  761MPD2    C111290   1.183   4.207  10.985 -1.1113  0.1177  0.5785
  761MPD2    C211291   1.287   4.296  11.012 -0.0082  0.3767 -0.5739
  761MPD2    C311292   1.275   4.402  11.088  0.3642  0.4422 -0.4886
  761MPD2    C411293   1.156   4.432  11.142  1.2529 -0.6026  0.6901
  761MPD2    C511294   1.050   4.347  11.131  0.0141  0.1314 -0.0446
  761MPD2     H11295   1.381   4.270  10.964 -0.2169 -0.1772 -0.6851
  761MPD2    H111296   1.142   4.520  11.203  0.2697 -0.9499  0.9592
  761MPD2    H211297   0.963   4.199  11.025  1.8243 -1.3496 -3.2959
  761MPD2    H311298   0.956   4.367  11.179  0.5427 -0.4816  1.2434
  761MPD2     N11299   1.385   4.485  11.117  0.3163  0.2838  0.2054
  761MPD2    H511300   1.375   4.563  11.182  0.3761  1.3067 -1.0200
  761MPD2    N111301   1.204   4.094  10.906  0.0241 -0.3442 -0.2711
  761MPD2    H711302   1.293   4.085  10.859  0.4282  3.4990 -0.2666
  762MPD2     C11303   1.574   4.033  10.346 -0.2783 -0.0962 -0.5617
  762MPD2    C111304   1.591   3.939  10.449 -0.0575  0.2989  0.4717
  762MPD2    C211305   1.720   3.884  10.462 -0.2218  0.8341 -0.7179
  762MPD2    C311306   1.828   3.926  10.386  0.0602 -0.5877  0.5006
  762MPD2    C411307   1.808   4.036  10.301  0.2785  0.6459  0.0474
  762MPD2    C511308   1.681   4.081  10.275 -0.1963  0.6309  0.6757
  762MPD2     H11309   1.728   3.805  10.535 -0.3833 -1.3851 -3.1060
  762MPD2    H111310   1.890   4.078  10.245  0.2029 -1.4413 -1.6009
  762MPD2    H211311   1.480   4.083  10.326 -0.0426  0.4703 -0.2531
  762MPD2    H311312   1.669   4.156  10.197 -2.9441 -0.1113  0.3918
  762MPD2     N11313   1.950   3.863  10.402 -0.6943  0.2734 -0.0027
  762MPD2    H511314   1.949   3.783  10.464 -0.5973  0.1546 -0.1542
  762MPD2    N111315   1.481   3.910  10.527 -0.2226  0.1261 -0.2581
  762MPD2    H711316   1.394   3.958  10.510 -0.4536  0.1161  0.9098
  763MPD2     C11317   3.391   4.149  16.272 -0.1766 -0.2114 -0.4263
  763MPD2    C111318   3.264   4.212  16.256  0.7233  0.9108  0.0545
  763MPD2    C211319   3.262   4.345  16.290  0.4575 -0.5706 -0.4529
  763MPD2    C311320   3.377   4.413  16.330 -0.3078 -0.1384  0.1193
  763MPD2    C411321   3.495   4.350  16.342 -0.3969 -0.2697  0.2933
  763MPD2    C511322   3.495   4.220  16.326  0.0501 -0.1924  0.0126
  763MPD2     H11323   3.170   4.398  16.269 -0.3475 -2.2699 -1.2175
  763MPD2    H111324   3.586   4.402  16.373 -1.1456 -0.3551  2.6183
  763MPD2    H211325   3.411   4.044  16.254  0.3960  0.1296 -1.7166
  763MPD2    H311326   3.586   4.163  16.336  0.3792  0.4490  0.6058
  763MPD2     N11327   3.383   4.549  16.379 -0.0688 -0.7681  0.1774
  763MPD2    H511328   3.474   4.584  16.408 -0.3989 -0.3815  0.7437
  763MPD2    N111329   3.147   4.142  16.202 -0.0919 -0.0266  0.1143
  763MPD2    H711330   3.058   4.189  16.189 -0.6708 -1.2379 -0.2566
  764MPD2     C11331   1.102   0.424   0.018  0.9867 -0.4733  0.6063
  764MPD2    C111332   1.003   0.516   0.052 -0.0108 -0.2437  0.0213
  764MPD2    C211333   0.959   0.526   0.186  0.2875  0.9990  0.4420
  764MPD2    C311334   1.011   0.455   0.289  0.2766  0.0548 -0.5976
  764MPD2    C411335   1.109   0.359   0.255  0.4426 -1.0343 -0.6758
  764MPD2    C511336   1.147   0.346   0.127  0.2580  0.5167  0.4239
  764MPD2     H11337   0.873   0.590   0.204 -0.1914  0.0003  1.6898
  764MPD2    H111338   1.144   0.284   0.326 -0.9862  0.6404  1.7935
  764MPD2    H211339   1.132   0.409  17.661  0.5246  0.0951  0.3924
  764MPD2    H311340   1.213   0.264   0.100 -0.7178 -0.1503  0.0522
  764MPD2     N11341   0.963   0.469   0.424 -0.4058  0.2148  0.5555
  764MPD2    H511342   0.890   0.538   0.442 -0.1746  0.5783  0.0947
  764MPD2    N111343   0.936   0.591  17.690 -0.8054 -0.7889  0.4949
  764MPD2    H711344   0.846   0.630  17.716 -0.9347  1.3366 -3.1081
  765MPD2     C11345   1.181   3.471  15.359  0.0745 -0.1927 -0.3237
  765MPD2    C111346   1.234   3.523  15.478 -0.5902  0.2107 -0.4519
  765MPD2    C211347   1.336   3.461  15.547 -1.0717 -1.1657  0.5560
  765MPD2    C311348   1.376   3.333  15.492  0.3273 -0.5264 -0.4492
  765MPD2    C411349   1.317   3.282  15.377 -0.6002 -0.1899 -0.8678
  765MPD2    C511350   1.218   3.350  15.308 -0.2050  0.2144  0.0975
  765MPD2     H11351   1.371   3.496  15.643  0.0782 -1.4486  0.2367
  765MPD2    H111352   1.354   3.192  15.331  0.7220  1.3585 -2.8414
  765MPD2    H211353   1.090   3.517  15.323 -0.3345  1.3838  2.6798
  765MPD2    H311354   1.183   3.308  15.214 -2.3335 -1.0158  1.4425
  765MPD2     N11355   1.468   3.254  15.573 -0.6320 -0.1180  0.1712
  765MPD2    H511356   1.518   3.311  15.641 -0.6697 -0.9082  0.8602
  765MPD2    N111357   1.167   3.637  15.527 -0.2404  0.0031  0.1228
  765MPD2    H711358   1.083   3.670  15.482  1.1118  2.5915 -0.5025
  766MPD2     C11359   0.538   3.885  15.290  0.5370  0.2705  0.0300
  766MPD2    C111360   0.660   3.830  15.305 -0.0822 -0.0337  0.4326
  766MPD2    C211361   0.718   3.747  15.208  0.1116 -0.5305 -0.7701
  766MPD2    C311362   0.654   3.731  15.084  0.0645 -0.6189 -0.2314
  766MPD2    C411363   0.529   3.794  15.074  0.4483 -0.6618  0.8372
  766MPD2    C511364   0.471   3.866  15.172 -0.3217 -0.4137 -0.2696
  766MPD2     H11365   0.813   3.697  15.222 -0.0031 -0.3033  0.7928
  766MPD2    H111366   0.479   3.798  14.977 -1.7179 -1.7669  1.9185
  766MPD2    H211367   0.509   3.959  15.362 -1.4827  0.9339 -1.4757
  766MPD2    H311368   0.376   3.916  15.156  0.2713  1.3555  1.6582
  766MPD2     N11369   0.705   3.668  14.964 -0.0905 -0.3038 -0.2335
  766MPD2    H511370   0.663   3.683  14.873 -2.0212 -1.5068  0.4578
  766MPD2    N111371   0.728   3.869  15.422 -0.7606  0.3043 -0.1100
  766MPD2    H711372   0.677   3.931  15.485  0.9098 -2.1147  3.6579
  767MPD2     C11373   0.421   4.058  14.853  0.1091  0.0434 -0.1528
  767MPD2    C111374   0.551   4.018  14.832 -0.5933 -0.0907 -0.7019
  767MPD2    C211375   0.581   3.927  14.730  0.1130  0.6032  0.0531
  767MPD2    C311376   0.471   3.883  14.655  0.0168  0.2906 -0.4745
  767MPD2    C411377   0.343   3.902  14.697  0.4565  0.1801  0.2631
  767MPD2    C511378   0.319   3.999  14.788  0.0298  0.5718 -0.0645
  767MPD2     H11379   0.686   3.904  14.714 -0.1605  1.7695 -3.3389
  767MPD2    H111380   0.252   3.854  14.663  0.3602 -0.3787  1.3393
  767MPD2    H211381   0.399   4.141  14.920 -0.6531  0.3109 -0.7252
  767MPD2    H311382   0.218   4.024  14.820 -0.1724 -2.6062  1.7101
  767MPD2     N11383   0.493   3.788  14.552 -0.6340  0.6276 -0.0793
  767MPD2    H511384   0.590   3.764  14.532 -0.9679 -0.2653 -0.6356
  767MPD2    N111385   0.651   4.076  14.913  0.5351  0.3821  0.3489
  767MPD2    H711386   0.615   4.131  14.990 -1.1044 -1.3904  0.8362
  768MPD2     C11387   1.613   2.650  10.686  0.2081 -0.6972  0.0722
  768MPD2    C111388   1.556   2.592  10.802 -0.1132  0.2340 -0.0201
  768MPD2    C211389   1.642   2.559  10.902  0.2796 -0.3030 -0.3667
  768MPD2    C311390   1.780   2.585  10.898  0.5866 -0.3430 -0.2888
  768MPD2    C411391   1.824   2.643  10.786 -0.4536 -0.3133  0.5641
  768MPD2    C511392   1.748   2.672  10.675 -0.3019  0.2072 -0.4121
  768MPD2     H11393   1.605   2.503  10.988 -0.1184  0.7710  0.1534
  768MPD2    H111394   1.928   2.673  10.787 -1.2828  2.4493  1.3609
  768MPD2    H211395   1.550   2.689  10.607  1.2521 -0.1601 -0.4926
  768MPD2    H311396   1.796   2.729  10.596 -3.1796 -0.0130 -2.3555
  768MPD2     N11397   1.870   2.569  11.007  0.3360  0.1894 -0.1806
  768MPD2    H511398   1.964   2.604  10.987 -1.3845  3.6849 -2.2565
  768MPD2    N111399   1.418   2.584  10.830 -0.4201 -0.1886  0.7031
  768MPD2    H711400   1.383   2.530  10.909 -0.5576 -2.5502 -0.9638
  769MPD2     C11401   2.640   0.303  14.924  0.1849 -0.8966  0.4341
  769MPD2    C111402   2.506   0.303  14.955  0.7352  0.2523  0.2719
  769MPD2    C211403   2.468   0.332  15.086 -0.3869  0.7364  0.8824
  769MPD2    C311404   2.566   0.362  15.177  0.0555 -0.7498 -0.4992
  769MPD2    C411405   2.699   0.359  15.145  0.2508  0.8076  0.1227
  769MPD2    C511406   2.734   0.334  15.017  0.2923 -0.0746 -0.0306
  769MPD2     H11407   2.365   0.334  15.120 -0.3901 -1.2885  1.0343
  769MPD2    H111408   2.777   0.373  15.218 -0.3315  0.1638  0.8658
  769MPD2    H211409   2.683   0.282  14.827 -0.7072 -0.1986 -0.1090
  769MPD2    H311410   2.837   0.344  14.985  0.4142  2.0056  0.9940
  769MPD2     N11411   2.520   0.375  15.310  0.2854  0.9746 -0.6146
  769MPD2    H511412   2.420   0.378  15.329 -0.0347 -0.6451 -2.0905
  769MPD2    N111413   2.421   0.280  14.846 -0.1944  0.6752 -0.3787
  769MPD2    H711414   2.465   0.262  14.756  0.7121  0.3187  0.1378
  770MPD2     C11415   1.585   4.640  14.753 -0.4538 -0.4589 -0.5934
  770MPD2    C111416   1.717   4.599  14.757  0.0273 -0.1599  0.6788
  770MPD2    C211417   1.814   4.696  14.739 -0.4743  0.0692  0.0987
  770MPD2    C311418   1.784   0.086  14.715 -0.3023  0.2070 -0.6266
  770MPD2    C411419   1.657   0.127  14.707 -0.3985 -0.4069 -0.7188
  770MPD2    C511420   1.555   0.034  14.733  0.2213  0.3793 -0.4703
  770MPD2     H11421   1.920   4.676  14.729 -0.3233  1.0637 -0.3076
  770MPD2    H111422   1.620   0.227  14.685 -0.4489  0.3373  2.7911
  770MPD2    H211423   1.505   4.568  14.751 -0.1893 -0.7551 -0.6133
  770MPD2    H311424   1.451   0.062  14.726 -0.1096 -0.7507 -0.1462
  770MPD2     N11425   1.893   0.170  14.691 -0.0671 -0.8813  0.1504
  770MPD2    H511426   1.983   0.123  14.679  0.1085 -0.2180 -1.1214
  770MPD2    N111427   1.746   4.463  14.766 -0.2139 -0.1172 -0.0714
  770MPD2    H711428   1.675   4.393  14.751 -1.1115  0.9892 -0.9463
  771MPD2     C11429   3.098   3.198  13.573  0.3788  0.0745  0.2209
  771MPD2    C111430   3.096   3.300  13.483  0.9473  0.3516 -0.1842
  771MPD2    C211431   3.086   3.267  13.348 -0.6369  0.3142 -0.2925
  771MPD2    C311432   3.066   3.136  13.312 -0.3452 -0.4273 -1.0004
  771MPD2    C411433   3.076   3.037  13.402 -0.2327 -0.2226  0.1902
  771MPD2    C511434   3.083   3.068  13.534  0.3335  0.5851  0.3090
  771MPD2     H11435   3.079   3.349  13.277 -0.9924 -0.1116 -0.7496
  771MPD2    H111436   3.063   2.932  13.378 -0.4162 -0.1694  0.0568
  771MPD2    H211437   3.108   3.226  13.678  1.8452 -1.4707  0.4861
  771MPD2    H311438   3.079   2.995  13.614  0.0313 -0.1145 -0.3450
  771MPD2     N11439   3.036   3.112  13.177 -0.0935 -0.0260 -0.6923
  771MPD2    H511440   3.019   3.197  13.124  0.0437  1.1884  1.1741
  771MPD2    N111441   3.098   3.441  13.514 -0.3079 -0.1920  0.2146
  771MPD2    H711442   3.083   3.505  13.436  0.0864 -0.9208 -0.4561
  772MPD2     C11443   2.747   3.946  13.988 -0.5083  0.5200 -0.0061
  772MPD2    C111444   2.717   3.856  13.884  0.0180 -0.0928 -0.3172
  772MPD2    C211445   2.594   3.787  13.885 -0.8608  0.0868 -0.5553
  772MPD2    C311446   2.508   3.807  13.986  0.4053 -0.2396  0.2630
  772MPD2    C411447   2.537   3.893  14.083  0.0591 -0.1008  0.5768
  772MPD2    C511448   2.657   3.957  14.084  0.8896  0.0262 -0.1042
  772MPD2     H11449   2.585   3.717  13.804 -1.3120 -1.3101  0.7140
  772MPD2    H111450   2.467   3.915  14.164 -1.3073  1.0825 -0.9271
  772MPD2    H211451   2.834   4.010  13.985 -1.0303  1.2513  0.2697
  772MPD2    H311452   2.670   4.037  14.156 -2.9911 -0.9332  1.6423
  772MPD2     N11453   2.381   3.735  14.002 -0.1729  0.5621  0.0539
  772MPD2    H511454   2.330   3.753  14.088 -2.1062 -0.1770 -0.9270
  772MPD2    N111455   2.821   3.816  13.792  0.0081  0.3547  0.1919
  772MPD2    H711456   2.806   3.724  13.751  2.6142  0.2981 -0.6265
  773MPD2     C11457   2.084   4.702   0.226 -0.0538  0.1462  0.3096
  773MPD2    C111458   2.044   4.580   0.167 -0.2626  0.2175 -0.6823
  773MPD2    C211459   2.071   4.470   0.238  0.1973 -0.3325 -0.7708
  773MPD2    C311460   2.142   4.473   0.354 -0.2371 -0.7201 -0.4336
  773MPD2    C411461   2.178   4.585   0.412  0.1573  0.3619 -0.5875
  773MPD2    C511462   2.151   4.704   0.349  0.3705 -0.1290 -0.5955
  773MPD2     H11463   2.046   4.375   0.192  1.3390  0.1583 -2.4134
  773MPD2    H111464   2.248   4.589   0.494 -0.5912 -0.8287  0.1068
  773MPD2    H211465   2.069   0.060   0.175 -1.2742  0.1994  0.7601
  773MPD2    H311466   2.184   0.059   0.396  2.4448 -1.8597  1.3046
  773MPD2     N11467   2.182   4.347   0.406 -0.0933 -0.8629 -0.3185
  773MPD2    H511468   2.164   4.259   0.359  1.0402 -1.3689  0.1967
  773MPD2    N111469   1.980   4.576   0.043 -0.7227 -0.3445 -0.4299
  773MPD2    H711470   1.957   4.487   0.001 -0.9477  0.4433 -1.9476
  774MPD2     C11471   1.756   3.252  13.128  0.0384  0.5632  0.3462
  774MPD2    C111472   1.658   3.300  13.215 -0.5960 -0.0466 -0.6158
  774MPD2    C211473   1.659   3.430  13.260  0.8859 -0.7276  0.1116
  774MPD2    C311474   1.756   3.517  13.217  0.2615  0.0771  0.1470
  774MPD2    C411475   1.844   3.473  13.121 -0.0693 -0.2413  0.4448
  774MPD2    C511476   1.847   3.340  13.080 -0.8728 -0.2492 -0.1967
  774MPD2     H11477   1.589   3.463  13.336 -1.8052  0.2898 -2.8091
  774MPD2    H111478   1.914   3.538  13.070 -2.0471  2.4425  1.1935
  774MPD2    H211479   1.743   3.151  13.091  1.4009 -0.0893  1.6315
  774MPD2    H311480   1.920   3.319  13.003  0.8630  0.3357  1.2721
  774MPD2     N11481   1.751   3.649  13.260  0.6384  0.1793 -0.8899
  774MPD2    H511482   1.677   3.677  13.323  0.9949 -0.4813 -0.1775
  774MPD2    N111483   1.552   3.205  13.246 -0.1983  0.2198  0.9522
  774MPD2    H711484   1.574   3.106  13.243  0.6893  0.3920  1.5216
  775MPD2     C11485   2.397   0.088  15.893 -0.4352 -0.5965 -0.1988
  775MPD2    C111486   2.404   0.203  15.961 -0.4821 -0.9590 -0.2683
  775MPD2    C211487   2.527   0.273  15.965 -0.0796 -0.0491 -0.5206
  775MPD2    C311488   2.631   0.230  15.887  0.3756  0.9965  0.0432
  775MPD2    C411489   2.620   0.118  15.811 -0.1238 -0.1667 -0.9061
  775MPD2    C511490   2.506   0.047  15.812  0.0378  0.3575 -0.7011
  775MPD2     H11491   2.534   0.365  16.021  1.4140 -1.2499  1.2717
  775MPD2    H111492   2.682   0.083  15.729 -3.4224  1.2408 -4.0203
  775MPD2    H211493   2.307   0.028  15.890 -0.7899 -0.0092 -1.0577
  775MPD2    H311494   2.503   4.692  15.755 -0.5382 -0.6722  0.9916
  775MPD2     N11495   2.751   0.303  15.878 -0.0068 -0.6887 -0.6385
  775MPD2    H511496   2.807   0.279  15.796  0.7139  1.3578 -0.7278
  775MPD2    N111497   2.289   0.243  16.037  0.1679 -0.2034 -0.0635
  775MPD2    H711498   2.210   0.179  16.033 -0.6727  0.9177 -1.4612
  776MPD2     C11499   0.635   0.932  11.760 -0.0478 -0.0658 -0.6335
  776MPD2    C111500   0.749   0.909  11.698  0.1813 -0.4810 -0.6905
  776MPD2    C211501   0.823   1.012  11.644  0.2835 -0.9569 -0.0721
  776MPD2    C311502   0.771   1.146  11.655  0.0852 -0.4326 -0.6329
  776MPD2    C411503   0.648   1.164  11.719  0.4972  1.2437 -1.1749
  776MPD2    C511504   0.580   1.057  11.765 -0.4224 -0.8554  0.6942
  776MPD2     H11505   0.914   0.998  11.587  1.7950 -1.1875  2.4191
  776MPD2    H111506   0.608   1.264  11.733 -0.4045  0.5588  1.1811
  776MPD2    H211507   0.578   0.851  11.805 -0.4769 -0.8029 -2.5154
  776MPD2    H311508   0.488   1.079  11.819 -0.7105 -0.5872  0.0972
  776MPD2     N11509   0.843   1.258  11.617 -0.1343  0.0810  0.4533
  776MPD2    H511510   0.790   1.345  11.612 -1.2711 -0.7511 -1.5622
  776MPD2    N111511   0.789   0.771  11.696 -0.2616  0.0976 -0.6357
  776MPD2    H711512   0.723   0.709  11.743  0.4395 -0.6112 -0.6015
  777MPD2     C11513   2.239   2.748   0.873  0.0573 -0.5626  0.1416
  777MPD2    C111514   2.186   2.637   0.936 -0.2554 -0.3291 -0.3905
  777MPD2    C211515   2.201   2.513   0.883 -0.2603  0.2353 -0.1322
  777MPD2    C311516   2.259   2.491   0.761  0.3103  0.9030  0.2798
  777MPD2    C411517   2.284   2.599   0.683 -0.3355  0.3126  0.8833
  777MPD2    C511518   2.275   2.728   0.741  0.4224 -0.2480  0.5131
  777MPD2     H11519   2.159   2.426   0.931  0.5656 -0.8437 -1.3477
  777MPD2    H111520   2.315   2.591   0.579 -0.7682  0.9252  0.7068
  777MPD2    H211521   2.231   2.844   0.921  2.2146 -0.2325 -0.1713
  777MPD2    H311522   2.302   2.819   0.689 -0.0261 -0.7003 -0.5068
  777MPD2     N11523   2.278   2.355   0.722  0.3107 -0.7872 -0.0031
  777MPD2    H511524   2.253   2.285   0.791  0.0699 -1.4169 -0.7293
  777MPD2    N111525   2.104   2.662   1.047 -0.7671  0.8176 -0.5814
  777MPD2    H711526   2.097   2.759   1.077 -0.8357  0.0363  1.9743
  778MPD2     C11527   3.035   3.284  14.979 -0.8646 -0.3822 -0.0810
  778MPD2    C111528   3.055   3.196  14.870 -0.1324 -0.3782 -0.1115
  778MPD2    C211529   3.106   3.243  14.753  0.5038  0.5492 -0.1791
  778MPD2    C311530   3.125   3.377  14.738 -1.1178  0.7265 -0.6240
  778MPD2    C411531   3.091   3.466  14.836 -0.0336 -0.1703 -0.1596
  778MPD2    C511532   3.045   3.418  14.956 -0.3821  0.4226 -0.3617
  778MPD2     H11533   3.129   3.174  14.672  0.1646  0.6820 -0.3862
  778MPD2    H111534   3.088   3.574  14.820  0.3714 -0.3504 -1.4552
  778MPD2    H211535   2.997   3.257  15.077  2.0186  2.7560  1.9193
  778MPD2    H311536   3.017   3.486  15.035 -1.5054 -0.1114 -0.2948
  778MPD2     N11537   3.170   3.416  14.614  0.0739  0.3489  0.0693
  778MPD2    H511538   3.208   3.342  14.556 -0.0118 -0.5431  1.1604
  778MPD2    N111539   3.020   3.057  14.879 -0.5070  0.2347  0.0264
  778MPD2    H711540   3.047   2.998  14.801  0.8232  0.6850  0.1332
  779MPD2     C11541   2.565   1.945  14.150 -0.3626 -0.6018  0.1531
  779MPD2    C111542   2.650   1.937  14.254  0.6757 -0.6716  0.2644
  779MPD2    C211543   2.705   2.051  14.304  0.5601 -0.7973 -0.0821
  779MPD2    C311544   2.686   2.176  14.253  1.2004 -0.2257  0.4296
  779MPD2    C411545   2.607   2.184  14.141  0.2648 -0.4884  0.2007
  779MPD2    C511546   2.539   2.067  14.093 -0.0924 -0.5607  0.4201
  779MPD2     H11547   2.767   2.042  14.392 -0.5060  1.6394  0.9110
  779MPD2    H111548   2.594   2.277  14.088 -1.0883 -1.5171 -1.2729
  779MPD2    H211549   2.513   1.859  14.110 -1.2572  0.3226 -0.6555
  779MPD2    H311550   2.480   2.074  14.002  0.7284 -1.0355 -0.1437
  779MPD2     N11551   2.754   2.286  14.315  0.0704 -1.1499  0.0722
  779MPD2    H511552   2.804   2.266  14.401 -0.2571 -1.4470  0.1912
  779MPD2    N111553   2.677   1.817  14.318 -0.1949  0.6078 -0.2556
  779MPD2    H711554   2.746   1.814  14.393 -1.4592 -0.2116  0.8871
  780MPD2     C11555   3.212   1.628   1.673 -0.0812 -0.4088 -0.3707
  780MPD2    C111556   3.182   1.536   1.574  0.1898 -0.4307  0.0863
  780MPD2    C211557   3.171   1.583   1.451  0.1919 -0.4111  0.0181
  780MPD2    C311558   3.199   1.713   1.413 -0.5321  0.3359 -0.2250
  780MPD2    C411559   3.221   1.805   1.509 -0.7450 -0.0392 -0.1657
  780MPD2    C511560   3.225   1.764   1.635  0.4002 -1.1178 -0.8747
  780MPD2     H11561   3.151   1.510   1.373 -1.1065  0.5842 -0.5812
  780MPD2    H111562   3.225   1.912   1.493  1.3459 -0.1204 -0.1616
  780MPD2    H211563   3.230   1.605   1.777  0.2739 -0.2471 -0.3966
  780MPD2    H311564   3.251   1.844   1.704  1.5115 -1.3359 -1.0430
  780MPD2     N11565   3.202   1.745   1.275 -0.3050 -0.0905  0.0357
  780MPD2    H511566   3.166   1.672   1.216 -0.0872 -1.5470  1.7063
  780MPD2    N111567   3.172   1.402   1.624 -0.0140 -0.7548  0.0697
  780MPD2    H711568   3.166   1.394   1.725 -1.2178 -1.6498 -0.0671
  781MPD2     C11569   3.727   4.317  12.232 -0.0256 -0.1921 -0.1239
  781MPD2    C111570   3.784   4.190  12.229  0.2288 -0.4155  0.3720
  781MPD2    C211571   3.894   4.168  12.147 -0.3709 -0.2329 -0.0509
  781MPD2    C311572   3.929   4.275  12.062  0.1447 -0.4451  0.0099
  781MPD2    C411573   3.869   4.394  12.066 -0.2889  0.6010  0.6495
  781MPD2    C511574   3.771   4.418  12.158 -0.8402 -0.8090 -0.0733
  781MPD2     H11575   3.939   4.071  12.129  1.8341  0.8072 -0.1760
  781MPD2    H111576   3.884   4.476  11.997  1.8132 -0.9415 -0.7067
  781MPD2    H211577   3.645   4.332  12.302 -2.5238 -2.8449 -2.4661
  781MPD2    H311578   3.723   4.515  12.170  2.7639  0.9437  0.1683
  781MPD2     N11579   4.032   4.265  11.968  0.3761 -0.0314  0.7909
  781MPD2    H511580   4.051   4.353  11.921  1.8296 -0.7444  0.0141
  781MPD2    N111581   3.736   4.097  12.327  0.0629 -0.1332 -0.5843
  781MPD2    H711582   3.650   4.129  12.370  2.0340  1.5359  2.1227
  782MPD2     C11583   2.004   0.227  10.324 -0.4611  0.0595  0.1038
  782MPD2    C111584   2.136   0.220  10.364  0.1853 -0.7527  0.2326
  782MPD2    C211585   2.176   0.310  10.461 -0.0881  0.2269 -0.6115
  782MPD2    C311586   2.095   0.409  10.521  0.2255 -0.0710  0.4570
  782MPD2    C411587   1.967   0.419  10.469  0.0864  0.3606  0.2209
  782MPD2    C511588   1.931   0.340  10.367 -0.2991 -0.2842  1.0622
  782MPD2     H11589   2.281   0.295  10.486 -0.3548  0.1850  0.4778
  782MPD2    H111590   1.901   0.495  10.507  0.6071  0.4525  0.9435
  782MPD2    H211591   1.958   0.146  10.270 -0.7137 -0.5434  1.2251
  782MPD2    H311592   1.828   0.357  10.337  0.2731  1.0614 -0.1005
  782MPD2     N11593   2.139   0.505  10.611 -0.3333 -0.5081  0.8406
  782MPD2    H511594   2.239   0.509  10.631  0.0786  0.0681 -1.3725
  782MPD2    N111595   2.206   0.107  10.323  0.1408 -0.3343  0.2767
  782MPD2    H711596   2.154   0.035  10.275  1.4801 -1.9015  1.1946
  783MPD2     C11597   1.816   4.271  10.763 -0.0669  0.3136 -0.9923
  783MPD2    C111598   1.891   4.379  10.804 -0.1461 -0.5193  0.6542
  783MPD2    C211599   2.004   4.425  10.735  0.1440  0.1578 -0.1882
  783MPD2    C311600   2.045   4.359  10.628 -1.1276 -0.3508  0.3391
  783MPD2    C411601   1.961   4.264  10.569 -0.1873 -0.2738  0.2953
  783MPD2    C511602   1.847   4.222  10.636 -0.0464  0.7918 -0.9403
  783MPD2     H11603   2.065   4.510  10.762 -0.5246  0.8172 -0.7512
  783MPD2    H111604   1.990   4.218  10.476 -1.1218  0.9537 -0.6140
  783MPD2    H211605   1.729   4.247  10.823  0.5548 -0.4422 -0.3815
  783MPD2    H311606   1.782   4.152  10.585 -1.9899  2.6943 -1.0694
  783MPD2     N11607   2.160   4.402  10.563  0.1371  0.7092  0.0276
  783MPD2    H511608   2.200   4.488  10.600 -0.3141  1.3014 -0.8608
  783MPD2    N111609   1.850   4.437  10.924  0.4686  0.1271 -0.1886
  783MPD2    H711610   1.758   4.406  10.952 -0.6511  0.9071 -2.9968
  784MPD2     C11611   0.063   4.517   0.545  0.5604 -0.2196 -0.0975
  784MPD2    C111612   0.085   4.618   0.635 -1.2862  0.7134 -0.0527
  784MPD2    C211613   4.730   4.719   0.650  0.2480  0.4531  0.4872
  784MPD2    C311614   4.601   4.714   0.594  0.6958  0.0245  0.2360
  784MPD2    C411615   4.587   4.618   0.489  0.4993  0.1013 -1.1852
  784MPD2    C511616   4.685   4.528   0.466  1.1110 -0.5979  0.4774
  784MPD2     H11617   0.003   0.041   0.740 -0.4679 -0.6094  1.2573
  784MPD2    H111618   4.495   4.614   0.432  0.2624  1.5475 -0.9057
  784MPD2    H211619   0.138   4.444   0.514  1.7409  0.4236  1.2591
  784MPD2    H311620   4.666   4.444   0.401 -0.3725  0.0672  0.0457
  784MPD2     N11621   4.500   0.069   0.634 -0.0517  0.0284 -0.0396
  784MPD2    H511622   4.533   0.144   0.694  0.2954  0.9310 -1.3660
  784MPD2    N111623   0.205   4.621   0.714  0.1099  0.4167 -0.0053
  784MPD2    H711624   0.214   4.698   0.780  2.9850 -0.9180  1.1665
  785MPD2     C11625   4.539   2.879  10.544  0.1081  0.7956  0.6110
  785MPD2    C111626   4.503   3.000  10.599  0.1588  0.2668  0.0773
  785MPD2    C211627   4.383   3.053  10.578  0.8385 -0.3411 -0.3803
  785MPD2    C311628   4.291   2.998  10.495  0.2428  0.1774  0.4130
  785MPD2    C411629   4.331   2.883  10.423  0.2219  0.7480 -0.3809
  785MPD2    C511630   4.458   2.835  10.441 -0.0130  0.2170 -0.2465
  785MPD2     H11631   4.363   3.146  10.629  2.3397 -0.3446  0.2294
  785MPD2    H111632   4.267   2.831  10.353  0.4394  1.5682 -1.1972
  785MPD2    H211633   4.627   2.818  10.561  0.3957  0.8256 -0.7853
  785MPD2    H311634   4.477   2.735  10.402 -0.6355  1.3154 -3.3814
  785MPD2     N11635   4.170   3.069  10.483 -0.1241 -1.0350  0.7274
  785MPD2    H511636   4.161   3.148  10.546 -0.0780 -0.1803 -0.3470
  785MPD2    N111637   4.591   3.062  10.689 -0.1806  0.1022  0.1907
  785MPD2    H711638   4.554   3.151  10.722 -1.0830 -0.6446  1.1584
  786MPD2     C11639   3.023   0.948  15.005 -0.4535 -0.6279 -0.3131
  786MPD2    C111640   3.158   0.947  14.966  0.6886  0.1434  0.0107
  786MPD2    C211641   3.251   0.969  15.070 -0.0227 -1.0912  0.7793
  786MPD2    C311642   3.215   0.968  15.202 -0.4321  0.0819  0.2409
  786MPD2    C411643   3.083   0.948  15.231 -0.5529  0.4546  0.3523
  786MPD2    C511644   2.988   0.949  15.133  0.4716 -0.0226 -0.0259
  786MPD2     H11645   3.358   0.962  15.051 -0.0555 -1.3936  0.7188
  786MPD2    H111646   3.042   0.942  15.331  1.5708  0.7479  1.2410
  786MPD2    H211647   2.936   0.940  14.940  1.6417 -1.9839 -2.9641
  786MPD2    H311648   2.884   0.953  15.164  0.5325 -0.0592  0.1864
  786MPD2     N11649   3.309   0.966  15.309 -0.0980  0.4830  0.0009
  786MPD2    H511650   3.266   0.951  15.400 -0.7976  3.0877  0.0969
  786MPD2    N111651   3.213   0.922  14.836 -0.0387 -0.2750 -0.2935
  786MPD2    H711652   3.312   0.932  14.818 -0.2101  0.6711 -0.7256
  787MPD2     C11653   3.298   0.199  14.549  0.2395 -0.0377  0.1305
  787MPD2    C111654   3.373   0.302  14.594 -0.0261  0.8081 -0.0161
  787MPD2    C211655   3.481   0.269  14.680  0.7253 -0.4165  0.4855
  787MPD2    C311656   3.511   0.138  14.706 -0.2412 -0.3432  0.0125
  787MPD2    C411657   3.437   0.043  14.653  0.0307 -0.2459  0.6005
  787MPD2    C511658   3.321   0.071  14.583  0.3875 -0.6081 -0.3164
  787MPD2     H11659   3.544   0.342  14.731  1.2039 -1.2211  1.0475
  787MPD2    H111660   3.448   4.672  14.662  3.0164 -0.0528 -0.6535
  787MPD2    H211661   3.208   0.221  14.493 -0.1432 -2.7678 -0.3260
  787MPD2    H311662   3.261   4.725  14.548  0.2340 -1.0134  0.9321
  787MPD2     N11663   3.624   0.113  14.789 -0.6030  0.4867  0.6395
  787MPD2    H511664   3.699   0.181  14.798 -0.5133  0.5651 -0.7351
  787MPD2    N111665   3.338   0.431  14.545  1.2724 -0.9508 -0.2728
  787MPD2    H711666   3.258   0.428  14.482  1.6038 -1.5488 -0.6664
  788MPD2     C11667   0.931   4.673   0.983 -0.0436  0.5710  0.5750
  788MPD2    C111668   0.919   4.585   0.875  0.3527  0.0756  0.2444
  788MPD2    C211669   0.883   4.632   0.754  0.2086  0.7914 -0.5798
  788MPD2    C311670   0.857   0.024   0.724  0.4514  0.1624  0.4569
  788MPD2    C411671   0.866   0.110   0.832 -0.0628 -0.2519 -0.4950
  788MPD2    C511672   0.897   0.067   0.958  0.2936  0.2091 -0.5697
  788MPD2     H11673   0.880   4.557   0.676 -0.5915  0.3613 -0.1307
  788MPD2    H111674   0.847   0.216   0.815  1.4727  0.2067  0.6491
  788MPD2    H211675   0.957   4.644   1.084  1.6566 -1.2834 -0.4103
  788MPD2    H311676   0.912   0.143   1.033 -0.4437 -1.0214  0.8124
  788MPD2     N11677   0.849   0.073   0.590 -0.0785  0.1850 -0.2277
  788MPD2    H511678   0.795   0.159   0.585 -2.0231 -1.1015 -1.4304
  788MPD2    N111679   0.925   4.443   0.884  0.1361  0.6503  0.1025
  788MPD2    H711680   0.897   4.386   0.805  0.7967 -0.2018  0.4865
  789MPD2     C11681   1.212   3.966  16.738 -0.2408 -0.8714  0.2736
  789MPD2    C111682   1.135   4.005  16.634 -0.0991 -0.1333 -0.4346
  789MPD2    C211683   1.042   4.104  16.662 -0.9330 -0.1736 -0.1464
  789MPD2    C311684   1.033   4.163  16.790  0.7211 -0.4536  0.0731
  789MPD2    C411685   1.118   4.118  16.890 -0.1921  0.2835 -0.4499
  789MPD2    C511686   1.215   4.025  16.860  0.2562  0.3103  0.1185
  789MPD2     H11687   0.974   4.135  16.583 -0.6007  0.3267 -0.2363
  789MPD2    H111688   1.125   4.150  16.994 -0.2623 -2.6837  0.4541
  789MPD2    H211689   1.281   3.884  16.723 -0.6015 -1.3362  1.2101
  789MPD2    H311690   1.289   4.004  16.936  2.2457  0.1671 -1.8438
  789MPD2     N11691   0.932   4.259  16.833  0.1190 -0.0732  0.6574
  789MPD2    H511692   0.925   4.281  16.931 -1.3161 -1.2212  0.8191
  789MPD2    N111693   1.139   3.957  16.493 -0.4725  0.3374 -0.0125
  789MPD2    H711694   1.075   4.004  16.429  0.0407 -0.9327 -1.4615
  790MPD2     C11695   2.098   0.635  13.713 -0.6504 -0.1930 -0.5796
  790MPD2    C111696   2.157   0.595  13.601  0.8040 -0.4355 -0.1019
  790MPD2    C211697   2.078   0.588  13.487  0.0855  0.4604 -0.1928
  790MPD2    C311698   1.941   0.621  13.489  0.5669 -0.4354  0.6727
  790MPD2    C411699   1.881   0.653  13.612  0.2316 -0.0587 -0.2994
  790MPD2    C511700   1.963   0.657  13.723  0.0338 -0.0252 -0.2900
  790MPD2     H11701   2.114   0.571  13.386 -0.2859 -1.6892  0.0379
  790MPD2    H111702   1.782   0.696  13.620 -0.5225 -1.3545 -2.6695
  790MPD2    H211703   2.155   0.639  13.806 -0.5305  0.4996 -0.6811
  790MPD2    H311704   1.923   0.705  13.812  1.5021  1.8685 -0.6409
  790MPD2     N11705   1.876   0.623  13.370 -0.1316 -0.0530  0.0339
  790MPD2    H511706   1.929   0.588  13.291  2.1566  1.1393  1.0486
  790MPD2    N111707   2.293   0.570  13.596  0.5212 -0.2391 -0.1460
  790MPD2    H711708   2.345   0.606  13.675  0.7500  0.7324 -0.7284
  791MPD2     C11709   1.072   0.652  12.912  0.0788 -0.4304 -0.0205
  791MPD2    C111710   1.148   0.547  12.961 -0.2562  0.1147 -0.3844
  791MPD2    C211711   1.096   0.415  12.948  0.6626 -0.3136  0.0129
  791MPD2    C311712   0.965   0.401  12.897  1.0041 -0.1623 -0.2551
  791MPD2    C411713   0.881   0.510  12.876 -0.1532  0.8147  0.8455
  791MPD2    C511714   0.936   0.634  12.874 -0.0595  0.4550 -0.1406
  791MPD2     H11715   1.151   0.326  12.979 -0.6605 -0.3125  2.3318
  791MPD2    H111716   0.778   0.483  12.853  0.9234 -1.0210 -1.7423
  791MPD2    H211717   1.120   0.749  12.905  0.9887 -0.8324  0.7462
  791MPD2    H311718   0.880   0.723  12.849  0.5004  0.7179 -0.4573
  791MPD2     N11719   0.904   0.279  12.892  0.0439 -0.3655  0.1662
  791MPD2    H511720   0.803   0.282  12.893  0.0474 -0.3860  1.7192
  791MPD2    N111721   1.276   0.583  13.014  0.3367 -0.6371 -0.2591
  791MPD2    H711722   1.302   0.681  13.017  0.6178 -0.7399  0.5636
  792MPD2     C11723   1.961   0.903  11.593  0.2003 -0.3944  0.8947
  792MPD2    C111724   1.920   0.984  11.487 -0.3624  0.9249 -0.5523
  792MPD2    C211725   1.791   0.976  11.443  1.1332 -0.4381 -0.6664
  792MPD2    C311726   1.700   0.887  11.504 -0.0973  0.1505 -0.2223
  792MPD2    C411727   1.748   0.808  11.600  0.6960  0.5818  0.5089
  792MPD2    C511728   1.874   0.816  11.646  0.6655 -0.2328 -0.2300
  792MPD2     H11729   1.756   1.041  11.363  3.2485  1.4042 -0.1098
  792MPD2    H111730   1.684   0.733  11.646  2.5563 -0.0318  2.0863
  792MPD2    H211731   2.061   0.913  11.633  0.3601 -2.3618  0.9590
  792MPD2    H311732   1.902   0.761  11.735  1.2796  2.6658  1.4021
  792MPD2     N11733   1.567   0.860  11.455  0.5411  0.6294  0.0153
  792MPD2    H511734   1.510   0.804  11.518 -0.6548  1.7595 -0.0602
  792MPD2    N111735   2.011   1.080  11.431 -0.0305  0.0443  0.8679
  792MPD2    H711736   2.108   1.083  11.462 -0.1582 -0.4772  1.3157
  793MPD2     C11737   1.471   0.975  10.619  0.2820 -0.3881 -0.0977
  793MPD2    C111738   1.526   1.053  10.720  0.0181  0.5751  0.3640
  793MPD2    C211739   1.458   1.049  10.841 -0.9757  0.3367 -0.3079
  793MPD2    C311740   1.340   0.981  10.861  0.0599  0.2025  0.4279
  793MPD2    C411741   1.283   0.914  10.762 -0.3356  0.3809 -0.4185
  793MPD2    C511742   1.348   0.913  10.639  0.1395  0.3208 -0.1537
  793MPD2     H11743   1.492   1.107  10.925 -1.6032 -1.2360  1.0251
  793MPD2    H111744   1.191   0.859  10.780 -0.5020  0.7416 -0.1672
  793MPD2    H211745   1.513   0.968  10.519  1.9484 -1.1716  0.6445
  793MPD2    H311746   1.292   0.865  10.559 -1.8980  0.4799  1.1711
  793MPD2     N11747   1.279   0.995  10.986 -1.2468 -0.8428 -0.7802
  793MPD2    H511748   1.331   1.055  11.050 -0.9832 -1.0081 -0.8362
  793MPD2    N111749   1.643   1.128  10.711  0.0398  0.0902  0.1397
  793MPD2    H711750   1.679   1.175  10.793 -0.6543  2.0743 -0.6919
  794MPD2     C11751   1.908   0.167  16.992 -0.6984 -0.7510  0.2974
  794MPD2    C111752   1.787   0.122  17.039  0.3389 -0.2289  0.2108
  794MPD2    C211753   1.676   0.122  16.950  0.4536  0.0512 -0.2856
  794MPD2    C311754   1.683   0.191  16.827 -0.1637  0.6489 -0.4177
  794MPD2    C411755   1.811   0.232  16.784 -0.4935  0.8077 -0.7216
  794MPD2    C511756   1.922   0.223  16.868 -0.4364  0.0423 -0.3512
  794MPD2     H11757   1.583   0.077  16.981  1.4593 -0.8156  1.4843
  794MPD2    H111758   1.823   0.269  16.683 -0.6943  1.1624 -0.6166
  794MPD2    H211759   2.000   0.144  17.046 -0.7792 -1.6806  0.0369
  794MPD2    H311760   2.018   0.255  16.830  0.6184 -0.5995  1.7882
  794MPD2     N11761   1.569   0.189  16.734  0.1891  0.3161  0.1557
  794MPD2    H511762   1.585   0.228  16.642  3.3916  1.2866  1.1380
  794MPD2    N111763   1.771   0.059  17.164  0.2897 -0.3572 -0.7905
  794MPD2    H711764   1.680   0.020  17.184 -0.2369  0.0565 -2.3525
  795MPD2     C11765   3.834   2.124  14.011  0.2478 -0.2608  0.1031
  795MPD2    C111766   3.880   2.051  13.900  0.0171  0.0878  0.2038
  795MPD2    C211767   3.972   1.952  13.927 -0.5592  0.1665  0.5237
  795MPD2    C311768   4.009   1.918  14.058 -0.3155 -0.5440  0.6076
  795MPD2    C411769   3.969   1.996  14.164 -0.7521  0.1089 -0.4013
  795MPD2    C511770   3.892   2.103  14.132  0.5263  0.0338  0.1255
  795MPD2     H11771   4.033   1.907  13.849  0.2658 -1.1930  1.9375
  795MPD2    H111772   4.008   1.987  14.265 -2.0486  1.3963  0.2134
  795MPD2    H211773   3.775   2.214  14.000  0.8303 -0.2277 -2.6541
  795MPD2    H311774   3.860   2.166  14.215  0.2554  0.9438 -0.6721
  795MPD2     N11775   4.105   1.816  14.076  0.1535 -0.2892  0.3135
  795MPD2    H511776   4.169   1.797  13.999  0.2035  0.5939  0.1271
  795MPD2    N111777   3.843   2.089  13.767 -0.0036  0.2275 -0.2610
  795MPD2    H711778   3.855   2.022  13.691  0.8185  1.5917 -1.3268
  796MPD2     C11779   3.538   3.532  15.816 -0.2760 -0.3034  0.1301
  796MPD2    C111780   3.648   3.602  15.859  0.0598  0.2323 -0.2380
  796MPD2    C211781   3.631   3.735  15.899  0.1495 -0.5630  0.4503
  796MPD2    C311782   3.508   3.793  15.880 -0.3835 -0.0451  0.1514
  796MPD2    C411783   3.396   3.720  15.837 -0.7904  0.1209 -0.2529
  796MPD2    C511784   3.418   3.591  15.807 -0.5936 -0.5896 -0.4566
  796MPD2     H11785   3.712   3.802  15.926 -0.5755  0.2671  0.5897
  796MPD2    H111786   3.296   3.762  15.832 -0.0436  2.0967  1.3705
  796MPD2    H211787   3.551   3.430  15.780 -1.3500  0.0166 -1.1835
  796MPD2    H311788   3.342   3.533  15.756 -0.9075 -0.0217 -0.6252
  796MPD2     N11789   3.503   3.926  15.905  0.1841  0.0546  0.2797
  796MPD2    H511790   3.585   3.960  15.953  0.3208 -1.5000  1.1413
  796MPD2    N111791   3.773   3.531  15.865  0.8006  0.1052  0.5367
  796MPD2    H711792   3.767   3.433  15.842 -0.0950  0.1997  0.3707
  797MPD2     C11793   4.435   3.410  17.137  0.0603 -0.2285  0.0938
  797MPD2    C111794   4.450   3.545  17.157  0.4251  0.1437 -0.1726
  797MPD2    C211795   4.372   3.633  17.083 -0.6955 -0.2400  0.8343
  797MPD2    C311796   4.284   3.593  16.986  0.0638  0.3901  0.6159
  797MPD2    C411797   4.269   3.459  16.973  0.1441 -0.0743  0.2101
  797MPD2    C511798   4.347   3.370  17.043 -0.0019  0.4749 -0.1101
  797MPD2     H11799   4.405   3.737  17.080  4.4582 -2.0445 -4.0560
  797MPD2    H111800   4.199   3.426  16.896  0.2113 -0.7805  0.4568
  797MPD2    H211801   4.487   3.338  17.199 -2.7202 -0.4628  2.1575
  797MPD2    H311802   4.336   3.264  17.022 -0.4286  0.4695  0.1463
  797MPD2     N11803   4.214   3.690  16.910  0.3327  0.3830 -1.3382
  797MPD2    H511804   4.179   3.661  16.819  1.2964 -1.5504 -1.0945
  797MPD2    N111805   4.552   3.602  17.233  0.5923 -0.2703 -0.4265
  797MPD2    H711806   4.553   3.703  17.236 -2.5485 -0.2583  0.9417
  798MPD2     C11807   4.209   4.222  17.332 -0.0035  0.0161  0.1116
  798MPD2    C111808   4.281   4.174  17.221 -0.3305  0.3279  0.3733
  798MPD2    C211809   4.400   4.115  17.244  0.3424  0.1412  0.4508
  798MPD2    C311810   4.443   4.084  17.371  0.3007 -0.5484  0.4421
  798MPD2    C411811   4.371   4.119  17.483  0.4420 -0.0057 -0.4502
  798MPD2    C511812   4.264   4.197  17.453  0.3906 -0.0957  0.2584
  798MPD2     H11813   4.461   4.079  17.162 -0.1786 -1.6121  0.8325
  798MPD2    H111814   4.396   4.097  17.586  0.0654  1.0167 -0.1369
  798MPD2    H211815   4.116   4.277  17.319  1.3583  2.3065  0.1172
  798MPD2    H311816   4.204   4.231  17.537 -0.2528  0.5006 -0.4320
  798MPD2     N11817   4.568   4.020  17.379  0.3420 -0.7289 -0.2463
  798MPD2    H511818   4.610   3.995  17.290 -0.5815 -1.2094 -0.5449
  798MPD2    N111819   4.220   4.193  17.098  0.6940  0.1306  0.0427
  798MPD2    H711820   4.121   4.209  17.105  0.5562 -0.1645 -1.1202
  799MPD2     C11821   3.899   4.687  14.544  0.0984 -0.3694  0.3499
  799MPD2    C111822   3.772   4.639  14.513 -0.0137 -0.0903 -0.4489
  799MPD2    C211823   3.679   4.717  14.451 -0.2949 -0.2552 -0.4593
  799MPD2    C311824   3.711   0.112  14.419  0.0305  0.2124  0.2051
  799MPD2    C411825   3.833   0.160  14.454  0.3262  0.0974  0.8096
  799MPD2    C511826   3.924   0.081  14.521  0.6026 -0.5846  0.7497
  799MPD2     H11827   3.586   4.675  14.415 -1.2703  1.1749  0.4547
  799MPD2    H111828   3.851   0.266  14.450  0.1578  0.0676 -0.5060
  799MPD2    H211829   3.964   4.627  14.607  1.2289 -0.3608 -0.8206
  799MPD2    H311830   4.017   0.123  14.557  0.0675 -1.0916  2.7051
  799MPD2     N11831   3.624   0.206  14.363  0.2217  0.4514  0.3752
  799MPD2    H511832   3.650   0.305  14.367 -0.3198  0.5626  0.9830
  799MPD2    N111833   3.731   4.513  14.558  0.6591  0.6137 -0.6192
  799MPD2    H711834   3.634   4.485  14.548  0.7465 -0.4640  1.5361
  800MPD2     C11835   4.002   0.896  14.408  0.7451  0.5879 -0.3874
  800MPD2    C111836   4.140   0.865  14.409  1.1517  0.2584  0.0531
  800MPD2    C211837   4.197   0.805  14.298  0.0168 -0.0184  0.8610
  800MPD2    C311838   4.116   0.774  14.188  0.3270 -0.5341 -0.3400
  800MPD2    C411839   3.985   0.816  14.184 -0.3665  0.4403 -0.0526
  800MPD2    C511840   3.923   0.860  14.300 -0.3312  0.4084  0.6227
  800MPD2     H11841   4.301   0.775  14.291 -0.4699 -1.2499 -0.9913
  800MPD2    H111842   3.925   0.808  14.094 -0.5251 -0.1178  0.1048
  800MPD2    H211843   3.956   0.952  14.488  1.9577  0.0037  0.7322
  800MPD2    H311844   3.821   0.895  14.305 -0.9324 -1.2182 -0.1910
  800MPD2     N11845   4.177   0.705  14.085  0.4801  0.1879 -0.7467
  800MPD2    H511846   4.276   0.690  14.105  0.3238 -0.0458 -0.1467
  800MPD2    N111847   4.213   0.890  14.530 -0.3341  0.0422  0.0367
  800MPD2    H711848   4.169   0.943  14.604 -1.4889  1.0160 -1.3369
  801MPD2     C11849   4.324   1.328  15.032 -0.3011 -0.4509 -0.8545
  801MPD2    C111850   4.264   1.307  14.905 -0.2742  0.9840  0.2291
  801MPD2    C211851   4.128   1.337  14.891  0.1775  0.4266  0.2911
  801MPD2    C311852   4.050   1.372  14.999  0.4010  0.4474 -0.2045
  801MPD2    C411853   4.112   1.395  15.117 -0.2416  0.1810  0.1440
  801MPD2    C511854   4.243   1.366  15.136 -0.4514  0.5591  0.2127
  801MPD2     H11855   4.090   1.324  14.790  0.4689  0.7000  0.1448
  801MPD2    H111856   4.055   1.416  15.207  0.6062 -0.7589  0.9094
  801MPD2    H211857   4.426   1.299  15.055 -0.2461  0.6606  0.3103
  801MPD2    H311858   4.283   1.359  15.236  0.5725 -0.3319 -0.2603
  801MPD2     N11859   3.911   1.388  15.000 -1.2994  0.5519  0.4930
  801MPD2    H511860   3.873   1.429  15.085 -1.1673 -0.5911  1.1005
  801MPD2    N111861   4.343   1.257  14.800 -0.2490  0.6081  0.7483
  801MPD2    H711862   4.297   1.232  14.712  0.0035  0.0504  0.7723
  802MPD2     C11863   3.392   2.894   0.527 -0.8905 -0.0603 -0.2613
  802MPD2    C111864   3.458   2.802   0.605  0.4020  0.1680 -0.1450
  802MPD2    C211865   3.469   2.676   0.560 -0.1634 -0.0248  0.4051
  802MPD2    C311866   3.440   2.640   0.424  0.0959  0.1344  0.3140
  802MPD2    C411867   3.387   2.732   0.345 -0.6984  0.2756  0.7327
  802MPD2    C511868   3.365   2.862   0.397 -0.0792  0.2252  0.2824
  802MPD2     H11869   3.499   2.597   0.628 -3.8066 -0.3513  1.6479
  802MPD2    H111870   3.368   2.727   0.238 -2.0102  2.8978  0.8173
  802MPD2    H211871   3.397   2.998   0.559  1.2293 -0.7253  1.5538
  802MPD2    H311872   3.328   2.938   0.329  1.4885 -0.4161 -1.2804
  802MPD2     N11873   3.462   2.506   0.387  0.9072  0.5370 -0.1720
  802MPD2    H511874   3.471   2.438   0.461 -0.9600  1.5230  0.9505
  802MPD2    N111875   3.499   2.817   0.744 -0.2528 -0.3107  0.0925
  802MPD2    H711876   3.544   2.733   0.780  0.4936 -1.0532 -2.5610
  803MPD2     C11877   4.218   0.470  12.555  0.5218 -0.9276 -0.1409
  803MPD2    C111878   4.338   0.540  12.563  0.2818 -0.8787  0.1442
  803MPD2    C211879   4.421   0.523  12.671 -0.1457  0.2840 -0.5460
  803MPD2    C311880   4.391   0.439  12.774 -0.2926 -0.1650  0.0814
  803MPD2    C411881   4.273   0.365  12.754  0.3203  0.5128  0.4689
  803MPD2    C511882   4.185   0.392  12.654 -0.0365  0.5980  0.2907
  803MPD2     H11883   4.513   0.581  12.671 -0.1116  0.2065  2.4501
  803MPD2    H111884   4.239   0.291  12.825 -0.3125  0.7651  0.4266
  803MPD2    H211885   4.149   0.496  12.476 -1.5928 -0.2688  1.9419
  803MPD2    H311886   4.096   0.329  12.650  0.2580  0.2285 -0.4814
  803MPD2     N11887   4.471   0.419  12.894 -0.2014  0.2078  0.1146
  803MPD2    H511888   4.429   0.360  12.965  0.5864 -1.2177 -0.6152
  803MPD2    N111889   4.376   0.626  12.455  0.3659  0.5298 -0.0913
  803MPD2    H711890   4.467   0.668  12.469  0.1062  1.1507 -0.2757
  804MPD2     C11891   4.180   1.958  17.223 -0.1396  0.2817  0.6038
  804MPD2    C111892   4.196   1.928  17.354  0.5742  0.3251 -0.1937
  804MPD2    C211893   4.261   2.015  17.436 -0.1293 -0.4552  0.0280
  804MPD2    C311894   4.326   2.124  17.374 -0.9759  0.1641  0.1603
  804MPD2    C411895   4.301   2.153  17.243  0.0543 -0.3030 -0.5402
  804MPD2    C511896   4.235   2.066  17.164  0.0992  0.0529 -0.4065
  804MPD2     H11897   4.267   1.991  17.541  0.1360  2.1474  0.6112
  804MPD2    H111898   4.336   2.243  17.194  1.1885 -0.2803  0.3057
  804MPD2    H211899   4.112   1.897  17.164  1.4075 -0.0239 -0.8656
  804MPD2    H311900   4.222   2.090  17.059  0.6302  0.1319 -0.4527
  804MPD2     N11901   4.394   2.213  17.463 -0.2088 -0.0472 -0.0788
  804MPD2    H511902   4.378   2.216  17.564  1.5245  0.3469  0.1852
  804MPD2    N111903   4.138   1.816  17.416 -0.1915  0.8324  0.0872
  804MPD2    H711904   4.134   1.806  17.517 -1.3449  2.5099  0.2072
  805MPD2     C11905   3.113   0.030  15.543  0.2553  0.1886  0.2935
  805MPD2    C111906   3.181   0.122  15.468  0.0338 -0.2618  0.0286
  805MPD2    C211907   3.300   0.157  15.511  0.9228  0.4968 -0.5666
  805MPD2    C311908   3.351   0.096  15.627 -0.6139  0.5756 -0.1065
  805MPD2    C411909   3.281   4.734  15.699  0.4171  0.0983  1.0958
  805MPD2    C511910   3.155   4.704  15.656 -0.3440  0.0245  0.2392
  805MPD2     H11911   3.352   0.234  15.455  1.3386  0.7417  0.1512
  805MPD2    H111912   3.318   4.680  15.785  0.5671 -0.8355  0.4504
  805MPD2    H211913   3.012   0.006  15.511 -0.1302  1.2396  0.7056
  805MPD2    H311914   3.105   4.622  15.706  1.1225 -0.5493  0.7359
  805MPD2     N11915   3.472   0.143  15.671 -0.3190  0.0947 -0.1358
  805MPD2    H511916   3.503   0.221  15.614  0.4631 -0.3143 -0.2609
  805MPD2    N111917   3.139   0.170  15.340 -0.0819  0.1923 -0.2862
  805MPD2    H711918   3.202   0.231  15.288 -0.1369  0.2816 -0.2484
  806MPD2     C11919   3.618   4.355   0.309  0.1252  0.5576  0.2078
  806MPD2    C111920   3.643   4.465   0.393  0.2339  0.1390  0.1335
  806MPD2    C211921   3.684   4.585   0.335 -0.4726 -0.6117  0.3238
  806MPD2    C311922   3.701   4.598   0.196 -0.3681 -0.9059  0.1113
  806MPD2    C411923   3.675   4.488   0.116  0.0078  0.0320  0.3225
  806MPD2    C511924   3.661   4.363   0.180  0.5563  0.8944 -0.2127
  806MPD2     H11925   3.695   4.674   0.395  0.8776 -0.9577  0.5805
  806MPD2    H111926   3.690   4.473   0.009 -1.2556  2.6027 -0.2058
  806MPD2    H211927   3.590   4.265   0.363 -0.2701 -0.3695 -1.5484
  806MPD2    H311928   3.646   4.275   0.119 -0.8547  1.5431 -0.8080
  806MPD2     N11929   3.742   4.727   0.152 -0.0495  0.2309  0.2325
  806MPD2    H511930   3.734   0.068   0.217 -0.9237  0.0448  0.3584
  806MPD2    N111931   3.611   4.449   0.525  0.1043  0.1063 -0.1719
  806MPD2    H711932   3.575   4.359   0.557 -1.7552  1.0547  0.4026
  807MPD2     C11933   3.255   3.982   0.945 -0.0246  0.5366  0.7295
  807MPD2    C111934   3.360   4.027   1.023  0.1341 -0.1021  0.3771
  807MPD2    C211935   3.394   3.960   1.137 -0.4173 -0.3460 -0.2588
  807MPD2    C311936   3.333   3.846   1.171  0.4224  0.2307  0.2137
  807MPD2    C411937   3.228   3.796   1.094  0.2638  0.4384  0.4749
  807MPD2    C511938   3.195   3.866   0.978 -0.0941 -0.2237 -0.7533
  807MPD2     H11939   3.478   3.993   1.197 -0.9926  0.6194  0.0176
  807MPD2    H111940   3.177   3.706   1.127 -0.6371  0.4973 -0.7964
  807MPD2    H211941   3.232   4.048   0.862  1.1505 -0.7227 -0.6016
  807MPD2    H311942   3.106   3.833   0.925 -1.8411  2.1679  0.7287
  807MPD2     N11943   3.380   3.784   1.286 -0.0146 -0.0693 -0.0533
  807MPD2    H511944   3.478   3.802   1.305 -0.2796  0.4391  0.8071
  807MPD2    N111945   3.439   4.142   0.995  0.0932  0.1265  0.2486
  807MPD2    H711946   3.517   4.161   1.057  0.4488 -1.8339  0.4087
  808MPD2     C11947   0.119   1.676  10.318  0.3892  0.1124 -0.2226
  808MPD2    C111948   0.036   1.712  10.418  0.2246  0.3449  0.2363
  808MPD2    C211949   0.036   1.844  10.454 -0.0906 -0.3133  0.4750
  808MPD2    C311950   0.114   1.940  10.399  0.3778  0.5930  0.5515
  808MPD2    C411951   0.203   1.901  10.298  0.6789 -0.0681  0.5533
  808MPD2    C511952   0.204   1.774  10.261  0.5191  0.2752  0.3070
  808MPD2     H11953   4.714   1.872  10.540 -1.3677  1.4187 -0.9433
  808MPD2    H111954   0.277   1.967  10.254 -1.5775  2.3214  0.3231
  808MPD2    H211955   0.132   1.577  10.277 -2.6237  0.5033 -2.1047
  808MPD2    H311956   0.267   1.739  10.181  1.9163  2.6528  0.3551
  808MPD2     N11957   0.121   2.079  10.436 -0.3757  0.8372  0.4563
  808MPD2    H511958   0.195   2.136  10.395 -1.2724  1.5282 -0.1957
  808MPD2    N111959   4.691   1.619  10.482  0.1782  0.3844  0.2539
  808MPD2    H711960   4.639   1.651  10.562 -0.5988  0.4948 -0.2984
  809MPD2     C11961   0.544   2.840  10.099 -0.1783 -0.0199 -0.5683
  809MPD2    C111962   0.511   2.712  10.055 -0.7556  0.2882 -0.2458
  809MPD2    C211963   0.405   2.652  10.119 -0.0384  0.2959  0.1124
  809MPD2    C311964   0.342   2.707  10.224  0.2737  0.2241  0.1900
  809MPD2    C411965   0.386   2.823  10.271 -0.1578 -0.2383 -0.4829
  809MPD2    C511966   0.489   2.886  10.218 -0.1342 -0.8144  0.2725
  809MPD2     H11967   0.381   2.552  10.084  0.2406  0.7430 -1.3392
  809MPD2    H111968   0.343   2.855  10.365  1.9135 -0.6367  0.6100
  809MPD2    H211969   0.637   2.884  10.066  0.1651  0.1031  0.5880
  809MPD2    H311970   0.529   2.980  10.254 -0.5817 -0.0464 -1.2376
  809MPD2     N11971   0.230   2.649  10.294 -0.1247  0.3448 -0.1111
  809MPD2    H511972   0.177   2.711  10.355 -1.9234 -0.1717 -1.1324
  809MPD2    N111973   0.570   2.640   9.950 -0.8586  0.3332 -0.4248
  809MPD2    H711974   0.531   2.549   9.926 -1.1351  0.7804 -1.6774
  810MPD2     C11975   4.140   1.137  10.971 -0.5668 -1.3414 -0.5440
  810MPD2    C111976   4.094   1.153  10.838  0.0865  0.2619 -0.6873
  810MPD2    C211977   4.049   1.279  10.800  0.4057  0.3115 -0.0956
  810MPD2    C311978   4.056   1.390  10.884 -0.2298  0.0320 -0.2784
  810MPD2    C411979   4.111   1.370  11.006  0.0448 -0.4701  0.3510
  810MPD2    C511980   4.143   1.244  11.056 -0.5655  0.4025 -0.3410
  810MPD2     H11981   4.008   1.293  10.700  2.1937 -0.9638 -1.0026
  810MPD2    H111982   4.133   1.442  11.083 -0.5325 -0.2021  0.2599
  810MPD2    H211983   4.179   1.041  11.002 -1.1619 -0.7446  2.0847
  810MPD2    H311984   4.187   1.235  11.155  0.1017  1.2046 -0.5583
  810MPD2     N11985   4.024   1.513  10.829 -0.5117 -0.3272 -0.4709
  810MPD2    H511986   3.968   1.516  10.744  0.9975 -0.8468 -1.4938
  810MPD2    N111987   4.079   1.052  10.738  0.1713 -0.2475 -0.6559
  810MPD2    H711988   4.047   1.081  10.646 -1.4235  1.7253  0.5177
  811MPD2     C11989   3.621   1.024  10.137 -0.4150  0.7984 -0.1674
  811MPD2    C111990   3.727   1.073  10.220  0.2786 -0.1755  1.1124
  811MPD2    C211991   3.741   1.209  10.247 -0.6659  0.4535 -0.1846
  811MPD2    C311992   3.655   1.295  10.183 -0.7563 -0.2120  0.4145
  811MPD2    C411993   3.557   1.247  10.098  0.0926 -0.6099 -0.3433
  811MPD2    C511994   3.537   1.114  10.078 -0.4840  0.1363 -0.5964
  811MPD2     H11995   3.812   1.251  10.317 -0.3731  0.0388 -0.2381
  811MPD2    H111996   3.489   1.311  10.042  1.3617  0.7136 -0.3549
  811MPD2    H211997   3.632   0.925  10.094  1.6582  0.0190  2.1538
  811MPD2    H311998   3.456   1.085  10.012 -0.5554 -0.5252 -0.2121
  811MPD2     N11999   3.672   1.434  10.211 -0.0472  0.5290 -0.6362
  811MPD2    H512000   3.753   1.450  10.271  0.6341 -0.0342 -1.4022
  811MPD2    N112001   3.824   0.990  10.271  0.0369  0.0767 -0.0042
  811MPD2    H712002   3.820   0.893  10.239 -1.5103  0.1244  0.0533
  812MPD2     C12003   2.161   0.937  12.009  0.1618  0.7132 -0.0484
  812MPD2    C112004   2.169   1.009  12.124  0.2555 -0.1351 -0.3422
  812MPD2    C212005   2.244   0.954  12.232  0.2923  0.2996  0.5273
  812MPD2    C312006   2.288   0.821  12.226 -0.0039 -0.1371 -0.1207
  812MPD2    C412007   2.290   0.760  12.106  0.0994 -0.2354  1.0626
  812MPD2    C512008   2.221   0.818  11.999  0.8726 -0.5748 -0.2646
  812MPD2     H12009   2.247   1.009  12.326  1.8801  0.5453  0.3267
  812MPD2    H112010   2.335   0.663  12.087 -3.2702 -1.0291 -2.8364
  812MPD2    H212011   2.112   0.968  11.917 -1.7248 -0.4196  0.5838
  812MPD2    H312012   2.221   0.764  11.905  0.6529 -1.7409  0.3996
  812MPD2     N12013   2.348   0.757  12.342 -0.3896 -0.3318 -1.0094
  812MPD2    H512014   2.366   0.818  12.422 -1.7368  0.5508 -1.3857
  812MPD2    N112015   2.097   1.133  12.128 -0.2219  0.2204 -0.2905
  812MPD2    H712016   2.054   1.168  12.044 -1.2193 -0.9464 -0.2717
  813MPD2     C12017   1.464   2.566  12.366 -1.0617  0.1716 -0.0018
  813MPD2    C112018   1.497   2.675  12.443 -0.3497  0.3906 -0.7859
  813MPD2    C212019   1.428   2.713  12.556 -0.0679  0.3160 -0.1953
  813MPD2    C312020   1.308   2.643  12.576  0.5916  0.8333 -0.3712
  813MPD2    C412021   1.277   2.530  12.503  0.0079  0.6741 -0.2194
  813MPD2    C512022   1.351   2.493  12.392  0.1529  0.0981 -0.2608
  813MPD2     H12023   1.461   2.802  12.608 -0.5315  0.8783 -0.8676
  813MPD2    H112024   1.181   2.481  12.515  0.6975 -0.8303 -0.9012
  813MPD2    H212025   1.512   2.569  12.269  1.0136  0.6892  1.0492
  813MPD2    H312026   1.315   2.411  12.331 -0.1854  0.3892 -0.4553
  813MPD2     N12027   1.234   2.689  12.683 -0.4898  0.3735  0.6802
  813MPD2    H512028   1.276   2.763  12.737 -2.4087  0.7731  1.5985
  813MPD2    N112029   1.607   2.753  12.397  0.4304  0.0584 -0.5007
  813MPD2    H712030   1.672   2.706  12.335 -0.9025 -2.2118 -0.1744
  814MPD2     C12031   2.314   4.128  12.164 -0.2237 -0.4449 -0.3272
  814MPD2    C112032   2.283   4.182  12.044  0.1784 -0.0999 -0.4893
  814MPD2    C212033   2.313   4.313  12.026 -0.1702  0.0628  0.8728
  814MPD2    C312034   2.385   4.387  12.122 -0.3470 -0.4621  0.1511
  814MPD2    C412035   2.430   4.329  12.236 -0.7458 -0.3780  0.1535
  814MPD2    C512036   2.392   4.195  12.254 -0.3055  0.2518  0.0624
  814MPD2     H12037   2.280   4.364  11.936  1.2974  0.2794  0.4533
  814MPD2    H112038   2.479   4.390  12.311  1.6344 -1.7590 -0.2601
  814MPD2    H212039   2.292   4.024  12.186 -0.5887 -0.2057  0.4517
  814MPD2    H312040   2.427   4.135  12.337 -0.0279 -0.0829 -0.2956
  814MPD2     N12041   2.403   4.531  12.107 -0.0538  0.1649 -0.2801
  814MPD2    H512042   2.440   4.592  12.179  1.3153 -1.8662  0.7130
  814MPD2    N112043   2.223   4.124  11.932 -0.4523 -0.4593  0.3666
  814MPD2    H712044   2.199   4.181  11.852  0.7182 -1.4845 -0.7199
  815MPD2     C12045   2.534   2.265  12.527 -0.5549  0.4422  0.4917
  815MPD2    C112046   2.501   2.289  12.391  0.0319  0.7898 -0.1825
  815MPD2    C212047   2.370   2.265  12.355 -0.6851  0.0156 -1.0444
  815MPD2    C312048   2.272   2.212  12.439 -0.3050 -0.5577  0.3392
  815MPD2    C412049   2.298   2.205  12.571  0.3798  0.2251  0.0376
  815MPD2    C512050   2.429   2.219  12.612 -0.5807 -0.9777 -0.2040
  815MPD2     H12051   2.357   2.255  12.248 -0.0974 -0.9586 -1.0257
  815MPD2    H112052   2.229   2.169  12.645  0.7333  1.0555  0.7738
  815MPD2    H212053   2.637   2.272  12.561 -0.0673 -1.4794 -0.5888
  815MPD2    H312054   2.450   2.205  12.718  0.4411  3.3710  0.1738
  815MPD2     N12055   2.159   2.173  12.377 -0.1855 -0.3992 -0.4125
  815MPD2    H512056   2.149   2.198  12.279  0.4949 -1.0747 -0.6523
  815MPD2    N112057   2.605   2.312  12.296  0.1105 -0.5622 -0.7079
  815MPD2    H712058   2.694   2.277  12.330 -0.3851 -1.5330 -0.4232
  816MPD2     C12059   2.500   1.234  17.514 -0.2563  0.2656  0.3784
  816MPD2    C112060   2.514   1.318  17.404  0.1753 -0.0428 -0.3849
  816MPD2    C212061   2.574   1.267  17.297 -0.4003 -0.9971  0.7241
  816MPD2    C312062   2.641   1.141  17.291  0.1416 -0.2214 -0.0370
  816MPD2    C412063   2.612   1.057  17.395 -0.3385  0.0740 -0.0141
  816MPD2    C512064   2.543   1.102  17.506 -0.2203 -0.8755 -0.5042
  816MPD2     H12065   2.583   1.325  17.206 -2.7452 -0.9142  0.5455
  816MPD2    H112066   2.675   0.971  17.414 -1.2048 -0.4589  0.4228
  816MPD2    H212067   2.451   1.276  17.601 -1.9688 -0.3226 -0.2963
  816MPD2    H312068   2.513   1.037  17.587 -1.5873 -0.0546 -0.3544
  816MPD2     N12069   2.730   1.109  17.183  0.7603 -0.3790  0.2447
  816MPD2    H512070   2.743   1.182  17.114 -0.2891 -0.1826  0.2528
  816MPD2    N112071   2.471   1.452  17.419  0.5169 -0.0633 -0.0220
  816MPD2    H712072   2.442   1.479  17.512 -3.0790 -1.2378 -0.7964
  817MPD2     C12073   2.675   3.524  10.121  0.1231  0.0961 -0.0131
  817MPD2    C112074   2.793   3.592  10.129  0.2784 -0.0713  0.1761
  817MPD2    C212075   2.789   3.730  10.116  0.2464 -0.2954 -0.4969
  817MPD2    C312076   2.662   3.790  10.111  0.8372  0.2551  0.1736
  817MPD2    C412077   2.546   3.718  10.120  0.2515 -0.2631 -0.0875
  817MPD2    C512078   2.555   3.583  10.122 -0.6213 -0.2018 -0.0357
  817MPD2     H12079   2.883   3.781  10.099 -0.3431  0.6113 -1.0158
  817MPD2    H112080   2.451   3.770  10.112 -0.3629 -1.3553  0.1430
  817MPD2    H212081   2.672   3.416  10.111  2.0232  0.0153  0.4017
  817MPD2    H312082   2.465   3.525  10.108 -1.8219  1.5327  0.4606
  817MPD2     N12083   2.679   3.919  10.070  0.7622  0.3101 -0.3384
  817MPD2    H512084   2.774   3.953  10.064  0.3613  1.2270 -1.5353
  817MPD2    N112085   2.926   3.538  10.120 -0.5984 -0.3889 -0.9241
  817MPD2    H712086   3.004   3.602  10.126 -0.0416 -1.2949  1.5051
  818MPD2     C12087   1.265   3.252  10.099  0.3229 -0.5736  0.3471
  818MPD2    C112088   1.154   3.208  10.171  0.3028 -0.7290  0.3149
  818MPD2    C212089   1.166   3.082  10.230  0.6135 -0.1776 -0.3147
  818MPD2    C312090   1.281   3.005  10.215 -0.4128 -0.6191 -0.0237
  818MPD2    C412091   1.380   3.056  10.142  0.0432 -0.7953  0.3277
  818MPD2    C512092   1.375   3.179  10.092  0.3710  0.3652 -0.4378
  818MPD2     H12093   1.084   3.044  10.289 -0.9895  1.3661 -1.5829
  818MPD2    H112094   1.466   2.995  10.118  1.1228  1.6870 -2.2120
  818MPD2    H212095   1.253   3.347  10.048  1.2049 -1.1215 -0.8892
  818MPD2    H312096   1.457   3.209  10.027  1.9037  0.4002  1.5361
  818MPD2     N12097   1.291   2.866  10.254 -0.3550 -0.0360  0.2945
  818MPD2    H512098   1.382   2.824  10.241 -0.8801 -0.9012 -0.5986
  818MPD2    N112099   1.030   3.269  10.177  0.0593 -0.7034  0.4909
  818MPD2    H712100   0.958   3.223  10.231 -0.6809 -1.7353 -1.3876
  819MPD2     C12101   4.228   0.396  15.750 -0.3493 -0.4840  0.2127
  819MPD2    C112102   4.209   0.258  15.758 -0.5611  0.4061 -0.7230
  819MPD2    C212103   4.269   0.180  15.854  0.8031  0.0509 -0.6036
  819MPD2    C312104   4.320   0.249  15.965 -0.1093 -0.5622  0.5689
  819MPD2    C412105   4.338   0.388  15.962  0.1173  0.4026 -0.4850
  819MPD2    C512106   4.296   0.458  15.852 -0.2883  0.9919 -0.6345
  819MPD2     H12107   4.261   0.073  15.861  1.9640 -0.0447 -0.7195
  819MPD2    H112108   4.390   0.447  16.036 -1.3026 -0.6302  1.3375
  819MPD2    H212109   4.188   0.458  15.670  0.8738  1.6498  1.2400
  819MPD2    H312110   4.311   0.564  15.868 -0.4381  0.7472  1.1903
  819MPD2     N12111   4.371   0.169  16.065  0.4429 -0.1938 -0.1183
  819MPD2    H512112   4.378   0.068  16.055  1.3723 -0.1547  0.1137
  819MPD2    N112113   4.126   0.210  15.655 -0.5500 -0.0515 -0.4034
  819MPD2    H712114   4.078   0.283  15.603 -0.2493  1.7984  1.9251
  820MPD2     C12115   3.585   0.499  15.002 -0.8487  0.0332  0.1142
  820MPD2    C112116   3.524   0.393  15.058  0.0058 -0.3854  0.4964
  820MPD2    C212117   3.589   0.323  15.159  0.2768  0.0651 -0.4364
  820MPD2    C312118   3.721   0.349  15.196  0.9162 -0.7114  0.0117
  820MPD2    C412119   3.789   0.453  15.143  0.3412 -0.0429 -0.6272
  820MPD2    C512120   3.716   0.524  15.047 -0.4364  0.0804 -0.3586
  820MPD2     H12121   3.536   0.239  15.203 -0.1837 -0.1497 -1.4055
  820MPD2    H112122   3.895   0.468  15.159  0.6461 -0.5251 -2.2420
  820MPD2    H212123   3.542   0.558  14.922 -0.9872  0.5511  0.5776
  820MPD2    H312124   3.762   0.603  14.989 -0.4575  0.6042  0.3395
  820MPD2     N12125   3.780   0.287  15.303  0.1622  0.0827 -0.5336
  820MPD2    H512126   3.881   0.295  15.309  0.3614 -1.9986 -1.1753
  820MPD2    N112127   3.394   0.357  15.016  0.0284  0.4836 -0.4280
  820MPD2    H712128   3.338   0.423  14.963 -1.2020 -1.1446 -1.1369
  821MPD2     C12129   4.455   1.127  13.405 -0.4731 -0.1974  0.5791
  821MPD2    C112130   4.521   1.123  13.532 -0.0293  0.2020  0.7009
  821MPD2    C212131   4.630   1.209  13.555  0.0805 -0.1602  0.3642
  821MPD2    C312132   4.658   1.299  13.458 -1.0829 -0.1269  0.0105
  821MPD2    C412133   4.590   1.306  13.340 -0.6275 -0.3381 -0.7000
  821MPD2    C512134   4.498   1.214  13.311 -0.2154  0.4545 -0.1931
  821MPD2     H12135   4.685   1.202  13.648 -0.5333  0.8779  0.7995
  821MPD2    H112136   4.623   1.379  13.267 -0.0161 -0.1362 -0.2247
  821MPD2    H212137   4.368   1.066  13.384 -0.5088  0.1033 -0.1277
  821MPD2    H312138   4.453   1.223  13.213 -3.1974  0.2769  1.1573
  821MPD2     N12139   0.029   1.391  13.463  0.8382  0.2605  0.0241
  821MPD2    H512140   0.047   1.456  13.387  1.4510  0.8957  0.7060
  821MPD2    N112141   4.492   1.024  13.632  0.4284 -0.2188  0.4707
  821MPD2    H712142   4.553   1.037  13.713 -1.5417 -0.0239  1.9212
  822MPD2     C12143   0.300   1.218  16.058  0.5861  0.4011  0.1311
  822MPD2    C112144   0.292   1.206  16.196  0.1291  0.1082 -0.9731
  822MPD2    C212145   0.189   1.273  16.265 -0.0854  0.1156  0.3114
  822MPD2    C312146   0.096   1.354  16.203 -0.7283 -0.2094 -0.0513
  822MPD2    C412147   0.097   1.357  16.068  0.1956  0.0997  0.4048
  822MPD2    C512148   0.199   1.293  16.001 -0.3835 -0.4397 -0.6973
  822MPD2     H12149   0.194   1.267  16.373 -0.2035 -0.3300  0.2928
  822MPD2    H112150   0.027   1.416  16.010  0.3848 -0.7351 -0.6850
  822MPD2    H212151   0.383   1.180  16.001  0.9579 -0.5610  1.2964
  822MPD2    H312152   0.202   1.287  15.893 -0.6495 -0.7265 -0.6885
  822MPD2     N12153   0.006   1.433  16.279  0.1822 -0.2700 -0.1454
  822MPD2    H512154   0.004   1.429  16.380 -0.5232  1.3429 -0.0881
  822MPD2    N112155   0.386   1.129  16.267 -0.4773  0.0931 -0.0169
  822MPD2    H712156   0.383   1.141  16.368  0.2776  1.3009 -0.1361
  823MPD2     C12157   4.507   1.903  16.850 -0.7924  0.2052 -0.6839
  823MPD2    C112158   4.474   1.777  16.829  0.0713 -0.2585 -0.3122
  823MPD2    C212159   4.456   1.691  16.934 -0.4387  0.2328 -0.3897
  823MPD2    C312160   4.489   1.731  17.061  0.3220 -0.5264 -0.1575
  823MPD2    C412161   4.534   1.855  17.083  0.4032 -0.6901  0.0165
  823MPD2    C512162   4.540   1.943  16.978  0.1425 -0.2299  0.4331
  823MPD2     H12163   4.419   1.589  16.925 -0.0407  0.1685 -1.2163
  823MPD2    H112164   4.569   1.879  17.183  0.7846 -0.0915 -0.2588
  823MPD2    H212165   4.512   1.976  16.770 -1.0458  1.1321  0.1546
  823MPD2    H312166   4.563   2.047  16.998  0.5067 -0.2845  0.3095
  823MPD2     N12167   4.489   1.651  17.176  0.1142  0.0178  0.1400
  823MPD2    H512168   4.539   1.679  17.260 -2.1903  0.3891  1.3803
  823MPD2    N112169   4.459   1.737  16.693  0.1785  0.2003 -0.2083
  823MPD2    H712170   4.463   1.813  16.625 -0.6649 -0.2745 -0.7857
  824MPD2     C12171   0.798   0.289  16.445 -0.0833  1.1370 -0.6239
  824MPD2    C112172   0.779   0.387  16.349  0.1143 -0.4165  1.1589
  824MPD2    C212173   0.868   0.384  16.239 -0.0253 -0.2900 -0.0133
  824MPD2    C312174   0.960   0.276  16.210  0.4868 -0.6529 -0.0469
  824MPD2    C412175   0.969   0.174  16.310  0.6008 -0.1073  0.3946
  824MPD2    C512176   0.889   0.193  16.417 -0.7713 -0.2946  0.1873
  824MPD2     H12177   0.855   0.457  16.160 -1.1109 -0.3111  0.1424
  824MPD2    H112178   1.034   0.087  16.306  0.9610  0.1875 -0.3765
  824MPD2    H212179   0.748   0.292  16.541  0.3625 -2.5850 -0.2770
  824MPD2    H312180   0.893   0.100  16.473  0.8289 -0.4719 -0.2070
  824MPD2     N12181   1.036   0.285  16.089 -0.1366  0.2962  0.8439
  824MPD2    H512182   1.025   0.371  16.037 -2.6163  0.3275  1.3999
  824MPD2    N112183   0.701   0.498  16.390  0.1082 -0.1144 -0.2524
  824MPD2    H712184   0.650   0.507  16.478 -0.6338 -2.9719 -0.4117
  825MPD2     C12185   1.411   0.584  15.383  0.1244  0.2097 -0.7044
  825MPD2    C112186   1.345   0.610  15.497 -0.2395 -0.2966  0.3894
  825MPD2    C212187   1.302   0.738  15.516 -0.1847 -0.2133 -0.4820
  825MPD2    C312188   1.336   0.836  15.424 -0.6806 -0.1983 -1.0730
  825MPD2    C412189   1.398   0.804  15.306  0.4742  0.4244 -0.2049
  825MPD2    C512190   1.441   0.679  15.286  0.4755 -0.3733  0.2205
  825MPD2     H12191   1.246   0.762  15.606 -1.8166  0.8648 -1.7850
  825MPD2    H112192   1.435   0.879  15.237  0.9271 -0.6150 -1.0919
  825MPD2    H212193   1.421   0.483  15.345 -2.5799 -0.4454  0.3560
  825MPD2    H312194   1.489   0.654  15.193 -2.1798 -3.3936 -0.3400
  825MPD2     N12195   1.304   0.970  15.440 -0.0205 -0.5572  0.2070
  825MPD2    H512196   1.331   1.037  15.369 -0.3507 -0.6509 -0.0072
  825MPD2    N112197   1.299   0.500  15.564 -0.4413 -0.5124 -0.4856
  825MPD2    H712198   1.340   0.412  15.535  0.6027  0.1073 -0.8966
  826MPD2     C12199   0.763   4.690  13.920 -0.4332 -0.0868 -0.3445
  826MPD2    C112200   0.802   0.077  13.877  0.6000 -0.7901  0.0657
  826MPD2    C212201   0.733   0.199  13.915  0.5397 -0.1995 -0.1614
  826MPD2    C312202   0.629   0.179  14.006  0.3653  0.3275 -0.5073
  826MPD2    C412203   0.609   0.058  14.064 -0.2035  0.3142  0.8644
  826MPD2    C512204   0.669   4.682  14.020  0.1515 -0.5335  0.1649
  826MPD2     H12205   0.754   0.297  13.876  1.1975  0.2395  1.2802
  826MPD2    H112206   0.532   0.037  14.138 -0.5068  0.5806  0.6271
  826MPD2    H212207   0.808   4.595  13.890 -0.8607 -1.1132  2.2987
  826MPD2    H312208   0.647   4.582  14.055 -0.7013 -0.7672 -1.0583
  826MPD2     N12209   0.551   0.283  14.053 -0.5152 -0.1220 -0.1751
  826MPD2    H512210   0.497   0.261  14.136 -1.2938  0.9650 -0.3874
  826MPD2    N112211   0.899   0.075  13.780 -0.1736 -0.1968  0.4792
  826MPD2    H712212   0.943   4.722  13.762 -1.1575  0.0219 -3.1491
  827MPD2     C12213   1.624   2.323   9.967  0.3070  0.1249 -0.1867
  827MPD2    C112214   1.648   2.199  10.025  0.7166  0.0931  0.2659
  827MPD2    C212215   1.579   2.090   9.972 -0.0279 -0.6070 -0.0268
  827MPD2    C312216   1.489   2.109   9.867  0.4754  0.0111 -0.3443
  827MPD2    C412217   1.478   2.240   9.807 -0.2290  0.6876  0.5822
  827MPD2    C512218   1.539   2.341   9.860 -0.3673 -0.7348 -0.4572
  827MPD2     H12219   1.586   1.991  10.016 -1.3795 -1.2749 -1.2920
  827MPD2    H112220   1.418   2.254   9.718 -0.7418  1.5291  1.0636
  827MPD2    H212221   1.679   2.405  10.012  2.3622 -0.9874 -0.6965
  827MPD2    H312222   1.539   2.435   9.807 -1.9879 -0.6919 -0.3891
  827MPD2     N12223   1.417   1.992   9.825 -0.7933  0.1765  0.3846
  827MPD2    H512224   1.430   1.911   9.886 -0.4570  1.4607  2.0003
  827MPD2    N112225   1.749   2.194  10.129 -0.1115 -0.2622  0.2463
  827MPD2    H712226   1.791   2.281  10.160  2.5467 -0.6838 -2.2545
  828MPD2     C12227   0.335   1.695  12.653 -0.0424 -0.4530  0.4557
  828MPD2    C112228   0.241   1.635  12.575  0.3491 -0.2905  0.3548
  828MPD2    C212229   0.278   1.616  12.443  0.2704  0.0014 -0.4748
  828MPD2    C312230   0.393   1.666  12.389 -0.2717 -0.4605  0.4541
  828MPD2    C412231   0.477   1.731  12.467 -0.5746 -0.0127 -0.2519
  828MPD2    C512232   0.457   1.735  12.599 -0.0197  0.2893 -0.7018
  828MPD2     H12233   0.193   1.584  12.384 -0.8188  1.1765  0.4631
  828MPD2    H112234   0.567   1.780  12.431 -1.1985  1.6440  0.4790
  828MPD2    H212235   0.334   1.699  12.761 -1.1223  0.4597  0.4091
  828MPD2    H312236   0.532   1.779  12.665  0.5513 -0.0092 -1.1524
  828MPD2     N12237   0.414   1.667  12.246  0.4257 -0.0550 -0.2060
  828MPD2    H512238   0.499   1.704  12.204  0.2604 -0.1778 -0.6552
  828MPD2    N112239   0.122   1.586  12.621 -0.5960  0.2353 -0.0946
  828MPD2    H712240   0.049   1.560  12.555 -1.8930 -0.2356  1.5290
  829MPD2     C12241   4.183   1.688  12.110 -0.1617 -0.3997 -0.6510
  829MPD2    C112242   4.121   1.715  12.226 -0.0158  0.9104  0.0486
  829MPD2    C212243   4.185   1.682  12.346  0.1418  0.6203  0.5037
  829MPD2    C312244   4.314   1.635  12.339  0.4237  0.0239 -0.4289
  829MPD2    C412245   4.380   1.620  12.211  0.2591  0.1497  0.2619
  829MPD2    C512246   4.312   1.645  12.100  0.4266  0.5574 -0.3116
  829MPD2     H12247   4.143   1.723  12.437 -0.0717  0.3996  0.5068
  829MPD2    H112248   4.473   1.568  12.198 -0.2887 -0.4242 -1.3354
  829MPD2    H212249   4.128   1.702  12.018  0.4987  1.3742 -0.7631
  829MPD2    H312250   4.352   1.629  12.001 -0.3361 -0.0374 -0.5263
  829MPD2     N12251   4.398   1.615  12.450 -0.1774  0.3790 -0.1765
  829MPD2    H512252   4.497   1.602  12.430 -0.8867 -0.4650 -3.0600
  829MPD2    N112253   3.996   1.778  12.214 -0.8822 -0.3114 -0.0348
  829MPD2    H712254   3.965   1.791  12.119 -0.7619  2.6740  0.3200
  830MPD2     C12255   0.230   4.432  16.315 -0.3308 -0.5519 -0.0188
  830MPD2    C112256   0.149   4.511  16.233 -0.2454 -0.2040 -0.0511
  830MPD2    C212257   0.201   4.614  16.165 -0.0998 -0.1195 -0.4136
  830MPD2    C312258   0.331   4.643  16.183  0.2560 -0.5133  0.3303
  830MPD2    C412259   0.407   4.568  16.263  0.3221  0.2784  0.4454
  830MPD2    C512260   0.358   4.460  16.323 -0.0799  0.0684  0.9568
  830MPD2     H12261   0.143   4.665  16.089 -1.8890 -1.9122 -0.2391
  830MPD2    H112262   0.512   4.592  16.276  1.1552 -2.4458 -1.3478
  830MPD2    H212263   0.181   4.345  16.358 -0.2085 -0.5069  0.2134
  830MPD2    H312264   0.424   4.398  16.383 -0.9020 -0.8495  0.9080
  830MPD2     N12265   0.393   0.017  16.109 -0.2137  0.4821 -0.3540
  830MPD2    H512266   0.478   0.052  16.152 -1.1050  2.1385  0.0442
  830MPD2    N112267   0.007   4.491  16.248 -0.0038 -0.6291 -0.1194
  830MPD2    H712268   4.715   4.441  16.331 -2.2394 -0.1911 -0.6397
  831MPD2     C12269   0.191   1.705  16.640  0.0137  0.8718  0.0275
  831MPD2    C112270   0.230   1.589  16.572  0.0540  0.4951 -0.0451
  831MPD2    C212271   0.163   1.471  16.595  0.2885 -0.2989 -0.0896
  831MPD2    C312272   0.065   1.473  16.690  0.1423  0.1199 -0.4528
  831MPD2    C412273   0.034   1.591  16.766 -0.0600 -0.3756  0.2765
  831MPD2    C512274   0.095   1.708  16.736 -0.4350  0.1341  0.2284
  831MPD2     H12275   0.187   1.377  16.546  2.6638 -1.6057  3.5312
  831MPD2    H112276   4.696   1.595  16.844 -1.1560  0.0499 -0.8009
  831MPD2    H212277   0.243   1.797  16.617 -1.1654  1.2737 -1.0412
  831MPD2    H312278   0.069   1.799  16.788 -0.0393  0.3180  0.1002
  831MPD2     N12279   4.712   1.368  16.718  0.7017 -0.5651  1.0417
  831MPD2    H512280   4.644   1.379  16.792  1.1245  0.1830  1.3199
  831MPD2    N112281   0.333   1.594  16.475  0.1464 -0.2977  0.6158
  831MPD2    H712282   0.376   1.681  16.449  0.6665 -0.5303  0.6953
  832MPD2     C12283   3.384   2.456  17.647 -0.3948 -0.0811  0.1026
  832MPD2    C112284   3.434   2.543  17.558  0.1126 -0.3682 -0.2433
  832MPD2    C212285   3.352   2.594  17.462  0.5881  0.4722  0.0299
  832MPD2    C312286   3.217   2.553  17.446 -0.0594 -0.1423 -0.4341
  832MPD2    C412287   3.166   2.491  17.555  0.0372 -0.5893  0.4914
  832MPD2    C512288   3.249   2.436  17.645  0.1243 -0.6545  0.1134
  832MPD2     H12289   3.392   2.660  17.386  1.2468 -3.3860 -2.9652
  832MPD2    H112290   3.059   2.472  17.562 -0.3080  0.2734 -2.3954
  832MPD2    H212291   3.450   2.403  17.715 -1.0277 -1.2508 -0.2047
  832MPD2    H312292   3.213   2.369  17.722  0.0994  0.3166  0.9379
  832MPD2     N12293   3.120   2.603  17.357 -0.0346  0.1130  0.5224
  832MPD2    H512294   3.024   2.584  17.384 -0.7041 -0.0217 -1.9677
  832MPD2    N112295   3.568   2.579  17.580  0.1361  0.5403 -0.6640
  832MPD2    H712296   3.604   2.550  17.670  0.3369  0.3896 -0.7951
  833MPD2     C12297   0.830   3.980  12.679 -0.3449 -0.0110 -0.2169
  833MPD2    C112298   0.699   4.015  12.652  0.7779 -0.3815  0.5073
  833MPD2    C212299   0.660   4.031  12.518  0.4065  0.4801  0.6812
  833MPD2    C312300   0.749   4.005  12.416  0.2675  0.2802  0.7104
  833MPD2    C412301   0.875   3.956  12.451  0.3096  0.6864  0.1702
  833MPD2    C512302   0.910   3.935  12.584  0.8509 -0.0339  0.5128
  833MPD2     H12303   0.560   4.060  12.488  0.1120 -1.6565 -0.3966
  833MPD2    H112304   0.963   3.945  12.388  0.5826 -0.4082  0.7382
  833MPD2    H212305   0.866   3.971  12.781 -0.3591  0.6753 -0.1505
  833MPD2    H312306   1.008   3.897  12.611  1.7879  0.8268 -1.6996
  833MPD2     N12307   0.708   4.040  12.287 -0.0453 -0.7894  0.0233
  833MPD2    H512308   0.610   4.062  12.276 -0.2153 -0.2403  2.6908
  833MPD2    N112309   0.623   4.066  12.754 -0.7109  0.0042  0.0913
  833MPD2    H712310   0.675   4.108  12.830 -0.9533 -3.2144  2.0331
  834MPD2     C12311   0.782   4.238  11.371 -0.0914 -0.6862 -0.5592
  834MPD2    C112312   0.777   4.139  11.462 -0.0373  0.5856 -0.1169
  834MPD2    C212313   0.798   4.159  11.597  0.3051 -0.0927 -0.1775
  834MPD2    C312314   0.810   4.284  11.655 -0.2646  0.0991 -0.0610
  834MPD2    C412315   0.821   4.386  11.560 -0.4507 -0.1399 -0.9564
  834MPD2    C512316   0.808   4.362  11.426 -0.3192  0.0728 -0.1055
  834MPD2     H12317   0.792   4.078  11.669  0.4244 -0.7488 -0.9117
  834MPD2    H112318   0.837   4.489  11.589  1.2644 -0.2991 -1.3161
  834MPD2    H212319   0.779   4.217  11.265  4.0147 -0.3933 -0.7368
  834MPD2    H312320   0.814   4.446  11.358  0.2294 -1.0607 -1.4539
  834MPD2     N12321   0.828   4.289  11.796  0.1154 -0.7910 -0.1973
  834MPD2    H512322   0.829   4.199  11.842  1.4624 -0.2788  0.7497
  834MPD2    N112323   0.735   4.015  11.402  0.0121 -0.6380 -0.6747
  834MPD2    H712324   0.724   4.012  11.301  1.3814  1.1048 -0.8853
  835MPD2     C12325   0.623   2.181  11.078 -0.0695 -0.0482  0.2083
  835MPD2    C112326   0.520   2.190  11.167  0.5497 -0.0265 -0.4121
  835MPD2    C212327   0.544   2.181  11.305  0.4171  0.3786 -0.2831
  835MPD2    C312328   0.667   2.144  11.346  0.1078  0.0801  0.4121
  835MPD2    C412329   0.769   2.126  11.260  0.0897  0.9765  0.4035
  835MPD2    C512330   0.743   2.136  11.129 -0.0750 -0.3409 -0.0876
  835MPD2     H12331   0.465   2.208  11.375  0.2464  0.6395 -0.5795
  835MPD2    H112332   0.871   2.098  11.283  0.2193 -0.7236 -2.2543
  835MPD2    H212333   0.614   2.198  10.972 -1.0112 -0.6246  0.1940
  835MPD2    H312334   0.824   2.115  11.060  0.2828 -0.2330  0.2978
  835MPD2     N12335   0.701   2.115  11.478  0.5219  0.4221 -0.1879
  835MPD2    H512336   0.800   2.093  11.488  0.0464 -1.2603  0.8745
  835MPD2    N112337   0.388   2.208  11.125 -0.1978 -0.2205  0.0088
  835MPD2    H712338   0.323   2.224  11.201  0.2088 -2.0167  0.7507
  836MPD2     C12339   0.181   2.021  11.929  0.4972 -0.0285 -0.6448
  836MPD2    C112340   0.284   2.001  12.016  0.5601 -0.8495 -0.4571
  836MPD2    C212341   0.267   2.007  12.155  1.0202 -0.2642  0.1489
  836MPD2    C312342   0.137   2.047  12.205  0.3976  0.4851 -0.3051
  836MPD2    C412343   0.036   2.054  12.115 -0.5368 -0.3150 -0.2528
  836MPD2    C512344   0.053   2.038  11.981  1.1633  0.0290 -0.2689
  836MPD2     H12345   0.353   2.003  12.220  0.2717  1.8987  1.2912
  836MPD2    H112346   4.676   2.062  12.163 -0.8121 -0.9316 -0.7133
  836MPD2    H212347   0.199   2.006  11.823 -2.6567 -0.6065 -1.0923
  836MPD2    H312348   4.704   2.034  11.915  1.2642  1.2962 -0.4606
  836MPD2     N12349   0.112   2.086  12.339  0.1909 -0.6104  0.8342
  836MPD2    H512350   0.021   2.125  12.361 -0.6879 -1.6001 -1.0798
  836MPD2    N112351   0.402   1.976  11.950  0.4702  0.3651  0.0052
  836MPD2    H712352   0.406   1.980  11.849 -1.0928  0.6472 -0.0455
  837MPD2     C12353   4.176   1.994  10.085 -0.0646 -0.6399  0.0380
  837MPD2    C112354   4.067   2.041  10.156  0.4800 -0.2316 -0.0702
  837MPD2    C212355   4.054   2.179  10.187  0.1115  0.9470 -0.6009
  837MPD2    C312356   4.148   2.265  10.146 -0.5096 -0.3648  0.9839
  837MPD2    C412357   4.251   2.224  10.070  0.1542 -0.1343  0.2174
  837MPD2    C512358   4.269   2.095  10.049 -0.0218 -0.5925 -0.5260
  837MPD2     H12359   3.966   2.219  10.235 -0.4866  0.4229 -1.2727
  837MPD2    H112360   4.333   2.287  10.039 -0.2184  1.4498  2.4318
  837MPD2    H212361   4.191   1.890  10.059 -0.2489 -0.7737  0.4681
  837MPD2    H312362   4.357   2.058   9.997 -0.3017 -0.8562 -0.8110
  837MPD2     N12363   4.117   2.404  10.158 -0.0438  0.2890  0.0040
  837MPD2    H512364   4.027   2.421  10.201  1.4659  0.6897  3.0469
  837MPD2    N112365   3.961   1.953  10.190  0.0422  0.2292  0.1073
  837MPD2    H712366   3.876   1.994  10.228  0.7484  0.5257  1.3853
  838MPD2     C12367   1.462   0.453  12.184  0.1639 -0.3551 -0.4178
  838MPD2    C112368   1.489   0.318  12.156 -0.3390  0.1476 -0.2799
  838MPD2    C212369   1.416   0.218  12.220 -0.1929  0.9843  0.3185
  838MPD2    C312370   1.309   0.249  12.305  0.5024  0.1736  0.0766
  838MPD2    C412371   1.290   0.380  12.332  0.3544  0.0187 -0.5086
  838MPD2    C512372   1.365   0.482  12.278 -0.5445  0.0602  0.3821
  838MPD2     H12373   1.451   0.120  12.191  1.3066  0.9697  2.1852
  838MPD2    H112374   1.210   0.416  12.396  1.1698  0.9768 -0.0283
  838MPD2    H212375   1.524   0.530  12.140  0.2612  0.0606  0.4405
  838MPD2    H312376   1.349   0.581  12.320  1.1108  0.3619  0.3113
  838MPD2     N12377   1.247   0.141  12.370  0.1823 -0.2768  0.2632
  838MPD2    H512378   1.281   0.046  12.357  1.2651  0.0258  0.8562
  838MPD2    N112379   1.565   0.285  12.044 -0.0754  0.4475 -1.0513
  838MPD2    H712380   1.578   0.186  12.030 -2.3045  0.0547 -0.2733
  839MPD2     C12381   1.201   4.463  11.497  0.5673 -0.5415 -0.5780
  839MPD2    C112382   1.331   4.425  11.497 -0.1295 -0.6611 -1.0002
  839MPD2    C212383   1.427   4.512  11.543 -0.3539  0.3895 -0.4454
  839MPD2    C312384   1.388   4.631  11.602  0.4949  0.1075 -0.1573
  839MPD2    C412385   1.258   4.658  11.619 -0.0648  0.3356  0.3213
  839MPD2    C512386   1.161   4.576  11.566 -0.6794  0.1714 -0.2202
  839MPD2     H12387   1.530   4.487  11.521  0.3708  1.5674  1.5660
  839MPD2    H112388   1.226   0.011  11.670 -0.6216  0.3154  0.0079
  839MPD2    H212389   1.123   4.405  11.450 -0.6515  0.1791  0.5533
  839MPD2    H312390   1.057   4.604  11.573 -1.1402 -1.0840 -1.8301
  839MPD2     N12391   1.477   4.729  11.646  0.0796  0.7395  0.2883
  839MPD2    H512392   1.434   0.069  11.696  1.9038  0.6284  2.0638
  839MPD2    N112393   1.374   4.304  11.439 -0.1273 -0.0467  0.4834
  839MPD2    H712394   1.473   4.286  11.428 -0.2637 -1.1462  0.9943
  840MPD2     C12395   2.352   2.462  10.084 -0.0980 -0.3102 -0.1289
  840MPD2    C112396   2.346   2.416  10.214 -0.3028  0.3027  0.0551
  840MPD2    C212397   2.447   2.439  10.303  0.0627  0.4494 -0.2081
  840MPD2    C312398   2.553   2.525  10.264  0.0242 -0.6744  1.1327
  840MPD2    C412399   2.565   2.557  10.128 -0.3846  0.3222 -0.9975
  840MPD2    C512400   2.462   2.532  10.043 -1.1242  0.8224  0.0667
  840MPD2     H12401   2.440   2.401  10.404  0.7572  0.8343 -0.0190
  840MPD2    H112402   2.654   2.608  10.091  0.0272 -0.5815 -1.2546
  840MPD2    H212403   2.284   2.426  10.007  1.3450 -0.6003 -1.2773
  840MPD2    H312404   2.464   2.577   9.945  2.4164 -0.0809 -0.2852
  840MPD2     N12405   2.647   2.574  10.357  0.3019 -0.0555 -0.4270
  840MPD2    H512406   2.743   2.593  10.330  0.3099 -1.2330 -1.2252
  840MPD2    N112407   2.233   2.335  10.257 -0.6469 -0.3414  1.1109
  840MPD2    H712408   2.166   2.325  10.182  0.0970  0.1240  0.3780
  841MPD2     C12409   1.854   1.883  14.905  0.5999  0.4842 -0.5957
  841MPD2    C112410   1.835   1.787  14.806  0.8626 -0.0306  0.4461
  841MPD2    C212411   1.883   1.806  14.679 -0.4304  0.0740  0.5171
  841MPD2    C312412   1.938   1.926  14.647 -0.5730 -0.2523  0.0768
  841MPD2    C412413   1.960   2.023  14.743 -0.5323 -0.3643 -0.1860
  841MPD2    C512414   1.928   1.994  14.870 -0.3966 -0.2722  0.1621
  841MPD2     H12415   1.888   1.729  14.603 -0.0677  0.6727 -0.0583
  841MPD2    H112416   2.013   2.116  14.726  0.0918 -0.6997 -0.0592
  841MPD2    H212417   1.816   1.875  15.006  3.6171  2.0154  0.6540
  841MPD2    H312418   1.945   2.061  14.953 -1.4610  1.9934 -1.4527
  841MPD2     N12419   2.004   1.940  14.516 -0.5180  0.1630 -0.3012
  841MPD2    H512420   2.012   1.852  14.467  1.4396  0.0009  0.2857
  841MPD2    N112421   1.771   1.660  14.835  0.5476 -0.0633 -0.1806
  841MPD2    H712422   1.756   1.598  14.756 -2.1612 -1.2647  1.2723
  842MPD2     C12423   2.654   2.928  17.053  0.4518 -0.5627 -0.5033
  842MPD2    C112424   2.540   2.876  16.995  0.4376 -0.7391  0.0177
  842MPD2    C212425   2.461   2.801  17.081  0.6390  0.3877  0.4099
  842MPD2    C312426   2.491   2.774  17.215 -0.4723  1.1389 -0.4940
  842MPD2    C412427   2.603   2.832  17.273  0.1133 -0.0401 -0.1566
  842MPD2    C512428   2.685   2.905  17.191 -0.1579 -0.1383  0.1593
  842MPD2     H12429   2.373   2.752  17.041 -0.3150  3.1138 -0.8511
  842MPD2    H112430   2.632   2.815  17.376 -1.0045 -2.1259 -0.1697
  842MPD2    H212431   2.706   2.997  16.987  0.8336 -0.2557  0.1248
  842MPD2    H312432   2.775   2.942  17.238 -0.0725 -1.2736  0.9078
  842MPD2     N12433   2.408   2.707  17.302  0.1509  0.3160  0.2120
  842MPD2    H512434   2.443   2.687  17.395  3.1980 -1.4005 -1.3041
  842MPD2    N112435   2.510   2.907  16.859 -0.1868  0.3554 -0.4152
  842MPD2    H712436   2.589   2.942  16.806 -1.6879  2.7865 -1.0746
  843MPD2     C12437   4.252   3.804  17.687 -0.0836 -0.2396  0.3403
  843MPD2    C112438   4.355   3.723  17.673  0.9697  0.5714  0.1455
  843MPD2    C212439   4.479   3.750  17.728 -0.7450  0.1905 -0.0506
  843MPD2    C312440   4.495   3.863   0.061  0.0169 -0.2021  0.2202
  843MPD2    C412441   4.383   3.945   0.074 -0.8316  0.5478 -0.1355
  843MPD2    C512442   4.262   3.921   0.010  0.0365  0.5677  0.1119
  843MPD2     H12443   4.557   3.675  17.724 -0.2103  0.8384 -1.5505
  843MPD2    H112444   4.391   4.040   0.126  0.2184  0.2160  0.3101
  843MPD2    H212445   4.155   3.777  17.648 -0.5298  1.8416  0.0207
  843MPD2    H312446   4.178   3.989   0.014 -0.3445  0.1621 -0.9415
  843MPD2     N12447   4.620   3.904   0.123 -0.4347 -0.5014 -0.2761
  843MPD2    H512448   4.614   3.986   0.183  1.2885 -0.4259 -0.2229
  843MPD2    N112449   4.327   3.602  17.600 -0.2346 -0.4769 -0.1749
  843MPD2    H712450   4.245   3.595  17.541 -0.8410 -0.1636  0.6419
  844MPD2     C12451   2.808   2.205  16.616  0.4258  0.7064 -0.2041
  844MPD2    C112452   2.926   2.145  16.578  0.0640 -0.0008  0.1332
  844MPD2    C212453   3.044   2.180  16.643 -0.0814 -0.2901  0.9282
  844MPD2    C312454   3.048   2.279  16.745  0.2007 -0.0642  0.1722
  844MPD2    C412455   2.927   2.341  16.775  0.1262  0.3641  0.1200
  844MPD2    C512456   2.812   2.307  16.707 -0.1043  0.1314 -0.3507
  844MPD2     H12457   3.134   2.142  16.597  0.3076 -0.1545  1.5728
  844MPD2    H112458   2.908   2.431  16.834 -0.0360  0.2755  0.2010
  844MPD2    H212459   2.712   2.186  16.568  0.2565  2.1893 -0.4423
  844MPD2    H312460   2.725   2.369  16.725  0.1636  0.2051  0.6964
  844MPD2     N12461   3.169   2.320  16.798  0.1137 -0.6148 -0.4781
  844MPD2    H512462   3.252   2.275  16.760 -0.4861 -0.4930 -1.9021
  844MPD2    N112463   2.931   2.050  16.475  0.2210  0.1523 -0.1802
  844MPD2    H712464   3.018   2.017  16.436  0.5463  0.7609  0.0304
  845MPD2     C12465   3.513   3.213  17.172  0.8511 -0.0390  0.2427
  845MPD2    C112466   3.441   3.132  17.253 -0.3113 -0.3230  0.1064
  845MPD2    C212467   3.426   2.997  17.216 -0.3019 -0.1600  0.5508
  845MPD2    C312468   3.486   2.950  17.099  0.9124  0.0801 -0.1811
  845MPD2    C412469   3.556   3.034  17.015 -0.4655 -0.1391  0.3489
  845MPD2    C512470   3.570   3.164  17.055  0.0830 -1.1062 -1.0234
  845MPD2     H12471   3.359   2.928  17.265 -1.6348 -1.1309 -2.5775
  845MPD2    H112472   3.600   3.007  16.919  2.6548  0.6523  1.5443
  845MPD2    H212473   3.526   3.319  17.187 -2.7281  0.2057  1.5561
  845MPD2    H312474   3.601   3.238  16.982 -0.6066  1.9328  1.7653
  845MPD2     N12475   3.463   2.817  17.068  0.1322  0.7384  0.1356
  845MPD2    H512476   3.407   2.764  17.135  0.0730  0.3039 -0.2546
  845MPD2    N112477   3.382   3.190  17.366 -0.4418  0.5986 -0.4840
  845MPD2    H712478   3.392   3.290  17.374 -1.3883  0.7818 -1.6209
  846MPD2     C12479   4.057   4.107  13.559 -0.3649 -0.2845  0.5207
  846MPD2    C112480   4.136   3.995  13.589 -1.0473  0.6051 -0.0986
  846MPD2    C212481   4.121   3.930  13.714  0.0489 -0.0154 -0.0639
  846MPD2    C312482   4.034   3.983  13.805 -0.2011  0.7647 -0.2578
  846MPD2    C412483   3.961   4.095  13.777 -0.3282  0.1159 -0.0003
  846MPD2    C512484   3.968   4.157  13.655  0.5992  0.1759 -0.2008
  846MPD2     H12485   4.173   3.839  13.740  1.1113  0.4286 -0.6497
  846MPD2    H112486   3.906   4.146  13.855 -1.2237 -0.7286 -0.0833
  846MPD2    H212487   4.075   4.153  13.463  2.8112  0.4242  1.4371
  846MPD2    H312488   3.906   4.244  13.636  0.8251  0.8359  2.1198
  846MPD2     N12489   4.022   3.906  13.928  0.0120 -0.1062  0.8340
  846MPD2    H512490   4.085   3.834  13.961 -0.2446 -1.0021 -0.6416
  846MPD2    N112491   4.240   3.959  13.499 -0.0544  0.2070  0.1303
  846MPD2    H712492   4.256   4.017  13.417 -0.4980 -2.7925 -2.1043
  847MPD2     C12493   0.337   0.229  14.807 -0.1588  0.4481  0.0413
  847MPD2    C112494   0.377   0.333  14.883  0.7993 -0.6033  0.3599
  847MPD2    C212495   0.496   0.318  14.952  0.4124  0.6369  0.0065
  847MPD2    C312496   0.553   0.198  14.972  0.1586 -0.2096 -0.2139
  847MPD2    C412497   0.506   0.086  14.911 -0.1077 -0.0805 -0.4807
  847MPD2    C512498   0.394   0.102  14.834 -0.2938  1.0471  0.5114
  847MPD2     H12499   0.555   0.393  15.002  0.1688  0.6903  0.2156
  847MPD2    H112500   0.540   4.722  14.928  2.4343  0.5215 -1.9944
  847MPD2    H212501   0.245   0.236  14.750  0.5852 -0.9349 -1.3296
  847MPD2    H312502   0.343   0.029  14.772  2.6125  0.1673 -0.8321
  847MPD2     N12503   0.654   0.194  15.073 -0.0778  0.3853  0.4037
  847MPD2    H512504   0.676   0.279  15.124 -1.7182  0.3098  1.2449
  847MPD2    N112505   0.307   0.451  14.913  0.1274  0.0682 -0.4880
  847MPD2    H712506   0.363   0.525  14.955  0.0770 -0.3967  0.3847
  848MPD2     C12507   3.108   2.871  16.527  0.4867  0.5890  0.2047
  848MPD2    C112508   3.102   2.932  16.650  0.6007 -0.0608 -0.3575
  848MPD2    C212509   3.151   3.063  16.662  0.3844  0.1482  0.5523
  848MPD2    C312510   3.206   3.124  16.546 -0.4701  0.6396  0.2316
  848MPD2    C412511   3.222   3.053  16.429  0.3546  0.2799  0.0993
  848MPD2    C512512   3.166   2.925  16.413  0.2190 -1.1931 -0.2656
  848MPD2     H12513   3.147   3.115  16.757  1.0451  1.6461 -0.2422
  848MPD2    H112514   3.261   3.106  16.343 -1.9873  0.1367 -1.0618
  848MPD2    H212515   3.064   2.772  16.527 -0.7562  1.1455 -0.7464
  848MPD2    H312516   3.177   2.870  16.320  1.8912 -0.4735 -0.5045
  848MPD2     N12517   3.242   3.263  16.536  0.0837 -0.3517  0.1514
  848MPD2    H512518   3.278   3.296  16.447  0.1531  1.8658  1.0081
  848MPD2    N112519   3.070   2.868  16.777 -0.1851 -0.1562  0.8219
  848MPD2    H712520   3.073   2.938  16.850  1.4820  0.5944  0.0311
  849MPD2     C12521   2.550   2.608  13.872 -0.0610 -0.9683  0.8046
  849MPD2    C112522   2.606   2.690  13.773 -0.1113 -0.0926 -0.0539
  849MPD2    C212523   2.672   2.805  13.815  0.1556 -0.0494  0.0039
  849MPD2    C312524   2.656   2.852  13.950 -0.0109  0.6825 -0.0582
  849MPD2    C412525   2.591   2.769  14.038 -0.1703  0.0140  0.0006
  849MPD2    C512526   2.546   2.648  14.003  0.1555  0.7753  0.0797
  849MPD2     H12527   2.711   2.875  13.742  0.2753 -0.6993 -0.5600
  849MPD2    H112528   2.585   2.793  14.144  0.4480 -1.3147  0.3395
  849MPD2    H212529   2.504   2.512  13.851 -0.5664 -0.4245 -0.5792
  849MPD2    H312530   2.503   2.583  14.079  0.0533  0.6683 -0.0682
  849MPD2     N12531   2.719   2.978  13.994 -0.5773 -0.9898  0.1991
  849MPD2    H512532   2.705   3.007  14.091 -0.4737 -1.0411  0.2291
  849MPD2    N112533   2.615   2.649  13.635  0.2485 -0.1769  0.5146
  849MPD2    H712534   2.572   2.558  13.618 -0.5159  0.1851  0.5140
  850MPD2     C12535   4.707   1.206  15.235 -0.8433  0.5331  0.2600
  850MPD2    C112536   0.056   1.238  15.336  0.6053 -0.2013  0.3176
  850MPD2    C212537   0.193   1.224  15.316 -0.6089 -0.5503  0.2338
  850MPD2    C312538   0.243   1.161  15.202 -0.1796  0.0443 -0.5492
  850MPD2    C412539   0.156   1.140  15.100 -0.2970  0.0656 -0.0648
  850MPD2    C512540   0.018   1.153  15.114 -0.3376  0.1546 -0.5043
  850MPD2     H12541   0.258   1.264  15.394 -1.7882 -1.1144  1.5086
  850MPD2    H112542   0.189   1.099  15.005 -0.6165  0.1657 -0.2204
  850MPD2    H212543   4.599   1.203  15.242 -0.6563 -0.5108  2.6102
  850MPD2    H312544   4.692   1.121  15.032  2.1540  1.1939 -2.8002
  850MPD2     N12545   0.379   1.119  15.199 -0.4168  0.1317 -0.0267
  850MPD2    H512546   0.414   1.078  15.113  0.0491 -0.4634  0.4588
  850MPD2    N112547   0.016   1.274  15.465 -0.3530  0.1843 -0.5236
  850MPD2    H712548   0.087   1.274  15.537 -1.2566  0.4621  0.3616
  851MPD2     C12549   0.070   0.935  16.226 -0.0865  0.7103 -0.0603
  851MPD2    C112550   0.064   0.909  16.089  0.5286 -0.3201  0.5310
  851MPD2    C212551   0.148   0.807  16.038  0.0913 -0.2885 -0.2033
  851MPD2    C312552   0.239   0.735  16.124 -0.1459 -0.2012  0.1229
  851MPD2    C412553   0.236   0.763  16.259  0.1934 -0.2279 -0.0390
  851MPD2    C512554   0.149   0.862  16.312 -0.3258  0.0784  0.3951
  851MPD2     H12555   0.146   0.793  15.931 -0.9600  2.1174 -0.4927
  851MPD2    H112556   0.300   0.714  16.331  0.7898 -0.1171 -0.4919
  851MPD2    H212557   0.012   1.014  16.271 -0.3046 -0.0973  1.0496
  851MPD2    H312558   0.146   0.888  16.417  1.6801  1.9024  0.0013
  851MPD2     N12559   0.314   0.633  16.069  0.1023 -0.4341 -0.5534
  851MPD2    H512560   0.315   0.629  15.968  0.0670  0.5695 -0.5953
  851MPD2    N112561   4.730   1.000  16.005 -0.8307 -0.8348 -0.3720
  851MPD2    H712562   4.686   1.080  16.049  0.6477 -0.5721  0.6323
  852MPD2     C12563   4.035   3.602   9.945  0.5807 -0.1928 -0.1114
  852MPD2    C112564   4.122   3.574  10.047 -0.0985  0.0696 -0.7596
  852MPD2    C212565   4.248   3.618  10.045  0.1374 -0.3127  0.5828
  852MPD2    C312566   4.296   3.702   9.941 -0.7503 -0.6529 -0.5087
  852MPD2    C412567   4.203   3.737   9.844 -0.0468 -0.1514 -0.9019
  852MPD2    C512568   4.075   3.677   9.836  0.9273 -0.2653  0.0209
  852MPD2     H12569   4.301   3.598  10.138 -0.2589 -3.8270  0.0838
  852MPD2    H112570   4.214   3.794   9.752 -0.2699  0.2786 -0.6626
  852MPD2    H212571   3.930   3.578   9.936  0.1818  1.6827 -0.6233
  852MPD2    H312572   4.009   3.700   9.753  1.0345 -1.0523 -0.2813
  852MPD2     N12573   4.432   3.744   9.939  0.1662  0.7083  0.3129
  852MPD2    H512574   4.480   3.700  10.017  1.3579 -0.6398 -1.1988
  852MPD2    N112575   4.079   3.506  10.163  0.6078 -0.0900  0.2751
  852MPD2    H712576   4.144   3.490  10.240  0.6373  5.0638  1.3468
  853MPD2     C12577   1.351   3.311  12.334 -0.2626 -0.8664  0.4248
  853MPD2    C112578   1.477   3.365  12.334  0.7739  0.3315  0.6020
  853MPD2    C212579   1.537   3.380  12.211 -0.3606 -0.0476 -0.9333
  853MPD2    C312580   1.480   3.338  12.092  0.0304 -0.3045  0.5143
  853MPD2    C412581   1.350   3.290  12.092 -0.5373  0.6664 -0.1336
  853MPD2    C512582   1.287   3.267  12.216  0.2482 -0.8268 -0.2375
  853MPD2     H12583   1.642   3.409  12.206 -0.4475  0.5666  1.0829
  853MPD2    H112584   1.303   3.257  12.000  1.0864 -0.8408 -0.4261
  853MPD2    H212585   1.298   3.294  12.427  2.2818 -1.7434  1.7002
  853MPD2    H312586   1.184   3.237  12.222 -0.4021  1.2390 -1.0009
  853MPD2     N12587   1.530   3.362  11.961  0.2418  0.2051  0.3352
  853MPD2    H512588   1.463   3.352  11.885  1.5070 -0.5375 -0.6838
  853MPD2    N112589   1.539   3.406  12.455 -0.5379  0.2075  0.0012
  853MPD2    H712590   1.495   3.387  12.544 -0.4353 -0.0296  0.0010
  854MPD2     C12591   3.189   3.137  12.646  0.7080 -0.0372 -0.1222
  854MPD2    C112592   3.248   3.174  12.767  0.9424  0.1707 -0.3003
  854MPD2    C212593   3.334   3.085  12.823  0.0359 -0.2794 -0.0173
  854MPD2    C312594   3.350   2.957  12.773  0.6501 -1.0773  0.3923
  854MPD2    C412595   3.277   2.917  12.661  0.1339  0.0610 -0.3822
  854MPD2    C512596   3.195   3.007  12.601  0.5796 -0.3651 -0.2991
  854MPD2     H12597   3.386   3.124  12.910 -1.9554 -0.3360  1.1972
  854MPD2    H112598   3.278   2.815  12.624 -2.9510 -0.9708  2.3534
  854MPD2    H212599   3.130   3.213  12.595  2.5365  0.2724 -1.7712
  854MPD2    H312600   3.145   2.980  12.509  0.7015  0.5366 -0.6242
  854MPD2     N12601   3.440   2.866  12.837  0.1361  0.3379 -0.5142
  854MPD2    H512602   3.442   2.774  12.793 -2.1642  0.2107 -0.3753
  854MPD2    N112603   3.228   3.308  12.802 -0.3556  0.0243 -0.2299
  854MPD2    H712604   3.161   3.360  12.746 -1.1301 -1.6788 -0.8617
  855MPD2     C12605   4.098   2.547  13.662 -0.3562  0.0854  0.5202
  855MPD2    C112606   3.968   2.594  13.661  0.4599  0.1687 -0.4211
  855MPD2    C212607   3.919   2.640  13.543  0.4412  0.0610 -0.8700
  855MPD2    C312608   3.989   2.633  13.427 -0.0307 -0.0967 -0.1295
  855MPD2    C412609   4.118   2.589  13.425  0.0430  0.3928 -0.0627
  855MPD2    C512610   4.175   2.551  13.542  0.3218  0.0624  0.0313
  855MPD2     H12611   3.815   2.670  13.543  0.8495  1.4679  1.6350
  855MPD2    H112612   4.182   2.590  13.338 -2.4299 -0.5307 -1.8881
  855MPD2    H212613   4.140   2.518  13.758 -1.8724  0.8226  1.4056
  855MPD2    H312614   4.277   2.517  13.549 -0.1122 -0.9781  1.2956
  855MPD2     N12615   3.921   2.652  13.303 -0.3293 -0.6270  0.2440
  855MPD2    H512616   3.975   2.635  13.219 -2.2251  0.2599 -1.1608
  855MPD2    N112617   3.887   2.597  13.777  0.0708 -0.1589  0.3907
  855MPD2    H712618   3.796   2.636  13.756 -0.0305 -0.4784  0.2362
  856MPD2     C12619   1.458   3.410  13.799  0.0266 -0.4554 -0.7124
  856MPD2    C112620   1.387   3.426  13.916 -0.4856  0.3521 -0.9615
  856MPD2    C212621   1.250   3.438  13.915 -0.3483 -0.0348  0.2661
  856MPD2    C312622   1.187   3.456  13.793  0.2872 -0.0054  0.3938
  856MPD2    C412623   1.262   3.449  13.674  0.4031 -0.7547 -0.3707
  856MPD2    C512624   1.394   3.424  13.679 -0.1416 -0.8659 -0.2396
  856MPD2     H12625   1.201   3.445  14.011 -0.4101  0.1014  0.2246
  856MPD2    H112626   1.218   3.452  13.576  3.1998 -0.7509 -1.6315
  856MPD2    H212627   1.563   3.382  13.803 -0.1880 -1.1400  0.2344
  856MPD2    H312628   1.450   3.429  13.586 -1.5795  0.0665 -1.0514
  856MPD2     N12629   1.050   3.503  13.780  0.4468  0.4281  0.3920
  856MPD2    H512630   1.022   3.514  13.683 -1.1416 -0.1822  0.7709
  856MPD2    N112631   1.446   3.446  14.041  0.2611 -0.4156  0.5218
  856MPD2    H712632   1.379   3.486  14.105 -0.4174 -0.7642  0.0230
  857MPD2     C12633   2.157   1.570  12.843 -1.0074  0.4552 -0.3171
  857MPD2    C112634   2.269   1.531  12.908  0.2091 -0.8773  0.4676
  857MPD2    C212635   2.313   1.602  13.021 -0.0582 -0.2143  0.2985
  857MPD2    C312636   2.260   1.728  13.038  0.4799  0.7420  0.0422
  857MPD2    C412637   2.136   1.768  12.980  0.0712  0.1771  0.1084
  857MPD2    C512638   2.091   1.687  12.879  0.0055 -0.0553  0.1047
  857MPD2     H12639   2.398   1.578  13.085  1.2374 -1.0180 -1.7454
  857MPD2    H112640   2.074   1.854  13.001  0.3826  0.1487  1.1289
  857MPD2    H212641   2.119   1.507  12.763 -0.8349  1.3185 -1.0711
  857MPD2    H312642   2.001   1.719  12.827  1.4751  1.9961 -1.1895
  857MPD2     N12643   2.331   1.806  13.126  0.1868  0.0018 -0.4778
  857MPD2    H512644   2.416   1.768  13.164 -0.9493 -2.0427  0.0210
  857MPD2    N112645   2.340   1.418  12.861  0.2413 -0.5598 -0.4923
  857MPD2    H712646   2.287   1.362  12.796 -0.9656 -0.7607  0.6753
  858MPD2     C12647   3.097   0.559  16.668 -0.0413 -0.6905  0.2786
  858MPD2    C112648   3.232   0.525  16.657 -0.2365 -0.3625  0.2435
  858MPD2    C212649   3.328   0.570  16.745  0.0526  0.2160 -0.0450
  858MPD2    C312650   3.284   0.628  16.862 -0.0999  0.3119  0.3867
  858MPD2    C412651   3.151   0.654  16.877  0.3101  0.0112 -0.2371
  858MPD2    C512652   3.063   0.638  16.776  0.4528  0.6317  0.8231
  858MPD2     H12653   3.432   0.556  16.718  1.0409  3.0237  2.2908
  858MPD2    H112654   3.109   0.690  16.970 -1.1189 -1.6320 -0.2465
  858MPD2    H212655   3.011   0.523  16.613  1.5914 -2.4308 -1.1218
  858MPD2    H312656   2.959   0.656  16.801  0.2348  2.2228 -1.2160
  858MPD2     N12657   3.367   0.643  16.970  0.8938  0.0846  0.7622
  858MPD2    H512658   3.325   0.652  17.062 -2.4726  1.2208 -0.8812
  858MPD2    N112659   3.261   0.436  16.552  0.6416  0.2221  0.2313
  858MPD2    H712660   3.359   0.412  16.556  0.7546  0.5474 -0.4750
  859MPD2     C12661   2.155   2.286  15.651 -0.2503  0.0286 -0.3204
  859MPD2    C112662   2.126   2.277  15.516  0.2382 -0.2563  0.2330
  859MPD2    C212663   2.101   2.142  15.463  0.8961 -0.2690 -0.3180
  859MPD2    C312664   2.117   2.030  15.542 -0.2539 -0.6107 -0.3522
  859MPD2    C412665   2.144   2.045  15.673  0.3448 -0.5182  0.1798
  859MPD2    C512666   2.157   2.172  15.723  0.5149 -0.5079 -0.3068
  859MPD2     H12667   2.076   2.138  15.358  1.4860  1.2742 -0.5213
  859MPD2    H112668   2.163   1.955  15.730  0.7954 -0.8118 -0.4320
  859MPD2    H212669   2.192   2.378  15.695 -0.4684  0.0784 -0.2420
  859MPD2    H312670   2.193   2.176  15.825 -0.6032  0.9168  0.0303
  859MPD2     N12671   2.094   1.897  15.498  0.3728 -0.1843  0.2113
  859MPD2    H512672   2.115   1.828  15.569  1.3220  1.1612  1.2630
  859MPD2    N112673   2.137   2.397  15.439  0.2891  0.3782 -0.0338
  859MPD2    H712674   2.170   2.482  15.485 -0.9669  1.4668 -1.1583
  860MPD2     C12675   4.561   3.378  11.817 -0.5639 -0.3419 -0.1529
  860MPD2    C112676   4.502   3.402  11.937 -0.0321  0.0380  0.1497
  860MPD2    C212677   4.397   3.320  11.966 -0.4764 -0.5961  1.0343
  860MPD2    C312678   4.364   3.209  11.894  0.0643 -0.5305  0.2120
  860MPD2    C412679   4.420   3.187  11.769 -0.0297  0.4892 -0.3400
  860MPD2    C512680   4.522   3.278  11.740  0.1385  0.1925 -0.1361
  860MPD2     H12681   4.344   3.333  12.060 -2.4698  1.5964 -0.3697
  860MPD2    H112682   4.402   3.102  11.704 -1.3963  0.4912  0.0313
  860MPD2    H212683   4.631   3.447  11.773  1.9070 -2.1708  0.9089
  860MPD2    H312684   4.576   3.282  11.647  1.7848  0.5516  0.8307
  860MPD2     N12685   4.273   3.117  11.952 -0.5151  0.4519  0.2173
  860MPD2    H512686   4.237   3.144  12.043 -0.7067  1.5984 -0.1951
  860MPD2    N112687   4.552   3.484  12.036 -0.4146  0.1131 -0.6306
  860MPD2    H712688   4.493   3.492  12.118  0.3956 -0.0695 -0.0240
  861MPD2     C12689   3.400   1.297  11.382 -0.2904 -0.4595  0.3966
  861MPD2    C112690   3.283   1.349  11.433 -0.5148  0.2704  0.1687
  861MPD2    C212691   3.193   1.430  11.358  0.5012 -0.5626 -0.1294
  861MPD2    C312692   3.227   1.460  11.227  0.3367 -0.1946 -0.2740
  861MPD2    C412693   3.345   1.398  11.180  0.6877  0.1949  0.7754
  861MPD2    C512694   3.428   1.326  11.251  0.2849 -0.3872  0.0208
  861MPD2     H12695   3.101   1.464  11.403 -0.0180 -3.0770  0.7242
  861MPD2    H112696   3.376   1.407  11.076  0.7258  0.3559  0.8019
  861MPD2    H212697   3.452   1.216  11.433  0.4179 -0.5271 -0.4430
  861MPD2    H312698   3.515   1.285  11.201  0.0343 -1.9703  0.8918
  861MPD2     N12699   3.143   1.532  11.135  0.2112 -0.0949  0.0022
  861MPD2    H512700   3.167   1.541  11.037  0.9179  2.5805  0.4224
  861MPD2    N112701   3.240   1.317  11.564 -0.0582 -0.1700  0.2649
  861MPD2    H712702   3.140   1.325  11.578 -0.0705 -0.3567  0.2795
  862MPD2     C12703   2.777   1.692  10.577 -0.2953 -0.0797  0.1478
  862MPD2    C112704   2.890   1.681  10.653 -0.5118 -0.0290 -0.0040
  862MPD2    C212705   2.925   1.562  10.712  0.0138 -0.5326  0.0588
  862MPD2    C312706   2.843   1.449  10.710  0.0655 -0.1078 -0.1160
  862MPD2    C412707   2.732   1.461  10.633  0.9783  0.7796  0.9257
  862MPD2    C512708   2.705   1.576  10.557  0.0562  0.4039  0.0344
  862MPD2     H12709   3.023   1.561  10.759 -0.4570  0.0254  1.0364
  862MPD2    H112710   2.655   1.384  10.634 -0.5629  2.3074 -0.5445
  862MPD2    H212711   2.755   1.781  10.520 -1.6407  0.6646  1.8072
  862MPD2    H312712   2.620   1.564  10.492  0.0525 -1.4688  0.3725
  862MPD2     N12713   2.861   1.337  10.798 -0.3079 -0.4746  0.1757
  862MPD2    H512714   2.799   1.258  10.803 -1.2310  0.1709 -0.9733
  862MPD2    N112715   2.950   1.803  10.691  0.1390 -0.2115 -0.5935
  862MPD2    H712716   2.898   1.886  10.664 -0.9374 -0.3515  1.0764
  863MPD2     C12717   2.020   4.264  16.621  0.1560 -1.1238  0.1812
  863MPD2    C112718   1.946   4.187  16.711  0.5174 -0.7524 -0.2385
  863MPD2    C212719   2.012   4.130  16.818  0.2765 -0.1301  0.1284
  863MPD2    C312720   2.151   4.135  16.829 -0.0878  0.2712 -0.3283
  863MPD2    C412721   2.218   4.214  16.738  0.6022 -0.4437 -0.2397
  863MPD2    C512722   2.157   4.279  16.640  0.2060 -0.9543 -0.3697
  863MPD2     H12723   1.950   4.105  16.903 -0.1818  0.4918 -0.0181
  863MPD2    H112724   2.322   4.237  16.758  0.6249  0.0634 -0.9445
  863MPD2    H212725   1.983   4.328  16.541  1.8062  1.5464  1.5720
  863MPD2    H312726   2.214   4.345  16.576 -2.2071 -0.1057 -1.6432
  863MPD2     N12727   2.224   4.076  16.936  0.5316 -0.2521  0.4023
  863MPD2    H512728   2.324   4.095  16.939  0.6202 -0.5322 -0.5770
  863MPD2    N112729   1.811   4.191  16.691 -0.4604 -0.2109 -0.3698
  863MPD2    H712730   1.781   4.236  16.606  0.4049  2.0331  0.5132
  864MPD2     C12731   2.304   0.178  17.542 -0.3356  0.3633  0.0500
  864MPD2    C112732   2.310   0.139  17.412 -0.8253 -0.3882 -0.0236
  864MPD2    C212733   2.352   0.240  17.319  0.2992  0.1531 -0.9241
  864MPD2    C312734   2.369   0.371  17.360 -0.0100 -0.0762 -0.7309
  864MPD2    C412735   2.346   0.406  17.489  0.1435 -0.5673 -0.2685
  864MPD2    C512736   2.316   0.310  17.584  0.0832 -0.4498 -0.7512
  864MPD2     H12737   2.375   0.203  17.220  1.9717  0.6524 -0.7256
  864MPD2    H112738   2.376   0.503  17.526 -3.7567  0.1824  0.9089
  864MPD2    H212739   2.274   0.105  17.617 -3.9017 -0.4343 -2.1839
  864MPD2    H312740   2.302   0.330  17.690  0.2140 -2.1441 -0.4208
  864MPD2     N12741   2.407   0.477  17.277 -0.1492  0.2068 -0.2862
  864MPD2    H512742   2.418   0.570  17.316 -0.0526  0.8200 -1.8027
  864MPD2    N112743   2.279   0.008  17.375 -0.4064  0.6712  0.4072
  864MPD2    H712744   2.256   4.676  17.446 -1.0370 -1.2596 -1.6413
  865MPD2     C12745   2.161   0.909  16.476 -0.0767 -0.0595 -0.9095
  865MPD2    C112746   2.164   0.785  16.545  0.4351 -1.0068 -0.2766
  865MPD2    C212747   2.181   0.784  16.685  0.1040 -0.1154 -0.2535
  865MPD2    C312748   2.206   0.905  16.747 -0.8794 -0.5090 -0.3574
  865MPD2    C412749   2.216   1.025  16.681  0.2652 -1.0287  0.0958
  865MPD2    C512750   2.196   1.028  16.545  0.3834  0.0558 -0.2014
  865MPD2     H12751   2.183   0.690  16.739 -0.4049  0.0506  0.0603
  865MPD2    H112752   2.214   1.123  16.728  0.6266 -1.0190  0.0862
  865MPD2    H212753   2.138   0.907  16.370  0.8028 -2.8099 -1.0613
  865MPD2    H312754   2.193   1.122  16.491 -0.1582  1.2922  1.9790
  865MPD2     N12755   2.238   0.910  16.888 -0.5597  0.0876 -0.4109
  865MPD2    H512756   2.278   0.992  16.934 -1.7706  0.5618 -0.1977
  865MPD2    N112757   2.139   0.664  16.460 -0.7341 -0.6343  0.1215
  865MPD2    H712758   2.131   0.689  16.362  0.2665  3.3051  1.0488
  866MPD2     C12759   3.597   1.493  12.027  0.7164  0.2771 -0.2313
  866MPD2    C112760   3.664   1.557  11.924 -0.8401  0.0029  1.0547
  866MPD2    C212761   3.592   1.625  11.828 -0.1367  0.3918 -0.0893
  866MPD2    C312762   3.454   1.639  11.842  0.0747 -0.8342  0.1440
  866MPD2    C412763   3.398   1.588  11.955 -0.1730 -0.2465 -0.1743
  866MPD2    C512764   3.466   1.515  12.042  0.0639 -0.4167  0.8005
  866MPD2     H12765   3.638   1.654  11.734 -1.0086  0.1773 -0.5915
  866MPD2    H112766   3.290   1.597  11.965 -0.2599 -0.6171 -0.7810
  866MPD2    H212767   3.647   1.439  12.107  0.9716  0.0081 -0.5728
  866MPD2    H312768   3.419   1.484  12.135 -0.1619  0.2481  0.9063
  866MPD2     N12769   3.371   1.702  11.741 -1.1947  0.0958  0.1599
  866MPD2    H512770   3.274   1.712  11.767 -1.3287  1.0821 -0.7482
  866MPD2    N112771   3.803   1.554  11.914  0.3435 -0.2597  0.4298
  866MPD2    H712772   3.852   1.506  11.989 -0.7039  0.6788  1.7214
  867MPD2     C12773   0.979   0.738  16.642  0.1770  0.4975 -0.4770
  867MPD2    C112774   0.980   0.619  16.717  0.0371 -0.0497 -0.1318
  867MPD2    C212775   0.919   0.618  16.843 -0.2416  0.2468 -0.8567
  867MPD2    C312776   0.887   0.737  16.907 -0.5479 -0.0371  0.3129
  867MPD2    C412777   0.895   0.858  16.833  0.1191  0.1944  0.2784
  867MPD2    C512778   0.928   0.850  16.704  0.3720  0.2001 -0.0175
  867MPD2     H12779   0.923   0.525  16.898 -1.1355 -0.0034 -1.2065
  867MPD2    H112780   0.888   0.953  16.886 -2.5572 -0.5339  1.1989
  867MPD2    H212781   1.029   0.740  16.546 -0.6618  0.5266 -0.9124
  867MPD2    H312782   0.932   0.938  16.640 -0.1298 -0.5228 -1.0316
  867MPD2     N12783   0.862   0.748  17.041  0.3262 -0.1885  0.9426
  867MPD2    H512784   0.852   0.843  17.075 -1.6409 -0.3305  0.7846
  867MPD2    N112785   1.039   0.507  16.651 -0.3519  0.2203  0.0946
  867MPD2    H712786   1.093   0.528  16.568  1.0023  0.9861  1.1682
  868MPD2     C12787   2.311   0.169  12.946  0.4795  0.4739  0.2642
  868MPD2    C112788   2.393   0.125  13.046 -0.2109 -1.5057 -0.7488
  868MPD2    C212789   2.334   0.121  13.170  0.2807 -0.1137  0.5238
  868MPD2    C312790   2.201   0.153  13.198  0.1139 -0.6515 -0.6594
  868MPD2    C412791   2.126   0.192  13.093  0.5514 -0.0709  0.1349
  868MPD2    C512792   2.185   0.209  12.974  0.0583 -0.2957 -0.4037
  868MPD2     H12793   2.388   0.101  13.262  2.9256  3.5493 -0.2457
  868MPD2    H112794   2.023   0.227  13.101 -0.0836 -1.7242 -0.8174
  868MPD2    H212795   2.354   0.174  12.846 -0.8041  1.9091 -0.2256
  868MPD2    H312796   2.126   0.258  12.897  0.3091  1.1821  0.3319
  868MPD2     N12797   2.153   0.155  13.337  0.5466 -0.0789  0.0537
  868MPD2    H512798   2.216   0.141  13.416  1.3938  2.9964 -0.0815
  868MPD2    N112799   2.526   0.084  13.014 -0.4816  0.3450  0.0872
  868MPD2    H712800   2.566   0.113  12.925  0.5430 -0.2814  0.3414
  869MPD2     C12801   3.935   1.925   0.713 -0.2274 -0.2636 -0.0999
  869MPD2    C112802   3.881   1.973   0.597 -0.2247 -0.1594 -0.7707
  869MPD2    C212803   3.957   2.071   0.532  0.2672  0.3088  0.4908
  869MPD2    C312804   4.064   2.128   0.601  0.7609  0.4699 -0.8022
  869MPD2    C412805   4.112   2.082   0.722  0.3540 -0.4848 -0.1968
  869MPD2    C512806   4.042   1.980   0.769  0.1437  0.0389  0.7144
  869MPD2     H12807   3.918   2.110   0.438  1.6485 -0.1700 -0.2796
  869MPD2    H112808   4.192   2.126   0.779 -1.8322 -2.2539  4.2015
  869MPD2    H212809   3.895   1.845   0.775 -0.8387  0.4398  0.4075
  869MPD2    H312810   4.073   1.946   0.867  0.1537 -0.7190  0.4449
  869MPD2     N12811   4.133   2.237   0.554 -0.3987 -0.2854  0.7000
  869MPD2    H512812   4.181   2.295   0.622 -0.9480  3.2216 -1.9216
  869MPD2    N112813   3.764   1.908   0.545  0.3999  0.2739  0.2675
  869MPD2    H712814   3.712   1.847   0.608 -1.8413  0.1321 -1.6797
  870MPD2     C12815   4.177   0.350   1.755 -0.3606  0.4434 -0.4685
  870MPD2    C112816   4.256   0.453   1.708  0.5405 -0.1752 -0.1718
  870MPD2    C212817   4.200   0.584   1.705 -0.7969 -0.3769  0.2333
  870MPD2    C312818   4.067   0.600   1.736  0.2378  0.1639  0.0681
  870MPD2    C412819   3.988   0.494   1.779  0.2225 -0.0870  0.1753
  870MPD2    C512820   4.055   0.381   1.804  0.5035  0.5578 -0.6159
  870MPD2     H12821   4.257   0.662   1.654  1.1500 -0.5887  2.0870
  870MPD2    H112822   3.882   0.507   1.800  0.7179  1.9064  1.4691
  870MPD2    H212823   4.223   0.253   1.773 -0.7991  0.5216  1.0759
  870MPD2    H312824   3.997   0.297   1.842 -0.7603  0.3010 -3.1156
  870MPD2     N12825   4.009   0.726   1.717 -0.2868 -0.1649 -0.5655
  870MPD2    H512826   4.058   0.796   1.663  0.8036  0.4254  1.1705
  870MPD2    N112827   4.392   0.425   1.677  0.6423  0.5097  0.0597
  870MPD2    H712828   4.421   0.328   1.683 -1.2501 -0.0503 -0.1104
  871MPD2     C12829   0.222   1.320  16.937 -0.0006 -0.6574  1.0943
  871MPD2    C112830   0.138   1.231  16.999 -0.2441 -0.2239  0.4629
  871MPD2    C212831   0.136   1.098  16.953 -0.5921  0.0669  0.2326
  871MPD2    C312832   0.205   1.067  16.837  0.5498  0.6208 -0.1156
  871MPD2    C412833   0.294   1.157  16.778 -0.5058  0.4376  0.4272
  871MPD2    C512834   0.299   1.278  16.829 -0.4645 -0.0700  0.9597
  871MPD2     H12835   0.073   1.016  16.985 -0.9753 -0.6427 -2.3376
  871MPD2    H112836   0.357   1.129  16.695 -0.9836  0.7691 -0.0446
  871MPD2    H212837   0.236   1.421  16.974  0.9817 -0.1999 -0.5026
  871MPD2    H312838   0.376   1.348  16.796  0.5022 -0.8077  1.6362
  871MPD2     N12839   0.187   0.934  16.794 -0.1219  0.4116  0.9545
  871MPD2    H512840   0.124   0.880  16.852 -0.1778  1.1995  1.6452
  871MPD2    N112841   0.070   1.278  17.110 -0.5394  0.2200  0.1208
  871MPD2    H712842   0.069   1.379  17.116 -0.1720  0.1729  0.9918
  872MPD2     C12843   0.728   3.242  13.493 -0.5711 -0.3022 -0.3153
  872MPD2    C112844   0.796   3.197  13.605 -0.5977  0.9603  0.6928
  872MPD2    C212845   0.719   3.165  13.715 -0.1254 -0.5809 -0.1577
  872MPD2    C312846   0.587   3.189  13.718 -0.3216  0.1046  0.6905
  872MPD2    C412847   0.528   3.257  13.610 -0.2926  0.3567 -0.1829
  872MPD2    C512848   0.596   3.278  13.494 -0.2515 -0.4179 -0.3435
  872MPD2     H12849   0.770   3.124  13.801  0.6256 -3.6293 -2.0348
  872MPD2    H112850   0.422   3.281  13.604 -0.6313 -1.0359  0.2677
  872MPD2    H212851   0.786   3.260  13.404 -0.2192 -1.2684 -0.2861
  872MPD2    H312852   0.540   3.306  13.406  1.3444  0.4704 -1.0749
  872MPD2     N12853   0.490   3.145  13.814 -0.1991  0.1577  0.5721
  872MPD2    H512854   0.401   3.192  13.798  1.3720  2.0809 -2.6860
  872MPD2    N112855   0.939   3.167  13.613  0.2347 -0.5540  0.8231
  872MPD2    H712856   0.972   3.124  13.699  1.4585  0.3677  0.8108
  873MPD2     C12857   2.801   3.419   0.741  0.1959  0.6110 -0.3417
  873MPD2    C112858   2.731   3.312   0.797 -1.2577 -0.3766  0.1190
  873MPD2    C212859   2.679   3.210   0.720 -0.1382 -0.1939  0.5190
  873MPD2    C312860   2.699   3.213   0.585 -0.8609  0.0414  0.2993
  873MPD2    C412861   2.756   3.323   0.535  0.3268 -0.4367  0.1744
  873MPD2    C512862   2.811   3.425   0.609 -0.3759  0.6130 -0.0588
  873MPD2     H12863   2.637   3.123   0.770  0.8817  0.3667  2.3279
  873MPD2    H112864   2.785   3.317   0.431  1.1682  1.1007  0.3176
  873MPD2    H212865   2.844   3.499   0.801 -2.8774  0.0246  2.6351
  873MPD2    H312866   2.861   3.510   0.563 -3.2836  1.0515 -2.3595
  873MPD2     N12867   2.655   3.118   0.491  0.5176  0.3036  0.2093
  873MPD2    H512868   2.680   3.131   0.393  0.7404 -0.1857  0.2018
  873MPD2    N112869   2.721   3.306   0.935  0.1168 -0.3200 -0.2295
  873MPD2    H712870   2.758   3.377   0.996  3.0108 -0.0081 -2.3117
  874MPD2     C12871   2.576   3.390  16.187  0.0002  0.2818 -0.7771
  874MPD2    C112872   2.599   3.341  16.314 -0.0944 -0.2495 -0.1807
  874MPD2    C212873   2.683   3.403  16.401 -0.6189  0.2787  0.1475
  874MPD2    C312874   2.769   3.506  16.353  0.1438 -0.3655  0.0713
  874MPD2    C412875   2.730   3.570  16.233 -0.2210 -0.6757  0.1696
  874MPD2    C512876   2.637   3.513  16.151 -0.8087  0.1523  0.1419
  874MPD2     H12877   2.687   3.383  16.508  0.3296  0.3426  0.1209
  874MPD2    H112878   2.794   3.650  16.197 -1.6341 -0.9902 -3.0739
  874MPD2    H212879   2.502   3.346  16.121 -1.0495 -0.7048  1.0655
  874MPD2    H312880   2.621   3.566  16.059 -3.3966  0.1136  0.5642
  874MPD2     N12881   2.882   3.546  16.432 -0.7890 -0.0414  0.0662
  874MPD2    H512882   2.908   3.493  16.514 -2.7496  0.8719  1.2813
  874MPD2    N112883   2.529   3.221  16.351  0.6585 -0.0814  0.0194
  874MPD2    H712884   2.453   3.190  16.292  0.0024  1.6204 -0.0266
  875MPD2     C12885   2.484   1.444  14.943  0.2454  0.8381 -0.1640
  875MPD2    C112886   2.595   1.512  14.897 -0.5067  0.0452  0.2386
  875MPD2    C212887   2.680   1.551  14.998  0.4062  0.4513  0.0196
  875MPD2    C312888   2.655   1.532  15.136 -0.1041 -0.2644  0.7669
  875MPD2    C412889   2.532   1.486  15.174 -0.5536 -0.0012 -0.1361
  875MPD2    C512890   2.446   1.449  15.072 -0.2893  0.3314  0.0425
  875MPD2     H12891   2.770   1.604  14.971 -0.5236  1.1527 -1.6383
  875MPD2    H112892   2.503   1.465  15.276 -0.5352 -0.8282 -0.2949
  875MPD2    H212893   2.414   1.401  14.873  0.3793  0.1344  0.1309
  875MPD2    H312894   2.362   1.386  15.098 -0.5369  0.0957 -1.3051
  875MPD2     N12895   2.751   1.549  15.243 -0.0746  0.1434  0.7319
  875MPD2    H512896   2.727   1.543  15.342 -1.1916 -0.1894  0.4394
  875MPD2    N112897   2.627   1.523  14.753  0.0639 -0.2735 -0.0860
  875MPD2    H712898   2.707   1.581  14.730 -0.5452  0.2439 -0.8934
  876MPD2     C12899   2.806   2.887  16.355 -0.1604 -0.7727 -0.3287
  876MPD2    C112900   2.715   2.848  16.256  0.7314 -0.3840  0.1684
  876MPD2    C212901   2.632   2.732  16.278  0.1402 -0.3578  0.3643
  876MPD2    C312902   2.625   2.679  16.403 -0.7125 -0.0529 -0.0161
  876MPD2    C412903   2.715   2.721  16.501 -0.6351  0.1615  0.3575
  876MPD2    C512904   2.795   2.825  16.473 -0.0853  0.1887  0.0554
  876MPD2     H12905   2.570   2.693  16.199  0.0990  1.5650 -0.5545
  876MPD2    H112906   2.722   2.691  16.605 -1.1272 -3.6589 -0.7401
  876MPD2    H212907   2.860   2.979  16.334  0.5443 -1.5355 -1.8479
  876MPD2    H312908   2.845   2.865  16.561 -1.3268 -1.3475  1.4709
  876MPD2     N12909   2.530   2.578  16.426 -0.6738 -0.0980 -0.1795
  876MPD2    H512910   2.490   2.538  16.342 -2.7216 -1.5687  1.4741
  876MPD2    N112911   2.708   2.923  16.135  0.5463  0.2894  0.4252
  876MPD2    H712912   2.782   2.992  16.121  0.6982  0.3900  1.6793
  877MPD2     C12913   2.162   3.047  15.539 -0.0806 -0.8340  0.3917
  877MPD2    C112914   2.276   3.119  15.505 -0.8004 -0.0957  0.1661
  877MPD2    C212915   2.295   3.169  15.381  0.4679  0.0133 -0.0441
  877MPD2    C312916   2.200   3.148  15.285  0.1925  0.2369  0.3516
  877MPD2    C412917   2.091   3.078  15.316  0.1585 -0.5072 -0.0239
  877MPD2    C512918   2.066   3.028  15.442  0.6215 -0.5018 -0.4191
  877MPD2     H12919   2.390   3.210  15.348  1.1887 -0.3619  1.5962
  877MPD2    H112920   2.020   3.059  15.237  0.3161  1.8396 -0.7452
  877MPD2    H212921   2.137   3.023  15.641  1.0576  0.3140  0.9469
  877MPD2    H312922   1.975   2.973  15.463  1.2839 -1.6585 -0.5620
  877MPD2     N12923   2.223   3.198  15.150  0.3270  0.5331 -0.1606
  877MPD2    H512924   2.152   3.184  15.080  0.1215 -1.3552  0.4279
  877MPD2    N112925   2.376   3.150  15.597  0.2077 -0.2566 -0.5855
  877MPD2    H712926   2.451   3.213  15.568 -0.4839  0.3584 -1.0627
  878MPD2     C12927   1.883   2.663  12.916  0.3802  0.6700  0.4419
  878MPD2    C112928   1.987   2.733  12.856 -0.2379  0.5851 -0.3025
  878MPD2    C212929   2.113   2.740  12.917 -0.1315 -0.2455 -1.0413
  878MPD2    C312930   2.127   2.684  13.048 -0.4479 -0.4592 -0.4692
  878MPD2    C412931   2.018   2.623  13.103  0.3759 -0.1197 -0.2379
  878MPD2    C512932   1.904   2.605  13.033  0.0595  0.3571  0.4866
  878MPD2     H12933   2.199   2.782  12.866 -1.1715  1.0829 -1.6824
  878MPD2    H112934   2.034   2.554  13.185  0.0770  1.0107  0.7898
  878MPD2    H212935   1.786   2.658  12.870  0.2134  0.4943  0.8120
  878MPD2    H312936   1.821   2.552  13.079  1.5083 -0.5761  2.0252
  878MPD2     N12937   2.255   2.696  13.100 -0.3297 -0.1148 -0.1202
  878MPD2    H512938   2.325   2.758  13.059 -0.0227 -0.9754 -0.8939
  878MPD2    N112939   1.962   2.769  12.715  0.0299 -0.5435  0.1720
  878MPD2    H712940   1.864   2.766  12.687 -0.1373  0.1382  0.6738
  879MPD2     C12941   2.445   3.231  17.360  0.1972 -0.0309 -0.4241
  879MPD2    C112942   2.488   3.320  17.266 -0.2802  0.3986  0.7705
  879MPD2    C212943   2.434   3.309  17.134 -0.0278  0.9121 -0.1991
  879MPD2    C312944   2.349   3.206  17.110 -0.0757 -0.4499 -0.4072
  879MPD2    C412945   2.325   3.110  17.206  0.4017 -0.6116 -0.1775
  879MPD2    C512946   2.367   3.126  17.333 -0.1938  0.0906 -0.0265
  879MPD2     H12947   2.438   3.398  17.071  0.9262  0.0943 -1.2993
  879MPD2    H112948   2.261   3.028  17.176  1.7379 -2.7226  2.6933
  879MPD2    H212949   2.483   3.224  17.462 -1.3698  1.4300  0.2710
  879MPD2    H312950   2.339   3.051  17.406  0.1274 -0.6005 -0.6182
  879MPD2     N12951   2.289   3.184  16.980  0.2310  0.1767  1.2002
  879MPD2    H512952   2.225   3.106  16.967  1.9318 -0.8466 -1.0376
  879MPD2    N112953   2.561   3.432  17.313 -0.3133 -0.3986  0.1392
  879MPD2    H712954   2.555   3.457  17.411  2.8235 -1.1179  0.4985
  880MPD2     C12955   3.623   0.648   0.355 -0.4104  0.5545  0.5429
  880MPD2    C112956   3.667   0.701   0.470 -0.0020  0.0245 -0.1210
  880MPD2    C212957   3.760   0.625   0.537 -0.6520  0.2086 -0.1837
  880MPD2    C312958   3.802   0.500   0.497 -0.7450 -0.2824  0.1112
  880MPD2    C412959   3.739   0.441   0.381  0.6974  0.1554 -0.1326
  880MPD2    C512960   3.644   0.515   0.321 -0.0964 -0.4768 -0.0294
  880MPD2     H12961   3.808   0.655   0.630  0.2637  0.0824 -0.6181
  880MPD2    H112962   3.752   0.339   0.347  1.7495  0.2888 -0.1254
  880MPD2    H212963   3.549   0.706   0.302  0.2447 -1.2005 -2.2871
  880MPD2    H312964   3.587   0.479   0.236 -1.1811  4.7918 -1.5619
  880MPD2     N12965   3.902   0.426   0.576  0.5458 -0.2320  0.5251
  880MPD2    H512966   3.942   0.481   0.652 -0.8576  1.4310  0.0630
  880MPD2    N112967   3.634   0.838   0.498 -0.2066 -0.0607  0.1918
  880MPD2    H712968   3.562   0.884   0.443 -0.7788 -2.1367 -0.7958
  881MPD2     C12969   3.974   1.720   0.229 -0.4546 -0.1054  0.5851
  881MPD2    C112970   3.885   1.628   0.177 -0.2607  0.4344 -0.0755
  881MPD2    C212971   3.851   1.525   0.266 -0.3728  0.2759  0.4202
  881MPD2    C312972   3.873   1.544   0.400 -0.3170 -0.4107 -0.2822
  881MPD2    C412973   3.940   1.653   0.453 -0.5213 -0.2923 -0.1392
  881MPD2    C512974   3.997   1.738   0.364  0.7280 -0.2623 -0.6713
  881MPD2     H12975   3.798   1.438   0.227 -0.4184  0.4941 -0.0121
  881MPD2    H112976   3.943   1.665   0.560 -0.1409  0.2844 -0.2113
  881MPD2    H212977   4.017   1.797   0.165  0.4935 -0.6061  0.6268
  881MPD2    H312978   4.047   1.824   0.406 -0.1472 -0.0677 -0.0235
  881MPD2     N12979   3.827   1.451   0.491 -0.2086  0.7433 -0.0939
  881MPD2    H512980   3.856   1.453   0.588  1.4128  0.1803 -0.5763
  881MPD2    N112981   3.887   1.611   0.036 -0.6087  0.0152 -0.3897
  881MPD2    H712982   3.944   1.675  17.729 -1.4717  0.6722 -0.5177
  882MPD2     C12983   2.196   2.818  14.624 -0.0323  0.4165 -0.2746
  882MPD2    C112984   2.149   2.939  14.589  0.2216 -0.4507  0.1909
  882MPD2    C212985   2.073   2.951  14.474 -0.7780  0.0154 -0.4486
  882MPD2    C312986   2.047   2.845  14.397  0.6409  0.1486 -1.1555
  882MPD2    C412987   2.082   2.718  14.446  0.1782 -0.2136 -0.1913
  882MPD2    C512988   2.153   2.705  14.559 -0.1327 -0.5121  0.0593
  882MPD2     H12989   2.030   3.047  14.447 -0.3637 -0.4153 -2.5904
  882MPD2    H112990   2.064   2.628  14.389  1.2544  0.9708 -2.3938
  882MPD2    H212991   2.265   2.804  14.706  1.5529 -1.6160 -1.9230
  882MPD2    H312992   2.191   2.604  14.571  0.1932 -0.6507 -2.1440
  882MPD2     N12993   1.953   2.852  14.291 -0.3429  0.0795 -0.5880
  882MPD2    H512994   1.917   2.766  14.251 -0.2023  1.4780 -3.7048
  882MPD2    N112995   2.182   3.051  14.675 -0.2328  0.0677  0.5328
  882MPD2    H712996   2.245   3.041  14.754 -0.9787  0.1940  1.1371
  883MPD2     C12997   4.351   2.836  16.319 -0.4544  0.0716  0.2547
  883MPD2    C112998   4.429   2.907  16.232  0.2130  0.4982  0.1435
  883MPD2    C212999   4.531   2.987  16.276 -0.4186 -0.1911  0.1875
  883MPD2    C313000   4.571   2.983  16.404 -0.0724  0.5219  0.3913
  883MPD2    C413001   4.502   2.900  16.493  0.9584  0.6163  0.8702
  883MPD2    C513002   4.392   2.824  16.453  0.1235 -0.1084 -0.2302
  883MPD2     H13003   4.584   3.053  16.208  0.2842 -0.7889  0.1567
  883MPD2    H113004   4.521   2.878  16.597 -2.5460  0.3476  1.4561
  883MPD2    H213005   4.273   2.769  16.286  0.1341 -1.7269  2.5436
  883MPD2    H313006   4.336   2.754  16.514  0.2755  0.0128  0.0462
  883MPD2     N13007   4.669   3.074  16.445 -0.5165  0.0105 -0.6243
  883MPD2    H513008   4.709   3.132  16.372 -1.7127 -0.2296 -1.4677
  883MPD2    N113009   4.402   2.913  16.095 -0.3969  0.2031 -0.7862
  883MPD2    H713010   4.439   2.990  16.041 -0.2402  1.2424  0.8162
  884MPD2     C13011   1.574   3.899  15.129  0.2548 -0.1275 -0.4818
  884MPD2    C113012   1.530   3.990  15.034 -0.6321  0.5536  0.0797
  884MPD2    C213013   1.407   4.049  15.058 -0.0197  0.3250 -0.5201
  884MPD2    C313014   1.329   4.011  15.160 -0.1137  0.2140 -0.8258
  884MPD2    C413015   1.378   3.922  15.253 -0.0289 -0.7882  0.1212
  884MPD2    C513016   1.498   3.864  15.237  0.0391  0.0450 -0.5442
  884MPD2     H13017   1.363   4.124  14.993  0.9033  1.5997  0.3307
  884MPD2    H113018   1.317   3.883  15.334  0.4477 -0.9789  0.3885
  884MPD2    H213019   1.670   3.850  15.125  0.3948 -0.1120  2.8768
  884MPD2    H313020   1.533   3.799  15.316  0.5192  0.3372 -0.5190
  884MPD2     N13021   1.205   4.077  15.167 -0.8661 -0.4289  0.1492
  884MPD2    H513022   1.186   4.140  15.090  1.7814 -1.0198 -0.9930
  884MPD2    N113023   1.612   4.035  14.922  0.0968 -0.2652 -0.1152
  884MPD2    H713024   1.582   4.126  14.889  0.2324  0.1663  0.9358
  885MPD2     C13025   4.161   4.321   0.292  0.3380  0.2737  0.1634
  885MPD2    C113026   4.297   4.296   0.271  0.0155 -0.4466  0.1395
  885MPD2    C213027   4.354   4.321   0.148 -0.0726 -0.7369  0.3335
  885MPD2    C313028   4.279   4.389   0.051 -0.2923  0.0941  0.0164
  885MPD2    C413029   4.151   4.424   0.079 -0.2345  0.5301 -0.2952
  885MPD2    C513030   4.096   4.388   0.199  0.5100 -0.5919  0.2203
  885MPD2     H13031   4.456   4.295   0.123 -0.4057 -0.9685 -0.8217
  885MPD2    H113032   4.075   4.470   0.016 -0.5039  0.8699  0.2763
  885MPD2    H213033   4.109   4.303   0.385  1.1535 -2.3784  0.0838
  885MPD2    H313034   3.992   4.409   0.217  0.3684 -0.7531 -0.3961
  885MPD2     N13035   4.341   4.422  17.677 -0.0752  0.0965  0.5206
  885MPD2    H513036   4.433   4.388  17.651 -0.0316 -0.3593  1.2929
  885MPD2    N113037   4.369   4.250   0.379  0.7779  0.1605  0.1964
  885MPD2    H713038   4.320   4.231   0.466  1.3169 -0.7157  0.3037
  886MPD2     C13039   0.767   2.495  15.331  0.2187 -0.4766 -0.4553
  886MPD2    C113040   0.895   2.519  15.369  0.2640 -0.1958  0.9523
  886MPD2    C213041   0.958   2.627  15.309  0.4297  0.2486  0.3806
  886MPD2    C313042   0.901   2.697  15.208 -0.1205  0.8924 -0.1162
  886MPD2    C413043   0.782   2.661  15.153 -0.8398  0.0464  0.7603
  886MPD2    C513044   0.713   2.565  15.227  0.6097  0.1859 -0.0140
  886MPD2     H13045   1.056   2.660  15.341 -0.0742 -0.1659  2.3695
  886MPD2    H113046   0.733   2.713  15.071 -1.5610  0.8028  1.6698
  886MPD2    H213047   0.706   2.422  15.382  0.0580 -1.3080 -1.8483
  886MPD2    H313048   0.610   2.540  15.204  0.7289 -0.5718  0.2567
  886MPD2     N13049   0.961   2.807  15.142  0.1908 -0.1738 -0.2058
  886MPD2    H513050   0.938   2.837  15.048 -0.3677 -0.6518 -0.2277
  886MPD2    N113051   0.975   2.437  15.452  0.2988 -0.1602 -0.6934
  886MPD2    H713052   1.075   2.454  15.448  0.2428  0.7782  1.8096
  887MPD2     C13053   1.633   2.296  15.455  0.3906  0.0445  0.6238
  887MPD2    C113054   1.534   2.356  15.524 -0.3483 -0.0830  0.3150
  887MPD2    C213055   1.554   2.478  15.583  0.5432  0.5230  0.3985
  887MPD2    C313056   1.674   2.538  15.578  0.1783 -0.1808 -0.7093
  887MPD2    C413057   1.780   2.471  15.525 -0.3398 -0.6345  0.1730
  887MPD2    C513058   1.759   2.347  15.466  0.0968  0.8685  0.3095
  887MPD2     H13059   1.467   2.519  15.633  0.7871  2.6230 -0.8937
  887MPD2    H113060   1.880   2.513  15.519  0.4765 -2.2872  2.2904
  887MPD2    H213061   1.616   2.207  15.396 -0.8412 -0.6041  1.9309
  887MPD2    H313062   1.836   2.300  15.407 -0.9419  1.8443 -1.8306
  887MPD2     N13063   1.678   2.667  15.631 -0.4404 -0.0665  0.2342
  887MPD2    H513064   1.589   2.700  15.669 -0.0134  1.6302 -0.2473
  887MPD2    N113065   1.403   2.303  15.540 -0.2138  0.5685  0.0543
  887MPD2    H713066   1.333   2.364  15.579  1.0671  2.0525  0.0385
  888MPD2     C13067   3.175   2.558  15.055  0.2235 -0.3986  0.1135
  888MPD2    C113068   3.159   2.609  15.187 -0.4809  0.6967  0.8364
  888MPD2    C213069   3.212   2.735  15.214  0.2504 -0.1026 -0.2609
  888MPD2    C313070   3.282   2.807  15.118  0.3523 -0.2205  0.2106
  888MPD2    C413071   3.311   2.747  14.996 -0.5295  0.0041  0.0877
  888MPD2    C513072   3.251   2.625  14.963  0.2057 -0.5086  0.0304
  888MPD2     H13073   3.205   2.768  15.317 -1.8595  1.0341 -0.7627
  888MPD2    H113074   3.371   2.795  14.920  1.3977  0.8651  2.1344
  888MPD2    H213075   3.155   2.454  15.034  0.6818 -0.6385  0.8428
  888MPD2    H313076   3.274   2.583  14.866  0.2153  2.0107 -1.0499
  888MPD2     N13077   3.317   2.945  15.144 -0.7306  0.3504  0.3703
  888MPD2    H513078   3.295   2.987  15.234 -0.0775 -1.0373  1.1852
  888MPD2    N113079   3.075   2.541  15.283 -0.0057  0.9476  0.1662
  888MPD2    H713080   3.074   2.592  15.372  3.3583  0.2217  0.6183
  889MPD2     C13081   2.384   2.464  12.836  0.4250  0.1124  0.3807
  889MPD2    C113082   2.475   2.459  12.942  0.1132  0.5317 -0.0777
  889MPD2    C213083   2.575   2.561  12.942  0.2505 -0.3928 -0.0800
  889MPD2    C313084   2.568   2.667  12.857  0.2504 -0.4815  0.1184
  889MPD2    C413085   2.459   2.683  12.769 -0.0081  0.3472 -0.0127
  889MPD2    C513086   2.376   2.577  12.760  1.3116  0.2460  0.7853
  889MPD2     H13087   2.648   2.551  13.021  1.3198 -1.2041 -1.1673
  889MPD2    H113088   2.441   2.768  12.703 -1.3364  1.0875  1.3065
  889MPD2    H213089   2.305   2.392  12.817  1.2037  0.0416 -2.5836
  889MPD2    H313090   2.306   2.572  12.678  0.0909  2.1322  1.7396
  889MPD2     N13091   2.675   2.758  12.864 -0.4993 -0.3109 -0.1768
  889MPD2    H513092   2.754   2.733  12.922 -2.1555 -2.1809  1.2719
  889MPD2    N113093   2.485   2.339  13.027  0.5462 -0.0954 -0.0611
  889MPD2    H713094   2.418   2.266  13.004  0.9051  0.1869 -1.9464
  890MPD2     C13095   2.131   3.883  14.544  0.0048 -0.4137  0.4314
  890MPD2    C113096   2.233   3.964  14.584  0.7705 -0.0511  0.1771
  890MPD2    C213097   2.274   3.948  14.719  0.4552 -1.1511 -0.5277
  890MPD2    C313098   2.240   3.843  14.798 -0.0055  0.7102 -0.6097
  890MPD2    C413099   2.145   3.758  14.755  0.1377 -0.2512  0.0734
  890MPD2    C513100   2.081   3.790  14.634 -0.3501  0.3210  0.4964
  890MPD2     H13101   2.337   4.024  14.765 -0.1802 -0.9186 -0.0500
  890MPD2    H113102   2.088   3.694  14.822  2.2896 -0.0238  2.1074
  890MPD2    H213103   2.092   3.890  14.443 -2.3526 -0.0213  1.3838
  890MPD2    H313104   1.995   3.731  14.603  0.3415 -0.3865 -0.0736
  890MPD2     N13105   2.296   3.847  14.927  0.6454 -0.0773  0.0862
  890MPD2    H513106   2.374   3.911  14.939 -0.2463  0.5697  2.3962
  890MPD2    N113107   2.297   4.065  14.505 -0.3376  0.4142 -0.4298
  890MPD2    H713108   2.257   4.073  14.412 -2.2286  0.5135  0.4079
  891MPD2     C13109   0.527   3.070  16.393  0.1645 -0.7871  0.8140
  891MPD2    C113110   0.434   3.023  16.482  0.1625  0.1504  0.3458
  891MPD2    C213111   0.447   3.066  16.619 -0.1355 -0.6831 -0.1456
  891MPD2    C313112   0.552   3.140  16.666  0.2779 -0.3524  0.1278
  891MPD2    C413113   0.645   3.186  16.566  0.1310 -0.4547 -0.7328
  891MPD2    C513114   0.627   3.153  16.433 -0.3046 -0.5281  0.2013
  891MPD2     H13115   0.372   3.037  16.692  0.3485  0.5824  0.8540
  891MPD2    H113116   0.729   3.245  16.602 -1.5907  0.6990  1.3447
  891MPD2    H213117   0.529   3.034  16.291  1.2583 -0.9104  0.8737
  891MPD2    H313118   0.703   3.190  16.366 -0.1897 -2.1433 -0.5431
  891MPD2     N13119   0.567   3.161  16.804 -0.2288  0.0408 -0.0588
  891MPD2    H513120   0.498   3.116  16.863 -0.8315 -0.8174 -1.4133
  891MPD2    N113121   0.332   2.940  16.433  0.0703 -0.3749  0.1795
  891MPD2    H713122   0.339   2.916  16.335  0.1394  1.3032 -0.2314
  892MPD2     C13123   1.500   3.369  14.720 -0.6931 -0.5023  0.2134
  892MPD2    C113124   1.410   3.354  14.621  0.5100  0.0161  0.1786
  892MPD2    C213125   1.454   3.299  14.501 -0.8586  0.6209  0.3029
  892MPD2    C313126   1.576   3.235  14.482  0.2846  0.0660 -0.4458
  892MPD2    C413127   1.666   3.256  14.585 -0.2983 -0.0716  0.0908
  892MPD2    C513128   1.628   3.324  14.697  0.6016 -0.0788  0.0219
  892MPD2     H13129   1.377   3.294  14.425  0.7169 -1.7267 -1.1499
  892MPD2    H113130   1.771   3.230  14.581 -0.5928 -1.0759 -1.2527
  892MPD2    H213131   1.471   3.429  14.806  2.5450 -0.0977  1.0273
  892MPD2    H313132   1.698   3.342  14.777  1.4207 -0.3911 -0.6129
  892MPD2     N13133   1.613   3.186  14.361 -0.5714  0.5432 -0.3743
  892MPD2    H513134   1.710   3.155  14.354 -0.3333  1.3689 -0.7750
  892MPD2    N113135   1.279   3.404  14.631 -0.2388 -0.0444  0.2056
  892MPD2    H713136   1.235   3.429  14.543 -1.2592  0.0455  0.7409
  893MPD2     C13137   3.422   1.089   1.818 -0.4822  1.0278 -0.0635
  893MPD2    C113138   3.500   1.082   1.704 -0.3694 -0.3405  0.2124
  893MPD2    C213139   3.530   0.956   1.646 -0.3010  0.5722 -0.9251
  893MPD2    C313140   3.494   0.841   1.716 -0.3422  0.6794  1.0347
  893MPD2    C413141   3.422   0.848   1.832 -0.0044 -0.1590 -0.6321
  893MPD2    C513142   3.383   0.971   1.880  0.3079 -0.2019  0.1900
  893MPD2     H13143   3.597   0.951   1.560  0.2378  0.1874 -0.4768
  893MPD2    H113144   3.394   0.765   1.896 -0.1550 -0.0637 -0.5741
  893MPD2    H213145   3.394   1.185   1.860 -0.5568  0.4935  1.1091
  893MPD2    H313146   3.327   0.964   1.973 -1.4311  0.6836 -0.7875
  893MPD2     N13147   3.527   0.714   1.670  0.4983 -0.0120 -0.6085
  893MPD2    H513148   3.513   0.637   1.734  0.2956 -0.3919 -1.1133
  893MPD2    N113149   3.541   1.203   1.643  0.5702 -0.4905  0.1073
  893MPD2    H713150   3.518   1.292   1.685 -1.0912 -1.3495  1.0456
  894MPD2     C13151   1.596   4.248   1.162  0.1630 -0.8945 -0.0102
  894MPD2    C113152   1.516   4.276   1.268  0.1156  0.2574 -0.1411
  894MPD2    C213153   1.522   4.404   1.323 -0.6054  0.5397 -0.1654
  894MPD2    C313154   1.617   4.495   1.281 -0.1039  0.1577  0.4822
  894MPD2    C413155   1.688   4.472   1.166  0.3992  0.0109  0.3764
  894MPD2    C513156   1.679   4.348   1.109 -0.1125  0.4214  0.1525
  894MPD2     H13157   1.468   4.430   1.414  0.4108  1.3139  0.2174
  894MPD2    H113158   1.750   4.551   1.126 -1.5001  0.8315 -0.9872
  894MPD2    H213159   1.583   4.163   1.096 -2.5305 -0.3027 -0.2225
  894MPD2    H313160   1.749   4.337   1.027 -1.1584 -1.2202 -0.5310
  894MPD2     N13161   1.625   4.616   1.352  0.0121  0.0114 -0.3446
  894MPD2    H513162   1.567   4.632   1.434 -0.1351  0.0200 -0.4503
  894MPD2    N113163   1.432   4.174   1.330 -0.2087 -0.7281 -0.1554
  894MPD2    H713164   1.428   4.087   1.278 -0.2011 -0.9287  0.1798
  895MPD2     C13165   0.449   2.860  13.406 -0.3316 -0.7059 -0.1631
  895MPD2    C113166   0.361   2.825  13.310 -0.5243 -0.0249 -0.6581
  895MPD2    C213167   0.342   2.692  13.279  0.3625  0.0080 -0.1072
  895MPD2    C313168   0.412   2.595  13.349 -0.0677  0.2938 -0.5464
  895MPD2    C413169   0.505   2.625  13.445 -0.5785 -0.5975 -0.3908
  895MPD2    C513170   0.523   2.757  13.467 -0.0140 -0.6933 -0.2728
  895MPD2     H13171   0.259   2.675  13.211  1.3002 -0.0909 -1.2393
  895MPD2    H113172   0.562   2.547  13.495 -0.1497  0.6307  1.0385
  895MPD2    H213173   0.472   2.963  13.434  0.8894 -1.7012  2.4616
  895MPD2    H313174   0.605   2.793  13.528 -1.6804  0.4434  1.2623
  895MPD2     N13175   0.363   2.463  13.330  0.6580  0.0648 -0.5803
  895MPD2    H513176   0.303   2.440  13.252  1.0726 -0.8863 -0.6180
  895MPD2    N113177   0.286   2.919  13.234  1.0611  0.4565  0.4076
  895MPD2    H713178   0.230   2.900  13.152 -0.1718 -1.4021  1.6549
  896MPD2     C13179   3.765   4.451   1.735 -0.0888  0.0912 -0.9019
  896MPD2    C113180   3.678   4.472   1.626  0.0436  0.4546  0.4178
  896MPD2    C213181   3.540   4.444   1.640 -0.1807  0.1409 -0.3062
  896MPD2    C313182   3.492   4.396   1.759  0.9953 -0.3683  0.0505
  896MPD2    C413183   3.582   4.385   1.865 -0.2426 -0.0280  0.8883
  896MPD2    C513184   3.716   4.407   1.853  0.3228 -0.7851 -0.3092
  896MPD2     H13185   3.464   4.457   1.564  0.1486  0.8951 -0.5113
  896MPD2    H113186   3.549   4.338   1.957 -0.4511  0.6327  1.1525
  896MPD2    H213187   3.872   4.463   1.730  0.0094 -1.1166 -1.7186
  896MPD2    H313188   3.785   4.366   1.926  0.6701  2.1595  1.0320
  896MPD2     N13189   3.352   4.392   1.781  0.2319 -0.1185 -0.5522
  896MPD2    H513190   3.293   4.424   1.705 -0.4848  0.1404  0.1117
  896MPD2    N113191   3.740   4.531   1.515  0.4636 -0.1381  0.0728
  896MPD2    H713192   3.838   4.549   1.534  0.6144 -1.8240  0.8846
  897MPD2     C13193   4.246   1.963  11.010 -0.0995 -0.1668 -0.6405
  897MPD2    C113194   4.194   2.061  10.936  0.6547 -0.2408  0.1893
  897MPD2    C213195   4.060   2.105  10.954 -0.6822 -0.2969  0.1743
  897MPD2    C313196   3.977   2.044  11.048  0.0747  0.6443 -0.2661
  897MPD2    C413197   4.030   1.931  11.121 -0.5835 -0.1318  0.1975
  897MPD2    C513198   4.164   1.897  11.100  0.4973 -0.4276 -0.3853
  897MPD2     H13199   4.040   2.206  10.918 -2.5699 -0.0166  1.9664
  897MPD2    H113200   3.971   1.871  11.189 -0.1376 -2.0160 -1.1048
  897MPD2    H213201   4.353   1.948  11.017 -0.0222 -0.3507 -2.0715
  897MPD2    H313202   4.209   1.815  11.155 -0.2297 -0.3373  0.3507
  897MPD2     N13203   3.849   2.102  11.083  0.4301  0.0496  0.1806
  897MPD2    H513204   3.814   2.185  11.037  0.6389  0.4264  0.7008
  897MPD2    N113205   4.282   2.128  10.864 -0.8447  0.6933  0.3574
  897MPD2    H713206   4.382   2.109  10.871 -0.7315  1.3116  0.4670
  898MPD2     C13207   1.231   3.024  17.213  0.0870  0.1608 -0.0583
  898MPD2    C113208   1.290   2.982  17.330  0.1925 -0.3378  0.2383
  898MPD2    C213209   1.270   3.052  17.447 -0.3887  0.4289 -0.1271
  898MPD2    C313210   1.191   3.161  17.454 -0.0050 -0.1167 -0.6471
  898MPD2    C413211   1.132   3.212  17.338 -0.6286  0.3769  0.1321
  898MPD2    C513212   1.151   3.143  17.222 -0.2538 -0.2079 -0.2848
  898MPD2     H13213   1.317   3.010  17.536 -0.0897 -1.0163 -0.9626
  898MPD2    H113214   1.074   3.303  17.333 -1.3183 -0.1475 -1.4720
  898MPD2    H213215   1.250   2.982  17.115 -0.4733 -0.1746 -0.0248
  898MPD2    H313216   1.110   3.191  17.134  1.5134 -0.0334 -1.0146
  898MPD2     N13217   1.176   3.222  17.578  0.0395  0.5644  0.7577
  898MPD2    H513218   1.228   3.189  17.658 -1.8034 -0.7626  1.4087
  898MPD2    N113219   1.367   2.863  17.336 -0.2612  0.0221  0.3101
  898MPD2    H713220   1.409   2.833  17.423  1.3800  1.6910  0.1011
  899MPD2     C13221   2.133   3.397  17.322 -0.3664  0.3088 -0.5002
  899MPD2    C113222   2.188   3.503  17.393  0.3168  0.0017  0.3095
  899MPD2    C213223   2.172   3.502  17.530  0.4657  0.2224 -0.1677
  899MPD2    C313224   2.102   3.403  17.590 -0.4672  0.1456  0.3966
  899MPD2    C413225   2.053   3.296  17.525  0.5525  0.0336 -0.5727
  899MPD2    C513226   2.071   3.293  17.388  0.1197  0.2261 -0.1705
  899MPD2     H13227   2.208   3.588  17.586 -0.8971  1.1864 -0.7784
  899MPD2    H113228   2.001   3.219  17.582 -0.5134  0.4954 -0.9344
  899MPD2    H213229   2.144   3.403  17.214  1.9208  1.7930 -0.1974
  899MPD2    H313230   2.034   3.203  17.340  1.4307  0.3359 -1.3809
  899MPD2     N13231   2.061   3.416  17.728 -0.0396  0.2375  0.4833
  899MPD2    H513232   1.980   3.364   0.015 -0.4616  0.0482 -0.8995
  899MPD2    N113233   2.245   3.615  17.327  0.1371  0.2692  0.4453
  899MPD2    H713234   2.230   3.621  17.227 -0.3937 -0.3772  0.4817
  900MPD2     C13235   1.330   0.772  12.634 -0.1392 -0.6374  0.8931
  900MPD2    C113236   1.324   0.629  12.633 -0.5004 -0.1638 -0.4258
  900MPD2    C213237   1.208   0.562  12.593  0.5194  0.8426 -0.0775
  900MPD2    C313238   1.099   0.639  12.557 -0.6159 -0.2446  0.1856
  900MPD2    C413239   1.099   0.778  12.568 -0.2147  0.1579 -0.7298
  900MPD2    C513240   1.219   0.838  12.597 -0.4749  0.6563  0.1600
  900MPD2     H13241   1.198   0.454  12.589  1.0651  0.8167 -0.6744
  900MPD2    H113242   1.020   0.844  12.533  1.0533  0.8901 -2.1862
  900MPD2    H213243   1.415   0.837  12.654  1.2242 -1.1353 -3.3226
  900MPD2    H313244   1.221   0.947  12.600  0.2361  0.5333  4.0544
  900MPD2     N13245   0.991   0.569  12.494  0.2215 -0.5492  0.1602
  900MPD2    H513246   0.988   0.468  12.505  1.4173 -0.7039 -0.9690
  900MPD2    N113247   1.444   0.564  12.658  0.1577  0.3147  0.5057
  900MPD2    H713248   1.525   0.623  12.675  0.6705 -0.7461  1.7098
  901MPD2     C13249   2.054   4.433  12.858  0.1656 -0.1403 -0.0929
  901MPD2    C113250   2.026   4.466  12.728 -0.4206  0.5452  0.0884
  901MPD2    C213251   1.967   4.587  12.700  0.0127 -0.1757  0.2704
  901MPD2    C313252   1.928   4.663  12.807  0.1505 -0.8250 -0.1653
  901MPD2    C413253   1.955   4.626  12.937 -0.5720  0.2760  0.0746
  901MPD2    C513254   2.026   4.514  12.962 -0.3385 -0.0958 -0.2539
  901MPD2     H13255   1.942   4.617  12.599  1.3363 -0.5044 -0.1626
  901MPD2    H113256   1.932   4.689  13.022  0.6874 -0.7024  1.1369
  901MPD2    H213257   2.109   4.343  12.881 -1.3210 -1.1975 -0.6616
  901MPD2    H313258   2.059   4.489  13.062  1.1332  2.7477 -0.0325
  901MPD2     N13259   1.860   0.044  12.773 -0.3855  0.2968 -0.0658
  901MPD2    H513260   1.863   0.066  12.674  1.6148 -0.3681 -0.1391
  901MPD2    N113261   2.050   4.362  12.634 -0.0287 -0.3749  0.5017
  901MPD2    H713262   2.070   4.273  12.678  0.2480 -0.8948 -0.6899
  902MPD2     C13263   0.681   2.923  13.122 -0.1069  0.7771 -0.1814
  902MPD2    C113264   0.699   2.984  12.998 -0.7854 -0.1696 -0.1511
  902MPD2    C213265   0.746   2.913  12.886 -0.0350 -0.1803  0.0315
  902MPD2    C313266   0.758   2.775  12.895  0.0243 -0.2449 -0.3165
  902MPD2    C413267   0.733   2.713  13.017  0.3453  0.4196 -0.4771
  902MPD2    C513268   0.708   2.788  13.128 -0.0602 -0.0289  0.3124
  902MPD2     H13269   0.758   2.958  12.788  1.3779  0.6425  0.5780
  902MPD2    H113270   0.751   2.607  13.034 -4.9383 -0.2763  0.7548
  902MPD2    H213271   0.631   2.974  13.203 -1.5493 -1.0195  0.0397
  902MPD2    H313272   0.687   2.738  13.222 -1.3884 -1.1796 -0.5838
  902MPD2     N13273   0.776   2.684  12.785  0.6702 -0.2749  0.4277
  902MPD2    H513274   0.778   2.585  12.810 -0.5789 -0.5148 -0.3915
  902MPD2    N113275   0.675   3.120  12.984  0.2063  0.1815  0.0476
  902MPD2    H713276   0.679   3.155  12.889  0.8943  1.8889  0.6976
  903MPD2     C13277   0.666   3.113  12.445 -0.1476  0.3678 -0.3904
  903MPD2    C113278   0.552   3.042  12.413 -0.2060  0.5169 -0.1129
  903MPD2    C213279   0.432   3.093  12.386  0.2627  0.1298 -0.0572
  903MPD2    C313280   0.422   3.231  12.376 -0.3118 -0.3418 -0.4905
  903MPD2    C413281   0.538   3.305  12.390  0.7991  0.0766  0.1166
  903MPD2    C513282   0.659   3.246  12.430 -0.0003  0.0341  0.6773
  903MPD2     H13283   0.351   3.021  12.378  1.9883 -1.8581  0.6747
  903MPD2    H113284   0.538   3.413  12.390 -0.2037  0.0747  0.5577
  903MPD2    H213285   0.758   3.061  12.468 -1.2340 -0.7585  1.3401
  903MPD2    H313286   0.753   3.298  12.438 -0.7836  1.3483  1.3960
  903MPD2     N13287   0.295   3.294  12.365 -0.1633  0.2180 -0.8069
  903MPD2    H513288   0.210   3.239  12.367 -1.1120  1.7216  0.5076
  903MPD2    N113289   0.570   2.906  12.427 -0.2226 -0.2257  0.5741
  903MPD2    H713290   0.649   2.872  12.480  0.3992  1.4201  0.6979
  904MPD2     C13291   0.040   2.092  14.127 -0.6157 -0.7062  0.1851
  904MPD2    C113292   0.063   2.216  14.067 -0.0980  0.0610  0.9398
  904MPD2    C213293   0.188   2.222  14.010 -1.0590  0.6385 -0.1626
  904MPD2    C313294   0.273   2.113  14.008 -0.1536 -0.5345  0.3258
  904MPD2    C413295   0.245   1.994  14.073 -0.0222 -0.3917 -0.7634
  904MPD2    C513296   0.128   1.984  14.138  0.6626  0.4948  0.4068
  904MPD2     H13297   0.221   2.309  13.954  0.6536  0.1876  0.1570
  904MPD2    H113298   0.308   1.906  14.074  0.9924  0.3499  1.3297
  904MPD2    H213299   4.676   2.064  14.156 -1.2750 -1.0121 -2.4027
  904MPD2    H313300   0.103   1.890  14.187 -0.4232  1.6509  2.0476
  904MPD2     N13301   0.392   2.133  13.941  0.5528  0.1049  0.2777
  904MPD2    H513302   0.389   2.217  13.884 -0.3689  1.3609  2.1861
  904MPD2    N113303   4.708   2.325  14.059 -0.0537 -0.0016 -0.3473
  904MPD2    H713304   4.734   2.401  13.997 -1.8841 -0.4464 -1.6582
  905MPD2     C13305   4.285   2.139  13.625 -0.5002 -0.1343 -0.1518
  905MPD2    C113306   4.375   2.241  13.618 -0.5825  0.5817 -0.1023
  905MPD2    C213307   4.483   2.239  13.535 -0.0254 -0.1777  0.1087
  905MPD2    C313308   4.499   2.133  13.451 -0.0873  0.0778  0.0558
  905MPD2    C413309   4.419   2.020  13.463  0.2830  0.5985  0.7468
  905MPD2    C513310   4.308   2.024  13.552 -0.1930  0.0589  0.5639
  905MPD2     H13311   4.556   2.319  13.536  0.1179 -0.3027 -0.3070
  905MPD2    H113312   4.449   1.932  13.406 -2.2907 -0.8045  1.5932
  905MPD2    H213313   4.198   2.149  13.689 -0.6182 -1.0992 -0.1572
  905MPD2    H313314   4.245   1.937  13.556  0.7174 -0.6263  0.1242
  905MPD2     N13315   4.619   2.115  13.387  0.9576  0.0469 -0.3216
  905MPD2    H513316   4.638   2.023  13.348  1.1034  0.6591 -1.7037
  905MPD2    N113317   4.366   2.337  13.717  0.3347 -0.0557 -0.2724
  905MPD2    H713318   4.302   2.315  13.793 -0.3235 -0.7292 -1.0144
  906MPD2     C13319   2.622   2.812  11.140  0.3022  0.3835 -0.0624
  906MPD2    C113320   2.642   2.709  11.060 -0.3593 -0.1253  0.8600
  906MPD2    C213321   2.614   2.578  11.105  0.1160 -0.1127  0.5189
  906MPD2    C313322   2.556   2.573  11.234 -0.3010 -0.2358 -0.5091
  906MPD2    C413323   2.533   2.683  11.315  0.2248 -0.5637 -0.3216
  906MPD2    C513324   2.565   2.802  11.261 -0.2141 -0.0088  0.1470
  906MPD2     H13325   2.607   2.498  11.032  1.1541 -0.3678  0.6985
  906MPD2    H113326   2.496   2.672  11.417 -0.2811 -1.2910 -0.5833
  906MPD2    H213327   2.633   2.916  11.110 -1.7293  0.1695 -1.6073
  906MPD2    H313328   2.547   2.891  11.320 -0.0449  1.1398 -1.5464
  906MPD2     N13329   2.530   2.450  11.300  0.4629  0.3851 -0.2856
  906MPD2    H513330   2.493   2.461  11.394 -0.4437  0.6746 -0.6796
  906MPD2    N113331   2.695   2.727  10.927 -0.0738 -0.4353  0.1495
  906MPD2    H713332   2.705   2.644  10.871  0.9277  0.9000 -1.6588
  907MPD2     C13333   1.419   1.638  15.919 -0.2082  0.2911  0.2285
  907MPD2    C113334   1.447   1.503  15.916  0.9431 -0.3167 -0.1195
  907MPD2    C213335   1.504   1.445  16.020 -0.6544 -0.1719 -1.5505
  907MPD2    C313336   1.539   1.516  16.136 -0.2991  0.0726  0.5446
  907MPD2    C413337   1.496   1.644  16.143 -0.0837  0.0116  0.2846
  907MPD2    C513338   1.441   1.707  16.035 -0.3089 -0.3685 -0.2181
  907MPD2     H13339   1.522   1.338  16.023  0.5348  0.0459 -0.9902
  907MPD2    H113340   1.524   1.703  16.229  1.6385  1.5975 -1.3820
  907MPD2    H213341   1.364   1.676  15.833  1.7322  0.4874 -0.9386
  907MPD2    H313342   1.411   1.811  16.045  1.9789  0.3791 -0.9552
  907MPD2     N13343   1.594   1.455  16.254  0.3586  0.4716  0.4236
  907MPD2    H513344   1.614   1.359  16.226  0.4492  0.7072 -0.3124
  907MPD2    N113345   1.418   1.417  15.804 -0.2848 -0.6421  0.0084
  907MPD2    H713346   1.439   1.318  15.806 -0.6796 -0.7270 -0.1548
  908MPD2     C13347   4.635   1.946  10.019  0.3063 -0.1482 -0.0246
  908MPD2    C113348   4.575   1.870  10.115 -0.0611 -0.8075 -0.4069
  908MPD2    C213349   4.532   1.935  10.229  0.3876  0.0522 -0.1173
  908MPD2    C313350   4.545   2.074  10.247 -0.4120 -0.1431  0.2016
  908MPD2    C413351   4.619   2.136  10.148 -0.2550  0.0995  0.1512
  908MPD2    C513352   4.661   2.082  10.036  0.5645  0.2158  0.6610
  908MPD2     H13353   4.482   1.883  10.310 -1.8128  1.1494 -0.7513
  908MPD2    H113354   4.635   2.243  10.160 -0.9991  0.1811  0.4201
  908MPD2    H213355   4.681   1.901   9.931 -1.2299 -1.5161 -0.1395
  908MPD2    H313356   4.727   2.134   9.968  0.8811 -0.7363  0.2392
  908MPD2     N13357   4.489   2.137  10.359  0.0665  0.3064  0.1685
  908MPD2    H513358   4.454   2.082  10.437 -0.2373 -0.7270 -0.7007
  908MPD2    N113359   4.567   1.737  10.083  0.3160  0.1961  0.3402
  908MPD2    H713360   4.631   1.706  10.011 -1.0386  1.4429 -1.3946
  909MPD2     C13361   4.068   0.167  12.014 -0.8481 -0.0851 -0.6250
  909MPD2    C113362   4.051   0.306  12.002  0.3494 -0.1442 -0.0057
  909MPD2    C213363   4.002   0.389  12.100  0.2813  0.1492 -0.4269
  909MPD2    C313364   3.960   0.333  12.221  0.0734  0.2223  0.1430
  909MPD2    C413365   3.971   0.199  12.242  0.0778 -0.1047  0.5617
  909MPD2    C513366   4.014   0.115  12.133  0.0748  0.0561 -0.2827
  909MPD2     H13367   4.001   0.496  12.083 -0.6746 -0.0598 -1.7416
  909MPD2    H113368   3.944   0.164  12.341 -0.9048 -1.3950 -0.1614
  909MPD2    H213369   4.100   0.100  11.935  0.8544  0.8933 -0.7746
  909MPD2    H313370   4.014   0.008  12.149  0.8097  0.1535  0.4074
  909MPD2     N13371   3.923   0.423  12.327 -0.3437 -0.3346 -0.0229
  909MPD2    H513372   3.937   0.523  12.313 -0.5721 -0.3670 -0.5096
  909MPD2    N113373   4.077   0.368  11.879 -0.0629  0.3629 -0.4817
  909MPD2    H713374   4.073   0.470  11.883 -0.7275  0.3643 -0.9900
  910MPD2     C13375   0.182   1.980  15.863 -0.6886  0.2201  0.3080
  910MPD2    C113376   0.308   1.997  15.810 -0.1741  0.6658  0.0742
  910MPD2    C213377   0.310   2.005  15.672 -0.5579  0.6661  0.5860
  910MPD2    C313378   0.194   1.997  15.595  0.0934  0.3176 -0.6592
  910MPD2    C413379   0.068   1.983  15.653 -0.1590 -0.0250 -0.6240
  910MPD2    C513380   0.066   1.972  15.783  0.0002 -0.4080  0.1941
  910MPD2     H13381   0.406   2.006  15.621 -0.7489 -2.8055  0.1447
  910MPD2    H113382   4.715   1.987  15.593 -0.7673  0.3902  0.3017
  910MPD2    H213383   0.173   1.948  15.966  0.4847  1.7613  0.8940
  910MPD2    H313384   4.705   1.956  15.826  0.5775 -0.8335  1.3424
  910MPD2     N13385   0.189   2.025  15.452  0.2171  0.3134 -0.3093
  910MPD2    H513386   0.096   2.050  15.418 -0.5269 -1.2762  0.5510
  910MPD2    N113387   0.434   1.974  15.873 -0.6723 -0.0497 -0.1999
  910MPD2    H713388   0.521   1.970  15.820  0.0962  3.0903  0.8503
  911MPD2     C13389   3.250   2.505  16.471 -0.1629  0.6764  0.5633
  911MPD2    C113390   3.341   2.554  16.371 -1.0124 -0.1195 -0.1169
  911MPD2    C213391   3.292   2.596  16.250 -0.1846 -0.5849 -0.8158
  911MPD2    C313392   3.155   2.606  16.233 -0.1741  0.3059  0.3787
  911MPD2    C413393   3.072   2.554  16.326  0.4565 -0.4995  0.3265
  911MPD2    C513394   3.115   2.501  16.443  0.5439  0.0440  0.3242
  911MPD2     H13395   3.373   2.631  16.188  0.6960 -0.2180  0.5470
  911MPD2    H113396   2.964   2.561  16.323  0.4637 -0.6698 -0.3807
  911MPD2    H213397   3.279   2.463  16.566 -3.1825  0.1028  1.2170
  911MPD2    H313398   3.037   2.467  16.511  0.6557 -1.0539 -0.1022
  911MPD2     N13399   3.104   2.688  16.131  0.4278 -0.3039  0.3764
  911MPD2    H513400   3.003   2.689  16.121  0.4553  0.8920  0.2175
  911MPD2    N113401   3.480   2.567  16.398 -0.0431  0.4699 -0.1728
  911MPD2    H713402   3.531   2.603  16.318 -1.9159  0.3152 -1.4285
  912MPD2     C13403   2.569   2.381  15.776  0.0750 -0.7126  0.4013
  912MPD2    C113404   2.690   2.398  15.841 -0.8815  0.4809  0.1948
  912MPD2    C213405   2.739   2.298  15.925 -0.0497  0.3361  0.2502
  912MPD2    C313406   2.678   2.171  15.924 -0.3360 -0.6061  0.3867
  912MPD2    C413407   2.556   2.158  15.864 -0.1691  0.3422 -0.2924
  912MPD2    C513408   2.503   2.261  15.788 -0.1909 -0.6009  0.5555
  912MPD2     H13409   2.835   2.307  15.977 -0.1654 -1.8671  0.8355
  912MPD2    H113410   2.500   2.066  15.876  0.0177  0.4012  1.0259
  912MPD2    H213411   2.533   2.454  15.706  0.2549  0.3025  1.3727
  912MPD2    H313412   2.410   2.239  15.737 -0.1252  0.8655 -0.1860
  912MPD2     N13413   2.744   2.071  15.994  0.2772 -0.4379  0.0217
  912MPD2    H513414   2.827   2.088  16.050  0.3916 -3.0450  0.6522
  912MPD2    N113415   2.754   2.521  15.818  0.0425  0.2327 -0.6957
  912MPD2    H713416   2.730   2.581  15.739  2.7718  0.4684 -1.3644
  913MPD2     C13417   3.546   3.065  10.703  0.1546  0.3578 -0.1319
  913MPD2    C113418   3.487   3.174  10.747 -0.2782  0.9296 -0.3430
  913MPD2    C213419   3.458   3.279  10.659 -0.0881 -0.1011  0.5574
  913MPD2    C313420   3.508   3.278  10.530  0.4911  1.0299 -0.0838
  913MPD2    C413421   3.581   3.166  10.490  0.0581 -0.8213  0.3955
  913MPD2    C513422   3.598   3.060  10.575 -0.1142  0.2469 -1.0467
  913MPD2     H13423   3.407   3.371  10.686 -1.6530 -0.9615  0.5035
  913MPD2    H113424   3.636   3.166  10.396  1.7426 -0.5966  1.3936
  913MPD2    H213425   3.564   2.978  10.765 -2.5731  0.1032  0.3068
  913MPD2    H313426   3.641   2.970  10.532  2.5256  0.8815  0.2638
  913MPD2     N13427   3.512   3.393  10.448 -0.1303 -0.2480 -0.2194
  913MPD2    H513428   3.573   3.398  10.366 -1.9685  2.9301 -1.4418
  913MPD2    N113429   3.455   3.181  10.885  0.3131 -0.4932 -0.6392
  913MPD2    H713430   3.491   3.107  10.945  1.0727  1.3135  1.1361
  914MPD2     C13431   1.272   4.177  12.143  0.0773 -0.4935 -0.5463
  914MPD2    C113432   1.302   4.255  12.251 -0.2773  0.1415  0.8106
  914MPD2    C213433   1.430   4.253  12.298  1.1518 -0.5139 -0.1984
  914MPD2    C313434   1.525   4.171  12.244 -0.0956  0.1629 -0.1461
  914MPD2    C413435   1.490   4.103  12.126  0.2024  0.8514  0.0192
  914MPD2    C513436   1.363   4.102  12.078  0.2715 -0.2141 -0.1861
  914MPD2     H13437   1.476   4.313  12.376 -1.3307  2.1232 -0.7723
  914MPD2    H113438   1.561   4.037  12.076 -1.4171  0.6916 -2.0786
  914MPD2    H213439   1.171   4.189  12.104  0.2442 -0.9134 -1.1028
  914MPD2    H313440   1.334   4.054  11.985  1.9287 -0.7012 -0.4693
  914MPD2     N13441   1.656   4.164  12.301  0.2737  0.7083  0.5909
  914MPD2    H513442   1.683   4.217  12.383 -0.5796  0.5464  0.9690
  914MPD2    N113443   1.207   4.350  12.302  0.2396  0.4554  0.3043
  914MPD2    H713444   1.120   4.358  12.251  0.6835  2.5226 -0.0919
  915MPD2     C13445   4.246   3.830  15.616 -1.1013  0.8690 -0.9869
  915MPD2    C113446   4.132   3.833  15.690  0.1757  0.2381  0.2507
  915MPD2    C213447   4.145   3.883  15.821  0.1631 -0.1541 -0.2954
  915MPD2    C313448   4.264   3.939  15.866 -0.7853 -0.2652 -0.9253
  915MPD2    C413449   4.372   3.946  15.786 -0.2772  0.0601  0.3015
  915MPD2    C513450   4.358   3.898  15.658 -0.4347  0.5744 -0.0084
  915MPD2     H13451   4.063   3.887  15.892  1.6154 -4.6284  1.5921
  915MPD2    H113452   4.465   3.991  15.818 -0.2387  0.9471 -1.0626
  915MPD2    H213453   4.246   3.788  15.516 -1.0278 -1.2858 -0.0948
  915MPD2    H313454   4.450   3.889  15.600 -0.1691 -2.8174  0.9451
  915MPD2     N13455   4.258   4.014  15.987 -0.2220 -0.5514  0.5018
  915MPD2    H513456   4.168   4.010  16.034 -0.1194  0.7686  0.8136
  915MPD2    N113457   4.002   3.775  15.648 -0.0962  0.6941 -0.2346
  915MPD2    H713458   3.923   3.793  15.709 -0.3109 -3.8849  0.8089
  916MPD2     C13459   2.000   2.104  16.063 -0.1812 -0.0385 -0.2963
  916MPD2    C113460   2.124   2.084  16.124  0.3470 -0.0959 -0.8545
  916MPD2    C213461   2.200   1.970  16.094  0.1430  0.0193 -0.0976
  916MPD2    C313462   2.160   1.880  15.997 -0.5917  0.8188  0.4586
  916MPD2    C413463   2.035   1.899  15.943  0.2817  0.4432 -0.6470
  916MPD2    C513464   1.959   2.007  15.972  0.2108  0.0946  0.1079
  916MPD2     H13465   2.293   1.947  16.145 -0.3276 -0.5024  0.5236
  916MPD2    H113466   1.991   1.830  15.872  2.1768 -0.7140 -0.6900
  916MPD2    H213467   1.935   2.187  16.090 -0.2862 -0.6596  1.3551
  916MPD2    H313468   1.865   2.023  15.922 -0.5406 -1.6817  0.9385
  916MPD2     N13469   2.234   1.766  15.963  0.0558  0.3245 -0.5492
  916MPD2    H513470   2.308   1.756  16.032  0.2339 -0.2506 -0.8283
  916MPD2    N113471   2.155   2.183  16.228 -1.0011 -0.7393 -0.0098
  916MPD2    H713472   2.087   2.256  16.243 -0.8820 -1.0146  1.8757
  917MPD2     C13473   2.791   0.324  10.857  0.4554 -0.2137  0.0700
  917MPD2    C113474   2.798   0.225  10.946 -0.4472 -0.5067  0.3029
  917MPD2    C213475   2.894   0.223  11.045  0.0606 -0.0242  0.3096
  917MPD2    C313476   2.989   0.322  11.056 -0.3563 -0.2398 -0.2977
  917MPD2    C413477   2.977   0.426  10.964 -0.0497  0.1517 -0.4489
  917MPD2    C513478   2.884   0.420  10.861 -0.3713 -0.8449 -0.2169
  917MPD2     H13479   2.902   0.132  11.103  2.3924 -0.4186 -0.6272
  917MPD2    H113480   3.042   0.513  10.966  1.5177 -1.0494  0.2945
  917MPD2    H213481   2.717   0.329  10.778 -2.2083 -0.7186  2.5126
  917MPD2    H313482   2.871   0.494  10.783 -1.0859  0.2750  0.9508
  917MPD2     N13483   3.089   0.324  11.152 -0.2005  0.4019 -0.2465
  917MPD2    H513484   3.147   0.407  11.150 -2.0270  1.6959 -0.2107
  917MPD2    N113485   2.691   0.130  10.931 -0.0919 -0.4610  0.2386
  917MPD2    H713486   2.617   0.146  10.864  1.6617  2.1412 -1.0795
  918MPD2     C13487   2.569   0.398  11.666  0.2667 -0.0179 -0.4136
  918MPD2    C113488   2.613   0.267  11.648 -0.5215  0.6038  0.2733
  918MPD2    C213489   2.582   0.188  11.540 -0.4183  0.4825 -0.1651
  918MPD2    C313490   2.492   0.242  11.452  0.8978 -0.3572  0.3539
  918MPD2    C413491   2.437   0.362  11.477  0.5936 -0.0322 -1.1225
  918MPD2    C513492   2.493   0.447  11.564 -0.3574 -0.0258  0.4469
  918MPD2     H13493   2.619   0.087  11.526 -0.7063  0.3823 -0.1936
  918MPD2    H113494   2.357   0.400  11.414 -1.6075 -1.6816  0.6573
  918MPD2    H213495   2.621   0.464  11.735  1.4369  0.8058 -2.0848
  918MPD2    H313496   2.453   0.548  11.575 -0.2873 -0.0270  0.6960
  918MPD2     N13497   2.445   0.155  11.352 -0.2172  0.2357  0.4190
  918MPD2    H513498   2.460   0.056  11.369 -1.1570  0.2369  1.3198
  918MPD2    N113499   2.713   0.218  11.741  0.2127 -0.6801  0.2110
  918MPD2    H713500   2.759   0.132  11.715  0.3959 -0.1179 -1.3288
  919MPD2     C13501   3.627   3.842  12.030  0.0817 -0.6277  0.2451
  919MPD2    C113502   3.521   3.762  12.006 -0.6595 -0.6625 -0.2193
  919MPD2    C213503   3.413   3.812  11.932 -0.2301  0.4723  0.2521
  919MPD2    C313504   3.422   3.931  11.862 -0.3325 -0.2533 -0.9263
  919MPD2    C413505   3.529   4.010  11.894 -0.7673  0.0664 -0.2212
  919MPD2    C513506   3.634   3.967  11.971  0.0847 -0.0116  0.5699
  919MPD2     H13507   3.325   3.748  11.927  1.3421 -1.4860 -2.8097
  919MPD2    H113508   3.531   4.116  11.869 -0.7389  0.2029  0.3710
  919MPD2    H213509   3.707   3.810  12.097  0.2047 -0.2800  0.2667
  919MPD2    H313510   3.692   4.048  12.013  1.2426  0.2255 -1.5016
  919MPD2     N13511   3.325   3.966  11.770  0.1086  0.0722  0.0650
  919MPD2    H513512   3.311   4.064  11.751 -1.4955  0.0884  1.3464
  919MPD2    N113513   3.495   3.635  12.060 -0.0735 -0.2036 -0.6899
  919MPD2    H713514   3.411   3.591  12.023 -0.0402 -1.3458  0.6137
  920MPD2     C13515   3.452   4.459  10.960 -0.0688 -0.4044  0.3537
  920MPD2    C113516   3.344   4.380  10.920 -0.2163 -0.2302  0.0732
  920MPD2    C213517   3.279   4.312  11.014  0.1556  0.8358 -1.1061
  920MPD2    C313518   3.317   4.309  11.145  0.1659  0.2161 -0.1541
  920MPD2    C413519   3.425   4.385  11.182 -0.1316 -0.4859 -0.4129
  920MPD2    C513520   3.493   4.461  11.089 -0.1832 -0.0339  0.2001
  920MPD2     H13521   3.198   4.244  10.995  0.9539 -0.4864  0.2001
  920MPD2    H113522   3.463   4.388  11.284  1.2898 -0.1248 -0.9560
  920MPD2    H213523   3.518   4.519  10.899 -1.3404  0.6709  0.0115
  920MPD2    H313524   3.584   4.517  11.105  0.3376 -1.7340  3.0659
  920MPD2     N13525   3.249   4.217  11.232  0.3695 -0.4338 -0.3944
  920MPD2    H513526   3.165   4.172  11.199 -0.0866 -0.4064  0.7314
  920MPD2    N113527   3.304   4.376  10.787  0.1487 -0.2935 -0.2588
  920MPD2    H713528   3.230   4.310  10.764 -0.4470  0.0919  0.5779
  921MPD2     C13529   4.465   2.677  16.827  0.4505 -0.2834 -0.8283
  921MPD2    C113530   4.469   2.608  16.711 -0.5348 -0.0498  0.4148
  921MPD2    C213531   4.353   2.540  16.668  0.5487  0.1616  0.3501
  921MPD2    C313532   4.233   2.571  16.735  0.4737  0.0077  0.4717
  921MPD2    C413533   4.231   2.654  16.853 -0.3992  0.1747  0.3617
  921MPD2    C513534   4.348   2.697  16.902  1.0076  0.2874  0.3862
  921MPD2     H13535   4.345   2.505  16.565 -0.1693 -1.5620  1.0087
  921MPD2    H113536   4.139   2.689  16.898 -0.4971 -0.4806  0.6675
  921MPD2    H213537   4.556   2.726  16.861  0.6386 -0.7573 -0.6426
  921MPD2    H313538   4.344   2.748  16.998  3.2039  0.4583  0.3988
  921MPD2     N13539   4.114   2.522  16.674  0.5846  0.0997  0.5100
  921MPD2    H513540   4.123   2.475  16.584 -0.5843  0.3386  0.2566
  921MPD2    N113541   4.596   2.600  16.650  0.0322  0.4828  1.0286
  921MPD2    H713542   4.666   2.659  16.694  0.8983 -2.4018  3.4999
  922MPD2     C13543   0.141   1.086  17.648 -0.8660 -0.6153 -0.1693
  922MPD2    C113544   0.106   1.028   0.021 -1.4195  0.4340 -0.1009
  922MPD2    C213545   0.051   0.908   0.028  0.3873  0.6009 -0.3038
  922MPD2    C313546   0.032   0.843  17.650  0.9681 -0.2551 -0.4339
  922MPD2    C413547   0.048   0.914  17.533  0.1387  0.0819 -0.3023
  922MPD2    C513548   0.113   1.034  17.527 -0.4483 -0.6165  0.4009
  922MPD2     H13549   0.040   0.860   0.125 -0.7257 -1.8957 -1.6707
  922MPD2    H113550   0.035   0.868  17.436  0.5469 -0.3898 -0.1356
  922MPD2    H213551   0.198   1.179  17.644 -2.0152  0.1244  0.4031
  922MPD2    H313552   0.122   1.083  17.431  0.4863  0.7971  1.2085
  922MPD2     N13553   4.726   0.708  17.641 -0.0073 -0.4753  0.3295
  922MPD2    H513554   0.005   0.669  17.549 -0.1704 -0.1096  0.1480
  922MPD2    N113555   0.133   1.094   0.148 -0.0658  0.3532 -0.4698
  922MPD2    H713556   0.109   1.042   0.231 -1.5467  1.0049 -0.4863
  923MPD2     C13557   2.533   3.334   9.240  0.3124  0.3750 -0.1899
  923MPD2    C113558   2.426   3.305   9.317  0.2676  0.4954 -0.4295
  923MPD2    C213559   2.446   3.264   9.450 -0.2211  0.2891  0.0606
  923MPD2    C313560   2.583   3.263   9.495  0.2913 -0.7094  0.8764
  923MPD2    C413561   2.683   3.296   9.414 -0.2768 -0.0979  0.3866
  923MPD2    C513562   2.656   3.336   9.289 -0.2309  0.6517 -0.3102
  923MPD2     H13563   2.367   3.234   9.517 -0.5559 -2.0835 -1.4133
  923MPD2    H113564   2.787   3.297   9.442 -0.5957  1.3850  1.4908
  923MPD2    H213565   2.524   3.351   9.133  1.0336  0.2048 -0.2792
  923MPD2    H313566   2.733   3.359   9.217  1.4357  0.4761  1.3947
  923MPD2     N13567   2.610   3.242   9.633 -0.3468 -0.0321  0.5829
  923MPD2    H513568   2.709   3.237   9.652 -0.2846 -2.2213 -0.3158
  923MPD2    N113569   2.294   3.308   9.262 -0.8395  0.1157 -0.1322
  923MPD2    H713570   2.295   3.323   9.162  1.7493 -0.6045 -0.2015
  924MPD2     C13571   1.579   0.699  16.181  0.0694  0.0064  0.3697
  924MPD2    C113572   1.533   0.744  16.297 -0.2089  0.0269 -0.3408
  924MPD2    C213573   1.604   0.848  16.355 -0.3746 -0.3365  0.2902
  924MPD2    C313574   1.702   0.914  16.287  0.7913 -0.7264  0.0882
  924MPD2    C413575   1.748   0.875  16.165  0.2943 -0.4067  0.1796
  924MPD2    C513576   1.683   0.766  16.114 -0.0448  0.3175  0.6119
  924MPD2     H13577   1.581   0.875  16.458 -1.2154 -0.4635  0.1392
  924MPD2    H113578   1.839   0.905  16.115  0.5151 -0.8173  0.3319
  924MPD2    H213579   1.532   0.613  16.133 -0.2445  1.1468 -1.3825
  924MPD2    H313580   1.729   0.721  16.027 -1.5314  1.0633 -0.5607
  924MPD2     N13581   1.772   1.025  16.349 -0.4880  0.5530 -0.8365
  924MPD2    H513582   1.840   1.064  16.285 -1.1559  2.0078 -0.6774
  924MPD2    N113583   1.434   0.667  16.366  0.1089  0.9103  0.5322
  924MPD2    H713584   1.429   0.570  16.336  1.5604  0.2934  2.3169
  925MPD2     C13585   0.248   2.854  14.622 -0.1395 -0.8721 -0.7331
  925MPD2    C113586   0.268   2.980  14.569 -0.3510  0.7695  0.8371
  925MPD2    C213587   0.254   3.083  14.662  0.2667 -0.3915  0.3654
  925MPD2    C313588   0.228   3.064  14.798 -0.6175  0.7864 -0.6278
  925MPD2    C413589   0.205   2.931  14.843  0.5532  0.1687  0.4553
  925MPD2    C513590   0.218   2.832  14.758  0.6175  0.9792 -0.8560
  925MPD2     H13591   0.264   3.186  14.629  0.3940 -0.6389 -0.3670
  925MPD2    H113592   0.184   2.905  14.946  0.0301 -0.1764  0.2611
  925MPD2    H213593   0.246   2.772  14.551  2.2351 -0.3055 -1.4465
  925MPD2    H313594   0.193   2.730  14.788 -0.9319  1.8475  0.8004
  925MPD2     N13595   0.231   3.162  14.900  0.1617 -0.2807  0.2947
  925MPD2    H513596   0.193   3.130  14.989 -0.0629 -2.0110 -0.4085
  925MPD2    N113597   0.286   3.000  14.426  0.4851 -0.5635 -0.1686
  925MPD2    H713598   0.262   3.090  14.386  0.6441 -0.4318  0.0337
  926MPD2     C13599   3.887   1.641  13.700  0.8941  0.5243 -0.1052
  926MPD2    C113600   3.782   1.696  13.622  0.4107  0.2833 -0.5607
  926MPD2    C213601   3.803   1.769  13.512  0.3373 -0.3100  0.3841
  926MPD2    C313602   3.923   1.785  13.456  0.4573 -0.4785 -0.5386
  926MPD2    C413603   4.029   1.721  13.525 -0.4807  0.0650 -0.1908
  926MPD2    C513604   4.007   1.657  13.648  0.0442  0.5611  0.4073
  926MPD2     H13605   3.714   1.807  13.464  0.1967  1.0695  1.7197
  926MPD2    H113606   4.123   1.708  13.471  0.5623 -0.2557  1.7027
  926MPD2    H213607   3.876   1.585  13.793 -1.5413 -0.5604 -1.0384
  926MPD2    H313608   4.090   1.602  13.690 -0.8566 -2.2917 -1.5382
  926MPD2     N13609   3.942   1.859  13.335  0.2866 -0.2663 -0.4460
  926MPD2    H513610   4.033   1.841  13.294  0.2222 -0.2288 -0.6058
  926MPD2    N113611   3.650   1.674  13.668  0.4093 -0.4445  0.6886
  926MPD2    H713612   3.580   1.718  13.608 -0.3501 -1.1655  1.0482
  927MPD2     C13613   3.255   4.104  17.417  0.3204  0.5136  0.3781
  927MPD2    C113614   3.310   3.982  17.451  0.4142 -0.1753  0.1860
  927MPD2    C213615   3.404   3.920  17.366 -0.8624 -0.0604  0.0353
  927MPD2    C313616   3.448   3.985  17.251 -0.1741 -0.6087 -0.5182
  927MPD2    C413617   3.402   4.113  17.230  0.2237 -0.2635  0.1005
  927MPD2    C513618   3.298   4.163  17.304 -0.1274 -0.3440 -0.1241
  927MPD2     H13619   3.453   3.828  17.394 -0.3415 -0.4307 -2.0887
  927MPD2    H113620   3.423   4.163  17.136 -0.1764 -1.8871 -0.8537
  927MPD2    H213621   3.176   4.151  17.474 -0.6271  0.7093 -1.1107
  927MPD2    H313622   3.252   4.250  17.260 -1.8257 -0.8735  0.6323
  927MPD2     N13623   3.542   3.922  17.175 -0.1950 -0.1936 -0.1824
  927MPD2    H513624   3.564   3.825  17.193  1.1468 -0.4323 -3.0259
  927MPD2    N113625   3.257   3.923  17.569  0.1484  0.0448 -0.0712
  927MPD2    H713626   3.182   3.963  17.623 -1.0546  0.2541 -1.9080
  928MPD2     C13627   1.962   1.667   1.056 -0.0849 -0.3951  0.0065
  928MPD2    C113628   2.055   1.756   1.100  0.1535 -0.0198  0.5777
  928MPD2    C213629   2.151   1.816   1.008 -0.1977  0.1892 -0.4254
  928MPD2    C313630   2.159   1.774   0.877 -0.7058 -0.1950 -0.0946
  928MPD2    C413631   2.067   1.674   0.832 -0.1375  0.2637 -0.8324
  928MPD2    C513632   1.966   1.635   0.922 -0.5860 -0.0730 -0.1520
  928MPD2     H13633   2.226   1.885   1.044  0.6591 -1.0701  0.1842
  928MPD2    H113634   2.058   1.638   0.731  1.2208  2.6404 -1.8035
  928MPD2    H213635   1.888   1.622   1.122 -1.0603  1.8572  0.4474
  928MPD2    H313636   1.892   1.563   0.886  0.6441 -0.7865 -1.2461
  928MPD2     N13637   2.248   1.817   0.777 -0.2444 -0.0533  0.3665
  928MPD2    H513638   2.214   1.808   0.682  0.7217  0.2415 -0.0012
  928MPD2    N113639   2.058   1.794   1.233 -0.2720  0.4167  0.0494
  928MPD2    H713640   1.975   1.774   1.287  0.9059 -0.0163  1.7064
  929MPD2     C13641   1.992   2.567  10.350  0.2216 -0.5013 -0.1090
  929MPD2    C113642   1.926   2.477  10.431 -0.1403  0.2878 -0.2678
  929MPD2    C213643   1.799   2.428  10.387 -0.4084  0.5368 -0.4221
  929MPD2    C313644   1.725   2.510  10.300 -0.1949 -0.3532  0.3210
  929MPD2    C413645   1.790   2.601  10.220 -0.7491  0.3982  0.5128
  929MPD2    C513646   1.927   2.620  10.232  0.0167  0.0185  0.2062
  929MPD2     H13647   1.743   2.363  10.454 -0.4717 -1.0033 -1.9619
  929MPD2    H113648   1.730   2.660  10.152  0.6737  0.3008 -0.8300
  929MPD2    H213649   2.097   2.584  10.373  0.0070  1.9883 -0.9976
  929MPD2    H313650   1.975   2.694  10.170 -1.0686  0.4031 -0.1807
  929MPD2     N13651   1.581   2.507  10.293 -0.4945  0.3779 -0.4945
  929MPD2    H513652   1.537   2.588  10.252 -1.3860 -1.0281 -2.2913
  929MPD2    N113653   2.000   2.435  10.549  0.3547 -0.2395  0.4161
  929MPD2    H713654   2.085   2.486  10.570  0.9554 -0.9208 -0.3320
  930MPD2     C13655   3.315   4.559  13.581  0.2217  0.5238 -0.2848
  930MPD2    C113656   3.447   4.552  13.562 -0.6532 -0.0985 -0.5819
  930MPD2    C213657   3.498   4.516  13.438 -0.6621 -0.3225 -0.5014
  930MPD2    C313658   3.415   4.483  13.335 -0.2842 -0.0600 -1.0396
  930MPD2    C413659   3.283   4.486  13.365  0.1884  0.2928  0.1103
  930MPD2    C513660   3.233   4.535  13.479  0.1968  0.1260 -0.1590
  930MPD2     H13661   3.606   4.510  13.431 -0.4795  3.1969 -0.6922
  930MPD2    H113662   3.213   4.460  13.285 -0.8358  3.4107 -0.0014
  930MPD2    H213663   3.268   4.601  13.669  0.0705  1.2636 -0.7182
  930MPD2    H313664   3.127   4.550  13.499  0.1738 -0.1587 -0.0654
  930MPD2     N13665   3.455   4.436  13.206  0.3829 -0.2799 -0.0693
  930MPD2    H513666   3.381   4.386  13.157  0.7053 -2.9137  2.1469
  930MPD2    N113667   3.531   4.604  13.664 -0.0824  0.6866  0.5422
  930MPD2    H713668   3.631   4.609  13.646 -0.2808  1.2023 -0.4079
  931MPD2     C13669   3.758   3.698   0.291  0.8625 -0.2686 -0.2928
  931MPD2    C113670   3.641   3.685   0.357 -0.4839  0.5270 -0.3599
  931MPD2    C213671   3.641   3.624   0.487 -0.0901 -0.4482  0.1675
  931MPD2    C313672   3.759   3.574   0.537 -0.0177 -0.2790 -0.4941
  931MPD2    C413673   3.876   3.607   0.471 -0.7638  0.0741 -0.1653
  931MPD2    C513674   3.874   3.672   0.356 -0.0558 -0.1412 -0.5823
  931MPD2     H13675   3.550   3.582   0.530 -1.0579  1.0934 -0.3740
  931MPD2    H113676   3.966   3.578   0.525 -0.3180 -1.6673 -1.8729
  931MPD2    H213677   3.762   3.722   0.185 -1.3973  0.4714 -0.2058
  931MPD2    H313678   3.970   3.682   0.306 -0.5679 -1.2520 -1.7852
  931MPD2     N13679   3.766   3.510   0.662 -0.3344 -0.1099  0.3009
  931MPD2    H513680   3.858   3.478   0.691 -0.9977 -2.1733  0.1340
  931MPD2    N113681   3.524   3.720   0.284 -0.0918 -0.0364 -1.0078
  931MPD2    H713682   3.537   3.762   0.192 -0.3730  1.2954 -0.4225
  932MPD2     C13683   0.322   3.252  11.503  0.4352  0.2902 -0.3027
  932MPD2    C113684   0.426   3.247  11.420  0.1175 -0.3930  0.2566
  932MPD2    C213685   0.475   3.124  11.377 -0.4941  0.3620 -0.5606
  932MPD2    C313686   0.416   3.005  11.423  0.0907  0.3027  0.2814
  932MPD2    C413687   0.310   3.017  11.510 -0.7885  0.2624 -0.0270
  932MPD2    C513688   0.258   3.139  11.548 -0.3773 -0.2171 -0.1813
  932MPD2     H13689   0.547   3.125  11.296  1.1063  1.5798  0.8893
  932MPD2    H113690   0.275   2.924  11.553 -1.6183  0.8594  0.5858
  932MPD2    H213691   0.269   3.344  11.523  0.1468  0.3100 -1.1638
  932MPD2    H313692   0.169   3.142  11.610 -0.3151  5.6219 -0.3306
  932MPD2     N13693   0.463   2.876  11.393  0.0060  0.5129 -0.7036
  932MPD2    H513694   0.405   2.802  11.432 -0.3171  1.3349  0.3846
  932MPD2    N113695   0.510   3.359  11.390  1.0113  0.6499 -0.9247
  932MPD2    H713696   0.589   3.343  11.328  1.8233  1.3947 -0.0786
  933MPD2     C13697   1.525   2.061   1.397 -0.4510  0.2148  0.7193
  933MPD2    C113698   1.620   2.162   1.388 -0.2618 -0.4430 -0.5247
  933MPD2    C213699   1.580   2.288   1.370  0.7643  0.2900 -1.1572
  933MPD2    C313700   1.446   2.328   1.376 -0.3584  0.3977  0.1917
  933MPD2    C413701   1.361   2.228   1.375 -0.1233 -0.1704 -0.2518
  933MPD2    C513702   1.390   2.098   1.388  0.0069  0.2034  0.2191
  933MPD2     H13703   1.653   2.369   1.366  1.1118 -0.0073 -0.8777
  933MPD2    H113704   1.258   2.252   1.355  0.1487 -0.1525 -1.6986
  933MPD2    H213705   1.540   1.955   1.413 -1.5586 -0.4800 -2.9033
  933MPD2    H313706   1.304   2.032   1.383 -1.0211  1.5371  0.6930
  933MPD2     N13707   1.411   2.468   1.368  0.3800 -0.3400 -0.0505
  933MPD2    H513708   1.489   2.533   1.364 -0.9290  1.2702  1.0560
  933MPD2    N113709   1.754   2.121   1.409 -0.3575  0.3361 -0.9767
  933MPD2    H713710   1.772   2.021   1.401  1.0068  0.4571  0.4745
  934MPD2     C13711   2.937   4.275   2.278 -0.1741  0.0621  0.0605
  934MPD2    C113712   2.939   4.170   2.182  0.0271  0.3701 -0.0949
  934MPD2    C213713   2.829   4.147   2.103 -0.3539 -0.3463  0.3566
  934MPD2    C313714   2.715   4.225   2.117  0.4681 -0.5994  0.0833
  934MPD2    C413715   2.709   4.314   2.221 -0.5932 -0.6628 -0.5916
  934MPD2    C513716   2.825   4.347   2.296  0.3943 -0.1460 -0.1820
  934MPD2     H13717   2.830   4.071   2.026  1.6265  0.0381  0.0038
  934MPD2    H113718   2.622   4.375   2.246 -1.4471 -2.8011  1.6141
  934MPD2    H213719   3.014   4.284   2.354  1.1103 -0.5592 -1.1721
  934MPD2    H313720   2.828   4.431   2.365  1.9017 -0.6938  0.4057
  934MPD2     N13721   2.596   4.199   2.040 -0.5542 -0.2849 -0.0499
  934MPD2    H513722   2.512   4.256   2.050 -0.5644 -0.4162  0.6214
  934MPD2    N113723   3.055   4.098   2.145 -0.6510  0.6851  0.6244
  934MPD2    H713724   3.058   4.043   2.060  0.8334 -0.4421  1.4166
  935MPD2     C13725   1.837   3.568   1.633  0.2668 -0.6683 -0.0195
  935MPD2    C113726   1.940   3.602   1.544 -0.1566  0.2011 -0.5139
  935MPD2    C213727   2.030   3.697   1.586 -0.0818  0.6635  0.2560
  935MPD2    C313728   2.012   3.764   1.703  0.4217  0.6609  0.0747
  935MPD2    C413729   1.904   3.744   1.780  0.3191 -0.4238  0.3869
  935MPD2    C513730   1.817   3.648   1.745  0.2302  0.2003 -0.7643
  935MPD2     H13731   2.125   3.715   1.535 -0.5665  1.3668 -0.3948
  935MPD2    H113732   1.892   3.797   1.874  1.1566  0.8327 -0.2057
  935MPD2    H213733   1.753   3.507   1.601  1.8094 -1.5928 -2.3127
  935MPD2    H313734   1.733   3.625   1.809  1.7438 -0.1525  1.0924
  935MPD2     N13735   2.103   3.861   1.749  0.0963 -0.4200  0.2681
  935MPD2    H513736   2.067   3.905   1.832 -0.0218 -3.1845  1.6734
  935MPD2    N113737   1.980   3.529   1.434 -0.0767 -0.8415 -0.2351
  935MPD2    H713738   2.049   3.571   1.372 -3.1554  3.9124 -0.4286
  936MPD2     C13739   0.939   1.010  12.766  0.3031  0.4585  0.2482
  936MPD2    C113740   1.010   1.124  12.741  0.1467  0.0069  0.4574
  936MPD2    C213741   0.976   1.198  12.635 -0.1093 -0.1017 -0.6864
  936MPD2    C313742   0.863   1.163  12.560  0.3082  0.1388  0.7824
  936MPD2    C413743   0.784   1.057  12.591  0.6925 -0.0337  0.3585
  936MPD2    C513744   0.833   0.977  12.694  0.1306 -0.0031  0.7019
  936MPD2     H13745   1.044   1.277  12.606  0.1328  0.2485  0.7861
  936MPD2    H113746   0.697   1.029  12.533 -0.2075 -0.8105  2.0610
  936MPD2    H213747   0.983   0.933  12.829  1.3495  0.4847 -0.4557
  936MPD2    H313748   0.764   0.903  12.734 -0.9436 -0.3784 -1.7652
  936MPD2     N13749   0.821   1.239  12.448 -0.3864 -0.5306  0.1897
  936MPD2    H513750   0.728   1.223  12.410 -0.3477  0.8162 -0.4526
  936MPD2    N113751   1.116   1.165  12.825  0.1659  0.1894 -0.3639
  936MPD2    H713752   1.160   1.255  12.807 -0.2264  0.4659  0.0511
  937MPD2     C13753   3.740   2.890  11.953  0.5101 -0.2013  0.6127
  937MPD2    C113754   3.704   3.015  11.912 -0.1330 -0.1635  0.0528
  937MPD2    C213755   3.771   3.062  11.803 -0.6675 -0.1470 -0.3483
  937MPD2    C313756   3.866   2.989  11.734 -0.4197 -0.2013  0.0609
  937MPD2    C413757   3.894   2.859  11.777  0.0712 -0.5744  0.2558
  937MPD2    C513758   3.830   2.812  11.891  0.5395  0.8977  0.2087
  937MPD2     H13759   3.742   3.157  11.759 -2.7570  0.6189  2.6800
  937MPD2    H113760   3.958   2.790  11.723 -0.4419 -0.5951 -0.3341
  937MPD2    H213761   3.694   2.856  12.044  0.5285 -0.5654  0.4862
  937MPD2    H313762   3.850   2.711  11.926 -3.3142  0.5675  1.5376
  937MPD2     N13763   3.906   3.053  11.618 -0.4540 -0.1055 -0.2970
  937MPD2    H513764   3.883   3.151  11.603  1.3310  0.6187  1.7884
  937MPD2    N113765   3.640   3.113  11.991  0.1440 -0.4063 -0.4533
  937MPD2    H713766   3.641   3.209  11.957  2.7316 -0.4574 -0.5705
  938MPD2     C13767   1.775   3.768   1.222  0.2778  0.3279 -0.5018
  938MPD2    C113768   1.736   3.847   1.325 -0.9210 -0.9110  0.4217
  938MPD2    C213769   1.625   3.807   1.400 -0.0860  0.0118 -0.1096
  938MPD2    C313770   1.573   3.680   1.376  0.3441 -0.1173 -0.2027
  938MPD2    C413771   1.603   3.614   1.261  0.0288  0.3283 -0.2952
  938MPD2    C513772   1.706   3.652   1.184 -0.0164 -0.0679 -0.0647
  938MPD2     H13773   1.603   3.865   1.488 -0.1228 -1.6659  0.9784
  938MPD2    H113774   1.562   3.518   1.232  0.1704  0.0465  0.4407
  938MPD2    H213775   1.859   3.793   1.158 -0.0798 -0.2261 -1.1826
  938MPD2    H313776   1.748   3.584   1.111  2.3519  0.5740  0.7203
  938MPD2     N13777   1.487   3.610   1.463  0.1207 -0.3603  0.0083
  938MPD2    H513778   1.457   3.516   1.438 -2.3499  0.5555 -0.4649
  938MPD2    N113779   1.799   3.968   1.364 -0.1326 -0.3114 -0.3074
  938MPD2    H713780   1.762   4.013   1.448 -2.3860 -0.7596 -1.0653
  939MPD2     C13781   3.013   4.394   0.870 -0.0947 -0.1313 -0.0787
  939MPD2    C113782   2.970   4.522   0.879  0.3291 -0.3458 -0.1558
  939MPD2    C213783   2.946   4.591   0.765 -0.0973  0.2556 -0.1399
  939MPD2    C313784   2.959   4.533   0.639 -0.3951 -0.3179  0.0723
  939MPD2    C413785   2.987   4.398   0.633 -0.6099  0.2170 -0.5372
  939MPD2    C513786   3.013   4.334   0.748 -0.2132  0.3422 -0.8847
  939MPD2     H13787   2.925   4.697   0.757 -0.8699  0.0529 -0.6666
  939MPD2    H113788   2.993   4.345   0.539 -0.0255 -0.5647 -0.0566
  939MPD2    H213789   3.045   4.335   0.955  0.3638 -0.7315 -0.6663
  939MPD2    H313790   3.051   4.233   0.739  1.6617  1.1395 -1.9527
  939MPD2     N13791   2.940   4.616   0.528 -0.2152 -0.2922 -0.0627
  939MPD2    H513792   2.936   4.715   0.549  2.0626  0.2982 -2.4485
  939MPD2    N113793   2.958   4.592   1.006 -0.0084  0.1442 -0.1399
  939MPD2    H713794   2.973   4.539   1.092 -0.5573  0.7007  0.3033
  940MPD2     C13795   1.609   1.785  13.521 -0.4147  0.0418 -0.5844
  940MPD2    C113796   1.557   1.652  13.530 -0.1415  0.4218  0.2397
  940MPD2    C213797   1.579   1.576  13.420  0.8385  0.4029  0.1017
  940MPD2    C313798   1.648   1.620  13.310  0.3286 -0.1403  0.3956
  940MPD2    C413799   1.703   1.739  13.301 -0.4467 -0.4865 -0.3876
  940MPD2    C513800   1.689   1.821  13.414 -0.8100  0.2807  0.5746
  940MPD2     H13801   1.559   1.470  13.430  1.9058  0.3000  1.0745
  940MPD2    H113802   1.760   1.769  13.214 -2.3126 -1.5524 -1.9669
  940MPD2    H213803   1.593   1.859  13.599 -1.9085  1.6010 -2.3572
  940MPD2    H313804   1.739   1.917  13.412 -1.3175  0.4622 -2.2979
  940MPD2     N13805   1.675   1.531  13.198 -0.5600  0.1846 -0.3670
  940MPD2    H513806   1.723   1.577  13.121  0.9918  2.2947  1.8575
  940MPD2    N113807   1.490   1.608  13.644  0.2221 -0.5300  0.3360
  940MPD2    H713808   1.481   1.507  13.645 -0.4505 -0.4873 -1.7847
  941MPD2     C13809   1.322   0.738  10.254  0.1098 -0.3172  0.0322
  941MPD2    C113810   1.238   0.843  10.270 -0.0439  0.6366 -0.2541
  941MPD2    C213811   1.108   0.831  10.317  0.0116 -0.4439 -0.2058
  941MPD2    C313812   1.051   0.705  10.347 -0.1598  0.1202  0.6999
  941MPD2    C413813   1.142   0.602  10.340  0.7156 -0.2697 -0.6450
  941MPD2    C513814   1.273   0.616  10.303  0.4680  0.1198  0.2603
  941MPD2     H13815   1.057   0.925  10.331 -0.4448 -0.8445  0.8464
  941MPD2    H113816   1.114   0.503  10.376 -1.6250  0.5550 -0.1850
  941MPD2    H213817   1.427   0.739  10.227 -0.0194  0.6684 -0.4649
  941MPD2    H313818   1.339   0.530  10.315  1.4055  0.4945 -2.2800
  941MPD2     N13819   0.918   0.686  10.394  0.2833  0.1216  0.3196
  941MPD2    H513820   0.893   0.588  10.409  1.0241 -0.0699  0.3102
  941MPD2    N113821   1.288   0.972  10.247  0.5922 -0.0097  0.2700
  941MPD2    H713822   1.227   1.045  10.281 -1.7025 -1.9710  0.4113
  942MPD2     C13823   2.600   2.777   9.775 -0.7826  0.9191  0.0009
  942MPD2    C113824   2.661   2.770   9.653 -0.2563 -0.3150  0.3141
  942MPD2    C213825   2.596   2.806   9.540  0.0173  0.5808  0.8572
  942MPD2    C313826   2.469   2.862   9.552  0.2623  0.4815 -0.6590
  942MPD2    C413827   2.417   2.878   9.674  0.6698  0.1011  0.0834
  942MPD2    C513828   2.480   2.836   9.788 -0.2625 -0.0470 -0.2380
  942MPD2     H13829   2.648   2.811   9.444 -1.1328  3.4905  0.3874
  942MPD2    H113830   2.333   2.944   9.689  1.0805  0.2508  1.7455
  942MPD2    H213831   2.647   2.752   9.870  2.2315  0.3772 -1.6184
  942MPD2    H313832   2.449   2.874   9.885  1.6397  1.1424 -0.0942
  942MPD2     N13833   2.386   2.905   9.443  0.1588  0.0063  0.0055
  942MPD2    H513834   2.294   2.938   9.472  0.6344 -1.3303  3.0629
  942MPD2    N113835   2.796   2.733   9.638 -0.0683  0.0779  0.0525
  942MPD2    H713836   2.841   2.747   9.548 -0.5144 -1.6508 -0.4388
  943MPD2     C13837   4.602   4.427  10.225 -0.9507  0.1777 -0.0571
  943MPD2    C113838   4.685   4.321  10.222  0.1535  0.1786 -0.2387
  943MPD2    C213839   0.084   4.343  10.210  0.4416  0.1984 -0.5808
  943MPD2    C313840   0.140   4.470  10.197 -0.4845 -0.0389  0.1666
  943MPD2    C413841   0.050   4.572  10.187 -1.1263  0.1923  0.4587
  943MPD2    C513842   4.648   4.549  10.204 -0.2575 -0.2518  0.2016
  943MPD2     H13843   0.153   4.259  10.212  0.3723  0.1306 -0.9113
  943MPD2    H113844   0.083   4.675  10.178 -2.3361  0.4202 -1.3875
  943MPD2    H213845   4.498   4.423  10.253 -1.0333  2.0321 -0.0716
  943MPD2    H313846   4.588   4.638  10.189  0.4667 -0.1659 -2.1483
  943MPD2     N13847   0.280   4.491  10.214 -0.0593  0.7885  0.3437
  943MPD2    H513848   0.343   4.412  10.227 -0.9771 -0.1428 -0.7611
  943MPD2    N113849   4.624   4.198  10.244 -0.3284  0.3660  0.6248
  943MPD2    H713850   4.523   4.203  10.229 -0.2380 -0.0110 -0.1139
  944MPD2     C13851   4.020   0.475  11.053 -0.5483  1.1871 -0.2537
  944MPD2    C113852   3.940   0.428  11.153  0.0984  0.2146  0.1452
  944MPD2    C213853   3.864   0.517  11.230 -0.0040  0.9247  0.1699
  944MPD2    C313854   3.864   0.657  11.207 -0.4482 -0.0622 -0.2813
  944MPD2    C413855   3.946   0.699  11.102 -0.2172  0.5740 -0.1822
  944MPD2    C513856   4.029   0.609  11.029  0.1602 -0.5948  0.0956
  944MPD2     H13857   3.799   0.478  11.308 -0.5380 -2.5173 -2.0258
  944MPD2    H113858   3.965   0.802  11.077  0.8285  1.0485  2.5077
  944MPD2    H213859   4.078   0.409  10.990 -0.4738  0.3694  0.6751
  944MPD2    H313860   4.094   0.645  10.950 -0.0239 -1.5095 -0.4693
  944MPD2     N13861   3.791   0.752  11.291 -0.3553 -0.2895  0.3083
  944MPD2    H513862   3.740   0.708  11.367  1.7328  1.2641  2.6115
  944MPD2    N113863   3.953   0.291  11.183 -0.1751 -0.3125  0.2586
  944MPD2    H713864   4.014   0.240  11.120  1.7100  2.4125 -0.1425
    1TMC1    C113865   2.389   1.037  14.853  0.3454  0.5529  0.1679
    1TMC1    C213866   2.515   1.094  14.861  0.3242 -0.1624  0.2529
    1TMC1    C313867   2.603   1.060  14.963 -0.4559  0.1145 -0.9557
    1TMC1    C413868   2.356   0.943  14.946  0.2931  0.8374  0.5183
    1TMC1    C513869   2.426   0.937  15.064  0.5415  0.0001 -0.0161
    1TMC1    C613870   2.556   0.981  15.066  0.8355  0.1108  0.1289
    1TMC1     C13871   2.316   1.024  14.727 -0.0273  0.2915 -0.0911
    1TMC1     O13872   2.239   0.934  14.719 -0.4827  0.0314  0.7789
    1TMC1     H13873   2.552   1.163  14.786 -0.6342 -0.5037 -0.5371
    1TMC1    H113874   2.266   0.885  14.930  1.1591  0.2412 -2.2556
    1TMC1    H213875   2.625   0.972  15.150  1.1325  1.7203  0.0591
    1TMC1    C713876   2.377   0.865  15.180 -0.3743  0.3375  0.4309
    1TMC1    C813877   2.714   1.149  14.981  0.5129 -0.0376 -0.1052
    1TMC1    O113878   2.452   0.804  15.252 -0.1736 -0.0911 -0.1498
    1TMC1    O213879   2.789   1.171  14.889  0.3861  0.0871 -0.3087
    1TMC1    O313880   2.242   0.877  15.189 -0.2806  0.0306 -0.0950
    1TMC1    H313881   2.220   0.956  15.135 -0.3957  0.4265  0.5265
    1TMC1    O513882   2.742   1.169  15.111  0.3142  0.0503  0.0605
    1TMC1    H513883   2.665   1.178  15.171  0.8463  0.2854  0.7052
    2MPD2     C13884   2.225   1.085  14.224 -0.0658  0.5082  0.4584
    2MPD2    C113885   2.270   1.203  14.284  0.1331 -0.7199 -0.0751
    2MPD2    C213886   2.319   1.208  14.410 -0.4758  0.2926  0.6768
    2MPD2    C313887   2.316   1.097  14.490 -0.3492 -0.2555 -0.1715
    2MPD2    C413888   2.256   0.981  14.434 -0.5785 -0.3656 -0.2859
    2MPD2    C513889   2.214   0.972  14.306  1.4371 -0.3806 -0.1353
    2MPD2     H13890   2.367   1.301  14.440 -0.0870  0.0264  0.8874
    2MPD2    H113891   2.244   0.892  14.495 -0.5748  1.2493  2.0672
    2MPD2    H213892   2.187   1.077  14.123  1.4533 -1.3361  0.0162
    2MPD2    H313893   2.171   0.876  14.281 -1.4886  0.6079  1.0695
    2MPD2     N13894   2.359   1.108  14.628 -0.2991 -0.1351 -0.1219
    2MPD2    H513895   2.415   1.189  14.653 -0.1145 -0.8142  1.6561
    2MPD2    N113896   2.265   1.311  14.195 -1.0257 -0.2080  0.6324
    2MPD2    H713897   2.233   1.281  14.104 -0.7067  1.4730 -0.0414
    3TMC2    C113898   2.282   1.522  14.097  0.5175  0.3219 -0.1880
    3TMC2    C213899   2.344   1.468  13.983  0.4983 -0.1319  0.3281
    3TMC2    C313900   2.349   1.547  13.869 -0.2249 -0.2242 -0.2278
    3TMC2    C413901   2.219   1.641  14.092 -0.7177  0.6886 -0.0785
    3TMC2    C513902   2.214   1.706  13.971  0.6808 -0.2946  0.6250
    3TMC2    C613903   2.287   1.668  13.861 -0.4591 -0.4892 -0.4509
    3TMC2     C13904   2.280   1.446  14.227 -0.0359  0.4453  0.6445
    3TMC2     O13905   2.297   1.508  14.333 -0.5428  0.5508 -0.5009
    3TMC2     H13906   2.377   1.365  13.986 -0.9005 -0.5165  2.1757
    3TMC2    H113907   2.169   1.672  14.183 -0.3561 -0.0363  0.3619
    3TMC2    H213908   2.272   1.704  13.760  0.8242  0.9025 -0.1500
    3TMC2    C713909   2.150   1.837  13.958 -0.2874  0.8580 -0.5716
    3TMC2    C813910   2.397   1.494  13.743 -0.1687  0.4449 -0.6456
    3TMC2    O113911   2.171   1.919  13.866 -0.4629 -0.1248 -0.0952
    3TMC2    O213912   2.404   1.372  13.721  0.3455 -0.0309  0.2956
    3TMC2    O513913   2.486   1.587  13.690  0.3184 -0.0783  0.1607
    3TMC2    H513914   2.487   1.663  13.752  0.6314 -1.9052  2.4101
    4TMC2    C113915   1.317   2.089  14.464 -0.2857 -0.1395  0.9633
    4TMC2    C213916   1.314   2.042  14.590 -0.4547 -0.9335  0.5006
    4TMC2    C313917   1.423   1.980  14.639 -0.5754 -0.2722 -0.2063
    4TMC2    C413918   1.435   2.083  14.390 -0.3048 -0.1974 -0.1016
    4TMC2    C513919   1.548   2.035  14.452 -0.2305  0.0409 -0.1845
    4TMC2    C613920   1.540   1.971  14.576 -0.0475 -0.7655 -0.0138
    4TMC2     C13921   1.194   2.070  14.392 -0.5776 -0.7953 -0.2200
    4TMC2     O13922   1.087   2.063  14.449 -0.3961 -0.1344 -0.0932
    4TMC2     H13923   1.221   2.061  14.642 -0.3240 -0.8480  0.7020
    4TMC2    H113924   1.440   2.129  14.292 -0.4305 -1.7841 -0.8544
    4TMC2    H213925   1.621   1.906  14.608  1.5099  0.9401 -0.5351
    4TMC2    C713926   1.672   2.002  14.380 -0.0642 -0.0989 -0.0827
    4TMC2    C813927   1.424   1.953  14.776 -0.4128 -0.8473 -0.2769
    4TMC2    O113928   1.716   1.891  14.401 -0.0828 -0.4466  0.1470
    4TMC2    O213929   1.319   1.945  14.837 -0.0035 -0.3783 -0.1136
    4TMC2    O513930   1.533   2.023  14.825 -0.3387  0.1255  0.2317
    4TMC2    H513931   1.585   2.076  14.762  0.8768 -2.0429 -0.6044
    5MPD2     C13932   0.963   1.933  13.968 -0.0755  0.1406 -0.2267
    5MPD2    C113933   1.076   1.997  13.930 -0.2530  0.0413 -0.3829
    5MPD2    C213934   1.150   2.050  14.033 -0.3769 -0.3389  0.8071
    5MPD2    C313935   1.119   2.041  14.162 -0.1188 -0.0788 -0.3044
    5MPD2    C413936   0.990   2.004  14.188  0.2939  0.3807 -0.0530
    5MPD2    C513937   0.912   1.947  14.095  0.3485 -0.7405 -0.3948
    5MPD2     H13938   1.247   2.089  14.005 -0.0272 -2.4418 -0.8770
    5MPD2    H113939   0.941   2.018  14.283  2.7470  2.3515  0.9107
    5MPD2    H213940   0.907   1.883  13.890  0.3369  0.4188 -0.6996
    5MPD2    H313941   0.812   1.908  14.112  0.9560 -2.9751 -1.9765
    5MPD2     N13942   1.219   2.076  14.258  0.1485  0.0480  0.1470
    5MPD2    H513943   1.310   2.109  14.225 -1.2836  3.5775 -0.2995
    5MPD2    N113944   1.108   2.002  13.786  0.5031  0.0959 -0.0424
    5MPD2    H713945   1.056   1.933  13.734  0.7863 -1.3175  1.5458
    6MPD1     C13946   0.286   2.583  12.743  0.3583  0.2881  0.6901
    6MPD1    C113947   0.389   2.589  12.835  0.2374 -0.3219 -0.2738
    6MPD1    C213948   0.493   2.494  12.823 -0.4201 -0.3090  0.0883
    6MPD1    C313949   0.499   2.410  12.712 -0.2410  0.4768  0.1692
    6MPD1    C413950   0.403   2.417  12.610  0.3363  0.4127  0.5463
    6MPD1    C513951   0.299   2.497  12.635 -0.1773 -0.2641  0.2108
    6MPD1     H13952   0.568   2.507  12.900 -0.6678 -2.0539  0.6206
    6MPD1    H113953   0.408   2.343  12.531  0.0190  0.7180  0.2417
    6MPD1    H213954   0.193   2.638  12.754 -0.0239 -0.4767  1.3217
    6MPD1    H313955   0.218   2.497  12.564  0.8188  1.6965 -0.9337
    6MPD1     N13956   0.600   2.315  12.697 -0.1593 -0.1262  0.1096
    6MPD1    H513957   0.587   2.246  12.623  1.7657 -0.5678  0.1872
    6MPD1    N113958   0.376   2.677  12.947  0.2973 -0.4223  0.3534
    6MPD1    H613959   0.311   2.754  12.937  1.6619  0.3544 -2.4403
    6MPD1    H713960   0.462   2.698  12.998  0.4588 -1.6949  0.6114
    7MPD2     C13961   0.824   1.723  13.056 -0.8399 -0.2556  0.2922
    7MPD2    C113962   0.920   1.814  13.022 -0.0603  0.4232  0.2668
    7MPD2    C213963   1.016   1.846  13.114  0.0566  0.0432  0.7055
    7MPD2    C313964   1.029   1.777  13.232 -0.2749  0.1218  0.5706
    7MPD2    C413965   0.927   1.692  13.267 -0.5232  0.5395 -0.6540
    7MPD2    C513966   0.821   1.661  13.179  0.2123 -1.4281 -0.3573
    7MPD2     H13967   1.081   1.928  13.085 -1.2644  0.6316 -0.6178
    7MPD2    H113968   0.930   1.643  13.364 -1.1481 -2.0016 -1.9049
    7MPD2    H213969   0.738   1.705  12.993 -1.0409  1.1017  0.1883
    7MPD2    H313970   0.741   1.593  13.204 -0.4950 -0.5277 -0.1619
    7MPD2     N13971   1.126   1.810  13.333  0.5212  0.3409  0.6217
    7MPD2    H513972   1.119   1.758  13.420 -1.2597 -4.2595 -2.2450
    7MPD2    N113973   0.929   1.878  12.901 -0.4056 -0.1239 -0.4682
    7MPD2    H713974   1.016   1.928  12.887  0.2931  0.0219  4.2480
    8TMC3    C113975   1.303   1.932  13.417  0.0319 -0.0820  0.0205
    8TMC3    C213976   1.224   1.948  13.528  0.0826 -0.2522  0.0256
    8TMC3    C313977   1.235   2.070  13.590  0.0304  0.8482 -0.1473
    8TMC3    C413978   1.407   2.010  13.390  0.3408  0.5384  0.3772
    8TMC3    C513979   1.419   2.131  13.456 -0.1483 -0.3679 -0.1010
    8TMC3    C613980   1.330   2.163  13.552  0.2757  0.5142  0.0097
    8TMC3     C13981   1.249   1.865  13.303 -0.7275 -0.3129  0.4164
    8TMC3     O13982   1.309   1.886  13.199  0.6656 -0.4195  0.7110
    8TMC3     H13983   1.152   1.875  13.563  0.1836  0.0394  0.8439
    8TMC3    H113984   1.480   1.982  13.315 -1.5275 -2.0109 -0.4788
    8TMC3    H213985   1.334   2.261  13.598 -0.2248  0.4626  0.1670
    8TMC3    C713986   1.451   2.243  13.371  0.3577  0.3611  0.8025
    8TMC3    C813987   1.206   2.082  13.739 -0.2343 -0.7427 -0.4495
    8TMC3    O113988   1.513   2.341  13.410  0.2629  0.5875  0.5396
    8TMC3    O213989   1.242   2.187  13.788 -0.6490 -0.4318 -0.5551
    9TMC3    C113990   0.802   2.204  12.708  0.0997  0.1050  0.3042
    9TMC3    C213991   0.935   2.237  12.700  0.0660  0.2010  0.6095
    9TMC3    C313992   1.027   2.133  12.701  0.0666  0.2480 -0.7769
    9TMC3    C413993   0.766   2.075  12.707  0.7384  0.4594 -0.6714
    9TMC3    C513994   0.863   1.974  12.699  0.4953  0.0099 -0.5127
    9TMC3    C613995   0.997   2.001  12.703 -0.6764  0.2238  0.2020
    9TMC3     C13996   0.721   2.308  12.763 -0.7027 -0.0565  0.1045
    9TMC3     O13997   0.781   2.401  12.817 -0.3058  0.0728  0.0875
    9TMC3     H13998   0.966   2.340  12.713 -3.0885  1.0382  1.4897
    9TMC3    H113999   0.665   2.046  12.733  0.4795  1.5233 -0.4932
    9TMC3    H214000   1.069   1.923  12.679  0.5547  1.6446 -0.7349
    9TMC3    C714001   0.836   1.873  12.799 -1.2774  0.0319 -0.5510
    9TMC3    C814002   1.136   2.144  12.794 -0.5162  0.5600 -0.3124
    9TMC3    O114003   0.727   1.819  12.804 -0.2622  0.4119 -0.2790
    9TMC3    O214004   1.144   2.043  12.860  0.2258 -0.0558  0.1913
   10MPD2     C14005   1.442   2.410  13.123 -0.1495  0.0275  0.2500
   10MPD2    C114006   1.374   2.293  13.143  1.1167  0.2701 -0.4617
   10MPD2    C214007   1.303   2.241  13.039  0.3561 -0.1796 -0.4426
   10MPD2    C314008   1.279   2.310  12.920 -0.3963 -0.1224 -0.4069
   10MPD2    C414009   1.350   2.424  12.903  0.4484 -0.0287  0.0227
   10MPD2    C514010   1.433   2.477  13.005  0.8546 -0.5222  0.2975
   10MPD2     H14011   1.232   2.160  13.052  1.3358 -1.1201 -1.0039
   10MPD2    H114012   1.351   2.487  12.815 -1.6577  2.4115  1.7164
   10MPD2    H214013   1.496   2.460  13.203 -1.8722  0.0644  1.4026
   10MPD2    H314014   1.498   2.560  12.982 -1.1707  0.8299 -0.5464
   10MPD2     N14015   1.193   2.271  12.812  0.4288  0.1080  0.4487
   10MPD2    H514016   1.160   2.341  12.746  0.0181 -0.6209 -0.1236
   10MPD2    N114017   1.393   2.214  13.256 -0.1648  0.4106 -0.2726
   10MPD2    H714018   1.352   2.121  13.254 -0.3124  0.5074 -1.7111
   11MPD2     C14019   2.024   2.104  14.028 -0.0444 -0.0852 -0.8001
   11MPD2    C114020   1.990   1.984  14.090 -0.0471 -0.0622 -0.5091
   11MPD2    C214021   1.891   1.986  14.182  0.5157 -0.4091 -0.1838
   11MPD2    C314022   1.813   2.103  14.201  0.1138 -0.1876  0.1022
   11MPD2    C414023   1.839   2.216  14.127 -0.7262 -0.1353 -0.2772
   11MPD2    C514024   1.955   2.217  14.050  0.0113  0.1423 -0.1253
   11MPD2     H14025   1.874   1.896  14.240  0.0180  0.2575  0.6979
   11MPD2    H114026   1.787   2.309  14.149 -0.0756  0.6737 -2.1831
   11MPD2    H214027   2.116   2.118  13.973  1.4708 -1.6155  1.3112
   11MPD2    H314028   1.992   2.307  14.003  0.7490 -0.3847 -0.5402
   11MPD2     N14029   1.711   2.107  14.296  0.4266 -0.3533  0.2277
   11MPD2    H514030   1.650   2.188  14.294  1.3241  0.3091 -0.1724
   11MPD2    N114031   2.063   1.862  14.066 -0.0052  0.5131 -0.2518
   11MPD2    H714032   2.027   1.783  14.118  0.1120  1.4212  1.2115
    1MPD1     C14033   4.692   3.615  16.821  0.7109  0.1266 -0.3551
    1MPD1    C114034   4.639   3.501  16.769 -0.1651  0.5373  0.1757
    1MPD1    C214035   4.637   3.486  16.632 -0.0660 -0.2483  0.6922
    1MPD1    C314036   4.675   3.582  16.543 -0.2811 -0.5554 -0.2889
    1MPD1    C414037   4.711   3.706  16.596  0.1665  0.3246 -0.4025
    1MPD1    C514038   0.000   3.717  16.732  0.1812 -0.2277  0.0524
    1MPD1     H14039   4.612   3.386  16.600  0.4862 -0.0187 -0.4419
    1MPD1    H114040   0.004   3.785  16.528 -0.0341  2.5277  2.1072
    1MPD1    H214041   4.686   3.634  16.927 -0.0310 -0.0271 -0.3711
    1MPD1    H314042   0.025   3.816  16.770 -4.3767  1.2398 -0.7729
    1MPD1     N14043   4.687   3.559  16.400 -0.1931  0.3845  0.4315
    1MPD1    H514044   4.717   3.635  16.340 -0.0677 -0.6058 -0.7776
    1MPD1    N114045   4.632   3.390  16.857  0.0826 -0.3245 -0.1449
    1MPD1    H614046   4.605   3.414  16.952  3.1245  0.4225  0.5475
    1MPD1    H714047   4.567   3.325  16.812  0.5949 -0.5986 -0.4911
    2MPD1     C14048   0.240   4.125  15.853 -1.0458  0.1455 -0.2684
    2MPD1    C114049   0.236   4.092  15.984  0.0176 -0.4754  0.0869
    2MPD1    C214050   0.215   3.963  16.023  0.0061 -0.1144  0.4219
    2MPD1    C314051   0.146   3.876  15.939 -0.0367 -0.9698  0.5733
    2MPD1    C414052   0.147   3.918  15.807  0.7620  0.3943 -0.0562
    2MPD1    C514053   0.203   4.032  15.766  0.3582 -0.9480  0.6620
    2MPD1     H14054   0.223   3.944  16.130 -1.2441 -0.5683  0.4263
    2MPD1    H114055   0.104   3.855  15.729  1.3891  2.1449 -1.8068
    2MPD1    H214056   0.270   4.221  15.813 -1.2347 -0.6447 -2.3325
    2MPD1    H314057   0.197   4.060  15.662  0.4640 -2.1033  0.3507
    2MPD1     N14058   0.094   3.759  15.988  0.3753 -0.2356  0.5383
    2MPD1    H514059   0.106   3.747  16.088 -0.3226 -0.6685  0.5717
    2MPD1    N114060   0.297   4.177  16.075  0.6464 -0.3339  0.2510
    2MPD1    H614061   0.270   4.159  16.172 -0.1900 -0.8569 -0.0734
    2MPD1    H714062   0.274   4.274  16.054  0.9280 -0.2379  0.3836
    3TMC3    C114063   4.706   3.553  15.991  0.2043  1.1032  0.0752
    3TMC3    C214064   4.628   3.473  15.922  0.0120 -0.3426  0.3084
    3TMC3    C314065   4.575   3.364  15.994  0.2941 -0.3264 -0.0590
    3TMC3    C414066   4.722   3.544  16.126  0.4410  0.7830  0.5721
    3TMC3    C514067   4.662   3.450  16.196  0.1116  0.0443 -0.6871
    3TMC3    C614068   4.584   3.360  16.125  0.1560  0.2479  0.3972
    3TMC3     C14069   0.033   3.665  15.915  0.1325 -1.1904  0.3621
    3TMC3     O14070   0.041   3.649  15.795  0.3541 -0.8572  0.0992
    3TMC3     H14071   4.628   3.477  15.814  0.0992  2.0815  0.3946
    3TMC3    H114072   0.058   3.612  16.169  0.7978  0.9437 -0.2905
    3TMC3    H214073   4.537   3.281  16.183  2.7035  1.1597  3.6709
    3TMC3    C714074   4.646   3.443  16.337 -0.3878 -0.5982 -0.8766
    3TMC3    C814075   4.475   3.277  15.937 -0.3070 -0.0554 -0.6483
    3TMC3    O114076   4.602   3.338  16.394  0.0278 -0.2207  0.1955
    3TMC3    O214077   4.459   3.174  15.998 -0.0547  0.1817 -0.1783
    4MPD1     C14078   4.064   3.203  15.636  0.5128 -0.3560 -0.2277
    4MPD1    C114079   4.118   3.329  15.608  0.5215 -0.6682 -0.4857
    4MPD1    C214080   4.219   3.371  15.686 -0.4726  0.3057 -0.1332
    4MPD1    C314081   4.277   3.286  15.778  0.9351 -0.2546 -1.1705
    4MPD1    C414082   4.217   3.170  15.823 -0.2156 -0.0128 -0.4624
    4MPD1    C514083   4.106   3.135  15.749  0.1938 -0.2205  0.4498
    4MPD1     H14084   4.268   3.464  15.660  1.8189 -0.2181  2.2037
    4MPD1    H114085   4.252   3.104  15.901  1.2176 -1.1696 -2.0659
    4MPD1    H214086   3.981   3.167  15.578  2.0386 -3.0275 -0.7291
    4MPD1    H314087   4.054   3.042  15.771  0.9197 -0.6781  0.2313
    4MPD1     N14088   4.401   3.339  15.836  0.4643  0.1256  0.1342
    4MPD1    H514089   4.440   3.428  15.807 -1.0265  1.0516  0.9702
    4MPD1    N114090   4.050   3.405  15.509 -0.2196  0.4772  0.1199
    4MPD1    H614091   4.119   3.469  15.469  0.7837 -0.7429 -0.1039
    4MPD1    H714092   4.000   3.349  15.440 -0.1685  1.9016 -1.0917
    1TCq1    O114093   1.620   2.668  11.588  0.1533 -0.3142 -0.3160
    1TCq1    C114094   1.549   2.661  11.699  0.4008 -0.3731 -0.0160
    1TCq1    O214095   1.588   2.689  11.814 -0.1095 -0.3152  0.2077
    1TCq1    C214096   1.406   2.637  11.675 -0.0865 -0.7304  0.3766
    1TCq1    C314097   1.368   2.569  11.562  0.5459  0.0955 -0.2048
    1TCq1    C414098   1.235   2.580  11.530 -0.3552  0.2739  0.2837
    1TCq1    C514099   1.146   2.655  11.609  0.0553 -0.1644  0.5743
    1TCq1    C614100   1.197   2.728  11.713 -0.1181 -0.6707 -0.3856
    1TCq1    C714101   1.327   2.710  11.755 -0.0207  0.4009 -0.9213
    1TCq1    C814102   1.105   2.755  11.826 -0.4773  0.3402  1.2092
    1TCq1    O414103   1.157   2.763  11.937 -0.1759 -0.4717  0.1176
    1TCq1    C914104   1.170   2.474  11.456  0.9229 -0.1316  0.1235
    1TCq1    O514105   1.244   2.390  11.400  0.0881 -0.5963 -0.5518
    1TCq1    O614106   1.040   2.468  11.455 -0.2039 -0.3856  0.0463
    1TCq1    H114107   1.578   2.627  11.510 -1.0843 -0.4364  0.4157
    1TCq1    H214108   1.422   2.476  11.548 -1.5293 -0.9424 -1.3804
    1TCq1    H314109   1.040   2.643  11.590  0.3945  1.1178 -2.1426
    1TCq1    H414110   1.371   2.776  11.828 -0.3780  0.5656 -0.8517
    2MPD1     C14111   0.651   2.904  12.010  0.1256  0.1474  0.7236
    2MPD1    C114112   0.642   2.907  11.876 -0.3032 -0.3090  1.1107
    2MPD1    C214113   0.755   2.873  11.803  0.5669 -0.3634 -0.0337
    2MPD1    C314114   0.869   2.818  11.862 -0.1335  0.1001  0.2586
    2MPD1    C414115   0.876   2.809  11.999 -0.2050 -0.4454 -0.7816
    2MPD1    C514116   0.762   2.849  12.070  0.2778 -0.3952 -0.0371
    2MPD1     H14117   0.753   2.901  11.698 -0.0060 -0.4180 -0.0356
    2MPD1    H114118   0.969   2.781  12.047 -0.5336  1.5136  0.9730
    2MPD1    H214119   0.577   2.935  12.082 -0.0924  2.2794 -0.4300
    2MPD1    H314120   0.769   2.855  12.178  0.3952 -1.8948  0.0278
    2MPD1     N14121   0.980   2.801  11.782 -0.6379 -0.5125 -0.1171
    2MPD1    H514122   0.972   2.819  11.682 -1.6028 -1.4722 -0.2089
    2MPD1    N114123   0.536   2.983  11.821 -0.8245  0.3067  0.1775
    2MPD1    H614124   0.456   2.989  11.884 -1.0316 -0.7394  0.0238
    2MPD1    H714125   0.504   2.963  11.727 -3.4401  1.3509  0.8500
    1TMC1    C114126   1.840   4.409   2.052  0.1297 -0.1018  0.4065
    1TMC1    C214127   1.837   4.291   1.988  0.6196 -0.0530 -0.2161
    1TMC1    C314128   1.895   4.180   2.052 -0.6079 -0.4338 -0.8313
    1TMC1    C414129   1.906   4.423   2.171  0.3802  0.1529 -0.0970
    1TMC1    C514130   1.968   4.309   2.227  0.3596  0.5172 -0.5182
    1TMC1    C614131   1.955   4.189   2.170 -0.5703 -0.6148 -0.1419
    1TMC1     C14132   1.760   4.524   2.002 -0.4963 -0.3222 -0.0365
    1TMC1     O14133   1.773   4.624   2.071 -0.0916  0.6141 -0.2650
    1TMC1     H14134   1.814   4.281   1.883 -0.6355 -1.4291  0.1990
    1TMC1    H114135   1.915   4.520   2.218 -0.3116 -0.3252  1.0122
    1TMC1    H214136   1.991   4.098   2.218  2.9730  0.1100 -1.4080
    1TMC1    C714137   2.010   4.321   2.362  0.2069  0.0150 -0.1100
    1TMC1    C814138   1.866   4.057   1.987  0.0024  0.3453 -0.3456
    1TMC1    O114139   1.947   4.404   2.425 -0.5370  0.0280 -0.2743
    1TMC1    O214140   1.780   4.053   1.897  0.3911 -0.2592  0.6142
    1TMC1    O314141   2.059   4.206   2.408  0.2290  0.3620 -0.7309
    1TMC1    H314142   2.130   4.172   2.348 -1.3862 -2.0378 -1.2713
    1TMC1    O514143   1.984   3.995   1.980  0.1378 -0.0403 -0.1449
    1TMC1    H514144   2.043   3.999   2.058 -1.4929 -0.0510  1.0856
    2MPD1     C14145   1.395   4.726   1.713  0.2787 -0.5362  0.0209
    2MPD1    C114146   1.408   4.592   1.683  0.9179  0.0427  0.2120
    2MPD1    C214147   1.511   4.522   1.736 -0.6596  0.2262 -0.1753
    2MPD1    C314148   1.591   4.575   1.835 -0.5685  0.2512  0.2661
    2MPD1    C414149   1.568   4.703   1.878 -0.4030 -0.9824  0.3578
    2MPD1    C514150   1.464   0.037   1.819  0.3483  0.6157  0.0982
    2MPD1     H14151   1.519   4.421   1.698  0.4955  1.3251 -2.8120
    2MPD1    H114152   1.629   0.016   1.953 -1.7508 -0.4780  1.1204
    2MPD1    H214153   1.306   0.031   1.669 -0.3463 -1.0934  0.7668
    2MPD1    H314154   1.446   0.141   1.843 -3.0737  0.0098  0.1790
    2MPD1     N14155   1.687   4.493   1.892 -0.0747 -0.6140 -0.4722
    2MPD1    H514156   1.694   4.403   1.845  1.3802  0.4168 -2.2373
    2MPD1    N114157   1.339   4.549   1.570  0.6289  0.3786 -0.2203
    2MPD1    H614158   1.247   4.592   1.563 -0.2390 -1.3356  0.7059
    2MPD1    H714159   1.320   4.449   1.573  1.7146  0.2041  1.2965
    1MPD1     C14160   2.691   3.807  11.265 -0.7363 -0.3768 -0.0380
    1MPD1    C114161   2.688   3.669  11.298  0.7443  0.2271  0.2120
    1MPD1    C214162   2.718   3.619  11.420  0.4599 -0.6656 -0.1762
    1MPD1    C314163   2.754   3.714  11.514  0.1341 -0.3055 -0.3582
    1MPD1    C414164   2.760   3.850  11.478  0.1051 -0.2580  0.0661
    1MPD1    C514165   2.720   3.899  11.354 -0.3434  0.1415  0.1881
    1MPD1     H14166   2.721   3.515  11.450 -0.4247 -0.7416 -0.3393
    1MPD1    H114167   2.783   3.924  11.554  3.3775 -2.4504  1.2237
    1MPD1    H214168   2.666   3.845  11.166 -2.4426 -0.3169  0.4205
    1MPD1    H314169   2.712   4.004  11.328 -2.0736 -0.8326 -3.2097
    1MPD1     N14170   2.781   3.667  11.643 -0.0148 -0.2524  0.3898
    1MPD1    H514171   2.778   3.568  11.667  0.6823 -0.4008 -0.1314
    1MPD1    N114172   2.648   3.576  11.202  0.2615  0.7926 -0.4777
    1MPD1    H614173   2.714   3.499  11.210 -0.1078  0.8530  3.2402
    1MPD1    H714174   2.638   3.618  11.110 -1.0181 -0.5826 -0.9783
    2MPD1     C14175   2.070   3.864  10.721 -0.6863  0.7606  0.0385
    2MPD1    C114176   2.022   3.762  10.798 -0.4754 -0.5299  0.5388
    2MPD1    C214177   2.112   3.667  10.849  0.7149 -0.1289 -0.1879
    2MPD1    C314178   2.245   3.689  10.838 -0.9310 -0.2181 -0.3309
    2MPD1    C414179   2.300   3.797  10.772  0.5501  0.2798 -0.3064
    2MPD1    C514180   2.205   3.873  10.698  0.7245  0.3699 -0.2812
    2MPD1     H14181   2.066   3.582  10.897 -0.3110  0.8894  0.6169
    2MPD1    H114182   2.406   3.813  10.755  0.2280  0.2084 -2.4109
    2MPD1    H214183   2.006   3.932  10.667 -2.6467 -0.1447  1.2375
    2MPD1    H314184   2.237   3.959  10.640 -0.1727  1.1002  0.2930
    2MPD1     N14185   2.346   3.599  10.885  0.2116  0.3362 -1.0103
    2MPD1    H514186   2.444   3.618  10.868  0.1153  2.8020  1.2232
    2MPD1    N114187   1.885   3.739  10.798  0.3059  0.4918  0.2226
    2MPD1    H614188   1.860   3.693  10.886  0.5412  1.6044  0.8691
    2MPD1    H714189   1.829   3.824  10.787  0.0108  0.7038  3.2862
    3MPD1     C14190   3.159   3.179  10.539 -0.2283  0.5532 -1.6019
    3MPD1    C114191   3.145   3.100  10.646  0.3337 -0.2891  0.3923
    3MPD1    C214192   3.026   3.121  10.714  0.1898  0.5302  0.1377
    3MPD1    C314193   2.930   3.219  10.678  0.5463  0.1123  0.0061
    3MPD1    C414194   2.952   3.301  10.575  0.0732  0.4753 -0.8767
    3MPD1    C514195   3.068   3.280  10.508 -0.0856  0.4156 -0.2858
    3MPD1     H14196   3.010   3.059  10.803 -0.3309  0.1632 -0.2080
    3MPD1    H114197   2.874   3.371  10.549 -0.0144  0.3012 -1.0846
    3MPD1    H214198   3.238   3.156  10.469 -0.4526  0.4021 -1.8045
    3MPD1    H314199   3.082   3.341  10.420 -0.5422  1.9843  0.7313
    3MPD1     N14200   2.818   3.231  10.767 -0.1174  0.3118 -0.1709
    3MPD1    H514201   2.802   3.153  10.831 -0.2140  1.0701  0.7210
    3MPD1    N114202   3.224   2.984  10.669 -0.5698  0.0604 -0.1636
    3MPD1    H614203   3.226   2.961  10.768 -0.9373 -2.1060 -0.6481
    3MPD1    H714204   3.319   3.016  10.651 -0.7170  0.2977 -0.5080
    4MPD2     C14205   3.289   3.240  11.872 -0.2153  0.0780  0.2902
    4MPD2    C114206   3.161   3.234  11.912  0.3556  0.4933  0.1288
    4MPD2    C214207   3.094   3.114  11.924  0.7330  0.3524  0.0007
    4MPD2    C314208   3.148   2.997  11.879 -0.7282  0.1015  0.3428
    4MPD2    C414209   3.276   2.998  11.829 -0.2327  1.0912 -0.0275
    4MPD2    C514210   3.347   3.116  11.836  0.5142  0.7016  0.3904
    4MPD2     H14211   3.002   3.106  11.981  0.6244  0.4862 -0.1544
    4MPD2    H114212   3.329   2.910  11.796 -1.4698  1.3922 -2.8584
    4MPD2    H214213   3.346   3.331  11.862  0.1207  0.1915  3.3630
    4MPD2    H314214   3.450   3.109  11.803  1.1029  1.2588  2.0897
    4MPD2     N14215   3.061   2.888  11.885 -0.9743  0.2172  0.6464
    4MPD2    H514216   2.968   2.907  11.922 -1.4415 -0.1638 -0.3215
    4MPD2    N114217   3.096   3.352  11.956  0.1674 -0.4093 -0.0851
    4MPD2    H714218   2.997   3.336  11.974 -0.3796  0.5987 -2.1548
    5TMC3    C114219   3.024   3.566  12.009  0.0915 -0.6037 -0.0127
    5TMC3    C214220   2.992   3.659  11.908 -0.1037 -0.2309  0.4293
    5TMC3    C314221   2.869   3.658  11.854  0.4635 -0.5932 -0.4606
    5TMC3    C414222   2.921   3.482  12.053  0.2794  0.2277  0.2563
    5TMC3    C514223   2.796   3.495  12.012  0.2939  0.0816 -0.1138
    5TMC3    C614224   2.768   3.579  11.904  0.3533  0.5738  0.1906
    5TMC3     C14225   3.137   3.484  11.963 -0.0446 -0.0082  0.4866
    5TMC3     O14226   3.243   3.534  11.932 -0.2069  0.4778 -0.0118
    5TMC3     H14227   3.063   3.732  11.869 -1.7581  0.8622 -0.4993
    5TMC3    H114228   2.934   3.407  12.131 -1.7537  1.9768  2.2992
    5TMC3    H214229   2.670   3.587  11.859  0.7213  0.4185 -0.6288
    5TMC3    C714230   2.740   3.361  12.008  0.1000 -0.2062 -0.0098
    5TMC3    C814231   2.843   3.741  11.741 -0.2216 -0.6795 -0.1143
    5TMC3    O114232   2.831   3.288  11.965  0.0783  0.3274  0.1396
    5TMC3    O214233   2.896   3.849  11.734  1.1238  0.0289 -0.2251
    6TMC3    C114234   2.432   3.394  10.961 -0.0335  0.7230 -0.4506
    6TMC3    C214235   2.525   3.390  10.860 -0.4676  0.5939 -0.4265
    6TMC3    C314236   2.632   3.310  10.871  0.1578  0.2466 -0.0674
    6TMC3    C414237   2.453   3.327  11.079 -0.1266  0.4897 -0.1125
    6TMC3    C514238   2.567   3.250  11.091 -0.1817 -0.4111 -0.3593
    6TMC3    C614239   2.662   3.239  10.986  0.4696  0.7682 -0.1659
    6TMC3     C14240   2.319   3.481  10.955  0.3920  0.0204 -0.0801
    6TMC3     O14241   2.214   3.446  11.015  0.3140  0.1639  0.4326
    6TMC3     H14242   2.501   3.436  10.765 -0.3353 -1.6441 -1.5581
    6TMC3    H114243   2.372   3.320  11.150  0.5726  1.2698  0.7699
    6TMC3    H214244   2.751   3.181  11.005  0.1325  0.0677 -0.7072
    6TMC3    C714245   2.605   3.187  11.219 -0.7706  0.5774  0.1466
    6TMC3    C814246   2.732   3.338  10.770  0.5177 -0.9040 -0.3157
    6TMC3    O114247   2.697   3.112  11.220  0.2212 -0.9741  0.4832
    6TMC3    O214248   2.735   3.445  10.709 -0.2022  0.0998  0.5858
    7MPD2     C14249   2.439   2.982  12.162 -0.2120 -0.4384 -1.0056
    7MPD2    C114250   2.560   2.980  12.095  0.6172 -0.4010  0.5489
    7MPD2    C214251   2.618   3.103  12.073  0.3928 -0.1167  0.5828
    7MPD2    C314252   2.563   3.223  12.105  0.6050  0.9934 -0.2050
    7MPD2    C414253   2.449   3.222  12.182  0.2291  0.1056  0.2541
    7MPD2    C514254   2.399   3.099  12.210  0.2213  0.0536 -1.3895
    7MPD2     H14255   2.717   3.112  12.032  0.1708  0.6325  0.2049
    7MPD2    H114256   2.407   3.306  12.236  0.2735 -0.1407  0.6682
    7MPD2    H214257   2.384   2.891  12.183  0.2178 -0.7534 -1.2467
    7MPD2    H314258   2.306   3.098  12.266  1.3704 -0.1127  0.5242
    7MPD2     N14259   2.622   3.348  12.072 -0.0416 -0.6880  0.4536
    7MPD2    H514260   2.559   3.428  12.073 -1.2099 -1.5897 -0.5254
    7MPD2    N114261   2.613   2.854  12.059 -0.4941  0.3135  0.2479
    7MPD2    H714262   2.548   2.778  12.045 -0.2797  0.0427  0.7138
    8TMC3    C114263   2.774   2.713  11.954 -0.2257  0.7611  0.4905
    8TMC3    C214264   2.702   2.722  11.844  0.8212  0.5025  0.7738
    8TMC3    C314265   2.773   2.728  11.727 -0.2685  0.4431  0.1596
    8TMC3    C414266   2.907   2.691  11.963  0.5302 -0.1117  0.5318
    8TMC3    C514267   2.978   2.681  11.847  0.3508 -0.4939  0.4931
    8TMC3    C614268   2.909   2.704  11.730  0.0517 -0.3218 -0.9866
    8TMC3     C14269   2.744   2.834  12.032  0.3735 -0.2218 -0.2544
    8TMC3     O14270   2.833   2.921  12.035 -0.5754  0.3371 -0.0431
    8TMC3     H14271   2.595   2.733  11.846  0.6014 -1.3837  0.0961
    8TMC3    H114272   2.966   2.681  12.054  0.1638 -0.2610  0.7531
    8TMC3    H214273   2.958   2.710  11.634  3.4368 -0.7966  0.7136
    8TMC3    C714274   3.094   2.766  11.845  0.6679  0.1009  0.3821
    8TMC3    C814275   2.734   2.826  11.624  0.5811  0.0559 -0.4500
    8TMC3    O114276   3.193   2.729  11.777  0.0280 -0.3440  0.1524
    8TMC3    O214277   2.782   2.821  11.512 -0.2324 -0.5560  0.1373
    9MPD2     C14278   2.515   3.103  11.714 -1.0535  0.5871  0.2218
    9MPD2    C114279   2.591   3.031  11.632  0.3938 -0.1869  0.0052
    9MPD2    C214280   2.603   3.067  11.497 -0.4740 -0.5904  0.3258
    9MPD2    C314281   2.528   3.177  11.453  0.7677 -0.5634  0.2955
    9MPD2    C414282   2.461   3.251  11.544  0.5699 -0.3745  0.1613
    9MPD2    C514283   2.465   3.224  11.676 -0.2119 -0.4325  0.6878
    9MPD2     H14284   2.670   3.013  11.432 -0.5566  0.0467 -0.2827
    9MPD2    H114285   2.410   3.344  11.526  1.1133 -0.1000  0.0365
    9MPD2    H214286   2.506   3.080  11.820 -0.3351  0.2186  0.2040
    9MPD2    H314287   2.399   3.280  11.741  0.1078  0.3451  0.3377
    9MPD2     N14288   2.524   3.223  11.320  0.0624  0.7394  0.6079
    9MPD2    H514289   2.473   3.310  11.308 -0.6337  0.1194 -0.9041
    9MPD2    N114290   2.649   2.916  11.685 -0.6225 -0.5775  0.4436
    9MPD2    H714291   2.625   2.892  11.781  0.0284  1.7630  1.2054
    1MPD1     C14292   1.412   2.207  15.918  0.0776  0.5981 -0.9819
    1MPD1    C114293   1.526   2.134  15.917  0.7057  0.2688 -0.0402
    1MPD1    C214294   1.580   2.093  16.042 -0.1271  0.0351 -0.5334
    1MPD1    C314295   1.523   2.130  16.169 -0.5006  0.2011  0.4635
    1MPD1    C414296   1.413   2.216  16.160  0.8611  0.3264 -0.7376
    1MPD1    C514297   1.360   2.251  16.037 -0.1398 -0.5176 -0.0759
    1MPD1     H14298   1.666   2.027  16.034  0.3178  0.7312 -1.5897
    1MPD1    H114299   1.356   2.244  16.248  0.9353  0.6549 -0.7952
    1MPD1    H214300   1.372   2.240  15.822  1.9205  0.0822 -1.9168
    1MPD1    H314301   1.271   2.313  16.030  0.3547  0.2721  0.5885
    1MPD1     N14302   1.573   2.104  16.296 -0.5463  0.1294 -0.3636
    1MPD1    H514303   1.538   2.166  16.369 -1.4792 -1.3671  0.4628
    1MPD1    N114304   1.592   2.113  15.795 -0.7050  0.0401  0.4672
    1MPD1    H614305   1.676   2.171  15.787 -0.5786 -0.3309 -0.9265
    1MPD1    H714306   1.533   2.129  15.713 -1.3666 -0.2559  0.8939
    2TMC2    C114307   1.802   1.863  16.609  0.1431 -0.2893 -1.1977
    2TMC2    C214308   1.688   1.843  16.685 -0.0794 -0.7785  0.1837
    2TMC2    C314309   1.576   1.906  16.641  0.5318 -0.1891  0.3805
    2TMC2    C414310   1.812   1.953  16.502  0.0132  0.6503 -0.0290
    2TMC2    C514311   1.691   2.016  16.475  0.0709 -1.1253 -0.4735
    2TMC2    C614312   1.571   1.995  16.539  0.2041  0.1251 -0.0087
    2TMC2     C14313   1.927   1.795  16.642  0.1016  0.1904 -0.0141
    2TMC2     O14314   1.937   1.725  16.740  0.0899  0.5232 -0.0588
    2TMC2     H14315   1.686   1.770  16.765 -1.1952 -1.1069 -0.1389
    2TMC2    H114316   1.896   1.975  16.438 -1.2201  1.0014 -1.5450
    2TMC2    H214317   1.477   2.037  16.505 -0.0408 -2.0701 -2.0492
    2TMC2    C714318   1.681   2.033  16.330  1.0819 -0.3764 -0.3932
    2TMC2    C814319   1.454   1.887  16.715 -0.4369 -0.0151 -0.1432
    2TMC2    O114320   1.745   1.959  16.257  0.3589 -0.7574 -0.1443
    2TMC2    O214321   1.343   1.896  16.664 -0.2529 -0.0428  0.2326
    2TMC2    O514322   1.489   1.907  16.845  0.6887  0.1726 -0.1136
    2TMC2    H514323   1.584   1.930  16.852  1.2195 -1.6327 -1.1741
    3MPD1     C14324   2.434   1.749  16.554  0.2055  0.8041 -0.2295
    3MPD1    C114325   2.385   1.852  16.481 -0.5386 -0.1956  0.5704
    3MPD1    C214326   2.246   1.866  16.468 -0.3407 -0.6572 -0.1318
    3MPD1    C314327   2.164   1.792  16.551 -0.1115  0.1852  0.4115
    3MPD1    C414328   2.215   1.699  16.636  0.0696 -0.1975 -0.1789
    3MPD1    C514329   2.350   1.675  16.630 -0.5914  0.2748 -0.0076
    3MPD1     H14330   2.195   1.928  16.396  0.2518  0.7084  0.6201
    3MPD1    H114331   2.158   1.645  16.711 -0.4807 -0.2535 -0.6332
    3MPD1    H214332   2.541   1.735  16.554  0.0910 -0.0450  0.5732
    3MPD1    H314333   2.386   1.601  16.700 -1.4848  0.5195  0.7096
    3MPD1     N14334   2.028   1.839  16.566 -0.3154 -0.0252 -0.3121
    3MPD1    H514335   2.007   1.911  16.499  0.5183  0.9569  0.4976
    3MPD1    N114336   2.477   1.906  16.386  0.5480  0.6460  0.2202
    3MPD1    H614337   2.572   1.911  16.420 -0.1509 -0.7710  2.3977
    3MPD1    H714338   2.452   2.004  16.369 -0.7609  0.1769 -0.6013
    1TMC1    C114339   0.751   0.541  13.534 -0.4718 -0.1702 -0.0336
    1TMC1    C214340   0.690   0.460  13.632 -0.5001 -0.0500  0.7982
    1TMC1    C314341   0.570   0.408  13.593  0.5127 -0.2903 -0.3639
    1TMC1    C414342   0.710   0.550  13.403  0.6583 -0.1331  0.2697
    1TMC1    C514343   0.596   0.481  13.372 -0.9246  0.3088 -0.3887
    1TMC1    C614344   0.521   0.410  13.463  0.6227 -0.4195 -0.8186
    1TMC1     C14345   0.863   0.621  13.579  0.0967  0.2837  0.5611
    1TMC1     O14346   0.904   0.710  13.505 -0.3551 -0.1926 -0.1840
    1TMC1     H14347   0.715   0.456  13.738  1.9348 -4.1174  0.0684
    1TMC1    H114348   0.764   0.620  13.341 -0.0170 -0.3749 -0.5750
    1TMC1    H214349   0.421   0.375  13.442  0.9113 -1.1451 -0.9790
    1TMC1    C714350   0.572   0.468  13.231  0.4007 -0.0331  0.5030
    1TMC1    C814351   0.482   0.357  13.703 -0.5902 -0.3356  0.6853
    1TMC1    O114352   0.583   0.557  13.148  0.5151 -0.5580  0.4265
    1TMC1    O214353   0.430   0.249  13.685  0.2688 -0.2494 -0.0223
    1TMC1    O314354   0.582   0.335  13.214  0.4257 -0.0841  0.0863
    1TMC1    H314355   0.570   0.279  13.294  3.4808  0.9400  1.2459
    1TMC1    O514356   0.420   0.467  13.742  0.3464  0.6331  0.6272
    1TMC1    H514357   0.480   0.543  13.751  0.7186  0.2702  1.2434
    2MPD2     C14358   1.090   0.744  13.724 -0.1640 -0.0488  0.7079
    2MPD2    C114359   1.034   0.627  13.759  0.2701 -0.0221  0.2100
    2MPD2    C214360   1.088   0.551  13.857  0.2827  0.3932 -0.1865
    2MPD2    C314361   1.203   0.587  13.926 -0.4113 -0.0843  0.3143
    2MPD2    C414362   1.260   0.707  13.897  0.1343 -0.0412 -0.3166
    2MPD2    C514363   1.197   0.786  13.808 -0.5068 -0.2997 -0.2747
    2MPD2     H14364   1.044   0.452  13.872  0.5229  0.4747  1.1046
    2MPD2    H114365   1.346   0.740  13.954  2.5481 -1.7280 -2.9993
    2MPD2    H214366   1.058   0.811  13.645  0.2625  0.2875  0.8220
    2MPD2    H314367   1.248   0.877  13.781  0.5554 -0.9121 -0.3020
    2MPD2     N14368   1.249   0.489  14.017  0.3648 -0.3744 -0.2700
    2MPD2    H514369   1.201   0.399  14.012 -0.3468  0.0432 -0.8538
    2MPD2    N114370   0.925   0.572  13.693 -0.8610 -0.3785 -0.1004
    2MPD2    H714371   0.902   0.479  13.728 -0.2956 -0.2161  0.7084
    3TCq1    O114372   1.732   0.159  14.393  0.2647 -0.1593 -0.4633
    3TCq1    C114373   1.695   0.273  14.338  0.6447 -0.1010 -0.2449
    3TCq1    O214374   1.766   0.371  14.310  0.4482 -0.6335 -0.1920
    3TCq1    C214375   1.561   0.266  14.289  0.7718 -0.3307 -0.3813
    3TCq1    C314376   1.465   0.208  14.367  0.1100  0.3732 -0.1097
    3TCq1    C414377   1.332   0.229  14.338 -0.0066 -0.0070 -0.4495
    3TCq1    C514378   1.304   0.318  14.236  0.0759 -0.3172  0.6448
    3TCq1    C614379   1.403   0.390  14.170 -0.5426  0.1345 -0.3525
    3TCq1    C714380   1.527   0.351  14.184  0.1126 -0.3220 -0.0330
    3TCq1    C814381   1.371   0.496  14.080 -1.0643 -0.0283  0.2511
    3TCq1    O414382   1.467   0.569  14.061  0.5430 -0.4363 -0.7760
    3TCq1    C914383   1.227   0.184  14.425  0.1902 -0.4373  0.4317
    3TCq1    O514384   1.105   0.185  14.390  0.0368  0.1055 -0.4302
    3TCq1    O614385   1.269   0.151  14.540  0.2391 -0.3727 -0.4586
    3TCq1    H114386   1.660   0.092  14.393  0.3447 -0.2463 -0.7495
    3TCq1    H214387   1.493   0.155  14.457  0.9456 -3.6182 -2.7456
    3TCq1    H314388   1.197   0.326  14.219  0.5253  1.9377 -1.1303
    3TCq1    H414389   1.605   0.402  14.128  1.4308 -1.4125  0.8164
    1MPD2     C14390   0.625   1.779  14.525  0.2088  0.7112  0.9208
    1MPD2    C114391   0.495   1.788  14.567  0.1420 -0.5649  0.1846
    1MPD2    C214392   0.458   1.694  14.657 -0.0299 -0.3335  0.0944
    1MPD2    C314393   0.541   1.604  14.711 -0.4221 -0.3187 -0.4295
    1MPD2    C414394   0.671   1.595  14.671  0.5387  0.7624  0.6742
    1MPD2    C514395   0.712   1.684  14.578  0.2052  0.2643  0.1413
    1MPD2     H14396   0.356   1.685  14.694  0.5068 -1.5180  1.3146
    1MPD2    H114397   0.738   1.513  14.693 -1.1499 -0.9914 -0.7796
    1MPD2    H214398   0.657   1.855  14.454 -1.5937  1.7487  1.2199
    1MPD2    H314399   0.811   1.682  14.532  1.0928 -0.9018  2.0892
    1MPD2     N14400   0.482   1.514  14.802  0.4582 -0.2928  0.4025
    1MPD2    H514401   0.386   1.534  14.829 -0.1198 -1.8158 -0.5408
    1MPD2    N114402   0.410   1.884  14.521 -0.4536 -0.2542 -0.1462
    1MPD2    H714403   0.462   1.966  14.491  0.0156 -0.5321 -0.0907
    2TMC3    C114404   0.202   2.013  14.485 -0.4450 -0.1553  0.4746
    2TMC3    C214405   0.063   2.003  14.495 -0.3416  0.3825 -0.0665
    2TMC3    C314406   4.729   2.110  14.531  0.2619 -0.3530 -0.0214
    2TMC3    C414407   0.264   2.136  14.507 -0.2318  0.2137  0.1013
    2TMC3    C514408   0.183   2.239  14.542 -0.4839 -0.1555 -0.2269
    2TMC3    C614409   0.042   2.230  14.550 -0.0219 -0.1333 -0.2119
    2TMC3     C14410   0.270   1.894  14.535  0.2066  0.1971  0.7041
    2TMC3     O14411   0.200   1.804  14.585  0.1718 -0.4325 -0.2707
    2TMC3     H14412   0.013   1.907  14.483 -0.7840  0.7067 -0.8679
    2TMC3    H114413   0.371   2.143  14.488  0.0544 -1.1658  1.2292
    2TMC3    H214414   4.713   2.310  14.583 -1.2444 -1.8654  1.5606
    2TMC3    C714415   0.240   2.361  14.590  0.7214  0.0225 -0.1555
    2TMC3    C814416   4.656   2.074  14.648 -0.2868  0.0344 -0.3680
    2TMC3    O114417   0.182   2.466  14.571 -0.2397  0.3991  0.2694
    2TMC3    O214418   4.583   2.160  14.698 -0.0147  0.3008  0.3646
    3TCq1    O114419   1.388   2.302  15.139 -0.5254  0.5602  0.2885
    3TCq1    C114420   1.308   2.406  15.132  0.7339  0.0106 -0.3010
    3TCq1    O214421   1.339   2.522  15.146 -0.3534 -0.1462 -0.9678
    3TCq1    C214422   1.171   2.351  15.107 -0.4831 -0.1664  0.2814
    3TCq1    C314423   1.127   2.234  15.174 -0.5199  0.1336  0.0924
    3TCq1    C414424   0.991   2.221  15.166  0.5590 -0.2660 -0.3099
    3TCq1    C514425   0.912   2.300  15.079 -0.0053  0.2214 -0.6583
    3TCq1    C614426   0.966   2.404  15.010 -0.0831  0.0679 -0.4965
    3TCq1    C714427   1.097   2.443  15.034 -0.2053 -0.1837  0.4865
    3TCq1    C814428   0.884   2.482  14.920 -0.0045  0.4748  0.2017
    3TCq1    O414429   0.930   2.590  14.885  0.5156 -0.2120 -0.1733
    3TCq1    C914430   0.922   2.124  15.242  0.6903  0.1360 -1.0602
    3TCq1    O514431   1.001   2.048  15.306  0.3775 -0.4989  0.1852
    3TCq1    O614432   0.798   2.138  15.259 -0.2581  0.5585  0.4171
    3TCq1    H114433   1.351   2.215  15.114  2.0000 -0.1276 -1.0613
    3TCq1    H214434   1.191   2.182  15.244  0.2980 -0.1218 -0.8362
    3TCq1    H314435   0.806   2.281  15.069 -0.1624 -0.2432  1.9082
    3TCq1    H414436   1.146   2.529  14.990 -0.0823  0.3299  1.6485
    4MPD2     C14437   0.655   2.603  14.778  0.1207  0.2496  0.0749
    4MPD2    C114438   0.663   2.468  14.811 -0.1086  0.1666  0.0832
    4MPD2    C214439   0.566   2.384  14.780 -0.3894 -0.0749  0.3472
    4MPD2    C314440   0.457   2.427  14.706  0.1454 -0.1489  0.0056
    4MPD2    C414441   0.445   2.562  14.677 -0.6680 -0.2827  0.0290
    4MPD2    C514442   0.548   2.652  14.700  0.0952  0.1358  0.7777
    4MPD2     H14443   0.573   2.282  14.816 -0.4688 -0.6278 -1.2238
    4MPD2    H114444   0.373   2.603  14.608 -0.7268 -2.1228 -0.9937
    4MPD2    H214445   0.729   2.676  14.808 -0.4256  0.7817  0.1386
    4MPD2    H314446   0.538   2.758  14.680  0.8953 -0.1847 -1.2816
    4MPD2     N14447   0.360   2.332  14.656 -0.3896  0.6274 -0.3769
    4MPD2    H514448   0.378   2.235  14.681  3.7878  1.0276 -1.7048
    4MPD2    N114449   0.766   2.416  14.891  0.0006 -0.6113 -0.5953
    4MPD2    H714450   0.757   2.321  14.925  0.7119 -0.8605 -1.1111
    5TMC2    C114451   0.263   1.491  15.066  0.0790 -0.1322 -0.4842
    5TMC2    C214452   0.305   1.529  15.192  0.5789  0.3124  0.0535
    5TMC2    C314453   0.440   1.503  15.216  0.0191  0.9130 -0.4648
    5TMC2    C414454   0.333   1.420  14.979  0.0710 -1.0001 -0.0156
    5TMC2    C514455   0.465   1.407  15.009 -0.7957 -0.2272  0.2384
    5TMC2    C614456   0.525   1.441  15.127  0.2824  0.1065 -0.6735
    5TMC2     C14457   0.193   1.599  14.993  0.3161  0.0689  0.3345
    5TMC2     O14458   0.230   1.616  14.879  0.4185  0.1357 -0.0407
    5TMC2     H14459   0.246   1.593  15.257 -0.2519 -0.2021 -0.2130
    5TMC2    H114460   0.302   1.371  14.887 -0.9192  0.1300 -0.2735
    5TMC2    H214461   0.628   1.417  15.152  0.7913  1.9175 -1.0052
    5TMC2    C714462   0.548   1.433  14.892 -0.3674  0.1050  0.2963
    5TMC2    C814463   0.487   1.514  15.353 -0.0703  0.1776 -0.6199
    5TMC2    O114464   0.666   1.404  14.902  0.6014  0.5670 -0.3047
    5TMC2    O214465   0.421   1.466  15.445  0.2421  0.1016  0.4486
    5TMC2    O514466   0.613   1.572  15.358 -0.0880 -0.3833  0.2246
    5TMC2    H514467   0.641   1.603  15.269 -1.6523 -0.4110 -0.2792
    6MPD2     C14468   4.599   1.981  14.924 -0.2303  0.3664  0.5177
    6MPD2    C114469   4.696   1.925  14.844 -0.0153  0.3212 -0.3338
    6MPD2    C214470   0.043   1.830  14.890 -0.1418 -0.1668 -0.4030
    6MPD2    C314471   0.032   1.786  15.020  0.3961  0.2484 -0.1136
    6MPD2    C414472   4.673   1.846  15.098  0.3657 -0.6003 -0.7072
    6MPD2    C514473   4.587   1.938  15.052  0.1389 -1.0302 -0.6068
    6MPD2     H14474   0.117   1.785  14.826 -0.1626 -0.4343 -0.2362
    6MPD2    H114475   4.650   1.799  15.194  1.0970 -2.7896 -1.5996
    6MPD2    H214476   4.528   2.057  14.898  0.7550  0.5591 -1.5981
    6MPD2    H314477   4.503   1.976  15.110  0.4165 -1.6846  0.2208
    6MPD2     N14478   0.104   1.669  15.068  0.2181 -0.8671 -0.5847
    6MPD2    H514479   0.075   1.640  15.161 -0.0344 -0.1683 -0.4456
    6MPD2    N114480   4.713   1.961  14.713  0.5232 -0.0954  0.1442
    6MPD2    H714481   0.059   1.922  14.669  0.6795  2.2613 -1.6892
  945NH4     N114482   4.689   4.542  15.278 -0.3755  0.2062 -0.0065
  945NH4     H214483   4.615   4.474  15.248  0.2285 -1.9106  3.3350
  945NH4     H314484   4.680   4.565  15.378  0.6168 -2.8839  0.7966
  945NH4     H414485   4.680   4.629  15.222 -0.4793 -1.4491 -2.5645
  945NH4     H514486   0.052   4.518  15.265  0.1561 -0.3901  5.4197
  946SOD     NA14487   1.554   1.903  15.401  0.1659  0.5145 -0.2877
  947SOD     NA14488   0.877   1.694  15.632  0.6170  0.1529  0.1393
  948SOD     NA14489   1.731   2.509  13.823 -0.1403  0.2174 -0.1006
  949SOD     NA14490   4.086   3.556  12.765  0.1155  0.1023  0.0597
  950SOD     NA14491   4.322   4.545   7.066 -0.0394 -0.0461  0.2686
  951SOD     NA14492   2.129   3.325   8.339  0.3644  0.7100 -0.3103
  952SOD     NA14493   2.005   0.615  17.050 -0.1252  0.2077  0.0831
  953SOL     OW14494   1.228   4.352   8.209  1.0537 -1.0556 -0.2907
  953SOL    HW114495   1.217   4.300   8.130  1.1584 -1.8769  0.2331
  953SOL    HW214496   1.293   4.412   8.174  2.1844 -1.0524  1.8070
  954SOL     OW14497   3.162   1.384   6.771 -0.1695 -0.2911 -0.2263
  954SOL    HW114498   3.195   1.326   6.840 -1.1799 -0.4912  0.0824
  954SOL    HW214499   3.068   1.374   6.787 -0.2576  0.1906 -0.4424
  955SOL     OW14500   2.343   2.389   3.906  0.0978  0.4971 -0.1396
  955SOL    HW114501   2.347   2.295   3.889 -0.9705  0.2722  0.8265
  955SOL    HW214502   2.424   2.409   3.954 -1.7482  0.4545  3.0529
  956SOL     OW14503   1.192   3.296   8.989  0.3892 -0.2319 -0.4135
  956SOL    HW114504   1.156   3.310   9.077 -1.9680 -1.8220 -1.1533
  956SOL    HW214505   1.121   3.245   8.951 -0.1403  0.6110 -0.5605
  957SOL     OW14506   3.202   2.921   1.022  0.0720 -0.1886 -0.1388
  957SOL    HW114507   3.119   2.943   0.981 -0.1175 -1.1280 -0.2557
  957SOL    HW214508   3.222   2.845   0.969 -0.5847  1.5598 -2.8977
  958SOL     OW14509   3.468   3.549  11.726 -0.7118 -0.0537  0.1164
  958SOL    HW114510   3.441   3.552  11.634  1.6338  0.0992 -0.5795
  958SOL    HW214511   3.387   3.574  11.769 -0.9210 -0.7041  0.0914
  959SOL     OW14512   2.872   1.317   5.314  0.2782 -0.1855  0.4078
  959SOL    HW114513   2.920   1.265   5.378  2.1047 -1.1818 -1.7664
  959SOL    HW214514   2.807   1.251   5.291  0.3930  0.8459 -2.8924
  960SOL     OW14515   0.995   4.567  16.459  0.3097 -0.7385  0.5793
  960SOL    HW114516   1.089   4.582  16.462  0.6620 -2.8969  0.3298
  960SOL    HW214517   0.990   4.486  16.510 -1.6478 -1.8550 -1.3586
  961SOL     OW14518   1.160   3.112   2.280  0.1968  0.3165 -0.5360
  961SOL    HW114519   1.133   3.204   2.287  1.1598  0.7424 -2.4774
  961SOL    HW214520   1.195   3.103   2.192  2.0615  0.7989  0.1579
  962SOL     OW14521   0.910   1.519  10.901 -0.0346 -0.3650  0.2474
  962SOL    HW114522   0.832   1.567  10.874 -0.2030 -1.4971 -1.2054
  962SOL    HW214523   0.963   1.529  10.822 -1.6863  0.4713 -0.7418
  963SOL     OW14524   0.870   1.065   9.594 -0.8242  0.2646  0.3489
  963SOL    HW114525   0.797   1.122   9.567 -0.0153  0.9204 -0.4638
  963SOL    HW214526   0.900   1.113   9.671  0.3610 -1.0983  0.7307
  964SOL     OW14527   2.117   3.437   6.672  0.4346  0.1077 -0.8469
  964SOL    HW114528   2.140   3.346   6.692 -1.7366  0.0250  1.2242
  964SOL    HW214529   2.172   3.483   6.736  1.8331  0.1136 -2.0525
  965SOL     OW14530   3.964   3.139   2.207  0.2322  0.5567  0.1069
  965SOL    HW114531   4.040   3.143   2.264  0.5846 -2.5059 -0.1614
  965SOL    HW214532   4.002   3.164   2.123  2.1311 -0.8952  0.5377
  966SOL     OW14533   2.694   1.042   8.722  0.1102 -0.6157 -0.2402
  966SOL    HW114534   2.718   1.003   8.638 -3.8138 -1.2237 -1.0983
  966SOL    HW214535   2.701   1.134   8.695  0.7411 -0.2847  1.0377
  967SOL     OW14536   2.569   1.801  10.879 -0.4787 -0.2492 -1.2969
  967SOL    HW114537   2.508   1.746  10.830  0.5922 -2.9610  0.3724
  967SOL    HW214538   2.627   1.845  10.818  1.0339 -0.8921 -0.3470
  968SOL     OW14539   3.153   2.294   6.194  0.4028 -0.1836  0.2948
  968SOL    HW114540   3.195   2.209   6.181 -2.4950 -1.6015  0.3527
  968SOL    HW214541   3.173   2.345   6.116  0.3492  0.3925  0.6571
  969SOL     OW14542   0.767   0.066   9.483 -0.3728 -0.1190  0.2097
  969SOL    HW114543   0.829   0.001   9.516 -1.4670 -1.6577 -0.7575
  969SOL    HW214544   0.817   0.108   9.412 -2.1891  0.3999 -0.7735
  970SOL     OW14545   1.560   1.535   4.701  0.4812 -0.5087 -0.3424
  970SOL    HW114546   1.483   1.554   4.754 -0.1412 -1.9154 -0.7275
  970SOL    HW214547   1.552   1.604   4.635 -1.3898  1.4874  1.9853
  971SOL     OW14548   0.294   3.261   8.048 -0.0989  0.1233  0.5085
  971SOL    HW114549   0.353   3.329   8.016  1.2869 -1.3837 -0.1652
  971SOL    HW214550   0.316   3.179   8.003  0.9510  0.9478 -0.4679
  972SOL     OW14551   1.617   3.818   8.707 -0.1252  0.3616 -0.2680
  972SOL    HW114552   1.568   3.836   8.627  1.5163 -0.1702 -1.3962
  972SOL    HW214553   1.588   3.893   8.759 -0.2388 -0.6503  1.1137
  973SOL     OW14554   4.016   3.006   0.421 -0.0168 -0.3966 -0.1978
  973SOL    HW114555   4.086   2.967   0.474  0.2368 -0.9859 -0.9582
  973SOL    HW214556   3.953   3.043   0.482 -1.1427  0.2441 -1.7349
  974SOL     OW14557   0.391   2.186   1.793  0.2798  0.3949  0.4765
  974SOL    HW114558   0.301   2.192   1.761  0.4340 -0.5025 -0.1368
  974SOL    HW214559   0.423   2.275   1.785 -1.0398  0.7790 -0.4725
  975SOL     OW14560   0.978   0.006   6.717 -0.4384 -0.3908  0.1945
  975SOL    HW114561   0.992   4.654   6.683 -0.2896 -0.2864 -0.0189
  975SOL    HW214562   1.056   0.046   6.679  0.1692  0.6912  2.5986
  976SOL     OW14563   3.646   4.040  16.127 -0.5589 -0.6349 -0.3147
  976SOL    HW114564   3.741   4.031  16.118 -0.2742 -1.6391  3.6954
  976SOL    HW214565   3.635   4.135  16.125  0.4966 -0.5408 -1.7379
  977SOL     OW14566   4.261   4.089   1.667 -0.7058  0.0321 -0.2029
  977SOL    HW114567   4.245   3.999   1.695  0.0811  0.5937  1.9989
  977SOL    HW214568   4.292   4.133   1.746 -3.1610 -1.7036  1.7192
  978SOL     OW14569   0.916   1.385   0.373  0.2482  0.0291 -0.1702
  978SOL    HW114570   0.992   1.399   0.429  0.0288  1.4891 -0.2453
  978SOL    HW214571   0.953   1.344   0.295 -2.3723 -2.9340  0.0970
  979SOL     OW14572   0.707   4.234   8.959 -0.0755 -0.4335  0.3667
  979SOL    HW114573   0.799   4.260   8.964 -0.5022  0.7578  2.2400
  979SOL    HW214574   0.670   4.301   9.017 -3.1154 -0.7048 -1.2624
  980SOL     OW14575   1.404   1.551   7.440  0.0068 -0.0918  0.2623
  980SOL    HW114576   1.419   1.580   7.350  1.3789 -2.2971 -0.2203
  980SOL    HW214577   1.353   1.471   7.424 -1.2550  0.6849  0.4122
  981SOL     OW14578   1.654   4.220   4.694  0.0272  0.4547  0.3332
  981SOL    HW114579   1.733   4.172   4.670  0.0023  0.7275 -0.3103
  981SOL    HW214580   1.663   4.303   4.647  4.0247  0.6074  1.3585
  982SOL     OW14581   0.030   2.254   7.677  0.1295 -0.2928  0.0981
  982SOL    HW114582   0.042   2.177   7.733 -0.1305  0.2988  0.9687
  982SOL    HW214583   4.736   2.219   7.593  1.1770  2.2908 -1.3424
  983SOL     OW14584   1.457   4.488   4.882  0.2691  0.4302  0.0535
  983SOL    HW114585   1.545   4.473   4.917  0.4150  0.6648 -0.2110
  983SOL    HW214586   1.467   4.466   4.789 -1.9335 -1.2939  0.2353
  984SOL     OW14587   3.047   2.092   2.762 -0.5657 -0.4158  0.5479
  984SOL    HW114588   3.091   2.033   2.701 -1.1468 -0.1297 -0.1428
  984SOL    HW214589   3.094   2.174   2.743 -1.1519 -0.1168  0.3893
  985SOL     OW14590   1.862   2.757   9.657 -0.6303  0.2129 -0.1989
  985SOL    HW114591   1.937   2.752   9.596 -2.3894  2.0830 -2.5320
  985SOL    HW214592   1.820   2.840   9.632 -1.1944  0.1272  0.4902
  986SOL     OW14593   0.294   0.010   6.760  0.2532  0.5649  0.3987
  986SOL    HW114594   0.298   4.657   6.791  0.4750  0.8998  1.3306
  986SOL    HW214595   0.380   0.004   6.718 -0.5098  0.2397 -1.1233
  987SOL     OW14596   1.785   0.536   8.469  0.5277 -0.9645 -0.5715
  987SOL    HW114597   1.867   0.491   8.485  0.3095 -0.3560  2.3651
  987SOL    HW214598   1.799   0.575   8.383  0.2973  0.7497  0.1561
  988SOL     OW14599   1.338   2.681   2.832 -1.3869  0.2419 -0.0188
  988SOL    HW114600   1.287   2.720   2.761  0.1917  0.5003 -0.9920
  988SOL    HW214601   1.316   2.588   2.820  0.8811 -0.3492  0.4931
  989SOL     OW14602   0.438   2.570   5.406 -0.3358 -0.1022  0.2374
  989SOL    HW114603   0.512   2.510   5.414 -0.9694 -1.0562 -1.1104
  989SOL    HW214604   0.377   2.498   5.393 -0.4769 -0.2126  1.5643
  990SOL     OW14605   1.400   0.605   2.847 -0.8446 -0.7956  0.0083
  990SOL    HW114606   1.495   0.600   2.838 -0.4347  0.4335  3.5249
  990SOL    HW214607   1.378   0.663   2.775  1.7242 -1.3151 -1.2183
  991SOL     OW14608   1.228   1.840   5.096 -0.1567 -0.0422 -0.5432
  991SOL    HW114609   1.216   1.835   5.191  0.9785 -0.7505 -0.4485
  991SOL    HW214610   1.134   1.849   5.076  0.3148 -0.0823 -2.7114
  992SOL     OW14611   4.397   0.958   8.713 -0.5361  0.0734 -0.2473
  992SOL    HW114612   4.464   1.026   8.714 -0.0865 -0.3899  0.3287
  992SOL    HW214613   4.420   0.901   8.785 -0.1683  0.2570 -0.2172
  993SOL     OW14614   2.876   1.000   8.919  0.4945  0.1328 -0.1347
  993SOL    HW114615   2.820   0.992   8.842  1.7312  1.0334 -1.1336
  993SOL    HW214616   2.878   0.910   8.950 -0.5928 -0.8326 -2.8411
  994SOL     OW14617   3.695   4.225   3.661  0.3864 -0.3763  0.2452
  994SOL    HW114618   3.675   4.312   3.627 -1.9512 -1.3130 -0.7164
  994SOL    HW214619   3.747   4.250   3.738 -0.9165  0.1731  0.9388
  995SOL     OW14620   0.007   0.250   7.712 -0.3363  0.2123 -0.3040
  995SOL    HW114621   0.097   0.255   7.681 -0.6403  0.4071 -1.1843
  995SOL    HW214622   0.009   0.205   7.796 -0.9782 -0.8520 -0.8451
  996SOL     OW14623   1.291   1.448   3.464  0.1462  0.0195 -0.2652
  996SOL    HW114624   1.202   1.479   3.483  0.2864  0.4428 -0.3033
  996SOL    HW214625   1.277   1.378   3.400  0.8127 -0.8337  0.5201
  997SOL     OW14626   2.760   1.350  11.742 -0.0594 -0.2079 -0.2026
  997SOL    HW114627   2.768   1.267  11.789 -0.9745 -1.9981 -3.2350
  997SOL    HW214628   2.753   1.404  11.821  0.3986  1.7262 -1.4925
  998SOL     OW14629   2.754   0.984   8.453 -0.2376  0.4851  0.1194
  998SOL    HW114630   2.836   0.939   8.474 -0.0019  0.8445 -0.0320
  998SOL    HW214631   2.772   1.031   8.372  0.8228 -0.3417 -0.1307
  999SOL     OW14632   1.220   4.639   2.136  0.2117 -0.0547  0.2922
  999SOL    HW114633   1.233   4.544   2.135 -0.5689 -0.1722  0.7709
  999SOL    HW214634   1.308   4.674   2.145  0.4398 -0.6242  0.2332
 1000SOL     OW14635   2.069   3.947   3.519  0.0872  0.2906 -0.5919
 1000SOL    HW114636   2.114   3.977   3.598  0.6367 -1.9670 -0.0321
 1000SOL    HW214637   2.109   3.863   3.495  1.6257 -0.2268  3.7690
 1001SOL     OW14638   0.930   0.274   4.410  0.2776 -0.1628  0.2111
 1001SOL    HW114639   0.954   0.353   4.362 -1.1673 -0.1567 -0.5048
 1001SOL    HW214640   0.861   0.300   4.471 -0.5794  0.2821 -0.9571
 1002SOL     OW14641   2.263   2.259   9.560 -0.1477  0.1234  0.0736
 1002SOL    HW114642   2.241   2.266   9.467  0.1125 -2.1096 -0.1468
 1002SOL    HW214643   2.270   2.164   9.560 -0.1524  0.1308  1.3261
 1003SOL     OW14644   0.847   1.769   8.294  0.1277 -0.7446  0.0677
 1003SOL    HW114645   0.868   1.685   8.253  0.1296 -0.2418 -0.9521
 1003SOL    HW214646   0.914   1.829   8.264  0.0897  0.1150  1.7209
 1004SOL     OW14647   0.698   2.212  17.391 -0.6631  0.3089  0.4399
 1004SOL    HW114648   0.655   2.175  17.469 -0.3613  2.5156  1.6712
 1004SOL    HW214649   0.751   2.271  17.444 -0.3746  1.2638 -0.9180
 1005SOL     OW14650   2.398   3.552   0.281 -0.2207 -0.3566 -0.9458
 1005SOL    HW114651   2.422   3.590   0.196  1.3766 -0.6878 -0.6441
 1005SOL    HW214652   2.376   3.463   0.254  0.0938 -0.6774 -0.1375
 1006SOL     OW14653   2.445   1.690   1.446  0.1326 -0.3586 -0.5028
 1006SOL    HW114654   2.394   1.705   1.366  1.2353 -0.7231 -1.2737
 1006SOL    HW214655   2.388   1.727   1.514  1.3367  0.1613  0.2243
 1007SOL     OW14656   2.394   2.124   8.151 -0.1394  0.4336  0.8356
 1007SOL    HW114657   2.407   2.031   8.171 -0.1529  0.2316 -0.0825
 1007SOL    HW214658   2.442   2.174   8.217  2.2364 -2.1518  1.1075
 1008SOL     OW14659   3.493   0.509   1.855  0.5559 -0.4220  0.3429
 1008SOL    HW114660   3.453   0.504   1.941 -0.8485 -0.0643 -0.2821
 1008SOL    HW214661   3.537   0.425   1.839 -1.4190 -1.4646  0.2441
 1009SOL     OW14662   0.536   2.298  15.673 -0.2358 -0.3424  0.0647
 1009SOL    HW114663   0.582   2.236  15.616 -1.9554 -0.0684 -1.6308
 1009SOL    HW214664   0.504   2.356  15.604 -0.9213 -0.9981 -0.1751
 1010SOL     OW14665   4.664   4.552  16.816 -0.4156 -0.4431 -0.1364
 1010SOL    HW114666   4.676   4.608  16.893 -1.5955  0.5119 -0.6477
 1010SOL    HW214667   4.680   4.616  16.747  2.5502  0.2511  1.1598
 1011SOL     OW14668   0.139   0.137  16.832 -0.2812 -0.4373  0.0163
 1011SOL    HW114669   0.076   0.198  16.870  2.9100  2.3474  0.8961
 1011SOL    HW214670   0.093   0.107  16.754 -0.1132 -1.2596  0.2362
 1012SOL     OW14671   1.867   0.759   3.168  0.0101  0.2975 -0.3005
 1012SOL    HW114672   1.909   0.841   3.142 -0.8946  0.2384 -1.9441
 1012SOL    HW214673   1.900   0.746   3.257 -3.4543 -1.0231  0.7745
 1013SOL     OW14674   3.084   0.526   3.650 -0.4483  0.4473 -0.4494
 1013SOL    HW114675   3.085   0.561   3.561 -2.6415  3.5476  0.7724
 1013SOL    HW214676   2.990   0.519   3.666  0.1695 -1.7560  2.1527
 1014SOL     OW14677   4.580   2.245   8.924 -0.1939 -0.9383 -0.0284
 1014SOL    HW114678   4.632   2.290   8.857  0.2895  0.1380  1.0613
 1014SOL    HW214679   4.654   2.219   8.978 -0.9652  0.9739  1.9484
 1015SOL     OW14680   0.645   3.391   6.675 -0.7128  0.5559 -0.2138
 1015SOL    HW114681   0.586   3.335   6.726  0.8047 -0.4795  0.4075
 1015SOL    HW214682   0.622   3.477   6.710 -0.9388  0.0841  0.8181
 1016SOL     OW14683   2.690   0.719   7.723  0.1435  0.5628  0.1959
 1016SOL    HW114684   2.785   0.715   7.719  0.1633 -0.9966  1.7738
 1016SOL    HW214685   2.665   0.764   7.804  1.7221 -1.2428  1.7015
 1017SOL     OW14686   3.246   0.035   6.328 -0.0439  0.1967 -0.3147
 1017SOL    HW114687   3.185   0.054   6.256  1.9055  0.9069 -1.7679
 1017SOL    HW214688   3.188   4.724   6.387 -0.5176  1.5494  0.3235
 1018SOL     OW14689   1.114   4.251   4.558  0.1408  0.2738 -0.0286
 1018SOL    HW114690   1.194   4.257   4.610 -0.8230  2.2638  1.2724
 1018SOL    HW214691   1.074   4.171   4.593 -0.6185  0.0502 -1.4340
 1019SOL     OW14692   2.446   2.182   2.831 -0.2672 -0.0375  0.2729
 1019SOL    HW114693   2.393   2.192   2.751  0.0508  1.9499  0.3161
 1019SOL    HW214694   2.530   2.218   2.801 -0.8851  0.5595 -0.7356
 1020SOL     OW14695   1.551   1.187   0.853  0.1979  0.1235 -0.5910
 1020SOL    HW114696   1.624   1.212   0.910 -0.5923  3.2523 -0.9378
 1020SOL    HW214697   1.580   1.110   0.805  0.2195 -0.8985  1.0612
 1021SOL     OW14698   2.762   0.009   2.540  0.0167 -0.0421 -0.0025
 1021SOL    HW114699   2.723   0.023   2.626 -0.6489  2.5751 -0.7166
 1021SOL    HW214700   2.726   4.662   2.511 -0.8559 -0.2738  1.7504
 1022SOL     OW14701   0.676   3.062  15.293 -0.1384 -0.1425 -0.3024
 1022SOL    HW114702   0.676   2.990  15.356  0.0033  1.3159  1.3637
 1022SOL    HW214703   0.676   3.136  15.355 -2.5421 -1.1873  0.9372
 1023SOL     OW14704   0.579   2.110  17.607 -0.2591  0.2761 -0.6312
 1023SOL    HW114705   0.568   2.023  17.645  0.4957 -0.3169 -1.7848
 1023SOL    HW214706   0.611   2.153  17.686  1.4403 -1.3543 -0.4271
 1024SOL     OW14707   3.015   0.639   6.856 -0.1207  0.5333  0.0235
 1024SOL    HW114708   3.067   0.626   6.935  0.5593 -1.2259 -0.7251
 1024SOL    HW214709   2.927   0.618   6.887  0.3035  0.0875  0.9229
 1025SOL     OW14710   2.269   0.847  17.660 -0.2834  0.5339 -0.1123
 1025SOL    HW114711   2.199   0.841  17.594 -1.1278 -1.0224  0.9028
 1025SOL    HW214712   2.252   0.760  17.697  0.9672 -0.9327 -2.9561
 1026SOL     OW14713   0.739   0.750   9.041 -0.5447 -0.0836 -0.7576
 1026SOL    HW114714   0.707   0.731   9.129 -2.6419 -2.2550 -1.9714
 1026SOL    HW214715   0.658   0.732   8.992 -1.4554  1.0333  0.3359
 1027SOL     OW14716   3.762   2.529   4.470  0.0342 -0.2102  0.2405
 1027SOL    HW114717   3.680   2.519   4.421  1.2864 -2.7774 -1.3621
 1027SOL    HW214718   3.742   2.615   4.506  0.5170  0.2618 -0.6074
 1028SOL     OW14719   1.971   1.697   7.145 -0.2799  0.1223  0.1209
 1028SOL    HW114720   1.914   1.774   7.140  0.2584  0.5475  0.6049
 1028SOL    HW214721   2.055   1.737   7.163  0.9525 -2.1797 -0.4890
 1029SOL     OW14722   0.625   0.532  10.175 -0.3431  0.2465  0.0117
 1029SOL    HW114723   0.661   0.450  10.210 -0.7769  0.2086  0.3756
 1029SOL    HW214724   0.704   0.567  10.135  0.1601 -0.4571  0.3840
 1030SOL     OW14725   0.666   2.884   6.484 -0.5310  0.4171 -0.3199
 1030SOL    HW114726   0.685   2.790   6.488 -1.3719  0.1972 -1.3657
 1030SOL    HW214727   0.753   2.921   6.497  0.7054 -2.5955  0.2024
 1031SOL     OW14728   2.154   0.598  17.730 -0.1780  0.3656  0.5844
 1031SOL    HW114729   2.106   0.623   0.063 -0.3140 -0.6567  0.8349
 1031SOL    HW214730   2.139   0.503  17.734 -1.8552  0.7527  3.0722
 1032SOL     OW14731   0.853   3.275  13.999  0.1429 -0.7035  0.4951
 1032SOL    HW114732   0.791   3.317  13.940  2.1253 -0.1642 -1.1970
 1032SOL    HW214733   0.844   3.337  14.072 -0.3810 -0.5571  0.3048
 1033SOL     OW14734   1.713   1.114   3.562 -0.8400  0.0968  0.2903
 1033SOL    HW114735   1.739   1.037   3.613 -2.2402 -2.3284 -2.6783
 1033SOL    HW214736   1.797   1.132   3.520  0.0543 -1.4980  1.3874
 1034SOL     OW14737   3.418   4.314   7.381  0.0550 -0.1175 -0.5574
 1034SOL    HW114738   3.356   4.364   7.434 -0.4703 -1.6923  0.3012
 1034SOL    HW214739   3.373   4.303   7.297 -2.7471 -0.5790  1.0145
 1035SOL     OW14740   4.401   0.208   8.497 -0.0797 -0.0587 -0.0776
 1035SOL    HW114741   4.450   0.157   8.433  1.3092  2.7012 -1.2263
 1035SOL    HW214742   4.387   0.136   8.558  1.5785 -0.9220 -0.7195
 1036SOL     OW14743   3.034   0.883   8.478 -0.2524  0.4926  0.1391
 1036SOL    HW114744   3.037   0.822   8.552  3.0327  1.9067  1.1593
 1036SOL    HW214745   3.013   0.827   8.404  2.3761  1.0582 -1.0313
 1037SOL     OW14746   3.092   2.228  11.033  0.0249  0.2928  0.1215
 1037SOL    HW114747   3.168   2.282  11.056  0.5320 -1.2953  2.1819
 1037SOL    HW214748   3.103   2.141  11.071  0.5031 -0.0334 -0.7827
 1038SOL     OW14749   4.692   2.628   8.683 -0.1574  0.0421 -0.6707
 1038SOL    HW114750   0.003   2.595   8.608 -0.0742  0.7656 -0.9366
 1038SOL    HW214751   4.606   2.593   8.659 -0.9716  1.8364 -0.4196
 1039SOL     OW14752   0.618   1.872   8.139 -0.2041  0.0392 -0.0916
 1039SOL    HW114753   0.665   1.955   8.152  0.7625 -0.6752  1.0070
 1039SOL    HW214754   0.672   1.826   8.203  1.2682 -0.3754 -1.6375
 1040SOL     OW14755   2.584   2.274   4.377 -0.2505  0.8955 -0.1826
 1040SOL    HW114756   2.514   2.310   4.322 -0.1410  0.4751 -0.5976
 1040SOL    HW214757   2.532   2.204   4.416  0.1873  0.6723 -0.0056
 1041SOL     OW14758   1.604   1.981   0.440 -0.2371 -0.8201 -0.1035
 1041SOL    HW114759   1.686   1.973   0.391  0.0608 -0.2322  0.2903
 1041SOL    HW214760   1.617   1.934   0.522 -0.7258  0.1896  0.5508
 1042SOL     OW14761   3.463   0.550   9.263  0.0729 -0.1033  0.0698
 1042SOL    HW114762   3.448   0.608   9.188  0.5761  1.1897  0.9608
 1042SOL    HW214763   3.374   0.526   9.290 -0.3158  0.9664 -0.2369
 1043SOL     OW14764   3.530   2.207   8.699 -0.4451 -0.1642  0.6306
 1043SOL    HW114765   3.476   2.129   8.710 -1.7519  0.8533  1.3623
 1043SOL    HW214766   3.464   2.260   8.655 -0.5012 -0.2479  0.6136
 1044SOL     OW14767   1.586   4.593   5.210  0.5747 -0.4587  0.5000
 1044SOL    HW114768   1.612   4.573   5.120  1.0105 -0.1506  0.5608
 1044SOL    HW214769   1.495   4.562   5.207  0.7638 -0.6837 -3.0998
 1045SOL     OW14770   4.018   2.050   7.474 -0.0604  0.1172 -0.1093
 1045SOL    HW114771   3.968   2.005   7.542  1.5277  1.0424  1.6770
 1045SOL    HW214772   4.092   2.098   7.511 -0.8185 -0.0911  1.6733
 1046SOL     OW14773   1.497   0.733   7.899 -0.0763 -0.5371 -0.1368
 1046SOL    HW114774   1.498   0.644   7.934  0.1771 -0.7008 -0.5659
 1046SOL    HW214775   1.587   0.742   7.869 -0.3427 -1.2063 -1.1247
 1047SOL     OW14776   4.617   3.979   6.777  0.4257  0.0158 -0.0809
 1047SOL    HW114777   4.678   3.905   6.762  0.6312  0.2294 -0.3048
 1047SOL    HW214778   4.671   4.052   6.807  0.0354 -0.3347  1.4351
 1048SOL     OW14779   1.229   0.090   6.637  0.5023  0.4447 -0.1061
 1048SOL    HW114780   1.245   0.111   6.545  0.0812  0.4639 -0.1770
 1048SOL    HW214781   1.309   0.040   6.650  0.0818  0.3497  2.0068
 1049SOL     OW14782   2.040   0.347  17.377 -0.2039  0.5265  0.5080
 1049SOL    HW114783   2.007   0.258  17.367 -0.6825  0.6330  1.1705
 1049SOL    HW214784   2.128   0.330  17.410  0.3752  3.4847  0.4860
 1050SOL     OW14785   0.305   1.432   4.530 -0.2384 -0.4305 -0.0262
 1050SOL    HW114786   0.240   1.395   4.471 -0.4280  0.7280 -0.5362
 1050SOL    HW214787   0.387   1.433   4.480 -1.2016 -0.6025 -1.5947
 1051SOL     OW14788   0.357   2.988  16.937  0.5373  0.1761  0.0605
 1051SOL    HW114789   0.272   2.967  16.899 -0.1736  1.8629  0.7089
 1051SOL    HW214790   0.394   2.904  16.965 -3.0460 -0.1395  3.8471
 1052SOL     OW14791   3.928   0.690   9.312 -0.1737 -0.0945  0.1504
 1052SOL    HW114792   3.921   0.611   9.258  0.1857  0.5109 -0.7825
 1052SOL    HW214793   4.002   0.738   9.276  0.3762 -2.4807 -1.8681
 1053SOL     OW14794   1.712   1.010  16.860 -0.4423 -0.5542  0.3315
 1053SOL    HW114795   1.737   1.018  16.768  0.8593  2.1432  0.9333
 1053SOL    HW214796   1.619   0.998  16.839 -0.4775 -0.7472  0.5965
 1054SOL     OW14797   4.364   0.162   9.650  1.0593  0.3927 -0.2000
 1054SOL    HW114798   4.359   0.077   9.608  1.6825  0.0055  0.5206
 1054SOL    HW214799   4.454   0.163   9.683  0.5515 -1.2727  1.1956
 1055SOL     OW14800   0.724   2.501  16.945  0.3826 -0.2212 -0.7303
 1055SOL    HW114801   0.804   2.551  16.954  1.3142 -1.8031 -0.1986
 1055SOL    HW214802   0.746   2.419  16.990  0.2539 -0.4934 -1.1694
 1056SOL     OW14803   1.893   2.916   3.472 -0.7954  0.3732  0.6631
 1056SOL    HW114804   1.887   2.858   3.396 -0.7489 -0.3173  1.1836
 1056SOL    HW214805   1.971   2.968   3.456 -1.5197  1.1044 -0.5474
 1057SOL     OW14806   1.119   1.952  11.501 -0.2766  0.0567 -0.0363
 1057SOL    HW114807   1.087   1.922  11.586  0.0910 -0.9543 -0.2470
 1057SOL    HW214808   1.093   2.044  11.497  1.5668  0.5492 -1.1032
 1058SOL     OW14809   0.987   4.456   3.054  0.4295  0.3395  0.3013
 1058SOL    HW114810   0.904   4.487   3.090 -0.2142  0.8751 -1.6613
 1058SOL    HW214811   0.960   4.369   3.023 -1.6322  1.4242 -0.9468
 1059SOL     OW14812   2.148   2.876  10.252  0.2902 -0.1426  0.6219
 1059SOL    HW114813   2.071   2.887  10.308  0.4618  1.7843  0.5038
 1059SOL    HW214814   2.219   2.845  10.308  0.6974 -0.9856 -0.3589
 1060SOL     OW14815   1.081   1.947   9.316  0.2212 -0.3794  0.1591
 1060SOL    HW114816   1.124   1.954   9.231  1.0275 -1.5844  0.4676
 1060SOL    HW214817   0.989   1.963   9.298  0.4087 -0.6110 -1.0425
 1061SOL     OW14818   1.972   4.445   7.071 -0.2228  1.3871 -0.8037
 1061SOL    HW114819   1.957   4.427   7.164  3.2720 -2.1229 -0.9132
 1061SOL    HW214820   2.066   4.426   7.064 -0.5942 -1.0601  0.5486
 1062SOL     OW14821   0.058   2.855   8.791 -0.2505 -0.2432  0.3498
 1062SOL    HW114822   4.709   2.858   8.834  0.1171  1.4478  0.9599
 1062SOL    HW214823   0.041   2.777   8.739  0.8324 -0.2346 -0.0034
 1063SOL     OW14824   0.722   3.266  11.133  0.0555 -0.2225 -0.4072
 1063SOL    HW114825   0.746   3.292  11.044  2.2117 -0.4451  0.1165
 1063SOL    HW214826   0.750   3.175  11.145  2.1403  0.3599 -0.9422
 1064SOL     OW14827   4.015   3.999  10.798  0.3784  0.5621 -0.0685
 1064SOL    HW114828   3.952   3.967  10.733  1.0182 -0.1942 -0.3170
 1064SOL    HW214829   3.968   3.981  10.880  1.8759  1.8008  1.0503
 1065SOL     OW14830   4.677   4.590   8.047 -0.8625  0.1558 -0.1379
 1065SOL    HW114831   4.589   4.566   8.019 -0.6249 -1.3949  0.4579
 1065SOL    HW214832   4.699   4.511   8.097 -0.0220  0.3859 -0.1344
 1066SOL     OW14833   3.358   3.843  15.244 -0.1341  0.8170  0.4589
 1066SOL    HW114834   3.368   3.846  15.339 -2.0217  1.2591  0.6454
 1066SOL    HW214835   3.393   3.755  15.229 -0.8359  0.2518  2.1984
 1067SOL     OW14836   1.300   0.036   4.830  0.3360  0.5295  0.2629
 1067SOL    HW114837   1.223   0.065   4.781  0.6004 -2.5513 -1.9834
 1067SOL    HW214838   1.356   0.016   4.754 -1.5159  0.4167 -1.0768
 1068SOL     OW14839   3.358   3.957   4.494 -0.6404 -0.1498 -0.3508
 1068SOL    HW114840   3.417   3.946   4.420 -0.7919  0.6914 -0.6058
 1068SOL    HW214841   3.279   3.927   4.448 -0.3682 -0.7818 -0.3973
 1069SOL     OW14842   2.541   4.049   4.666  0.4196 -0.0514 -0.4676
 1069SOL    HW114843   2.586   3.964   4.663  0.3002 -0.1316 -0.0676
 1069SOL    HW214844   2.572   4.078   4.580 -0.5952  1.4045 -0.3371
 1070SOL     OW14845   3.490   3.544   3.031 -0.3309 -0.7024 -0.2626
 1070SOL    HW114846   3.441   3.538   2.949 -1.7763  0.8111  0.4781
 1070SOL    HW214847   3.537   3.628   3.027 -3.5236  1.2811  3.3301
 1071SOL     OW14848   1.398   3.575   3.235  0.4915 -0.1948  0.7821
 1071SOL    HW114849   1.389   3.559   3.329 -0.4108  1.8690  1.0524
 1071SOL    HW214850   1.467   3.513   3.213 -0.5402 -1.0719  0.0023
 1072SOL     OW14851   0.501   1.108   8.156  0.0639 -0.0499  0.6757
 1072SOL    HW114852   0.490   1.201   8.176 -0.9098  0.8693 -3.9498
 1072SOL    HW214853   0.527   1.113   8.064 -2.0247 -1.7357 -0.0262
 1073SOL     OW14854   0.314   0.786  12.009  0.0848  0.2312  0.2080
 1073SOL    HW114855   0.268   0.746  12.082 -2.3926 -0.5862 -1.8302
 1073SOL    HW214856   0.347   0.705  11.972  1.6705  0.7301  0.5058
 1074SOL     OW14857   3.690   0.335   7.351 -0.1349 -0.0309 -0.0841
 1074SOL    HW114858   3.708   0.377   7.267 -1.4161 -0.1070 -0.4035
 1074SOL    HW214859   3.642   0.255   7.329 -1.9176  0.5275  1.7469
 1075SOL     OW14860   4.021   3.941   8.139  0.5844 -0.5767 -0.3750
 1075SOL    HW114861   4.012   3.924   8.232  1.0386 -0.2676 -0.2745
 1075SOL    HW214862   4.084   3.878   8.104  1.5067  0.4798 -0.6251
 1076SOL     OW14863   1.833   1.100   1.716  0.6797  0.3831 -0.0448
 1076SOL    HW114864   1.877   1.028   1.762 -0.1873 -1.7536 -2.6010
 1076SOL    HW214865   1.911   1.132   1.671  0.0223  0.8673 -0.8427
 1077SOL     OW14866   3.564   1.375   7.330  0.3840  0.3859 -0.1535
 1077SOL    HW114867   3.617   1.453   7.316  1.5981 -0.6388 -1.2074
 1077SOL    HW214868   3.485   1.423   7.356  0.4890 -0.1085  1.0995
 1078SOL     OW14869   1.254   1.803   1.388 -0.2905  0.0058  0.0174
 1078SOL    HW114870   1.162   1.788   1.409 -0.7598  1.1815 -1.2148
 1078SOL    HW214871   1.249   1.805   1.292  0.7694  1.4740 -0.0009
 1079SOL     OW14872   0.519   0.764   7.127 -0.9901 -0.6789 -0.2269
 1079SOL    HW114873   0.532   0.817   7.205  0.8550  0.2252 -1.1604
 1079SOL    HW214874   0.606   0.758   7.088  0.2343 -1.2450  2.6109
 1080SOL     OW14875   1.177   0.681   6.040  0.7685 -0.4946  0.5471
 1080SOL    HW114876   1.239   0.681   5.967 -1.9115 -0.8604 -1.7398
 1080SOL    HW214877   1.226   0.622   6.096  1.4829 -0.4490 -0.0176
 1081SOL     OW14878   3.905   0.001  17.434  0.3695 -0.4130 -0.3458
 1081SOL    HW114879   3.854   4.691  17.501 -0.7226  1.4569  0.1306
 1081SOL    HW214880   3.841   0.025  17.367  0.1304 -0.5661 -0.1765
 1082SOL     OW14881   1.342   4.259   2.679 -0.4605 -0.3688  0.0879
 1082SOL    HW114882   1.417   4.318   2.685 -0.1884 -0.7088  0.0202
 1082SOL    HW214883   1.303   4.255   2.766 -1.6155 -0.2986 -0.4331
 1083SOL     OW14884   2.284   4.506   3.955 -0.0706  0.0070  0.7440
 1083SOL    HW114885   2.194   4.480   3.975 -0.2380 -0.1322 -0.2004
 1083SOL    HW214886   2.256   4.586   3.910  0.6823 -1.0324 -1.5649
 1084SOL     OW14887   3.339   1.599   8.331 -0.2439  0.0845 -0.9365
 1084SOL    HW114888   3.350   1.511   8.367  2.9217 -0.2520 -2.6924
 1084SOL    HW214889   3.362   1.573   8.242  0.5142 -0.3837 -0.6042
 1085SOL     OW14890   1.621   2.292   8.233  0.1072 -0.0820 -0.5264
 1085SOL    HW114891   1.529   2.319   8.239  0.5402  0.2161  4.7207
 1085SOL    HW214892   1.618   2.227   8.163  1.4410 -0.9162  0.1915
 1086SOL     OW14893   0.802   4.352  13.692 -0.1383 -0.0231 -0.0851
 1086SOL    HW114894   0.737   4.339  13.761 -0.9676  1.6074 -0.5465
 1086SOL    HW214895   0.786   4.282  13.629  0.6390  0.4368 -0.7940
 1087SOL     OW14896   4.670   3.912  15.475  0.2711 -0.6713  0.0279
 1087SOL    HW114897   4.657   3.967  15.553  3.0347  1.0309 -0.6881
 1087SOL    HW214898   4.632   3.983  15.423  2.3979 -0.0026 -0.6198
 1088SOL     OW14899   0.655   4.326   3.659 -0.1268 -0.4775 -0.1453
 1088SOL    HW114900   0.602   4.395   3.699 -0.0070 -1.0861  1.0568
 1088SOL    HW214901   0.700   4.373   3.588  0.5946 -0.3179  0.4119
 1089SOL     OW14902   1.786   2.116   5.410 -0.1089  0.2256  0.4739
 1089SOL    HW114903   1.880   2.096   5.404 -0.6977 -1.5504 -2.4868
 1089SOL    HW214904   1.753   2.116   5.500  2.1384 -0.3807  1.2983
 1090SOL     OW14905   4.487   2.633   6.407  0.0532 -0.0891 -0.3303
 1090SOL    HW114906   4.411   2.629   6.349 -0.7100 -0.4631  0.6897
 1090SOL    HW214907   4.520   2.545   6.388 -1.4365 -0.4280 -1.4221
 1091SOL     OW14908   0.492   4.466   3.849  0.0558  0.0798  0.1740
 1091SOL    HW114909   0.403   4.492   3.823 -0.1189 -0.1347  0.5595
 1091SOL    HW214910   0.490   4.379   3.889  1.4646 -0.3553 -0.7023
 1092SOL     OW14911   0.637   0.423   9.215 -0.8716  0.0890 -0.5777
 1092SOL    HW114912   0.594   0.389   9.293  0.5111 -1.4055 -0.4745
 1092SOL    HW214913   0.669   0.343   9.173  0.3980 -0.2026  0.9536
 1093SOL     OW14914   0.214   0.504   2.535  0.0350 -0.0086 -0.2982
 1093SOL    HW114915   0.202   0.442   2.607 -0.5284  1.2735  0.7158
 1093SOL    HW214916   0.272   0.455   2.477 -0.8400  1.9255 -2.7766
 1094SOL     OW14917   0.829   2.589   0.575 -0.0826 -0.4968 -0.5180
 1094SOL    HW114918   0.892   2.626   0.637  1.0436  0.7438 -2.4021
 1094SOL    HW214919   0.876   2.603   0.492  0.4304 -1.4039 -0.3778
 1095SOL     OW14920   3.783   1.953   1.928  0.4611 -0.1062  0.1869
 1095SOL    HW114921   3.750   2.042   1.912  1.9777  0.2416 -0.9571
 1095SOL    HW214922   3.866   1.950   1.881 -0.8529 -0.0803 -2.0993
 1096SOL     OW14923   4.154   0.231   6.273 -0.3407  0.5403  0.3914
 1096SOL    HW114924   4.144   0.308   6.217 -2.2347  0.6402  0.8736
 1096SOL    HW214925   4.074   0.239   6.325 -0.2973 -3.2938  1.0389
 1097SOL     OW14926   1.946   3.816   7.527 -0.1254 -0.3455  0.3425
 1097SOL    HW114927   1.945   3.774   7.613  0.4836  1.0061  1.0068
 1097SOL    HW214928   1.886   3.888   7.549  0.3098 -0.0728  0.6434
 1098SOL     OW14929   4.558   0.321   2.478  0.5111 -0.2384  0.1429
 1098SOL    HW114930   4.557   0.286   2.567 -1.7578 -4.1150 -1.3754
 1098SOL    HW214931   4.470   0.358   2.485  1.1518  1.3262 -0.1756
 1099SOL     OW14932   2.950   0.591   7.907  0.4117  0.4823 -0.0135
 1099SOL    HW114933   3.011   0.533   7.862 -0.7691 -0.1972 -0.7351
 1099SOL    HW214934   2.954   0.670   7.853 -2.6707  0.2483 -0.5415
 1100SOL     OW14935   4.061   3.451  12.149  0.1593  0.1631 -0.1232
 1100SOL    HW114936   4.029   3.361  12.155 -0.6450  0.5094  0.7062
 1100SOL    HW214937   4.086   3.461  12.057 -1.9553  1.7759 -0.5129
 1101SOL     OW14938   3.744   0.296  11.908  0.1480  0.0624 -0.3056
 1101SOL    HW114939   3.828   0.269  11.944  0.3259  0.0230 -0.7521
 1101SOL    HW214940   3.722   0.210  11.873 -1.4186  0.1878  0.3566
 1102SOL     OW14941   2.239   0.128  11.649 -0.1447  0.1825 -0.0494
 1102SOL    HW114942   2.255   0.196  11.583 -0.5059 -1.2991 -1.6432
 1102SOL    HW214943   2.245   0.180  11.729 -1.9095  1.5407 -0.7914
 1103SOL     OW14944   3.912   0.542   8.469 -0.2788  0.2236  0.3685
 1103SOL    HW114945   3.820   0.534   8.495  0.0908  2.0414  2.2187
 1103SOL    HW214946   3.910   0.515   8.378  0.3872  1.8922 -0.1380
 1104SOL     OW14947   2.274   1.095  15.668 -0.3607  0.6001 -0.1349
 1104SOL    HW114948   2.369   1.096  15.674 -0.4612  1.3857  1.3858
 1104SOL    HW214949   2.247   1.184  15.647  0.8317  1.1828  0.8428
 1105SOL     OW14950   0.856   4.185   8.553 -0.3718  0.0551  0.0700
 1105SOL    HW114951   0.861   4.103   8.503  1.7160  0.3706 -0.2502
 1105SOL    HW214952   0.798   4.158   8.624 -0.6053  1.1204  0.2787
 1106SOL     OW14953   2.831   1.960   7.099 -0.0249  0.5833  0.4604
 1106SOL    HW114954   2.824   1.949   7.004  2.0540  1.4907  0.1916
 1106SOL    HW214955   2.814   2.053   7.110  0.7207  1.0914 -2.6780
 1107SOL     OW14956   4.677   0.960   3.884  0.3644  0.4584 -0.2169
 1107SOL    HW114957   0.019   0.993   3.926  0.2908  0.9621 -0.4696
 1107SOL    HW214958   4.720   0.908   3.817  1.0704  0.2453  0.4069
 1108SOL     OW14959   0.946   0.122  17.302 -0.0920  0.0266 -0.6795
 1108SOL    HW114960   0.902   0.189  17.353 -1.1517 -1.7060  0.6842
 1108SOL    HW214961   1.000   0.173  17.241 -1.7457  1.8057 -0.6520
 1109SOL     OW14962   1.973   0.041   6.785 -0.2016 -0.1952 -0.5977
 1109SOL    HW114963   2.022   0.120   6.810  1.0338  0.0420 -3.7382
 1109SOL    HW214964   1.991   0.046   6.691  0.1521 -1.9870 -0.6254
 1110SOL     OW14965   2.706   3.483   4.860  0.2545 -0.3894 -0.0478
 1110SOL    HW114966   2.745   3.397   4.844  1.6431  0.3656 -0.7795
 1110SOL    HW214967   2.614   3.458   4.872 -0.5156  2.4243 -0.0975
 1111SOL     OW14968   0.974   1.252   4.822  0.0301  0.0922 -0.1103
 1111SOL    HW114969   1.043   1.302   4.864  0.1297  2.0771 -2.6388
 1111SOL    HW214970   0.997   1.159   4.824  1.5579  0.5135  1.3725
 1112SOL     OW14971   2.851   0.401   5.186  0.2748  0.0855 -0.0107
 1112SOL    HW114972   2.849   0.381   5.093  0.3195 -0.2158  0.0507
 1112SOL    HW214973   2.916   0.340   5.223  1.4213  1.8072  0.7869
 1113SOL     OW14974   4.126   1.211   2.752 -0.5020  0.6149 -0.1805
 1113SOL    HW114975   4.119   1.278   2.684  0.1645  0.0658 -0.7854
 1113SOL    HW214976   4.068   1.141   2.724 -1.6904  1.0577  1.1598
 1114SOL     OW14977   2.074   1.624   6.456  0.3415  0.6620  0.3401
 1114SOL    HW114978   2.028   1.565   6.516  2.0894 -0.2247  0.8031
 1114SOL    HW214979   2.032   1.709   6.458 -1.7776 -0.4307  2.6904
 1115SOL     OW14980   1.361   3.450   9.109 -0.0815 -0.2783 -0.0417
 1115SOL    HW114981   1.446   3.419   9.141  0.6929  0.8774 -0.9421
 1115SOL    HW214982   1.329   3.385   9.047 -0.1587  0.7201 -1.0661
 1116SOL     OW14983   0.960   2.716   2.764  0.0474 -0.2733 -0.1699
 1116SOL    HW114984   0.922   2.803   2.770  0.4646 -0.1130  0.1039
 1116SOL    HW214985   0.888   2.663   2.796 -0.6296  0.2809 -0.7827
 1117SOL     OW14986   0.226   4.011   6.913 -0.3129  0.5426  0.0111
 1117SOL    HW114987   0.295   4.023   6.978 -1.3675 -1.0184  1.4266
 1117SOL    HW214988   0.171   4.087   6.930 -0.0719  0.3154  1.7568
 1118SOL     OW14989   3.936   1.112  14.010  0.4858  0.3531  0.0349
 1118SOL    HW114990   3.890   1.196  14.009 -1.9353 -0.9620  1.2228
 1118SOL    HW214991   3.864   1.054  13.987  0.5633 -0.4205  1.6861
 1119SOL     OW14992   3.414   2.608   2.657 -0.0386 -0.0346  0.2725
 1119SOL    HW114993   3.455   2.546   2.596 -0.0963 -0.0418  0.2407
 1119SOL    HW214994   3.467   2.688   2.657  0.8504 -0.6240 -2.0997
 1120SOL     OW14995   3.139   4.121  14.450 -0.2123 -0.4994  0.3195
 1120SOL    HW114996   3.099   4.039  14.478  0.7200 -0.2272  2.4292
 1120SOL    HW214997   3.086   4.178  14.506  1.0336  1.0342 -0.0493
 1121SOL     OW14998   4.661   2.584   7.489  0.3768  0.5196  0.1792
 1121SOL    HW114999   4.587   2.544   7.445  1.0052  0.2017 -0.5836
 1121SOL    HW215000   4.606   2.631   7.552 -0.6691  0.0021 -0.3520
 1122SOL     OW15001   1.610   3.491   7.659 -0.3955  0.3221  0.2736
 1122SOL    HW115002   1.594   3.432   7.585 -1.2750  0.8947 -0.0010
 1122SOL    HW215003   1.591   3.577   7.621  0.2399  0.1558 -0.4110
 1123SOL     OW15004   1.248   2.961   4.529  0.8012  0.4164 -0.0047
 1123SOL    HW115005   1.229   2.979   4.437  0.4892  0.2749  0.0320
 1123SOL    HW215006   1.171   3.006   4.566  3.1244  2.9201  1.8031
 1124SOL     OW15007   1.161   1.078   1.713 -0.8174 -0.3893  0.1547
 1124SOL    HW115008   1.086   1.133   1.691  2.1562  3.8268  0.6277
 1124SOL    HW215009   1.219   1.142   1.755  0.6335 -1.1705 -0.6807
 1125SOL     OW15010   2.520   0.932  11.505  0.2460 -0.3441  0.0501
 1125SOL    HW115011   2.577   0.974  11.441 -0.9747  0.1057 -0.7484
 1125SOL    HW215012   2.531   0.847  11.463 -1.5144 -0.1564 -0.7872
 1126SOL     OW15013   3.379   4.393   8.956 -0.0150  0.3015  0.2186
 1126SOL    HW115014   3.377   4.333   8.881  1.1610  0.6441 -0.0823
 1126SOL    HW215015   3.328   4.467   8.925 -0.0607  0.6718  1.1560
 1127SOL     OW15016   1.883   1.257   5.609 -0.0504  0.0684 -0.4463
 1127SOL    HW115017   1.855   1.167   5.623  1.8446 -0.2901  1.0685
 1127SOL    HW215018   1.852   1.289   5.693  0.4012 -0.9888  0.1209
 1128SOL     OW15019   2.730   2.231   6.659 -0.3139  0.6562  0.3678
 1128SOL    HW115020   2.779   2.239   6.577 -0.5108  0.6385  0.2467
 1128SOL    HW215021   2.800   2.226   6.724  0.7417  2.0801 -0.6658
 1129SOL     OW15022   2.060   0.197   2.351  0.5615  0.0048  0.0630
 1129SOL    HW115023   2.119   0.127   2.324 -2.1489 -1.9067 -0.8228
 1129SOL    HW215024   1.976   0.159   2.327  0.5594 -0.2923  0.5444
 1130SOL     OW15025   2.690   2.166  10.014 -0.2809 -0.1628  0.0762
 1130SOL    HW115026   2.715   2.074  10.020  1.6021  0.1839 -2.4258
 1130SOL    HW215027   2.658   2.164   9.924  0.8718 -0.3170 -0.3268
 1131SOL     OW15028   0.443   1.904   7.584  0.9009 -0.4072  0.3158
 1131SOL    HW115029   0.365   1.850   7.590  0.5515 -0.0046 -0.5588
 1131SOL    HW215030   0.508   1.849   7.539  0.4792  0.0751 -0.8785
 1132SOL     OW15031   0.228   1.374   3.755  0.2028  0.0269  0.0377
 1132SOL    HW115032   0.191   1.462   3.744 -1.1185 -0.9995 -3.6859
 1132SOL    HW215033   0.290   1.379   3.827  0.7161 -0.6189 -0.3498
 1133SOL     OW15034   1.374   3.241  16.782  0.1262  0.2545 -0.1221
 1133SOL    HW115035   1.444   3.183  16.814 -0.2863 -0.7489 -1.0448
 1133SOL    HW215036   1.393   3.230  16.689 -2.5209  0.9323 -0.7163
 1134SOL     OW15037   4.306   3.318   8.940 -0.1599 -0.2292 -0.3558
 1134SOL    HW115038   4.364   3.317   8.863 -0.6212  0.6291 -0.7127
 1134SOL    HW215039   4.228   3.365   8.912 -0.8666 -0.1981  1.7165
 1135SOL     OW15040   0.365   1.739  10.936  0.3124  0.2028 -0.4204
 1135SOL    HW115041   0.438   1.704  10.988 -0.7099 -0.4314  0.5807
 1135SOL    HW215042   0.303   1.673  10.967  0.0629 -0.3218 -2.0738
 1136SOL     OW15043   2.516   1.374   0.286 -0.3045  0.5209  0.0803
 1136SOL    HW115044   2.446   1.437   0.274 -0.9507 -0.0507  0.8373
 1136SOL    HW215045   2.578   1.401   0.218 -0.8485 -1.3343 -1.1544
 1137SOL     OW15046   0.329   2.543   4.957  0.0487  0.2182  0.6923
 1137SOL    HW115047   0.386   2.485   5.007  2.8587  3.2648  1.0127
 1137SOL    HW215048   0.351   2.623   5.004 -2.1674  0.8133  0.6973
 1138SOL     OW15049   2.780   1.981   3.347 -0.0543 -0.3631 -0.1969
 1138SOL    HW115050   2.784   1.986   3.443 -1.6428  0.0872 -0.1573
 1138SOL    HW215051   2.828   2.054   3.308 -0.1344 -0.5930 -0.7196
 1139SOL     OW15052   0.057   2.578   8.440  0.6305  0.0742 -0.3985
 1139SOL    HW115053   0.076   2.490   8.406 -1.1120 -0.1619 -0.7758
 1139SOL    HW215054   0.136   2.628   8.421  0.3429  0.5143 -0.4417
 1140SOL     OW15055   1.645   1.128   1.256  0.5852  0.0510  0.5101
 1140SOL    HW115056   1.723   1.117   1.310  0.4888  0.4631  0.7319
 1140SOL    HW215057   1.652   1.071   1.179  0.5474 -0.5874  0.9846
 1141SOL     OW15058   2.224   4.310  15.699  0.3136  0.3321 -0.1926
 1141SOL    HW115059   2.242   4.353  15.615  0.0925  1.0652  0.1351
 1141SOL    HW215060   2.146   4.266  15.667  1.9347 -1.2826 -1.9178
 1142SOL     OW15061   1.626   0.521   8.041  0.4938 -0.1947 -0.3788
 1142SOL    HW115062   1.576   0.441   8.059  2.3356 -1.1002  0.7710
 1142SOL    HW215063   1.602   0.574   8.117 -1.2976 -0.8224 -0.5077
 1143SOL     OW15064   3.906   4.250   4.479 -0.0014 -0.0393  0.1622
 1143SOL    HW115065   3.997   4.242   4.508  0.0934 -0.6493 -0.3134
 1143SOL    HW215066   3.887   4.339   4.510  0.6270  0.4646 -0.9179
 1144SOL     OW15067   3.470   4.691  15.252 -0.2107  0.2858 -0.4261
 1144SOL    HW115068   3.424   0.016  15.196 -3.3829 -1.1258  0.6772
 1144SOL    HW215069   3.442   4.611  15.207 -1.0688  1.7248 -2.4288
 1145SOL     OW15070   0.754   1.120   2.288 -0.3134 -0.3802  0.0562
 1145SOL    HW115071   0.755   1.132   2.193 -0.1641  1.0490  0.2490
 1145SOL    HW215072   0.737   1.026   2.291  2.5560 -0.9106 -0.2742
 1146SOL     OW15073   3.158   4.649   9.235 -0.3047 -0.1133  0.0149
 1146SOL    HW115074   3.156   4.565   9.190  2.2474  1.3285 -2.8274
 1146SOL    HW215075   3.102   4.699   9.176 -1.1852 -0.2117  0.7666
 1147SOL     OW15076   1.463   0.366   8.808  0.4464 -0.2120 -0.0507
 1147SOL    HW115077   1.502   0.391   8.892  0.8520 -0.9157 -0.0323
 1147SOL    HW215078   1.400   0.302   8.840  1.3387 -1.6478 -1.1527
 1148SOL     OW15079   1.322   0.557   9.065 -0.8601  0.1669 -0.5231
 1148SOL    HW115080   1.305   0.569   9.158 -0.8189 -1.9979 -0.2400
 1148SOL    HW215081   1.416   0.540   9.065 -1.0867 -0.9524  2.5041
 1149SOL     OW15082   1.608   3.370  10.187 -0.1223  0.1180 -0.3545
 1149SOL    HW115083   1.668   3.303  10.153 -0.8238 -0.8281  0.2649
 1149SOL    HW215084   1.571   3.332  10.266  0.7862  1.0102  0.5002
 1150SOL     OW15085   4.053   2.039   1.821  0.3334  0.1687 -0.3254
 1150SOL    HW115086   4.130   2.091   1.843  0.4935 -0.6559  1.0738
 1150SOL    HW215087   4.031   2.077   1.736 -0.1447 -0.2578 -0.3890
 1151SOL     OW15088   3.951   1.605   7.434 -0.0002 -0.2122 -0.2049
 1151SOL    HW115089   3.883   1.584   7.370 -1.0151  2.5953 -0.0437
 1151SOL    HW215090   3.998   1.666   7.377  2.3214  0.0995  2.0372
 1152SOL     OW15091   0.050   0.477   3.464 -0.0757 -0.0271  0.4577
 1152SOL    HW115092   4.733   0.556   3.469 -0.1529 -0.1987  2.0787
 1152SOL    HW215093   4.717   0.413   3.450 -1.8638  2.2923 -1.3638
 1153SOL     OW15094   2.170   4.281   4.600  0.2919 -0.3475  0.2786
 1153SOL    HW115095   2.236   4.227   4.556 -1.2870  0.0750 -2.5533
 1153SOL    HW215096   2.099   4.218   4.611  0.3622 -0.5028 -0.1596
 1154SOL     OW15097   4.278   3.408  10.347  0.0224  0.6355  0.0888
 1154SOL    HW115098   4.301   3.355  10.271 -0.6522 -2.1440  1.7972
 1154SOL    HW215099   4.338   3.380  10.416  1.4138  1.5799 -0.7439
 1155SOL     OW15100   1.790   3.992   9.590  0.2112  0.0324 -0.1974
 1155SOL    HW115101   1.859   3.969   9.528  1.3884  0.6111  0.9021
 1155SOL    HW215102   1.829   3.954   9.669 -0.3685  0.2150  0.1767
 1156SOL     OW15103   2.711   1.070   6.568  0.7336 -0.0748 -0.2896
 1156SOL    HW115104   2.738   1.135   6.504 -1.4620  2.0520  0.9417
 1156SOL    HW215105   2.659   1.014   6.510 -0.3026 -0.1303  0.6990
 1157SOL     OW15106   3.323   2.947   5.035 -0.2437 -0.5518 -0.2262
 1157SOL    HW115107   3.377   2.947   5.114  0.5501 -0.9517 -0.7685
 1157SOL    HW215108   3.275   2.864   5.041 -0.2298 -0.3468  3.0588
 1158SOL     OW15109   1.833   1.641  15.756  0.2338  0.1497  0.5347
 1158SOL    HW115110   1.776   1.715  15.778 -1.3234 -0.8314 -0.1511
 1158SOL    HW215111   1.844   1.599  15.842  0.0438 -0.3854  0.2979
 1159SOL     OW15112   0.132   4.398   3.036 -0.1060  0.1467 -0.1362
 1159SOL    HW115113   0.206   4.364   2.986 -0.6009  0.4209 -1.0589
 1159SOL    HW215114   0.076   4.323   3.055 -1.6768  0.9762 -1.4432
 1160SOL     OW15115   1.337   1.659  16.454  0.2492 -0.0506  0.5030
 1160SOL    HW115116   1.422   1.644  16.414  0.4041  2.7530 -0.2187
 1160SOL    HW215117   1.342   1.728  16.519 -0.4205  0.7077 -0.2440
 1161SOL     OW15118   4.277   2.597   9.373  1.0249 -0.4555 -0.4958
 1161SOL    HW115119   4.357   2.634   9.409  0.6126 -0.2390  0.1915
 1161SOL    HW215120   4.283   2.508   9.409 -2.3597 -0.4175  0.1854
 1162SOL     OW15121   4.389   4.304   8.492 -0.2122  0.0743 -0.3282
 1162SOL    HW115122   4.387   4.374   8.557  1.6767 -1.3468  1.2622
 1162SOL    HW215123   4.399   4.227   8.549  0.5828 -1.0265 -1.9691
 1163SOL     OW15124   3.588   4.119   5.383  0.3356  0.3480 -0.5636
 1163SOL    HW115125   3.629   4.122   5.470 -0.9890  0.4663  0.0552
 1163SOL    HW215126   3.494   4.127   5.399  0.4328  2.5783 -1.1158
 1164SOL     OW15127   1.742   4.365   8.735  0.0643 -0.3621 -0.1352
 1164SOL    HW115128   1.811   4.310   8.696  0.4054  0.0523 -0.1225
 1164SOL    HW215129   1.797   4.436   8.767 -1.6940  1.2080 -0.6307
 1165SOL     OW15130   1.165   2.452   4.434  0.4202 -0.4568  0.1168
 1165SOL    HW115131   1.240   2.460   4.374  0.8349 -2.7271  0.3543
 1165SOL    HW215132   1.129   2.366   4.414 -2.0231  0.4431  0.6354
 1166SOL     OW15133   0.870   1.442   1.825  0.2970 -0.5459 -0.7299
 1166SOL    HW115134   0.846   1.381   1.755  1.2655 -0.6545 -0.9639
 1166SOL    HW215135   0.964   1.452   1.814  0.4574  0.1553  1.2583
 1167SOL     OW15136   0.236   3.575   0.752  0.1600  0.0134  0.0335
 1167SOL    HW115137   0.262   3.493   0.711 -1.3052 -0.8035  0.7578
 1167SOL    HW215138   0.157   3.539   0.791 -1.8124  1.2456 -2.8061
 1168SOL     OW15139   3.582   1.606   2.254 -0.4600  0.3369  0.5818
 1168SOL    HW115140   3.642   1.675   2.227  1.6298 -1.4650  0.6598
 1168SOL    HW215141   3.552   1.627   2.342 -2.4128  1.2706 -0.2867
 1169SOL     OW15142   3.537   0.292   7.761  0.1022  0.1218 -0.0463
 1169SOL    HW115143   3.511   0.239   7.686 -0.4857 -0.2780  0.4411
 1169SOL    HW215144   3.564   0.374   7.718  2.1877 -2.2001 -3.1578
 1170SOL     OW15145   3.332   0.980   3.671  0.0153  0.7784 -0.0987
 1170SOL    HW115146   3.375   0.957   3.589 -0.5214  1.0610 -0.4650
 1170SOL    HW215147   3.300   0.891   3.687 -0.6174  1.0500  0.1651
 1171SOL     OW15148   1.064   0.647   8.206  0.3348  0.8375  0.0226
 1171SOL    HW115149   1.013   0.688   8.276  0.1593 -1.1098  1.0390
 1171SOL    HW215150   1.139   0.620   8.260  1.4667 -0.7517 -2.3423
 1172SOL     OW15151   3.401   1.037   1.271 -0.4438 -0.2308  0.0999
 1172SOL    HW115152   3.469   1.081   1.323 -0.4378 -0.0980 -0.0216
 1172SOL    HW215153   3.442   1.027   1.186  0.4146  0.4464  0.4353
 1173SOL     OW15154   3.251   0.342   6.107  0.5186  0.4980  0.5893
 1173SOL    HW115155   3.171   0.395   6.104  0.2162  0.0679  0.9247
 1173SOL    HW215156   3.295   0.368   6.027  0.9851 -0.3286  0.5743
 1174SOL     OW15157   2.397   4.237  11.634  0.5417 -0.1533  0.7363
 1174SOL    HW115158   2.446   4.318  11.631  2.1414 -1.1147  0.9600
 1174SOL    HW215159   2.464   4.179  11.670  0.1259 -2.1687 -1.7122
 1175SOL     OW15160   1.028   1.563   3.451 -0.5257 -0.0722  0.3174
 1175SOL    HW115161   0.946   1.515   3.442 -1.0008  0.9081 -0.5302
 1175SOL    HW215162   1.029   1.607   3.536  0.3900  0.8885 -0.1873
 1176SOL     OW15163   1.089   0.160   4.683  0.4419 -0.5850 -0.0591
 1176SOL    HW115164   1.021   0.227   4.683  0.5789 -0.4454 -0.5074
 1176SOL    HW215165   1.040   0.078   4.690  0.2345 -0.5975 -1.5755
 1177SOL     OW15166   1.919   2.961  13.414  0.1223 -0.1446 -0.2926
 1177SOL    HW115167   1.994   2.951  13.356  0.9385 -0.8335  0.8562
 1177SOL    HW215168   1.936   3.037  13.471 -1.6872 -0.7363  1.0407
 1178SOL     OW15169   3.809   0.869   3.804  0.2088 -0.6386 -0.0584
 1178SOL    HW115170   3.818   0.779   3.834 -1.7833 -0.8422 -0.0500
 1178SOL    HW215171   3.894   0.904   3.830 -1.2948  2.1334  1.1675
 1179SOL     OW15172   0.692   0.572   7.534 -0.0519  0.1570  0.3143
 1179SOL    HW115173   0.598   0.572   7.551  0.0704  0.2775  0.9977
 1179SOL    HW215174   0.702   0.520   7.454 -2.3395  1.7546 -1.0073
 1180SOL     OW15175   3.097   4.048  10.814 -0.4753 -0.0680  0.1828
 1180SOL    HW115176   3.184   4.026  10.846  0.4634  0.3061 -2.0933
 1180SOL    HW215177   3.042   3.982  10.856 -1.8769 -0.1867 -1.8741
 1181SOL     OW15178   0.570   3.647   5.640 -0.0970  0.1114  0.2182
 1181SOL    HW115179   0.573   3.648   5.735 -3.4905  0.6263  0.2908
 1181SOL    HW215180   0.663   3.628   5.622  0.3394  0.5066  2.0703
 1182SOL     OW15181   3.486   4.106   7.826  0.2656 -0.1608 -0.1151
 1182SOL    HW115182   3.470   4.194   7.859 -3.9819 -1.0550  0.3046
 1182SOL    HW215183   3.454   4.100   7.735  0.6158  0.4569 -0.2809
 1183SOL     OW15184   3.202   1.268   7.354  0.2229 -0.2713 -0.7508
 1183SOL    HW115185   3.112   1.272   7.324 -0.0783 -0.2117  0.1425
 1183SOL    HW215186   3.234   1.205   7.290 -0.9807  1.2221 -2.7956
 1184SOL     OW15187   3.472   1.866  16.945 -0.3596 -0.1524 -0.4442
 1184SOL    HW115188   3.483   1.845  17.038 -1.4550  1.5969  0.0907
 1184SOL    HW215189   3.560   1.844  16.914 -0.1475  2.9217 -1.9326
 1185SOL     OW15190   4.420   2.313   2.981  0.1066  0.0588 -0.5769
 1185SOL    HW115191   4.382   2.330   2.894 -1.2713  0.7296  0.1490
 1185SOL    HW215192   4.344   2.274   3.024  1.4682 -1.4432  0.4491
 1186SOL     OW15193   0.747   1.599   8.847  0.4707  0.0355  0.2188
 1186SOL    HW115194   0.734   1.661   8.919  0.2518  1.0011 -0.6589
 1186SOL    HW215195   0.840   1.619   8.837  0.7715 -1.0191  0.8689
 1187SOL     OW15196   1.114   4.166   9.527  0.2329 -0.2953  0.0422
 1187SOL    HW115197   1.172   4.115   9.584  0.5412  0.4451  0.3962
 1187SOL    HW215198   1.029   4.130   9.549 -0.1890  0.0964 -0.9367
 1188SOL     OW15199   3.951   2.633   7.729 -0.2570  0.3091 -0.3780
 1188SOL    HW115200   3.865   2.624   7.688 -0.7916 -1.4040  1.1319
 1188SOL    HW215201   3.992   2.548   7.713  2.0428  1.3426  0.1191
 1189SOL     OW15202   2.253   4.198   1.109 -0.3927  0.1856 -0.0320
 1189SOL    HW115203   2.322   4.170   1.048 -0.9657 -0.7451 -0.2497
 1189SOL    HW215204   2.179   4.163   1.060  0.1503  1.8723 -2.0323
 1190SOL     OW15205   2.415   3.621   7.300 -0.3094 -0.1235 -0.0136
 1190SOL    HW115206   2.425   3.658   7.387 -0.7565  1.5981 -0.6900
 1190SOL    HW215207   2.436   3.698   7.247 -0.5987  0.8526  1.3211
 1191SOL     OW15208   2.782   2.866   6.282  0.1497  0.1488  0.2480
 1191SOL    HW115209   2.766   2.772   6.275  2.0448 -0.3266  2.1728
 1191SOL    HW215210   2.690   2.892   6.276  0.2182  0.4750  0.5556
 1192SOL     OW15211   1.815   4.618   5.917 -0.3627 -0.5730 -0.2042
 1192SOL    HW115212   1.877   4.630   5.846  0.8651  0.6612  1.0798
 1192SOL    HW215213   1.732   4.589   5.879 -0.2038 -2.3822  0.8271
 1193SOL     OW15214   0.935   2.311   9.428  0.5060 -0.2746 -0.0335
 1193SOL    HW115215   0.927   2.311   9.333 -2.9360  1.2561  0.2531
 1193SOL    HW215216   1.026   2.283   9.439 -0.0273 -1.8970  0.1401
 1194SOL     OW15217   0.934   4.320   0.581 -0.2310 -0.1028  0.2906
 1194SOL    HW115218   1.028   4.327   0.566 -0.1725  0.4926  0.9506
 1194SOL    HW215219   0.909   4.270   0.503 -0.2369  0.6895 -0.2179
 1195SOL     OW15220   4.586   3.995   7.831 -0.5140 -0.5376  0.3317
 1195SOL    HW115221   4.598   3.901   7.846 -1.9066 -0.9207 -1.0259
 1195SOL    HW215222   4.561   3.991   7.739  1.3771 -0.2016 -0.2049
 1196SOL     OW15223   2.099   1.430   0.271  0.0772 -0.1173 -0.3348
 1196SOL    HW115224   2.054   1.370   0.212 -0.9677 -0.1823  0.5404
 1196SOL    HW215225   2.026   1.465   0.321 -1.5343 -0.6731 -2.3042
 1197SOL     OW15226   1.878   2.356   8.300  0.4357  0.6566 -0.4924
 1197SOL    HW115227   1.916   2.272   8.276  1.1602  0.8842 -0.1370
 1197SOL    HW215228   1.784   2.347   8.284  0.1479  1.4768  0.7150
 1198SOL     OW15229   0.187   1.610   2.995 -0.5669 -0.6576  0.7885
 1198SOL    HW115230   0.210   1.684   3.051  0.6230 -0.5415  0.1295
 1198SOL    HW215231   0.197   1.547   3.067  0.3190 -1.1731  0.2158
 1199SOL     OW15232   2.058   1.217   5.363  0.3963  0.1114 -0.2532
 1199SOL    HW115233   2.013   1.205   5.447  0.2305  2.3107 -0.0297
 1199SOL    HW215234   2.005   1.172   5.297  0.9999  0.7645 -1.1808
 1200SOL     OW15235   2.663   3.875   3.520  0.0876 -1.1354  0.3799
 1200SOL    HW115236   2.672   3.914   3.433 -1.7498 -2.0982 -0.2554
 1200SOL    HW215237   2.630   3.789   3.494 -3.2433 -0.2270  1.5362
 1201SOL     OW15238   1.921   3.251   7.959  0.2169 -0.3064  0.3523
 1201SOL    HW115239   1.843   3.303   7.978 -0.5582 -0.8123 -1.4329
 1201SOL    HW215240   1.876   3.172   7.930  0.1636  0.3209 -1.3061
 1202SOL     OW15241   2.019   0.108  15.468  0.2217 -0.4035 -0.1153
 1202SOL    HW115242   2.084   0.081  15.533  0.0210  1.6589  0.9609
 1202SOL    HW215243   1.953   0.126  15.535  0.6817  0.1145  0.2061
 1203SOL     OW15244   4.218   4.252   8.258  0.3598  0.1526 -0.2869
 1203SOL    HW115245   4.268   4.274   8.336 -0.1170  2.1390 -0.5268
 1203SOL    HW215246   4.218   4.329   8.201  0.8584  0.7090  0.4707
 1204SOL     OW15247   2.786   1.459   4.794 -0.2393 -0.1036  0.2670
 1204SOL    HW115248   2.726   1.520   4.752  0.3296 -0.4344 -1.0268
 1204SOL    HW215249   2.739   1.376   4.792 -0.4784  0.0439 -0.1296
 1205SOL     OW15250   1.732   4.676   6.901 -0.5865 -0.1449  0.5078
 1205SOL    HW115251   1.827   4.682   6.892 -0.6359 -0.6714 -0.2909
 1205SOL    HW215252   1.713   0.005   6.835 -0.2969 -0.8857 -0.3147
 1206SOL     OW15253   2.526   3.655   9.232  0.3063 -0.1705 -0.7884
 1206SOL    HW115254   2.503   3.732   9.284 -0.6624 -0.3337 -0.9717
 1206SOL    HW215255   2.438   3.631   9.203 -0.0304  0.6661 -0.4633
 1207SOL     OW15256   2.153   3.190   6.737  0.8963 -0.0476  0.5450
 1207SOL    HW115257   2.181   3.140   6.814  1.1390 -1.3066 -0.3706
 1207SOL    HW215258   2.189   3.140   6.664  2.8235  0.5279  1.1134
 1208SOL     OW15259   3.551   0.212   8.927  0.3381 -0.1383  0.0642
 1208SOL    HW115260   3.474   0.205   8.984  1.6830 -0.1602  1.8988
 1208SOL    HW215261   3.595   0.127   8.923 -2.8661 -1.7964 -0.1169
 1209SOL     OW15262   2.934   1.311   7.332 -0.6390 -0.1525 -0.1482
 1209SOL    HW115263   2.851   1.324   7.286 -0.4463  1.2470 -0.0927
 1209SOL    HW215264   2.959   1.401   7.352  0.1909 -0.4607  0.2191
 1210SOL     OW15265   1.564   2.830   8.400 -0.0454  0.5293 -0.5236
 1210SOL    HW115266   1.493   2.893   8.414  0.4574  0.3197  3.0153
 1210SOL    HW215267   1.608   2.869   8.324  1.0376  2.6901  1.2246
 1211SOL     OW15268   4.003   0.206   3.123 -0.4855  0.1487  0.2325
 1211SOL    HW115269   3.960   0.120   3.117  1.2400 -0.7099  0.0037
 1211SOL    HW215270   4.090   0.164   3.120 -1.1837 -1.3207  0.3368
 1212SOL     OW15271   4.653   2.031   3.109  0.1777 -0.3889  0.5306
 1212SOL    HW115272   0.009   2.043   3.125  0.2024  0.0098  0.0683
 1212SOL    HW215273   4.626   2.097   3.045 -2.7682 -1.6323  0.5004
 1213SOL     OW15274   4.193   0.959  13.297  0.0567  0.4478  0.2868
 1213SOL    HW115275   4.237   0.908  13.365  0.2006  1.4750  0.9611
 1213SOL    HW215276   4.249   0.943  13.221  1.5140  1.1343  1.2411
 1214SOL     OW15277   3.815   3.826   7.260 -0.0824 -0.3185  0.1655
 1214SOL    HW115278   3.747   3.846   7.196 -1.0607  0.6121  1.4706
 1214SOL    HW215279   3.827   3.733   7.244  0.1452 -0.6857  2.3693
 1215SOL     OW15280   1.630   1.254   3.795 -0.4933 -0.4892  0.9531
 1215SOL    HW115281   1.544   1.281   3.762 -0.5985 -0.1358  1.5258
 1215SOL    HW215282   1.648   1.197   3.720  0.6388  0.5197  0.4443
 1216SOL     OW15283   2.890   1.764   2.396 -0.5371 -1.2963  0.1575
 1216SOL    HW115284   2.909   1.796   2.484  0.5886 -2.2996  0.2694
 1216SOL    HW215285   2.866   1.673   2.412 -1.4274 -0.9282  0.8760
 1217SOL     OW15286   4.621   2.852   6.343  0.1200 -0.3227  0.5003
 1217SOL    HW115287   4.573   2.769   6.352  0.1572 -0.4564 -0.5709
 1217SOL    HW215288   4.650   2.870   6.432 -0.8357  0.9174  0.5562
 1218SOL     OW15289   0.762   2.895   5.371  0.0276 -0.2334  0.2358
 1218SOL    HW115290   0.770   2.968   5.433 -2.7100 -0.3218  0.6861
 1218SOL    HW215291   0.849   2.867   5.344  0.2415  0.1455  0.5339
 1219SOL     OW15292   2.907   4.232   7.091  0.4498 -0.1916 -0.0566
 1219SOL    HW115293   2.901   4.164   7.158 -0.0899 -0.3461 -0.2631
 1219SOL    HW215294   2.998   4.256   7.108  0.8556 -0.8117 -1.3350
 1220SOL     OW15295   4.184   3.740   0.788 -0.1664 -0.2833 -0.4814
 1220SOL    HW115296   4.245   3.668   0.801  1.5833  1.2622 -0.1137
 1220SOL    HW215297   4.214   3.810   0.845 -0.3931  0.3403 -1.1227
 1221SOL     OW15298   0.844   3.875   5.449  0.4464 -0.6709 -0.5118
 1221SOL    HW115299   0.927   3.921   5.463  0.0000 -0.4040  1.2078
 1221SOL    HW215300   0.820   3.897   5.359  0.8423 -1.3194 -0.7761
 1222SOL     OW15301   0.020   3.271   9.913 -0.0568 -0.3091  1.1225
 1222SOL    HW115302   0.024   3.306  10.002 -0.6767 -0.0499  1.0524
 1222SOL    HW215303   0.097   3.216   9.900 -1.8157 -1.8769 -2.5562
 1223SOL     OW15304   1.269   0.453   2.460 -0.4352 -0.1323  0.3016
 1223SOL    HW115305   1.251   0.392   2.532 -2.3427  0.1646  0.0698
 1223SOL    HW215306   1.301   0.526   2.513 -0.8655 -0.1854  0.6381
 1224SOL     OW15307   1.155   1.460   2.712 -0.1359  0.5758  0.0634
 1224SOL    HW115308   1.221   1.493   2.650  3.0543 -0.4102  2.9115
 1224SOL    HW215309   1.154   1.371   2.677 -0.7815 -0.5572  2.9536
 1225SOL     OW15310   3.895   0.914  15.764 -0.2263  0.5279 -0.8767
 1225SOL    HW115311   3.969   0.952  15.716  1.0689  0.5175  1.1269
 1225SOL    HW215312   3.927   0.828  15.789  1.7120  1.6222  0.3392
 1226SOL     OW15313   0.132   4.536   2.113 -0.4800 -0.0066 -0.3674
 1226SOL    HW115314   0.206   4.509   2.168 -0.6351 -1.3649 -0.8252
 1226SOL    HW215315   0.086   4.603   2.164  2.3524 -1.5305  4.1938
 1227SOL     OW15316   2.152   3.958   7.898 -0.5449 -0.3250 -0.1649
 1227SOL    HW115317   2.190   3.958   7.986 -0.4765  2.9611 -0.1884
 1227SOL    HW215318   2.075   3.902   7.912 -0.2306 -0.7324 -0.0729
 1228SOL     OW15319   2.420   4.547   3.456  0.6314 -0.0687  0.0834
 1228SOL    HW115320   2.490   4.604   3.424 -0.5555  0.7156 -1.1234
 1228SOL    HW215321   2.447   4.456   3.442 -3.7607 -1.9326  3.5915
 1229SOL     OW15322   4.060   0.722   0.991 -0.5745 -0.0072  0.2511
 1229SOL    HW115323   4.049   0.687   0.903 -0.9973  1.5591 -0.3215
 1229SOL    HW215324   4.007   0.801   0.987 -1.0803 -0.2953  1.2882
 1230SOL     OW15325   3.718   3.723   2.719  0.9894  0.5160  0.7607
 1230SOL    HW115326   3.657   3.795   2.703 -0.9412 -1.2170  0.2545
 1230SOL    HW215327   3.678   3.661   2.658  0.4632  2.3026 -0.7025
 1231SOL     OW15328   4.704   2.641   9.099 -0.7552 -0.0999  0.1472
 1231SOL    HW115329   4.663   2.688   9.172 -1.5571 -1.0166  0.2806
 1231SOL    HW215330   0.049   2.690   9.087  0.4341 -1.6968  1.6839
 1232SOL     OW15331   3.001   1.474   6.318 -0.3676  0.4541 -0.3489
 1232SOL    HW115332   3.025   1.492   6.409  1.7699 -0.9939 -0.6281
 1232SOL    HW215333   2.987   1.562   6.282 -0.8957  0.1103 -0.9746
 1233SOL     OW15334   0.628   0.378   9.899  0.5863  0.0652  0.0641
 1233SOL    HW115335   0.542   0.339   9.881  0.9052  0.3898 -2.1907
 1233SOL    HW215336   0.598   0.465   9.925 -0.1198 -0.4464  0.9578
 1234SOL     OW15337   0.938   1.888   2.630  0.4268  0.1805 -0.3477
 1234SOL    HW115338   0.911   1.860   2.542 -1.4835  0.4282  0.1608
 1234SOL    HW215339   0.912   1.806   2.672  1.8369  0.9497  2.0377
 1235SOL     OW15340   1.881   2.952   4.156 -0.0950 -0.2192 -0.0548
 1235SOL    HW115341   1.935   2.875   4.136 -0.7634 -0.1922 -1.9779
 1235SOL    HW215342   1.792   2.921   4.142  0.5729 -2.9620  1.7113
 1236SOL     OW15343   3.007   1.697   8.656 -0.2405 -0.2266 -0.2789
 1236SOL    HW115344   2.941   1.636   8.621 -1.5397  1.3034 -0.4753
 1236SOL    HW215345   2.963   1.781   8.641  0.5214  0.1300 -0.4858
 1237SOL     OW15346   3.485   0.074   6.855 -0.2762 -0.0400 -0.1348
 1237SOL    HW115347   3.449   0.160   6.876 -0.1480  0.7779 -3.2034
 1237SOL    HW215348   3.466   0.028   6.937  0.1146  3.3122  1.8225
 1238SOL     OW15349   0.910   3.002  14.178 -0.0718  0.3403 -0.1782
 1238SOL    HW115350   1.003   2.991  14.160 -0.3989 -1.2223 -0.9228
 1238SOL    HW215351   0.893   3.076  14.119  1.9865  2.0099  1.2938
 1239SOL     OW15352   2.907   2.158   2.477  0.6605 -0.3294  0.3179
 1239SOL    HW115353   2.852   2.129   2.404 -0.1515  1.1569  0.3367
 1239SOL    HW215354   2.980   2.097   2.466  1.0964 -0.1137  1.9607
 1240SOL     OW15355   1.851   0.308   9.060  0.1148  0.0136  0.2920
 1240SOL    HW115356   1.883   0.361   8.987  0.4778  1.2163  1.3474
 1240SOL    HW215357   1.859   0.363   9.137  1.1997 -0.3356  0.4299
 1241SOL     OW15358   0.680   3.376   5.826  0.2809 -0.0054 -0.0772
 1241SOL    HW115359   0.757   3.341   5.870  2.1213  1.2038 -2.3320
 1241SOL    HW215360   0.649   3.436   5.893 -1.7768 -0.0602 -0.9654
 1242SOL     OW15361   3.306   2.764   4.150  0.2109  0.2366  0.0497
 1242SOL    HW115362   3.353   2.703   4.094 -0.3675  0.9869 -1.2631
 1242SOL    HW215363   3.345   2.841   4.106 -0.4788  1.1016  0.9528
 1243SOL     OW15364   0.525   4.374  15.486 -0.5046  0.4013  0.3925
 1243SOL    HW115365   0.554   4.404  15.399 -1.6146  0.4000  0.0204
 1243SOL    HW215366   0.568   4.435  15.546  1.3672  0.1984 -0.7586
 1244SOL     OW15367   4.689   4.206   3.097  0.0443 -0.1089  0.8985
 1244SOL    HW115368   4.645   4.146   3.037  1.2553 -1.6234  1.5379
 1244SOL    HW215369   4.624   4.196   3.167 -0.5008 -1.3489  0.2014
 1245SOL     OW15370   2.311   1.556   0.201 -0.3344 -0.2327 -0.4490
 1245SOL    HW115371   2.293   1.644   0.235  1.4020 -0.5061  1.2108
 1245SOL    HW215372   2.234   1.510   0.235 -0.5053  1.3960  1.3907
 1246SOL     OW15373   1.969   3.744   2.683  0.2036 -0.0549  0.0075
 1246SOL    HW115374   1.906   3.677   2.656  1.2589 -1.1983  0.3974
 1246SOL    HW215375   2.003   3.710   2.766  1.5724  0.5385 -0.3093
 1247SOL     OW15376   1.029   3.935  11.191 -0.5076  0.5465  0.3254
 1247SOL    HW115377   1.091   4.006  11.201 -1.9905  1.7443  1.0409
 1247SOL    HW215378   1.003   3.958  11.102 -3.2725  1.1967  1.2890
 1248SOL     OW15379   0.087   2.753   3.909 -0.7429 -0.1628 -0.2649
 1248SOL    HW115380   0.169   2.794   3.940  0.1517 -1.0213 -1.4866
 1248SOL    HW215381   0.028   2.758   3.985 -1.2131 -4.0999 -0.4009
 1249SOL     OW15382   2.071   2.640   2.003 -0.3261 -0.1857 -0.0020
 1249SOL    HW115383   1.987   2.685   2.016  0.0450  0.5950 -0.3452
 1249SOL    HW215384   2.136   2.699   2.039  0.5145 -0.8872 -0.3686
 1250SOL     OW15385   2.568   1.669   3.087 -0.5973  0.0670  0.2040
 1250SOL    HW115386   2.606   1.712   3.164 -0.9382  2.0185 -0.7172
 1250SOL    HW215387   2.599   1.579   3.086  0.7765  0.5413 -0.3758
 1251SOL     OW15388   0.479   3.937   2.892  0.3449 -0.0585 -0.1107
 1251SOL    HW115389   0.401   3.961   2.843  2.4574  2.7458 -2.1128
 1251SOL    HW215390   0.451   3.932   2.983  3.3729 -1.0013  0.7926
 1252SOL     OW15391   1.223   2.150   6.782 -0.4530  0.6749  0.3856
 1252SOL    HW115392   1.172   2.073   6.807 -1.0971  1.5567  1.8232
 1252SOL    HW215393   1.240   2.125   6.691 -0.8418  1.4971  0.0921
 1253SOL     OW15394   3.190   4.609   5.959 -0.0501  0.0643 -0.2582
 1253SOL    HW115395   3.262   4.665   5.988 -1.5342  2.1212 -0.5497
 1253SOL    HW215396   3.205   4.535   6.018  2.9388  0.9169  0.0396
 1254SOL     OW15397   1.539   2.974  16.356  0.5122 -0.0468  0.2216
 1254SOL    HW115398   1.499   2.913  16.418  0.7267  1.1437  1.5375
 1254SOL    HW215399   1.630   2.945  16.353  0.5644  0.0477  0.7412
 1255SOL     OW15400   0.913   3.967   8.361 -0.0571 -0.7741 -0.8252
 1255SOL    HW115401   0.969   4.034   8.321 -1.6737  0.6471 -0.7302
 1255SOL    HW215402   0.843   3.969   8.295 -1.8277  0.4920  1.0726
 1256SOL     OW15403   1.452   3.344  10.711  0.1915 -0.0587 -0.1353
 1256SOL    HW115404   1.373   3.325  10.762  0.4413 -1.5219 -0.2908
 1256SOL    HW215405   1.512   3.331  10.783  0.1455  0.2486 -0.0397
 1257SOL     OW15406   1.491   4.586  15.055 -0.4662  0.5048 -0.3136
 1257SOL    HW115407   1.586   4.587  15.068 -0.3217 -2.5100 -1.0176
 1257SOL    HW215408   1.460   4.648  15.121  0.5152  0.4388  0.2087
 1258SOL     OW15409   4.506   1.337   8.207  0.6833  0.1469 -0.6235
 1258SOL    HW115410   4.525   1.249   8.175 -1.5143  0.1281 -1.8933
 1258SOL    HW215411   4.435   1.373   8.154  0.4469  0.4720 -0.0891
 1259SOL     OW15412   2.012   4.435  13.955 -0.3170 -0.6434 -0.5467
 1259SOL    HW115413   2.093   4.405  13.995 -0.5976 -0.4567  0.1660
 1259SOL    HW215414   2.058   4.499  13.901  0.4536 -0.2279  0.5912
 1260SOL     OW15415   0.861   1.588   1.162 -0.3064  0.6324  0.5690
 1260SOL    HW115416   0.805   1.568   1.087  3.4088  0.3357 -2.1240
 1260SOL    HW215417   0.931   1.640   1.122  0.5013  0.2868  1.5265
 1261SOL     OW15418   0.720   3.574   3.338  0.6559 -0.3649  0.1034
 1261SOL    HW115419   0.781   3.624   3.284 -0.3228  0.1290 -0.5510
 1261SOL    HW215420   0.688   3.632   3.407  1.7223 -0.9211  1.0563
 1262SOL     OW15421   1.623   3.312   3.741  0.0369  0.2955  0.8306
 1262SOL    HW115422   1.710   3.324   3.780  0.6237 -2.2150  0.2811
 1262SOL    HW215423   1.641   3.281   3.653  0.8769  1.3168  0.6464
 1263SOL     OW15424   1.561   2.958   0.562  0.3427  0.0630  0.1114
 1263SOL    HW115425   1.535   3.031   0.619 -1.0627  1.0373 -1.7548
 1263SOL    HW215426   1.598   2.994   0.481 -0.5623  0.2418 -0.2217
 1264SOL     OW15427   4.523   1.353  13.973  0.0476  0.0970 -0.3242
 1264SOL    HW115428   4.596   1.321  14.026  0.5244  0.7805 -0.5755
 1264SOL    HW215429   4.534   1.311  13.888 -0.8720  0.8592 -0.8271
 1265SOL     OW15430   2.568   0.641   0.511 -0.2057 -0.6240 -0.3061
 1265SOL    HW115431   2.490   0.697   0.512  1.9996  2.4522  0.0065
 1265SOL    HW215432   2.538   0.551   0.495  0.4837 -1.0957  1.1003
 1266SOL     OW15433   2.526   2.894   8.183 -0.4977 -0.1573 -0.0050
 1266SOL    HW115434   2.552   2.861   8.097  1.3830 -0.9401  0.8711
 1266SOL    HW215435   2.462   2.962   8.161 -1.5906 -0.8341  1.0949
 1267SOL     OW15436   3.667   1.069   5.518  0.0727  0.4655 -0.1742
 1267SOL    HW115437   3.572   1.064   5.533  0.0150 -3.2438 -1.7852
 1267SOL    HW215438   3.674   1.061   5.423 -2.1129  2.4682 -0.5175
 1268SOL     OW15439   2.124   4.143   2.764  0.6303  0.0257  0.1899
 1268SOL    HW115440   2.056   4.168   2.827  0.1456 -3.0092  0.8601
 1268SOL    HW215441   2.194   4.206   2.780 -1.3890  1.9791  1.5140
 1269SOL     OW15442   0.280   1.057   5.734 -0.2315 -0.0528 -0.9604
 1269SOL    HW115443   0.241   1.117   5.798  1.2870 -0.1389  0.0546
 1269SOL    HW215444   0.198   1.012   5.710 -2.3889  3.1268  0.4388
 1270SOL     OW15445   1.325   1.039  14.453 -0.8824  0.6791  0.3261
 1270SOL    HW115446   1.394   1.078  14.399  0.2922 -0.3263  1.1070
 1270SOL    HW215447   1.377   0.974  14.502 -1.6851 -0.7772 -0.7387
 1271SOL     OW15448   4.732   1.546   6.139  0.7316 -0.1056 -0.5178
 1271SOL    HW115449   0.063   1.614   6.139  2.1925 -1.5434 -1.6053
 1271SOL    HW215450   4.675   1.585   6.072 -1.1358 -0.2726  0.9911
 1272SOL     OW15451   1.964   4.163   0.375  0.6923 -0.0129 -0.1902
 1272SOL    HW115452   1.959   4.070   0.394  0.1699 -0.2239 -1.3289
 1272SOL    HW215453   1.885   4.179   0.323  0.7259 -0.8726 -0.4989
 1273SOL     OW15454   4.731   2.962  11.708 -0.2791 -0.3364  0.0709
 1273SOL    HW115455   4.681   2.931  11.784  1.9366 -0.4638  1.4873
 1273SOL    HW215456   0.047   3.033  11.745  0.9869 -0.3233 -1.7360
 1274SOL     OW15457   1.779   0.491  16.343  0.3891 -0.0255 -0.2909
 1274SOL    HW115458   1.742   0.473  16.257  1.7494  0.1155 -0.9131
 1274SOL    HW215459   1.843   0.562  16.330 -1.7150  2.0693  0.8709
 1275SOL     OW15460   0.992   2.378   8.433  0.2426  0.4613  0.6999
 1275SOL    HW115461   1.007   2.346   8.522 -1.8925 -0.0819  0.8579
 1275SOL    HW215462   1.008   2.471   8.449 -2.6230  0.7673  1.7441
 1276SOL     OW15463   3.893   3.451   5.271 -0.2430 -1.1347 -0.5426
 1276SOL    HW115464   3.955   3.431   5.342  0.7921  2.1313 -0.5439
 1276SOL    HW215465   3.936   3.526   5.230 -0.7191  0.5270  2.0270
 1277SOL     OW15466   3.620   2.431   7.303 -0.0042 -0.2050 -0.4286
 1277SOL    HW115467   3.684   2.363   7.324  2.1653  2.2429  0.9137
 1277SOL    HW215468   3.661   2.473   7.227 -0.1226 -1.3724 -1.1394
 1278SOL     OW15469   1.081   2.945   4.885  0.4636  0.0530 -0.3302
 1278SOL    HW115470   1.052   2.960   4.975 -3.5698  3.7961 -2.2950
 1278SOL    HW215471   1.125   2.861   4.901 -3.3773 -1.9903 -0.4571
 1279SOL     OW15472   0.885   4.227   2.887 -0.3208  0.4158 -0.3436
 1279SOL    HW115473   0.884   4.253   2.795 -0.8774  1.0055 -0.1758
 1279SOL    HW215474   0.932   4.144   2.879 -0.8366  0.3085 -2.2620
 1280SOL     OW15475   0.229   2.746   8.155  0.1539 -0.1092 -0.0237
 1280SOL    HW115476   0.254   2.688   8.227  1.5957 -1.5389 -1.6565
 1280SOL    HW215477   0.195   2.820   8.205  0.9293  0.3626 -0.1856
 1281SOL     OW15478   4.311   3.276   1.972 -0.2999 -0.4334 -0.1976
 1281SOL    HW115479   4.317   3.362   2.015  1.7745 -0.7565  0.1402
 1281SOL    HW215480   4.218   3.257   1.984 -0.2586 -0.1704  0.5415
 1282SOL     OW15481   3.595   1.005   8.415 -0.0995 -0.2451 -0.0558
 1282SOL    HW115482   3.518   1.039   8.462  0.9291  1.0030  0.7596
 1282SOL    HW215483   3.613   0.922   8.459 -1.5138 -0.3330  0.3596
 1283SOL     OW15484   0.981   4.412   5.506  0.2499  0.7913  0.4698
 1283SOL    HW115485   0.944   4.493   5.469 -4.8002 -2.2339 -1.0343
 1283SOL    HW215486   0.988   4.442   5.597  0.7368 -1.5978  1.2076
 1284SOL     OW15487   3.858   3.395   3.395  0.4231  0.6488 -0.0641
 1284SOL    HW115488   3.873   3.443   3.313  0.7376  2.8682  1.2886
 1284SOL    HW215489   3.914   3.319   3.380  1.0532  1.1384 -0.2083
 1285SOL     OW15490   3.129   4.420   4.781 -0.1517 -0.0459 -0.7258
 1285SOL    HW115491   3.047   4.459   4.749 -3.3177 -3.9521  2.5066
 1285SOL    HW215492   3.154   4.365   4.707  1.6103  1.1481 -1.0229
 1286SOL     OW15493   0.976   1.913   5.026 -0.0628  0.0382 -0.3810
 1286SOL    HW115494   0.888   1.950   5.020 -0.3201 -0.6219 -0.7045
 1286SOL    HW215495   0.947   1.823   5.013  2.8718 -0.6435 -2.1480
 1287SOL     OW15496   1.160   3.994  17.306 -0.1374 -0.2313 -0.0026
 1287SOL    HW115497   1.207   3.925  17.259  1.5339  0.5402  0.4991
 1287SOL    HW215498   1.145   3.950  17.390  1.9509 -1.3318 -0.2127
 1288SOL     OW15499   0.067   3.475   7.308  0.1007 -0.5375 -0.4092
 1288SOL    HW115500   0.084   3.389   7.271  0.8853 -0.6169  0.1196
 1288SOL    HW215501   4.711   3.470   7.332  0.2672 -0.0813  0.3291
 1289SOL     OW15502   0.366   1.161  14.655  0.6649 -0.5355 -0.0495
 1289SOL    HW115503   0.279   1.126  14.672  1.1807 -2.1272 -0.6111
 1289SOL    HW215504   0.343   1.236  14.600  2.6274  0.5905  0.6471
 1290SOL     OW15505   1.996   2.232   7.954  0.2292  0.1703  0.0093
 1290SOL    HW115506   2.007   2.194   8.041  2.3906 -0.4925 -0.5618
 1290SOL    HW215507   2.089   2.252   7.947 -0.6920  4.5200  0.1689
 1291SOL     OW15508   2.788   2.846   5.685  0.0369  0.4539 -0.3769
 1291SOL    HW115509   2.861   2.878   5.633 -0.2213  4.2627  1.6116
 1291SOL    HW215510   2.720   2.902   5.647 -1.0786 -0.5372  0.1666
 1292SOL     OW15511   3.538   1.991  14.260 -0.2872  0.5368  0.2534
 1292SOL    HW115512   3.579   2.048  14.195 -0.5784  1.8200  1.2063
 1292SOL    HW215513   3.498   2.055  14.318 -2.3844 -1.9194  1.5343
 1293SOL     OW15514   1.314   2.519   0.789 -0.0637 -0.2361  0.7149
 1293SOL    HW115515   1.306   2.528   0.694  1.4881 -1.1656  0.4863
 1293SOL    HW215516   1.287   2.427   0.793 -1.9735  0.3014  0.0273
 1294SOL     OW15517   0.200   0.338   3.846  0.1324 -0.0212  0.2675
 1294SOL    HW115518   0.291   0.367   3.852 -0.5130  1.9593  0.3640
 1294SOL    HW215519   0.154   0.421   3.860 -1.9905 -0.9542 -1.1058
 1295SOL     OW15520   3.926   4.427   2.542  0.1309  0.3062  0.0628
 1295SOL    HW115521   3.949   4.499   2.483  1.6992  1.7862  2.4520
 1295SOL    HW215522   3.836   4.454   2.560 -0.3051 -1.1933  0.1102
 1296SOL     OW15523   0.064   1.931   4.280  0.1590 -0.1566 -0.0323
 1296SOL    HW115524   0.143   1.986   4.281 -0.2832  0.4469  0.9501
 1296SOL    HW215525   4.728   1.992   4.267 -1.1527 -1.4856  1.1863
 1297SOL     OW15526   0.653   1.602   0.563 -0.2712  0.3495  0.2449
 1297SOL    HW115527   0.680   1.690   0.537  0.1985 -0.0816 -0.7376
 1297SOL    HW215528   0.595   1.629   0.634 -1.0517  1.1228 -0.6839
 1298SOL     OW15529   1.357   1.129   8.686 -0.1437  0.3688  0.1306
 1298SOL    HW115530   1.415   1.202   8.707  1.1398 -0.8221  0.7257
 1298SOL    HW215531   1.319   1.158   8.603  1.5673 -3.2578 -1.8965
 1299SOL     OW15532   1.268   1.961  10.717  0.6092  0.1063 -0.3989
 1299SOL    HW115533   1.350   2.000  10.687  1.0159 -0.5997 -0.2012
 1299SOL    HW215534   1.222   2.031  10.762  0.9116 -1.0705  1.7369
 1300SOL     OW15535   0.487   3.729   9.357  0.5049  0.2202  0.6521
 1300SOL    HW115536   0.420   3.666   9.385  1.6744 -1.5495 -0.5518
 1300SOL    HW215537   0.436   3.775   9.291 -1.5712 -0.6355  1.6362
 1301SOL     OW15538   2.810   3.033   1.900  0.2631 -0.8232  0.0021
 1301SOL    HW115539   2.890   3.083   1.918 -0.4628  0.3923 -0.1134
 1301SOL    HW215540   2.844   2.944   1.902  0.5061 -0.7229  0.5282
 1302SOL     OW15541   1.809   3.317   1.893 -0.9270 -0.2177 -0.1021
 1302SOL    HW115542   1.884   3.270   1.859 -1.2245 -0.9953  0.3272
 1302SOL    HW215543   1.822   3.314   1.988 -1.5093  1.7818  0.0407
 1303SOL     OW15544   1.895   1.804   5.319  0.5654 -0.0036 -0.3520
 1303SOL    HW115545   1.985   1.771   5.324 -0.2836 -2.0574  1.2971
 1303SOL    HW215546   1.886   1.826   5.412 -1.6873 -3.6316  0.2935
 1304SOL     OW15547   4.242   0.290   9.411 -0.5550  0.2364 -0.2348
 1304SOL    HW115548   4.296   0.237   9.469 -0.6237  1.7334  1.1763
 1304SOL    HW215549   4.195   0.339   9.479 -0.0341  1.4993 -0.7840
 1305SOL     OW15550   0.154   2.568  14.308  0.0591 -0.0341  0.3337
 1305SOL    HW115551   0.170   2.532  14.394  0.9097 -0.8085 -0.1561
 1305SOL    HW215552   0.244   2.563  14.277  0.1965 -0.9951  0.8978
 1306SOL     OW15553   0.256   3.315   8.381  0.4270 -0.2428  0.5824
 1306SOL    HW115554   0.283   3.407   8.383  0.2644 -0.1471 -1.4420
 1306SOL    HW215555   0.174   3.307   8.429  0.0983  1.8772  0.3721
 1307SOL     OW15556   2.063   2.368   2.129  0.3366  0.1810  0.3742
 1307SOL    HW115557   2.072   2.462   2.119  0.6982  0.2960  1.8227
 1307SOL    HW215558   2.025   2.340   2.045  2.2751  0.9064 -0.7547
 1308SOL     OW15559   0.543   4.459   5.461  0.4016  0.0578 -0.2114
 1308SOL    HW115560   0.612   4.432   5.400  0.1374 -2.3999  0.5737
 1308SOL    HW215561   0.478   4.394   5.437 -0.5685  1.5030 -1.5032
 1309SOL     OW15562   4.075   3.272   5.073  0.5773  0.2680 -0.2710
 1309SOL    HW115563   4.065   3.312   4.987 -1.5741  0.6826  0.1765
 1309SOL    HW215564   3.986   3.282   5.107  1.3349  1.5380  1.3407
 1310SOL     OW15565   2.236   3.009  14.159 -0.2457 -0.5605 -0.1173
 1310SOL    HW115566   2.300   3.052  14.216 -0.3581 -3.8209  2.4483
 1310SOL    HW215567   2.157   3.011  14.214  0.6389 -1.2068  1.1684
 1311SOL     OW15568   0.132   2.929   8.334 -0.5555  0.3125  0.2636
 1311SOL    HW115569   0.077   2.917   8.411  0.6232  0.3540  1.1054
 1311SOL    HW215570   0.065   2.980   8.288 -0.7712  0.0101  0.2395
 1312SOL     OW15571   2.274   0.464   4.273  0.1760 -0.2998  0.3264
 1312SOL    HW115572   2.227   0.518   4.337 -0.5359 -2.1899  1.4006
 1312SOL    HW215573   2.205   0.438   4.212  0.1622 -0.2388  0.3160
 1313SOL     OW15574   2.873   3.416   4.064  0.0667  0.0145 -0.0356
 1313SOL    HW115575   2.924   3.437   3.985 -0.4671 -0.0417 -0.3931
 1313SOL    HW215576   2.927   3.351   4.109 -1.6225 -0.8408  0.7140
 1314SOL     OW15577   4.338   0.135   2.276 -0.0383  0.0479 -0.3319
 1314SOL    HW115578   4.272   0.069   2.257  0.5231 -0.0135 -2.0151
 1314SOL    HW215579   4.289   0.208   2.238 -1.3552 -1.9433 -2.3718
 1315SOL     OW15580   1.202   0.431  11.916  0.1772  0.0669  0.4909
 1315SOL    HW115581   1.154   0.388  11.986  0.3111 -0.2115  0.4137
 1315SOL    HW215582   1.168   0.519  11.930  0.4436  0.4976 -1.4851
 1316SOL     OW15583   4.531   2.445   5.147  0.1142  0.7530 -0.4354
 1316SOL    HW115584   4.536   2.392   5.067  0.1841 -0.9157  0.6717
 1316SOL    HW215585   4.564   2.532   5.124 -1.7877  1.3265 -1.0354
 1317SOL     OW15586   3.340   0.083   9.117 -0.1820  0.6408  0.5095
 1317SOL    HW115587   3.308   0.013   9.174 -0.4944  0.3183 -0.0539
 1317SOL    HW215588   3.325   0.046   9.030  0.2983  1.4368  0.0906
 1318SOL     OW15589   1.483   3.282   0.978 -0.4055  0.1961  0.7709
 1318SOL    HW115590   1.501   3.375   0.960  0.1533 -0.1890 -0.6639
 1318SOL    HW215591   1.492   3.279   1.073 -0.9664 -0.7928  0.7836
 1319SOL     OW15592   3.018   3.980   1.868 -0.1029 -0.1436 -0.4037
 1319SOL    HW115593   2.972   3.905   1.907 -0.2790  0.5135  0.6342
 1319SOL    HW215594   2.952   4.017   1.809  0.3676  0.0317 -0.8127
 1320SOL     OW15595   1.901   3.490  15.029 -0.2184 -0.1272  0.0071
 1320SOL    HW115596   1.806   3.506  15.031 -0.5132 -1.9067 -0.3677
 1320SOL    HW215597   1.921   3.492  14.935  0.1161  1.4182  0.1143
 1321SOL     OW15598   1.505   1.012   3.158  0.3207  0.3385  0.2224
 1321SOL    HW115599   1.593   1.006   3.119  0.1830  3.8345 -0.5762
 1321SOL    HW215600   1.487   0.918   3.166  3.2975 -0.3247 -0.5498
 1322SOL     OW15601   2.056   0.620  17.268 -0.1895 -0.1730 -0.0227
 1322SOL    HW115602   2.034   0.529  17.289  0.6017 -0.2851  0.3270
 1322SOL    HW215603   2.061   0.669  17.351  2.0992 -1.5633  0.6806
 1323SOL     OW15604   1.685   2.223  14.690 -0.5675  0.4936 -0.3070
 1323SOL    HW115605   1.767   2.205  14.644  0.5819  1.2619  1.4281
 1323SOL    HW215606   1.710   2.259  14.776  0.5736 -0.5360 -0.2135
 1324SOL     OW15607   0.206   3.758   1.945  0.4193 -0.2649  0.3417
 1324SOL    HW115608   0.233   3.739   2.035 -1.6920  0.5576  1.1516
 1324SOL    HW215609   0.204   3.854   1.948 -1.2984 -0.3064  0.1324
 1325SOL     OW15610   4.177   1.917  16.875 -1.0770  0.2056  0.4660
 1325SOL    HW115611   4.184   1.974  16.798  1.1648 -0.2421  0.3442
 1325SOL    HW215612   4.265   1.917  16.911 -1.0267 -2.0284  0.3239
 1326SOL     OW15613   4.459   0.266   4.001 -0.0085 -0.4651 -0.0102
 1326SOL    HW115614   4.519   0.192   4.001 -0.7752 -1.0830 -1.2574
 1326SOL    HW215615   4.378   0.215   4.000 -0.9733  1.0602 -0.2226
 1327SOL     OW15616   0.850   3.142   6.535 -0.2986  0.2852  0.1689
 1327SOL    HW115617   0.789   3.157   6.463 -1.0001 -2.7963  0.1401
 1327SOL    HW215618   0.847   3.217   6.594 -0.1626  0.8293 -0.5099
 1328SOL     OW15619   1.716   1.565   4.057 -0.2383  0.3299 -0.0898
 1328SOL    HW115620   1.808   1.548   4.041 -0.6229 -2.4691  0.7655
 1328SOL    HW215621   1.689   1.474   4.050 -1.2694  0.6516 -0.3781
 1329SOL     OW15622   3.400   4.423   3.433  0.0366  0.2265  0.0071
 1329SOL    HW115623   3.460   4.444   3.361 -0.3470  1.9758  0.1956
 1329SOL    HW215624   3.444   4.458   3.510  0.9501 -1.5536  0.2989
 1330SOL     OW15625   1.996   3.581  13.471 -0.0545  0.2490 -0.3205
 1330SOL    HW115626   2.073   3.598  13.525 -0.1307 -0.0373 -0.1209
 1330SOL    HW215627   2.038   3.528  13.404  1.3135 -0.0039  0.7388
 1331SOL     OW15628   2.182   1.396   5.217 -0.0296  0.2908 -0.0890
 1331SOL    HW115629   2.144   1.332   5.276 -0.9359 -0.3575 -1.3739
 1331SOL    HW215630   2.114   1.464   5.220 -0.3229 -0.0252  0.3423
 1332SOL     OW15631   2.330   1.791  16.964 -0.5559  0.1252  0.1776
 1332SOL    HW115632   2.310   1.876  16.925  0.1092  0.3616  0.3467
 1332SOL    HW215633   2.420   1.797  16.931 -0.5369 -0.0990  0.1920
 1333SOL     OW15634   4.625   3.408   2.082  0.2884 -0.1417 -0.1888
 1333SOL    HW115635   4.556   3.384   2.144  1.4492  1.4708  1.7306
 1333SOL    HW215636   4.682   3.462   2.137 -0.1620  0.2259 -0.0872
 1334SOL     OW15637   1.818   0.783   8.636  0.5262  0.5145 -0.3326
 1334SOL    HW115638   1.818   0.710   8.574  1.7391 -0.5484  0.8918
 1334SOL    HW215639   1.770   0.858   8.602  0.3516  1.8569  2.8330
 1335SOL     OW15640   0.406   1.496   7.309  0.3880 -0.0001  0.3591
 1335SOL    HW115641   0.360   1.579   7.297 -0.8015 -0.9637 -1.7627
 1335SOL    HW215642   0.447   1.502   7.395 -0.1598 -0.0921  0.6226
 1336SOL     OW15643   1.477   2.687  10.087  0.2166 -0.0285 -0.4886
 1336SOL    HW115644   1.547   2.665  10.025  0.5266 -0.2519 -0.0534
 1336SOL    HW215645   1.408   2.713  10.026  0.1454  1.4793  0.2416
 1337SOL     OW15646   1.572   0.057  13.541 -0.7173  0.3215 -0.3711
 1337SOL    HW115647   1.520   0.002  13.482 -0.3648 -1.5636  1.0493
 1337SOL    HW215648   1.545   0.147  13.523 -0.4820  0.4070 -0.2994
 1338SOL     OW15649   2.323   2.977  12.926  0.5441  0.0249 -0.2886
 1338SOL    HW115650   2.353   3.053  12.975 -0.1664 -1.0385  1.7624
 1338SOL    HW215651   2.364   2.989  12.840  3.6614  0.3034  1.2303
 1339SOL     OW15652   3.631   0.047   4.257  0.2369  0.4388 -0.2305
 1339SOL    HW115653   3.632   0.121   4.318 -0.5670  0.1873  0.0804
 1339SOL    HW215654   3.655   4.712   4.316 -0.4124  0.4976  0.1088
 1340SOL     OW15655   0.326   1.912   8.252 -0.1163 -0.3859 -0.6508
 1340SOL    HW115656   0.352   1.982   8.312  0.6386  0.2042 -1.6521
 1340SOL    HW215657   0.310   1.958   8.170 -0.6370 -0.1176 -0.3993
 1341SOL     OW15658   0.626   0.058   2.431  0.0558  0.2560 -0.3909
 1341SOL    HW115659   0.670   0.076   2.514 -3.0782  0.6964  1.1745
 1341SOL    HW215660   0.552   4.736   2.448  0.6631  0.0080  1.4596
 1342SOL     OW15661   1.077   0.412   1.753  0.0675 -0.3481  0.0675
 1342SOL    HW115662   1.136   0.458   1.812 -1.2663  0.6022  0.6727
 1342SOL    HW215663   1.111   0.323   1.749  0.1153 -0.5276  4.3627
 1343SOL     OW15664   2.047   2.146   5.357 -0.2221 -0.5917 -0.1914
 1343SOL    HW115665   2.096   2.076   5.398 -0.8289 -1.6673 -1.3025
 1343SOL    HW215666   2.083   2.134   5.269 -1.6261 -3.1676 -0.4103
 1344SOL     OW15667   1.049   3.999  11.778 -0.4242  0.1150 -0.1893
 1344SOL    HW115668   1.084   3.946  11.706 -1.4129  1.1355 -1.4250
 1344SOL    HW215669   0.956   3.976  11.779  0.0326 -1.6959  0.3173
 1345SOL     OW15670   3.950   4.271  17.093 -0.8895 -0.1195  0.5794
 1345SOL    HW115671   3.943   4.341  17.158 -0.1369  1.0766 -0.6145
 1345SOL    HW215672   3.946   4.317  17.009  1.7516  0.5159  0.7874
 1346SOL     OW15673   2.615   0.348   3.508 -0.4938 -0.1927  1.2122
 1346SOL    HW115674   2.630   0.322   3.598 -0.8706  0.2571  1.4013
 1346SOL    HW215675   2.556   0.423   3.517  0.2945  0.2391  2.6397
 1347SOL     OW15676   2.106   2.810   4.243 -0.2343  0.0037  0.2486
 1347SOL    HW115677   2.185   2.818   4.190 -0.3659  0.1009  0.0653
 1347SOL    HW215678   2.081   2.720   4.222 -0.2691 -0.0033  0.3210
 1348SOL     OW15679   2.187   3.363  13.593  0.0381  0.2416 -0.3448
 1348SOL    HW115680   2.209   3.400  13.678 -0.1390 -0.8936  0.1944
 1348SOL    HW215681   2.250   3.407  13.536 -0.1040  1.1671  0.2093
 1349SOL     OW15682   1.416   3.428   0.663  0.2261  0.1939  0.1811
 1349SOL    HW115683   1.359   3.459   0.733 -0.4709  0.4652 -0.5099
 1349SOL    HW215684   1.474   3.503   0.651  0.2471  0.2750  0.7760
 1350SOL     OW15685   3.425   1.903  15.973  0.3641 -0.6065  0.1624
 1350SOL    HW115686   3.349   1.920  16.028 -1.8245 -1.7654 -2.5345
 1350SOL    HW215687   3.385   1.851  15.903 -1.4727  2.5187 -1.0650
 1351SOL     OW15688   4.173   0.614  13.148 -0.0387  0.2896  0.0165
 1351SOL    HW115689   4.260   0.627  13.186 -0.5963 -1.3974  1.8509
 1351SOL    HW215690   4.150   0.531  13.190  1.2714 -0.0792  0.0002
 1352SOL     OW15691   3.570   3.844   5.361 -0.5733 -0.2433  0.4066
 1352SOL    HW115692   3.630   3.837   5.436 -1.7961  0.5335  1.4625
 1352SOL    HW215693   3.569   3.939   5.346 -0.0712  0.2254  3.3568
 1353SOL     OW15694   4.330   4.007  12.299  0.2380  0.2856  0.4548
 1353SOL    HW115695   4.271   3.932  12.290  1.4095 -0.7042  1.0037
 1353SOL    HW215696   4.416   3.970  12.276  0.2167  0.8207 -0.4779
 1354SOL     OW15697   0.046   4.448   9.639 -0.2630  0.2430 -0.1355
 1354SOL    HW115698   0.100   4.510   9.689  2.2953  0.5338 -3.2401
 1354SOL    HW215699   0.039   4.372   9.697 -0.1072  0.9878  0.8668
 1355SOL     OW15700   1.586   4.429   6.630 -0.2974  0.0321  0.1875
 1355SOL    HW115701   1.670   4.401   6.594 -2.3966 -2.2819 -2.9479
 1355SOL    HW215702   1.580   4.367   6.702 -1.3169  0.6422  0.6242
 1356SOL     OW15703   3.663   0.025  11.959  0.8053 -0.0583 -0.3186
 1356SOL    HW115704   3.577   4.720  11.960  0.3831  0.8148 -1.2891
 1356SOL    HW215705   3.713   4.694  11.913 -0.9473  1.3074 -4.1599
 1357SOL     OW15706   1.705   3.634   2.724 -0.1768  0.6144 -0.5205
 1357SOL    HW115707   1.620   3.643   2.680 -0.8790 -0.7858  0.5343
 1357SOL    HW215708   1.701   3.709   2.783  3.8619  0.1517  0.3099
 1358SOL     OW15709   4.329   0.959   5.341 -0.0020  0.5015 -0.0949
 1358SOL    HW115710   4.244   0.994   5.313  0.5346  1.5857 -0.3901
 1358SOL    HW215711   4.378   1.042   5.335  1.7807 -0.5172  0.4271
 1359SOL     OW15712   3.098   3.331   7.890  0.1203  0.0421 -0.2118
 1359SOL    HW115713   3.076   3.329   7.797  0.2872  4.5165 -0.3480
 1359SOL    HW215714   3.162   3.260   7.888  1.2753  1.0802  0.0625
 1360SOL     OW15715   1.192   3.916   3.738  0.2179 -0.6069 -0.5181
 1360SOL    HW115716   1.103   3.887   3.756 -0.2123  1.2536  0.3106
 1360SOL    HW215717   1.239   3.837   3.767 -0.8518 -1.6347 -1.5737
 1361SOL     OW15718   3.891   3.488   4.953  0.7417  0.3821  0.7024
 1361SOL    HW115719   3.938   3.539   5.019  2.3267  0.5947 -0.5934
 1361SOL    HW215720   3.897   3.548   4.878 -0.9358  0.6729  0.8075
 1362SOL     OW15721   3.616   1.230  10.590 -0.0067  0.2499 -0.1674
 1362SOL    HW115722   3.580   1.173  10.521  0.3990  0.5329 -0.6122
 1362SOL    HW215723   3.526   1.251  10.615  1.0800  2.8779  1.5102
 1363SOL     OW15724   3.225   2.594   6.678 -0.0772  0.3261  0.0491
 1363SOL    HW115725   3.262   2.682   6.671 -0.7344  0.7831  2.2462
 1363SOL    HW215726   3.222   2.563   6.588 -2.7028 -0.5994  0.4604
 1364SOL     OW15727   3.733   1.751   8.598 -0.0231 -0.0960 -0.2697
 1364SOL    HW115728   3.652   1.769   8.646 -1.7086 -0.4694 -2.9890
 1364SOL    HW215729   3.778   1.835   8.583 -1.5853  0.9149  0.6598
 1365SOL     OW15730   2.496   1.843   3.580 -0.6164 -0.1526  0.5334
 1365SOL    HW115731   2.559   1.782   3.619 -0.9268 -0.7149  0.1513
 1365SOL    HW215732   2.509   1.835   3.485 -1.7441 -1.0224  0.4508
 1366SOL     OW15733   1.808   1.867   9.950 -0.0674 -0.1686 -0.1347
 1366SOL    HW115734   1.784   1.895  10.039 -0.8327 -1.5053  0.0664
 1366SOL    HW215735   1.872   1.798   9.967  0.2069 -0.1929 -1.2927
 1367SOL     OW15736   4.203   2.519   6.632  0.2607  0.2500  0.1987
 1367SOL    HW115737   4.194   2.580   6.559  0.3993 -0.7181 -0.6295
 1367SOL    HW215738   4.245   2.444   6.588  1.8046  1.6588 -0.7525
 1368SOL     OW15739   3.359   4.310  12.651 -0.2461  0.2620 -0.1541
 1368SOL    HW115740   3.407   4.352  12.723 -0.2055 -2.6055  1.4839
 1368SOL    HW215741   3.270   4.317  12.685  0.0501  3.2344  0.0695
 1369SOL     OW15742   2.319   0.168   2.940 -0.5912 -0.2699 -0.3606
 1369SOL    HW115743   2.262   0.242   2.961 -1.4686 -1.2546  0.7629
 1369SOL    HW215744   2.362   0.198   2.860 -1.1869 -0.3109 -0.6968
 1370SOL     OW15745   3.178   3.338  17.010 -0.0555 -0.5426  0.2886
 1370SOL    HW115746   3.264   3.376  17.027 -0.0371 -0.7269  0.6149
 1370SOL    HW215747   3.178   3.346  16.914  0.1584 -0.5085  0.2911
 1371SOL     OW15748   2.792   2.515   8.934  0.1029 -0.1476  0.4413
 1371SOL    HW115749   2.816   2.607   8.946 -0.1596 -0.3575  2.5212
 1371SOL    HW215750   2.701   2.523   8.961  0.4941 -1.7855  2.1924
 1372SOL     OW15751   1.642   1.905  12.739 -0.1031 -0.2048  0.1479
 1372SOL    HW115752   1.674   1.970  12.678  0.1544 -0.7575 -0.3095
 1372SOL    HW215753   1.591   1.957  12.801 -0.7579  0.5105 -1.0131
 1373SOL     OW15754   3.992   0.073   3.720  0.3325  0.6790 -0.0510
 1373SOL    HW115755   3.952   4.726   3.745 -0.9694  0.3538 -3.2748
 1373SOL    HW215756   4.044   0.094   3.798 -0.2792 -1.2663  0.8847
 1374SOL     OW15757   1.860   0.422   3.164  0.0649  0.2626 -0.0809
 1374SOL    HW115758   1.907   0.496   3.202 -0.6474  0.6136  0.1147
 1374SOL    HW215759   1.850   0.369   3.243  2.3142  1.4704  1.0179
 1375SOL     OW15760   3.555   3.430   0.150 -0.4132 -0.0733  0.1698
 1375SOL    HW115761   3.598   3.392   0.227 -1.5455 -1.3321  0.1733
 1375SOL    HW215762   3.620   3.490   0.113 -2.5524  1.7567 -0.5635
 1376SOL     OW15763   2.552   0.461   4.898 -0.1608 -0.3967 -0.0677
 1376SOL    HW115764   2.522   0.370   4.890  0.1692 -0.4998 -0.1307
 1376SOL    HW215765   2.557   0.487   4.806  0.7650  0.4288  0.2132
 1377SOL     OW15766   4.065   0.627   0.736 -0.4242 -0.7963  0.1625
 1377SOL    HW115767   4.154   0.643   0.705 -0.7602  0.3188 -0.2387
 1377SOL    HW215768   4.017   0.650   0.656  0.8406 -1.0846 -0.6718
 1378SOL     OW15769   0.349   2.225   5.891 -0.5152 -0.6574 -0.4706
 1378SOL    HW115770   0.351   2.288   5.963  0.7866  1.4830 -2.3742
 1378SOL    HW215771   0.291   2.272   5.830  0.7942  0.5506 -0.7931
 1379SOL     OW15772   3.979   4.461  10.293 -0.7017  0.1208 -0.3279
 1379SOL    HW115773   3.949   4.488  10.379 -0.4298  1.1558 -0.5597
 1379SOL    HW215774   3.897   4.460  10.243 -0.4497 -0.5054 -0.7259
 1380SOL     OW15775   1.590   2.147   2.585  0.1611  0.3629 -0.7014
 1380SOL    HW115776   1.530   2.219   2.600 -2.9759 -1.8938 -2.3575
 1380SOL    HW215777   1.650   2.146   2.659 -2.2657  0.2887  1.2458
 1381SOL     OW15778   2.681   2.278   8.127 -0.5946  0.0975  0.1496
 1381SOL    HW115779   2.646   2.205   8.075 -0.1150 -0.0518  0.0278
 1381SOL    HW215780   2.775   2.270   8.106 -0.6950 -0.9508  0.0840
 1382SOL     OW15781   0.315   4.608  15.316  0.1142 -0.4419 -0.0514
 1382SOL    HW115782   0.273   4.606  15.230 -0.9836 -0.2142  0.4692
 1382SOL    HW215783   0.264   4.678  15.357 -2.2059 -1.2777 -1.5013
 1383SOL     OW15784   2.245   1.054   0.402  0.3938 -0.6260  0.2908
 1383SOL    HW115785   2.182   1.123   0.422 -0.1385 -0.5102 -1.7908
 1383SOL    HW215786   2.212   1.016   0.321  0.4130 -0.7306  0.3324
 1384SOL     OW15787   2.484   2.678   3.803  0.5893  0.0301 -0.3834
 1384SOL    HW115788   2.500   2.616   3.873 -0.9779  0.1147  0.0441
 1384SOL    HW215789   2.509   2.758   3.850 -1.9054 -0.3576  1.5599
 1385SOL     OW15790   0.557   2.224   7.918  0.2512  0.1331 -0.2395
 1385SOL    HW115791   0.593   2.226   7.829  0.0480 -0.0228 -0.3249
 1385SOL    HW215792   0.484   2.285   7.906 -0.5902 -0.7195  0.5673
 1386SOL     OW15793   1.439   1.829   3.977  0.1210  0.0688  0.0629
 1386SOL    HW115794   1.391   1.908   3.952  0.6322  1.3880  3.2814
 1386SOL    HW215795   1.521   1.833   3.929  0.1184 -2.6410 -0.1722
 1387SOL     OW15796   0.769   3.510   4.387 -0.1927 -0.2064  0.5519
 1387SOL    HW115797   0.787   3.587   4.441  1.7148 -0.1291 -0.1865
 1387SOL    HW215798   0.798   3.444   4.450 -1.0991 -1.0664  0.0695
 1388SOL     OW15799   3.881   2.081  16.030  0.0363 -0.2282 -0.5254
 1388SOL    HW115800   3.851   2.143  16.096  0.7582  0.5618 -0.9353
 1388SOL    HW215801   3.824   2.007  16.048  1.1720 -1.3011 -1.3104
 1389SOL     OW15802   0.250   1.900  17.550 -0.3843  0.3751  0.6057
 1389SOL    HW115803   0.206   1.972  17.506  0.5982  2.0146  2.2932
 1389SOL    HW215804   0.200   1.880  17.630  1.6104  0.4932  1.8934
 1390SOL     OW15805   3.134   1.101   8.346 -0.2461 -0.0751  0.0215
 1390SOL    HW115806   3.169   1.048   8.274  0.6201  1.2007 -0.4925
 1390SOL    HW215807   3.111   1.021   8.393 -0.0319  0.1475  0.5017
 1391SOL     OW15808   0.298   3.607   5.734  0.7107 -0.8992  0.6014
 1391SOL    HW115809   0.330   3.568   5.652 -0.6746 -1.2584  0.2358
 1391SOL    HW215810   0.236   3.543   5.769  1.8682 -2.0531  0.5335
 1392SOL     OW15811   3.914   1.521   8.609 -0.8255 -0.2465 -0.3765
 1392SOL    HW115812   3.879   1.503   8.696 -1.6117 -2.0886 -1.0791
 1392SOL    HW215813   3.867   1.604   8.596 -4.4018 -2.4217 -1.1533
 1393SOL     OW15814   2.624   0.976   6.836  0.4011  0.4293 -0.2581
 1393SOL    HW115815   2.655   1.027   6.761 -0.3557  0.6286 -0.4334
 1393SOL    HW215816   2.658   0.889   6.813 -0.4873  0.4577 -1.6775
 1394SOL     OW15817   2.142   4.113   3.057  0.6055  0.7216 -0.1206
 1394SOL    HW115818   2.120   4.206   3.055 -0.0351  0.5933  0.6579
 1394SOL    HW215819   2.149   4.103   3.152  1.0856 -0.0213 -0.2339
 1395SOL     OW15820   0.734   0.734   6.634  0.4177 -0.0050 -0.1839
 1395SOL    HW115821   0.679   0.812   6.633  0.8004  0.2623 -0.6248
 1395SOL    HW215822   0.670   0.668   6.608 -0.3525  0.7221 -0.1317
 1396SOL     OW15823   0.787   2.350   0.287 -0.3130  0.0439  0.1094
 1396SOL    HW115824   0.735   2.369   0.365 -1.1942 -0.3595 -0.3785
 1396SOL    HW215825   0.854   2.419   0.285 -1.6945  1.3451 -0.7972
 1397SOL     OW15826   4.355   1.977  12.105  0.0478 -0.0449 -0.4404
 1397SOL    HW115827   4.280   1.966  12.164  1.6342 -4.0302  0.8479
 1397SOL    HW215828   4.314   1.956  12.021  1.6474 -0.1534 -1.1932
 1398SOL     OW15829   0.743   1.506   5.114  0.0795 -0.4054 -0.6317
 1398SOL    HW115830   0.653   1.502   5.080 -0.0552  2.1936 -0.5336
 1398SOL    HW215831   0.759   1.413   5.094 -0.7373 -0.9167  1.0063
 1399SOL     OW15832   0.815   4.696   2.689 -0.5799  0.5709  0.3726
 1399SOL    HW115833   0.788   4.605   2.704  1.7770 -0.0247  1.1445
 1399SOL    HW215834   0.854   4.725   2.772  1.0341  1.0596 -0.5493
 1400SOL     OW15835   0.878   1.542   2.754  0.2932 -0.3419  0.4283
 1400SOL    HW115836   0.813   1.497   2.699  0.5504 -2.4851  1.8635
 1400SOL    HW215837   0.956   1.543   2.698  1.5620  1.7246  2.2807
 1401SOL     OW15838   4.323   1.589  11.172 -0.5666 -0.4232  0.4282
 1401SOL    HW115839   4.308   1.611  11.080  1.1929  1.3285  0.5862
 1401SOL    HW215840   4.235   1.599  11.210 -0.5975 -1.0645  0.5330
 1402SOL     OW15841   4.449   1.381   7.782  0.4106  0.1254 -0.5500
 1402SOL    HW115842   4.489   1.453   7.732 -2.2029  0.8414 -1.5861
 1402SOL    HW215843   4.446   1.427   7.866 -0.2476 -0.7197 -0.1159
 1403SOL     OW15844   4.439   2.147   7.487 -0.2071 -0.3094 -0.1647
 1403SOL    HW115845   4.514   2.089   7.473 -1.5737 -1.5530 -2.2125
 1403SOL    HW215846   4.418   2.165   7.396  0.7341  0.4401 -0.2375
 1404SOL     OW15847   2.831   3.716   8.709  0.4422 -0.0232  0.2574
 1404SOL    HW115848   2.828   3.656   8.784  1.0098  1.3948  1.4223
 1404SOL    HW215849   2.815   3.658   8.634  0.8083 -1.9159  1.6228
 1405SOL     OW15850   4.175   2.303  11.462 -0.4255 -0.5942  0.3814
 1405SOL    HW115851   4.080   2.306  11.470 -0.5396 -0.8621 -0.8410
 1405SOL    HW215852   4.208   2.370  11.522  2.0608 -0.4725 -1.1292
 1406SOL     OW15853   2.563   4.478  15.915 -0.1817 -0.3939 -0.5003
 1406SOL    HW115854   2.652   4.503  15.938 -0.6259  0.7173 -0.0333
 1406SOL    HW215855   2.571   4.392  15.874  0.5077 -0.7856  0.4605
 1407SOL     OW15856   0.652   1.159   7.336 -0.0314 -0.1589  0.1801
 1407SOL    HW115857   0.657   1.254   7.327 -0.3302 -0.4208 -2.8736
 1407SOL    HW215858   0.700   1.128   7.259 -0.8546 -0.2438 -0.3035
 1408SOL     OW15859   3.016   2.538  13.399  0.5479  0.1940  0.4103
 1408SOL    HW115860   3.079   2.583  13.456  0.4178  0.6159  0.2233
 1408SOL    HW215861   2.947   2.537  13.465 -1.1072  1.2254 -1.2921
 1409SOL     OW15862   0.487   4.289  10.721 -0.1674 -0.4770  0.4033
 1409SOL    HW115863   0.418   4.331  10.668 -0.9065 -1.4121  0.6412
 1409SOL    HW215864   0.561   4.331  10.677  0.2483 -1.4384  0.1918
 1410SOL     OW15865   2.005   1.055   3.648 -0.3777 -0.0732  0.0637
 1410SOL    HW115866   1.977   1.110   3.721 -0.6025  0.7807 -0.6675
 1410SOL    HW215867   2.011   1.129   3.588  1.4270  0.7046  1.2405
 1411SOL     OW15868   0.474   0.023   3.620  0.2301  0.7654  0.0872
 1411SOL    HW115869   0.397   0.079   3.619 -0.7855 -0.6276 -0.6727
 1411SOL    HW215870   0.529   0.073   3.561  0.6602 -0.3315 -0.4468
 1412SOL     OW15871   3.332   1.521   7.418  0.2048  0.0370 -0.4198
 1412SOL    HW115872   3.254   1.574   7.399 -1.1386 -1.5919  0.5906
 1412SOL    HW215873   3.285   1.438   7.415  2.9100 -1.5372  1.5952
 1413SOL     OW15874   1.488   0.220   7.348  0.4159  0.3175  0.0881
 1413SOL    HW115875   1.422   0.284   7.324 -0.3309 -0.6771 -0.5328
 1413SOL    HW215876   1.433   0.145   7.373  1.1349 -0.4970 -0.7379
 1414SOL     OW15877   4.583   0.108   5.221  0.1252  0.2466 -0.1607
 1414SOL    HW115878   4.613   0.141   5.305  1.6151  0.9118 -0.9426
 1414SOL    HW215879   4.490   0.100   5.241  0.2066 -2.0617 -0.7228
 1415SOL     OW15880   2.243   1.263  17.299  0.3053 -0.5140  0.0252
 1415SOL    HW115881   2.331   1.285  17.269  0.9274 -0.4736  1.8982
 1415SOL    HW215882   2.232   1.300  17.386  1.5884 -0.5355  0.1943
 1416SOL     OW15883   0.272   2.682  11.466  0.2505  0.3663  0.2247
 1416SOL    HW115884   0.310   2.599  11.494 -0.1087  0.5391  1.2243
 1416SOL    HW215885   0.229   2.696  11.549  0.8825  2.1853  0.2487
 1417SOL     OW15886   1.371   0.905   1.847  0.8814 -0.3528  0.8342
 1417SOL    HW115887   1.305   0.940   1.787  0.9998  0.0277  0.9229
 1417SOL    HW215888   1.450   0.917   1.796  0.8379  0.7385  1.0092
 1418SOL     OW15889   3.210   3.730   3.472 -0.3089  0.1357  0.1315
 1418SOL    HW115890   3.272   3.694   3.408  1.0417  2.2146  0.2890
 1418SOL    HW215891   3.254   3.717   3.556  1.7480  2.9903 -0.4922
 1419SOL     OW15892   4.069   3.718  13.203 -0.2786  0.2900 -0.1425
 1419SOL    HW115893   4.053   3.694  13.112  1.6036  1.8097 -0.8617
 1419SOL    HW215894   3.978   3.735  13.228  0.1897  0.8573  1.1619
 1420SOL     OW15895   1.117   1.333   9.020 -0.1449  0.2238  0.7374
 1420SOL    HW115896   1.067   1.284   9.085 -0.2975 -1.5109 -0.6823
 1420SOL    HW215897   1.199   1.293   9.046  0.5968  0.8219 -0.6540
 1421SOL     OW15898   1.075   1.583   6.178  0.1815  0.1593 -0.2603
 1421SOL    HW115899   1.049   1.526   6.106 -0.6267  0.3647 -0.1259
 1421SOL    HW215900   0.992   1.583   6.225  1.0436 -0.9340  1.2878
 1422SOL     OW15901   3.469   2.691   3.419 -0.1084 -0.5092  0.1809
 1422SOL    HW115902   3.422   2.721   3.496 -0.8833 -0.7391 -0.1994
 1422SOL    HW215903   3.419   2.734   3.350 -3.0085 -2.9348  0.7683
 1423SOL     OW15904   4.140   3.117   7.312 -0.7995 -0.4900  0.1428
 1423SOL    HW115905   4.175   3.150   7.229 -1.8554 -0.7408 -0.3904
 1423SOL    HW215906   4.150   3.192   7.371  1.9921 -0.6372 -0.1456
 1424SOL     OW15907   0.712   1.642   3.689 -0.0582  0.1929 -0.0605
 1424SOL    HW115908   0.739   1.576   3.752 -2.3016 -0.6737 -0.0022
 1424SOL    HW215909   0.698   1.717   3.747  0.8558  2.2380 -2.4934
 1425SOL     OW15910   1.953   2.376   4.654  0.0311 -0.8186  0.4990
 1425SOL    HW115911   1.920   2.465   4.644  1.6481 -0.1017  1.6330
 1425SOL    HW215912   1.943   2.371   4.749 -1.9867  1.6970  0.4195
 1426SOL     OW15913   3.245   1.402   4.886  0.2562 -0.2010  0.2968
 1426SOL    HW115914   3.305   1.451   4.830 -2.0233  1.0886 -0.9979
 1426SOL    HW215915   3.176   1.374   4.826  0.2387 -0.0947  0.2671
 1427SOL     OW15916   4.156   0.741   5.730 -0.6381  0.4557 -0.3303
 1427SOL    HW115917   4.196   0.751   5.644  0.9456 -2.0073  0.0968
 1427SOL    HW215918   4.186   0.655   5.761 -2.7667 -0.8819 -2.0326
 1428SOL     OW15919   1.769   4.403   7.618  0.2506 -0.0615  1.1926
 1428SOL    HW115920   1.859   4.377   7.601  0.3484  0.6100  0.6854
 1428SOL    HW215921   1.733   4.325   7.575  1.8300 -0.2853  0.2866
 1429SOL     OW15922   4.023   4.243   9.399 -0.4678 -0.1068 -0.3722
 1429SOL    HW115923   4.023   4.317   9.459  0.2722 -1.2014  0.9794
 1429SOL    HW215924   4.009   4.288   9.316 -1.3535  0.0601 -0.1228
 1430SOL     OW15925   4.112   1.748  11.415 -0.4179  0.0545 -0.1478
 1430SOL    HW115926   4.170   1.810  11.369  0.8358 -0.4598  0.7431
 1430SOL    HW215927   4.044   1.809  11.441  0.2519  1.5880 -1.9166
 1431SOL     OW15928   3.639   0.886   7.989  0.1440  0.0194 -0.3036
 1431SOL    HW115929   3.711   0.869   7.927  1.7082  1.0416  1.2421
 1431SOL    HW215930   3.684   0.901   8.072 -1.9838  1.0046  0.6672
 1432SOL     OW15931   0.048   2.384   8.792  0.7558  0.5626 -0.2201
 1432SOL    HW115932   0.019   2.475   8.795  2.3207  1.0333  0.9452
 1432SOL    HW215933   0.127   2.385   8.846  1.1553  3.1241 -0.8321
 1433SOL     OW15934   2.533   3.548  13.611  0.4203 -0.4307  0.0648
 1433SOL    HW115935   2.513   3.539  13.704  1.2250 -2.6141  0.0286
 1433SOL    HW215936   2.628   3.535  13.609  0.5562  0.7234 -0.9635
 1434SOL     OW15937   2.814   2.059   1.348 -0.0177 -0.2965 -0.2245
 1434SOL    HW115938   2.804   2.099   1.435  2.3258  0.8027 -0.4653
 1434SOL    HW215939   2.741   2.101   1.302 -0.9044 -2.5010 -0.8173
 1435SOL     OW15940   4.423   1.013   7.426 -0.1881 -0.2228 -0.0058
 1435SOL    HW115941   4.448   0.946   7.363  3.4467 -0.0498  1.2372
 1435SOL    HW215942   4.329   1.000   7.438 -0.2761  0.2477 -0.1765
 1436SOL     OW15943   2.125   0.487   1.017  0.6030  0.3823 -0.4406
 1436SOL    HW115944   2.038   0.462   1.045  0.2220  1.6136 -0.5155
 1436SOL    HW215945   2.142   0.561   1.075  0.1912  1.0179 -1.1223
 1437SOL     OW15946   1.590   3.027  17.146  0.2857 -0.5676  0.5363
 1437SOL    HW115947   1.567   3.117  17.126 -3.7026 -1.3158  1.6876
 1437SOL    HW215948   1.503   2.986  17.138  0.6053 -0.9157 -1.2242
 1438SOL     OW15949   2.347   1.023  12.996 -0.1160  0.0446  0.0320
 1438SOL    HW115950   2.300   0.984  13.069  2.4224  1.1156  2.2491
 1438SOL    HW215951   2.432   1.045  13.036  0.5195 -0.3322 -1.1019
 1439SOL     OW15952   4.578   4.401   2.630 -0.4777  0.6423  1.0045
 1439SOL    HW115953   4.569   4.450   2.712  0.1847  0.5088  1.1554
 1439SOL    HW215954   4.534   4.318   2.644 -0.4823  0.3858 -0.5231
 1440SOL     OW15955   3.813   4.340   4.215 -0.4709  0.3938 -0.4989
 1440SOL    HW115956   3.876   4.282   4.258 -0.5855  0.4780 -0.2170
 1440SOL    HW215957   3.730   4.293   4.220  1.7632 -3.4697  0.2257
 1441SOL     OW15958   1.697   0.527   0.896 -0.2233 -1.1782  0.3931
 1441SOL    HW115959   1.671   0.449   0.848  0.1487 -0.1629 -1.4892
 1441SOL    HW215960   1.736   0.586   0.831 -3.3938  1.8856  1.2562
 1442SOL     OW15961   3.275   0.416   8.999  0.0305  0.5543 -0.4031
 1442SOL    HW115962   3.329   0.489   9.026 -3.1405  1.7562  2.7878
 1442SOL    HW215963   3.286   0.354   9.071  0.2604 -1.6677 -2.3395
 1443SOL     OW15964   3.186   1.821  12.173 -0.5114  0.0980  0.0489
 1443SOL    HW115965   3.157   1.767  12.099  0.0042 -0.4408  0.2400
 1443SOL    HW215966   3.228   1.760  12.235 -2.2790 -2.3948 -1.1827
 1444SOL     OW15967   1.549   0.074   5.399  0.6836  0.6155 -0.3791
 1444SOL    HW115968   1.462   0.039   5.379  0.8989  0.3036 -0.7861
 1444SOL    HW215969   1.604   0.002   5.366 -0.3536 -0.8200  1.0156
 1445SOL     OW15970   2.397   1.061   3.096 -0.2712 -0.0683  0.4382
 1445SOL    HW115971   2.388   1.153   3.122 -0.1751  0.0652  0.0024
 1445SOL    HW215972   2.476   1.043   3.145  0.4615  0.9538 -0.3608
 1446SOL     OW15973   4.424   3.044   5.340  0.3709  0.1180  0.1406
 1446SOL    HW115974   4.357   3.108   5.364  2.3291  0.9131  3.5466
 1446SOL    HW215975   4.484   3.099   5.288 -0.4723  0.2545 -0.6849
 1447SOL     OW15976   0.139   0.581   2.275 -0.7326  0.0644  0.1708
 1447SOL    HW115977   0.220   0.614   2.238  0.2396 -1.8487  0.5788
 1447SOL    HW215978   0.167   0.540   2.357 -0.3657 -0.2706 -0.1221
 1448SOL     OW15979   2.288   1.095   4.634  0.7476  0.2591  0.2825
 1448SOL    HW115980   2.338   1.040   4.574 -0.9472 -0.5521 -0.4098
 1448SOL    HW215981   2.316   1.183   4.612  0.6678  0.5652  1.4231
 1449SOL     OW15982   0.381   1.257   7.147 -0.1201 -0.2507  0.7358
 1449SOL    HW115983   0.378   1.329   7.210 -1.6302 -0.8179  1.3127
 1449SOL    HW215984   0.392   1.175   7.194  0.2584 -0.6554 -0.0468
 1450SOL     OW15985   3.535   1.469   3.560 -0.5232  0.2425 -0.0891
 1450SOL    HW115986   3.617   1.487   3.606 -0.6053  3.3570 -1.2127
 1450SOL    HW215987   3.481   1.473   3.639 -1.5893 -1.0059 -0.7498
 1451SOL     OW15988   0.178   2.050   6.837  0.0430 -0.0769 -0.3991
 1451SOL    HW115989   0.106   1.988   6.830  1.4973 -2.0304  2.2016
 1451SOL    HW215990   0.238   2.009   6.775  0.1545  0.3313 -0.5632
 1452SOL     OW15991   1.265   2.121   4.663  0.1652  0.5971 -0.2211
 1452SOL    HW115992   1.329   2.176   4.709 -0.7472  1.3859  0.1127
 1452SOL    HW215993   1.248   2.169   4.583 -0.8665  2.5544  1.1659
 1453SOL     OW15994   2.469   0.072   9.128 -0.0016 -0.5530 -0.0144
 1453SOL    HW115995   2.424   0.029   9.055  1.2368  0.4025 -1.3532
 1453SOL    HW215996   2.537   0.119   9.079  0.3459  0.1421  1.1607
 1454SOL     OW15997   3.351   4.446  17.005  0.6529 -0.2720 -0.0872
 1454SOL    HW115998   3.440   4.412  17.009  1.5732  2.0353 -0.9242
 1454SOL    HW215999   3.356   4.535  17.038 -0.9276 -1.1319  2.4404
 1455SOL     OW16000   3.578   4.477   6.440  0.0695 -0.1665 -0.3212
 1455SOL    HW116001   3.558   4.534   6.515  0.7567  1.6783 -1.5387
 1455SOL    HW216002   3.499   4.427   6.421 -1.4860  2.3161 -0.3849
 1456SOL     OW16003   1.170   1.856   8.366  0.0591  0.3115 -0.4041
 1456SOL    HW116004   1.140   1.947   8.367  1.7778  0.8716 -1.5315
 1456SOL    HW216005   1.259   1.870   8.333  0.1027  1.4186  0.1848
 1457SOL     OW16006   3.267   2.416   5.376  0.0741  0.2730  0.3185
 1457SOL    HW116007   3.203   2.353   5.410 -1.2025  0.4175 -1.8824
 1457SOL    HW216008   3.203   2.485   5.362  0.4433  0.4483 -0.4790
 1458SOL     OW16009   4.737   1.263   6.448 -0.2918  0.3465  0.6565
 1458SOL    HW116010   0.027   1.221   6.366  1.8891  0.1565  1.4726
 1458SOL    HW216011   4.701   1.343   6.410  2.3837  0.7736 -1.0097
 1459SOL     OW16012   3.584   3.532   6.655  0.4971  0.5505  0.1206
 1459SOL    HW116013   3.592   3.605   6.592 -0.0648 -0.1679 -0.7831
 1459SOL    HW216014   3.551   3.584   6.728  2.5375 -1.3548  2.3624
 1460SOL     OW16015   1.100   1.489  10.692  0.0151 -0.2630  0.5683
 1460SOL    HW116016   1.128   1.572  10.653 -1.7734  0.3622  0.6220
 1460SOL    HW216017   1.172   1.434  10.662  1.6526  0.8391  2.5262
 1461SOL     OW16018   4.641   0.890  13.339 -0.2370 -0.0449  0.2781
 1461SOL    HW116019   4.732   0.900  13.367  0.2234  2.3161 -2.0686
 1461SOL    HW216020   4.593   0.941  13.404  0.2897  1.6870 -0.6753
 1462SOL     OW16021   0.610   1.732   6.909  0.5966 -0.3790 -0.2975
 1462SOL    HW116022   0.539   1.708   6.848  1.3967  0.1650 -1.4443
 1462SOL    HW216023   0.687   1.707   6.859  0.3969 -0.3740 -0.6124
 1463SOL     OW16024   1.977   3.276   2.653 -0.5350  0.1851 -0.5921
 1463SOL    HW116025   2.020   3.203   2.698  1.6929  1.7617 -0.1433
 1463SOL    HW216026   1.956   3.246   2.565 -2.6501  0.1846 -0.0811
 1464SOL     OW16027   2.949   2.491   4.466  0.0513  0.3876 -0.1715
 1464SOL    HW116028   2.871   2.543   4.485 -0.2205 -0.9390  2.3528
 1464SOL    HW216029   3.012   2.524   4.531 -2.0419  0.9991  1.5631
 1465SOL     OW16030   0.731   2.001   6.360 -0.1569 -0.0036  0.2127
 1465SOL    HW116031   0.785   1.951   6.421 -1.4156 -2.1566 -0.4153
 1465SOL    HW216032   0.754   2.091   6.382 -1.2278  0.5391 -0.8617
 1466SOL     OW16033   1.711   1.012   2.985  0.6661 -0.7383 -0.2773
 1466SOL    HW116034   1.785   1.025   2.924 -0.6097  0.5058 -1.5538
 1466SOL    HW216035   1.691   1.104   3.000 -2.1528 -1.2921 -0.7109
 1467SOL     OW16036   4.685   1.655   9.780  0.3510 -0.2503 -0.1850
 1467SOL    HW116037   4.709   1.726   9.721  0.6792  0.5119  0.8643
 1467SOL    HW216038   4.687   1.573   9.730 -0.2893  0.4294 -1.2966
 1468SOL     OW16039   1.595   0.128  17.585 -0.1377 -0.0635 -0.3992
 1468SOL    HW116040   1.647   0.205  17.607 -3.9145  1.7842  2.0265
 1468SOL    HW216041   1.586   0.135  17.491 -0.1245 -1.4616 -0.5116
 1469SOL     OW16042   3.358   1.019  16.371  0.3984  0.0474 -0.5547
 1469SOL    HW116043   3.294   1.085  16.342 -0.6297 -0.9925 -0.6606
 1469SOL    HW216044   3.300   0.943  16.367  1.4005 -0.7168 -0.3469
 1470SOL     OW16045   3.093   2.565   1.939 -0.2931  0.3008 -0.3669
 1470SOL    HW116046   3.008   2.531   1.911 -0.1485 -0.2473 -0.1403
 1470SOL    HW216047   3.124   2.511   2.011 -0.1083  2.4150  1.1446
 1471SOL     OW16048   3.370   2.973   2.028  0.5661  0.4074  0.0706
 1471SOL    HW116049   3.303   2.905   2.040  2.4312 -1.4239  0.1621
 1471SOL    HW216050   3.421   2.959   2.107  0.3225  2.1569  0.5318
 1472SOL     OW16051   0.925   1.270  16.940  0.4063 -1.0450 -0.4975
 1472SOL    HW116052   1.018   1.259  16.963  0.7261  1.6938 -0.4390
 1472SOL    HW216053   0.934   1.299  16.849 -0.2119  0.1491 -0.1745
 1473SOL     OW16054   0.070   0.854   9.163  0.0491  0.1287  0.0160
 1473SOL    HW116055   0.060   0.912   9.088 -1.6279  0.4191  0.4687
 1473SOL    HW216056   0.057   0.768   9.123 -1.8290  0.0710  0.7538
 1474SOL     OW16057   2.114   0.200   6.154  0.5869 -0.9352  0.0951
 1474SOL    HW116058   2.031   0.176   6.113  0.6692  1.0565 -1.2714
 1474SOL    HW216059   2.095   0.293   6.170 -0.4029 -0.8794 -1.3479
 1475SOL     OW16060   2.834   3.845   2.736  0.2142  0.4191 -0.0267
 1475SOL    HW116061   2.785   3.838   2.654  0.5238 -0.4558 -0.1359
 1475SOL    HW216062   2.922   3.850   2.700 -0.0652 -1.4932 -0.9860
 1476SOL     OW16063   3.202   3.292   2.492 -0.6755 -0.1640 -0.2570
 1476SOL    HW116064   3.156   3.212   2.518  1.2184 -0.5878  1.7834
 1476SOL    HW216065   3.260   3.297   2.568  1.5446  0.1263 -1.9593
 1477SOL     OW16066   3.282   1.656   6.469 -0.4437 -0.3183  0.3295
 1477SOL    HW116067   3.191   1.628   6.478 -0.3549 -1.1110 -1.3975
 1477SOL    HW216068   3.329   1.581   6.433  1.9486  0.8178  1.1189
 1478SOL     OW16069   0.616   3.000   6.803  0.3065 -0.4054 -0.1705
 1478SOL    HW116070   0.686   2.935   6.814  2.0636  1.0201 -3.1329
 1478SOL    HW216071   0.665   3.076   6.771  0.7368 -0.6189 -0.0249
 1479SOL     OW16072   0.529   1.462   9.585  0.0024 -0.2222  0.3579
 1479SOL    HW116073   0.458   1.414   9.628 -1.9489  0.3079 -2.2706
 1479SOL    HW216074   0.552   1.517   9.660  0.7740 -0.5880  0.3801
 1480SOL     OW16075   1.260   0.563   8.801  0.2060 -0.3304 -0.0363
 1480SOL    HW116076   1.317   0.487   8.790  0.3416 -0.0578 -1.1800
 1480SOL    HW216077   1.247   0.551   8.895  1.8311 -0.8928  0.1130
 1481SOL     OW16078   4.134   2.528   1.384  0.4538  0.2697  0.0774
 1481SOL    HW116079   4.067   2.487   1.438  1.5295 -0.5547  0.7749
 1481SOL    HW216080   4.091   2.598   1.334 -0.0362  0.4438  0.7524
 1482SOL     OW16081   4.106   3.619  16.663 -0.2319  0.0779 -0.1479
 1482SOL    HW116082   4.061   3.535  16.664  2.3036 -1.2923 -1.7531
 1482SOL    HW216083   4.196   3.594  16.640  0.3162  0.9804  1.0040
 1483SOL     OW16084   3.932   3.380  16.725 -0.5021 -0.4449 -0.3380
 1483SOL    HW116085   3.865   3.407  16.788 -1.2433 -1.0285 -0.8590
 1483SOL    HW216086   3.957   3.304  16.777  0.7794 -0.3586 -0.8466
 1484SOL     OW16087   2.679   0.108   4.505 -0.1311 -0.5926 -0.1604
 1484SOL    HW116088   2.619   0.094   4.432 -0.1172  2.6578 -0.7947
 1484SOL    HW216089   2.643   0.180   4.557  1.1520  0.6883 -1.0306
 1485SOL     OW16090   2.770   0.928   4.812 -0.0315  0.6076 -0.0188
 1485SOL    HW116091   2.858   0.942   4.847  0.6098  0.5591 -1.5795
 1485SOL    HW216092   2.725   0.918   4.896  0.0365  2.4968  0.2373
 1486SOL     OW16093   3.466   2.689   3.914 -0.7937 -0.1105 -0.1945
 1486SOL    HW116094   3.535   2.724   3.971  0.0829  2.3279 -2.7530
 1486SOL    HW216095   3.460   2.757   3.847  0.2191  1.3318  1.1647
 1487SOL     OW16096   2.448   0.309   2.477  0.0331 -0.8676 -0.3509
 1487SOL    HW116097   2.520   0.366   2.450  2.9995 -3.3973  2.0950
 1487SOL    HW216098   2.469   0.284   2.567  0.8409  1.5833  0.1188
 1488SOL     OW16099   4.437   2.749   7.595  0.5803  0.1030 -0.0843
 1488SOL    HW116100   4.425   2.819   7.660 -0.6430  0.4864 -0.7040
 1488SOL    HW216101   4.349   2.711   7.594  0.2376  0.8162  2.6463
 1489SOL     OW16102   3.312   0.440   5.215 -0.4292 -0.4984 -0.2495
 1489SOL    HW116103   3.308   0.426   5.121 -0.3478  0.9846 -0.4815
 1489SOL    HW216104   3.383   0.385   5.248 -0.6745 -0.1761  0.8249
 1490SOL     OW16105   1.194   2.121   7.290  0.7864 -0.8220  0.4288
 1490SOL    HW116106   1.107   2.091   7.319 -1.2850  0.9952 -3.8848
 1490SOL    HW216107   1.171   2.213   7.302 -0.0596 -0.8108 -1.2495
 1491SOL     OW16108   0.618   0.269   2.274 -0.5921  0.1005  0.8068
 1491SOL    HW116109   0.664   0.229   2.200  1.9466  2.6819  0.9862
 1491SOL    HW216110   0.616   0.193   2.332  0.1082 -0.5585 -0.0244
 1492SOL     OW16111   0.594   4.100  15.579 -0.5299  0.0478 -0.0765
 1492SOL    HW116112   0.629   4.149  15.654 -2.3381  1.1219  0.0621
 1492SOL    HW216113   0.563   4.173  15.526  2.0122  0.3331 -1.1481
 1493SOL     OW16114   0.921   1.436   9.593 -0.5223  0.1878 -0.2701
 1493SOL    HW116115   0.881   1.486   9.522 -3.9343 -1.8940  0.1450
 1493SOL    HW216116   0.844   1.436   9.651 -1.1653  2.2701 -1.1294
 1494SOL     OW16117   2.852   4.639  14.087 -0.0964  0.1909  0.5122
 1494SOL    HW116118   2.811   4.700  14.149 -1.1950  1.7450 -1.7467
 1494SOL    HW216119   2.822   4.560  14.132 -1.0771  0.1388 -0.2277
 1495SOL     OW16120   3.894   4.149  15.036 -0.0525 -0.0577  0.0192
 1495SOL    HW116121   3.910   4.243  15.028  0.9506 -0.1514  0.9930
 1495SOL    HW216122   3.963   4.108  14.983 -1.3317 -2.7061  0.4007
 1496SOL     OW16123   4.046   0.204   5.386  0.1366  0.2449  0.6931
 1496SOL    HW116124   3.967   0.228   5.337 -0.1725  1.5990  1.8764
 1496SOL    HW216125   4.027   0.230   5.476 -0.3564  1.5565  0.2139
 1497SOL     OW16126   2.748   2.381   3.124  0.3871  0.1424  0.7039
 1497SOL    HW116127   2.803   2.309   3.153  1.6415  1.0748  0.6289
 1497SOL    HW216128   2.660   2.361   3.157  0.5199 -0.2097  0.8461
 1498SOL     OW16129   0.346   3.868  16.400 -0.2157  0.3008  0.0077
 1498SOL    HW116130   0.396   3.840  16.477  1.2454 -0.5448 -1.2448
 1498SOL    HW216131   0.403   3.933  16.358  0.1089 -0.2649 -0.4145
 1499SOL     OW16132   1.328   3.651   3.805 -0.5455 -0.0322 -0.2387
 1499SOL    HW116133   1.280   3.582   3.759  0.7130 -1.1530  0.1170
 1499SOL    HW216134   1.413   3.608   3.822 -1.9862 -2.3139  1.2353
 1500SOL     OW16135   0.764   0.697   0.392 -0.5893 -0.5567  0.6077
 1500SOL    HW116136   0.738   0.641   0.319 -0.3571  0.3271 -0.1563
 1500SOL    HW216137   0.680   0.743   0.398 -0.4574 -0.0900 -1.0245
 1501SOL     OW16138   0.261   4.138   7.636  0.2151 -0.0851 -0.1013
 1501SOL    HW116139   0.185   4.182   7.674  0.0395 -0.2657 -0.2469
 1501SOL    HW216140   0.266   4.067   7.700  1.6126  0.4932  0.4278
 1502SOL     OW16141   0.906   1.594   6.434  0.5357  0.2230  0.2437
 1502SOL    HW116142   0.903   1.689   6.426  2.4491  0.2900  0.3414
 1502SOL    HW216143   0.814   1.573   6.419  0.6743  0.4337 -0.9321
 1503SOL     OW16144   1.089   4.265   4.292  0.0566  0.2297 -0.1991
 1503SOL    HW116145   1.086   4.266   4.387  1.4912 -0.3022 -0.1456
 1503SOL    HW216146   1.030   4.194   4.267 -0.6428  0.1453  1.7443
 1504SOL     OW16147   0.441   0.424   3.945 -0.1655  0.1208  0.2641
 1504SOL    HW116148   0.496   0.354   3.979  0.4883  0.7255  0.4410
 1504SOL    HW216149   0.435   0.480   4.022  0.6029  0.2457  0.2303
 1505SOL     OW16150   0.247   3.524  17.149  0.5390 -0.1460 -0.2554
 1505SOL    HW116151   0.281   3.449  17.197  0.6010  1.5442  2.2895
 1505SOL    HW216152   0.236   3.482  17.063 -0.6182  1.8607 -1.0729
 1506SOL     OW16153   1.976   4.102   3.322 -0.2762 -0.3142  0.0956
 1506SOL    HW116154   2.000   4.042   3.392 -1.1828  0.4524  1.0533
 1506SOL    HW216155   2.047   4.166   3.320 -1.6744  1.2661  1.9065
 1507SOL     OW16156   0.114   2.429   3.608  0.1661 -0.9949 -0.0016
 1507SOL    HW116157   0.184   2.366   3.627 -0.2978 -1.6340 -0.4007
 1507SOL    HW216158   0.090   2.461   3.695  1.7790 -0.9268  0.4093
 1508SOL     OW16159   0.778   2.536   3.697  0.2210  0.1791  0.0447
 1508SOL    HW116160   0.873   2.546   3.698  0.2451  0.0569 -1.0761
 1508SOL    HW216161   0.752   2.497   3.614  0.8990  0.1417 -0.1479
 1509SOL     OW16162   2.919   4.385   5.890  0.6223  0.0334 -0.0641
 1509SOL    HW116163   2.984   4.451   5.913 -0.0587  0.1521  1.4764
 1509SOL    HW216164   2.846   4.413   5.944 -0.3729  0.6366 -1.7077
 1510SOL     OW16165   1.554   4.663  10.135  0.5733  0.1876 -0.1504
 1510SOL    HW116166   1.627   4.703  10.087 -0.8564  1.1653 -1.5563
 1510SOL    HW216167   1.500   0.004  10.152  2.2932  0.3871  4.2475
 1511SOL     OW16168   0.337   2.489   4.472  0.8104 -0.1895  0.1751
 1511SOL    HW116169   0.426   2.459   4.490  0.2135 -1.8281  0.4242
 1511SOL    HW216170   0.276   2.421   4.501  0.4374  0.4710  0.9315
 1512SOL     OW16171   2.584   3.962   7.307  0.3272 -1.0480  0.8641
 1512SOL    HW116172   2.521   3.908   7.260  0.5712 -0.0015 -0.6806
 1512SOL    HW216173   2.547   3.948   7.394 -1.6859  0.9144  0.3417
 1513SOL     OW16174   3.584   2.731   4.977 -0.1744  0.0357  0.2141
 1513SOL    HW116175   3.565   2.773   4.893 -0.4876  0.2791  0.4072
 1513SOL    HW216176   3.613   2.805   5.031 -0.9789  0.5630 -0.0745
 1514SOL     OW16177   2.727   4.183   6.862 -0.0593 -0.1010 -0.0839
 1514SOL    HW116178   2.797   4.178   6.928  0.4073  0.8406 -0.5066
 1514SOL    HW216179   2.688   4.096   6.865 -1.3333  0.4488 -0.8638
 1515SOL     OW16180   4.261   3.703   8.543 -0.2613  0.3817 -0.5193
 1515SOL    HW116181   4.337   3.744   8.501  0.6205  0.1510  0.8232
 1515SOL    HW216182   4.211   3.662   8.473 -4.0115  1.2621  1.6498
 1516SOL     OW16183   2.161   2.772   4.505  0.0407  0.4422  0.2046
 1516SOL    HW116184   2.217   2.701   4.473 -2.9333 -1.4547 -0.8435
 1516SOL    HW216185   2.119   2.804   4.425 -2.1023  1.5033  1.7626
 1517SOL     OW16186   0.998   3.270   1.404  0.3365  0.0249 -0.3154
 1517SOL    HW116187   0.994   3.177   1.426  1.6892  0.0177 -0.1086
 1517SOL    HW216188   1.082   3.275   1.359  1.1579  0.5597  1.2673
 1518SOL     OW16189   0.928   1.390   6.822  0.6981  0.0805 -0.1064
 1518SOL    HW116190   0.866   1.337   6.771  2.7852 -0.4653 -2.0776
 1518SOL    HW216191   0.932   1.339   6.903 -0.6091  0.3258  0.1075
 1519SOL     OW16192   4.581   2.102   1.850  0.0113  0.1764  0.0945
 1519SOL    HW116193   4.647   2.158   1.890  0.0727  0.4045 -0.3375
 1519SOL    HW216194   4.585   2.021   1.902 -1.4034 -0.6772 -1.1169
 1520SOL     OW16195   0.617   1.602   9.794 -0.7156 -0.2535  0.2421
 1520SOL    HW116196   0.565   1.608   9.874  0.3953  3.5918  0.6699
 1520SOL    HW216197   0.699   1.575   9.835 -0.3476 -1.0911 -1.0474
 1521SOL     OW16198   1.762   0.096   8.897 -0.3975 -0.2107 -0.1004
 1521SOL    HW116199   1.688   0.075   8.954 -0.0273 -2.3267 -0.3966
 1521SOL    HW216200   1.803   0.162   8.953 -1.9201  0.7971 -0.1891
 1522SOL     OW16201   2.206   0.167   5.845  0.3026  0.1851 -0.2643
 1522SOL    HW116202   2.133   0.141   5.789 -0.3974  0.2486  0.6160
 1522SOL    HW216203   2.155   0.196   5.921 -1.4179  1.2807 -1.8330
 1523SOL     OW16204   3.498   0.575   9.683 -0.5268  0.1167 -0.2352
 1523SOL    HW116205   3.547   0.608   9.608 -0.2372  0.0432 -0.0793
 1523SOL    HW216206   3.445   0.507   9.642 -1.6516 -0.1479  1.6799
 1524SOL     OW16207   2.192   2.930   3.359  0.2759  0.1541  0.2548
 1524SOL    HW116208   2.266   2.902   3.305 -0.7153  0.3299 -1.1809
 1524SOL    HW216209   2.137   2.852   3.368  0.6454 -0.2495 -1.0283
 1525SOL     OW16210   0.807   2.235   2.822 -0.1518  0.2475  0.1309
 1525SOL    HW116211   0.751   2.164   2.854 -1.5561  1.7264  0.9275
 1525SOL    HW216212   0.756   2.253   2.743  0.9371 -1.2905 -0.9228
 1526SOL     OW16213   3.401   3.610   8.491  0.5399  0.5259 -0.0191
 1526SOL    HW116214   3.339   3.581   8.425 -0.0337 -0.1484  0.8084
 1526SOL    HW216215   3.457   3.665   8.437 -0.7073  1.3425 -0.5014
 1527SOL     OW16216   4.066   1.529   6.960  0.1670  0.0388 -0.2111
 1527SOL    HW116217   4.084   1.542   7.054  0.8798  1.1884 -0.5075
 1527SOL    HW216218   4.150   1.532   6.913 -0.2384 -1.3234 -1.0257
 1528SOL     OW16219   2.415   1.386  10.683 -0.1971 -0.2029 -0.0477
 1528SOL    HW116220   2.471   1.372  10.606 -1.9738  0.2946 -1.4369
 1528SOL    HW216221   2.352   1.315  10.676 -1.3338  0.4147  3.7575
 1529SOL     OW16222   3.067   2.292  14.257 -0.6115 -0.0841 -0.1638
 1529SOL    HW116223   3.034   2.230  14.322  1.0422  0.8054  1.5330
 1529SOL    HW216224   3.148   2.252  14.226 -0.1846  0.4211  0.2981
 1530SOL     OW16225   1.761   3.035   6.913  0.3971  0.3093  0.0731
 1530SOL    HW116226   1.679   3.081   6.897  0.9999  2.0896  2.1402
 1530SOL    HW216227   1.807   3.089   6.849 -0.8605 -0.1719 -1.2465
 1531SOL     OW16228   1.886   2.555   3.067  0.0859 -0.0455  0.1892
 1531SOL    HW116229   1.813   2.517   3.117  1.9486 -1.2159  2.0223
 1531SOL    HW216230   1.964   2.527   3.114 -1.0397 -0.9506  1.5572
 1532SOL     OW16231   2.420   4.194  10.617 -0.0344 -0.0297  0.0609
 1532SOL    HW116232   2.423   4.110  10.571  1.2342 -0.9929  1.9384
 1532SOL    HW216233   2.333   4.216  10.583 -0.7804 -0.6766  1.5585
 1533SOL     OW16234   1.818   2.876   1.801 -0.4392 -0.2282  0.3317
 1533SOL    HW116235   1.896   2.932   1.798 -1.0736  0.6317 -0.1641
 1533SOL    HW216236   1.833   2.845   1.891 -3.3751  0.7951  1.1871
 1534SOL     OW16237   2.300   4.184  13.209 -0.3927  0.9168  0.0574
 1534SOL    HW116238   2.225   4.152  13.260  0.3426 -1.8929 -0.6529
 1534SOL    HW216239   2.313   4.272  13.245  0.1828  1.7543 -2.2299
 1535SOL     OW16240   1.476   1.057  13.297  0.5049  0.3844  0.2428
 1535SOL    HW116241   1.568   1.030  13.304  1.2414  2.7127 -0.6311
 1535SOL    HW216242   1.492   1.148  13.275  0.7035 -0.4644 -3.0473
 1536SOL     OW16243   2.564   1.468  11.201 -0.0526 -0.0974  0.6971
 1536SOL    HW116244   2.573   1.562  11.189  0.8566 -0.2895 -0.1001
 1536SOL    HW216245   2.531   1.434  11.118 -2.1455 -0.3407  1.6236
 1537SOL     OW16246   3.860   3.964   9.074  0.7876  0.0854  0.8332
 1537SOL    HW116247   3.826   3.936   9.159  3.3735  0.8478  2.1247
 1537SOL    HW216248   3.827   4.052   9.092 -0.9115 -0.7110  1.6519
 1538SOL     OW16249   1.759   1.695   7.630  0.2978 -0.2655 -0.1255
 1538SOL    HW116250   1.706   1.618   7.608  0.0971 -0.4704  1.0637
 1538SOL    HW216251   1.693   1.763   7.641 -0.2665 -0.6167 -1.4166
 1539SOL     OW16252   0.388   1.768   4.303 -0.1285  0.1458  0.0515
 1539SOL    HW116253   0.465   1.814   4.336  1.0002 -0.1245 -2.2467
 1539SOL    HW216254   0.316   1.792   4.362  1.1039 -0.4058  1.7532
 1540SOL     OW16255   0.367   0.448  10.097 -0.5398 -0.2075 -0.5223
 1540SOL    HW116256   0.358   0.378  10.162 -2.0980  0.0154 -0.5008
 1540SOL    HW216257   0.450   0.493  10.115 -0.8961  0.3768 -0.3449
 1541SOL     OW16258   3.068   0.493   5.950 -0.2746  0.2139  0.1524
 1541SOL    HW116259   3.024   0.438   5.885  1.4467  1.1889 -1.8298
 1541SOL    HW216260   3.000   0.490   6.017 -0.5855  1.0329 -0.1212
 1542SOL     OW16261   3.877   3.464  13.108 -0.0519 -0.4063  0.2744
 1542SOL    HW116262   3.809   3.529  13.125 -0.2405 -0.5486  0.0833
 1542SOL    HW216263   3.852   3.403  13.177 -0.8154  0.4570  0.7571
 1543SOL     OW16264   3.425   2.943   5.583  0.1723  0.0670  0.2152
 1543SOL    HW116265   3.384   3.019   5.625 -3.5334 -0.3849 -2.5133
 1543SOL    HW216266   3.483   2.991   5.525  1.3717 -2.2497 -0.5079
 1544SOL     OW16267   4.719   4.590   4.659  0.3721  0.1550  0.4653
 1544SOL    HW116268   0.064   4.628   4.628  1.1309  0.5427  2.9943
 1544SOL    HW216269   0.012   4.522   4.719 -0.6406  1.7668  2.7828
 1545SOL     OW16270   4.461   2.687  13.413 -0.4379 -0.6505 -0.2668
 1545SOL    HW116271   4.482   2.614  13.355 -0.5838 -0.8574 -0.0590
 1545SOL    HW216272   4.431   2.750  13.347  2.0746  1.1398  0.2680
 1546SOL     OW16273   0.392   1.687   6.754 -0.2842  0.0030  0.3848
 1546SOL    HW116274   0.327   1.634   6.801 -1.1089  0.8675  0.2278
 1546SOL    HW216275   0.407   1.619   6.688  2.2710  1.1460 -0.2055
 1547SOL     OW16276   0.352   4.258   5.316 -0.6117 -0.2653  0.0623
 1547SOL    HW116277   0.312   4.171   5.320  1.2303 -1.1725 -0.9749
 1547SOL    HW216278   0.380   4.260   5.225  1.5495  1.6074  0.7801
 1548SOL     OW16279   0.700   4.072   6.924  0.0745  0.6926  0.4173
 1548SOL    HW116280   0.714   4.163   6.898  1.9776  0.2653 -0.1040
 1548SOL    HW216281   0.625   4.048   6.869  1.9777 -0.7042 -1.5951
 1549SOL     OW16282   2.879   4.719   3.825  0.1611 -0.0857  0.0137
 1549SOL    HW116283   2.844   4.698   3.912  1.6524 -0.2039  0.5854
 1549SOL    HW216284   2.934   0.057   3.850  0.4244 -1.5204  3.6959
 1550SOL     OW16285   1.615   2.624   7.799  0.5408 -0.5271  0.1362
 1550SOL    HW116286   1.600   2.537   7.762 -1.8567  0.1397 -0.3977
 1550SOL    HW216287   1.643   2.670   7.720 -0.3716  0.1680  0.2305
 1551SOL     OW16288   2.105   4.144   9.125  0.5403 -0.5347  0.2853
 1551SOL    HW116289   2.046   4.206   9.168  1.3380  1.0445 -0.9289
 1551SOL    HW216290   2.184   4.159   9.176  0.9814 -2.5774  0.2213
 1552SOL     OW16291   3.381   0.378   9.541  0.3699  0.2197 -0.1406
 1552SOL    HW116292   3.309   0.329   9.578  1.0761  0.2949  1.3220
 1552SOL    HW216293   3.357   0.381   9.448 -3.3066 -0.2418  0.8002
 1553SOL     OW16294   3.348   3.967   7.210 -0.3441  0.1627 -0.6422
 1553SOL    HW116295   3.311   3.920   7.135 -0.9686  1.0937 -0.9250
 1553SOL    HW216296   3.280   4.033   7.221 -0.5576  0.3081 -2.8343
 1554SOL     OW16297   0.358   2.097   2.400 -0.1534  0.3062 -0.4040
 1554SOL    HW116298   0.270   2.061   2.391 -0.1827  0.5640 -1.0783
 1554SOL    HW216299   0.399   2.013   2.377  0.5252  0.9730 -1.6007
 1555SOL     OW16300   2.382   2.249  13.830  0.6251  0.0730  0.2689
 1555SOL    HW116301   2.423   2.206  13.755 -0.3430 -0.1884 -0.1143
 1555SOL    HW216302   2.293   2.257  13.794  0.3573 -0.8517  0.7147
 1556SOL     OW16303   3.533   3.969   2.730 -0.3989 -0.1092 -0.0231
 1556SOL    HW116304   3.462   4.000   2.786 -0.4101 -0.1468 -0.0167
 1556SOL    HW216305   3.550   4.053   2.687 -1.2715 -0.3458 -0.8245
 1557SOL     OW16306   4.489   1.563   3.410  0.2582 -0.2641  0.0108
 1557SOL    HW116307   4.518   1.626   3.344 -2.1590 -1.9186 -2.6441
 1557SOL    HW216308   4.441   1.501   3.356 -0.0781  0.0667 -0.0718
 1558SOL     OW16309   3.581   3.054   7.705  0.1019 -0.1849  0.6928
 1558SOL    HW116310   3.640   3.098   7.643  2.2937 -1.6520  1.7556
 1558SOL    HW216311   3.583   2.962   7.681 -1.8518 -0.1071  0.2145
 1559SOL     OW16312   0.458   3.122   5.376  0.4138  0.0049 -0.0957
 1559SOL    HW116313   0.501   3.161   5.452  0.4727 -0.7040  0.2414
 1559SOL    HW216314   0.461   3.027   5.393  0.9047 -0.0528 -0.5071
 1560SOL     OW16315   0.696   3.391   3.111 -0.5022  0.4404  0.7997
 1560SOL    HW116316   0.695   3.420   3.202  0.4709 -0.0443  0.9724
 1560SOL    HW216317   0.772   3.333   3.110 -1.9877 -1.4752 -0.8335
 1561SOL     OW16318   4.144   2.329   4.137 -0.1223 -0.5484  0.0169
 1561SOL    HW116319   4.213   2.387   4.107 -1.5972  0.2243 -1.9083
 1561SOL    HW216320   4.099   2.384   4.201 -2.0749 -1.7340 -0.3241
 1562SOL     OW16321   3.720   3.434   7.352 -0.1197 -0.5295  0.0430
 1562SOL    HW116322   3.679   3.509   7.310 -1.9700 -0.8206  1.3276
 1562SOL    HW216323   3.725   3.372   7.279 -1.6936  0.7558 -1.1652
 1563SOL     OW16324   4.352   3.440   1.224 -0.1719  0.2068  0.3008
 1563SOL    HW116325   4.357   3.535   1.228  1.3521  0.0709  1.9117
 1563SOL    HW216326   4.376   3.418   1.315  0.6238 -2.3258 -0.5052
 1564SOL     OW16327   1.860   3.633   3.884  0.1112  0.2217 -0.4481
 1564SOL    HW116328   1.933   3.607   3.941 -1.2008 -0.8076  0.7653
 1564SOL    HW216329   1.886   3.599   3.798 -1.0785  0.2256 -0.7971
 1565SOL     OW16330   0.309   1.547   8.720 -0.3674 -0.3138  0.0483
 1565SOL    HW116331   0.371   1.591   8.661 -1.3677  0.7365 -0.1977
 1565SOL    HW216332   0.224   1.557   8.678 -0.7959  2.4820  1.6304
 1566SOL     OW16333   0.971   3.917  13.681 -0.2953  0.0131  0.5945
 1566SOL    HW116334   1.040   3.851  13.671 -1.1381 -0.6796 -0.5581
 1566SOL    HW216335   0.940   3.934  13.593 -1.0829 -2.8243  0.3163
 1567SOL     OW16336   4.515   4.563   2.872 -0.3366 -0.2355 -0.3532
 1567SOL    HW116337   4.584   4.629   2.862  0.5187 -0.9198  0.9641
 1567SOL    HW216338   4.490   4.577   2.964  0.6071 -1.1249  0.0380
 1568SOL     OW16339   2.791   1.895   9.987  0.2007  0.4110 -0.8827
 1568SOL    HW116340   2.842   1.815   9.979 -0.6295 -0.1253 -0.8688
 1568SOL    HW216341   2.841   1.934   9.915 -1.4147  0.9274 -1.7244
 1569SOL     OW16342   1.381   3.310   9.626  0.5559 -0.0428  0.2662
 1569SOL    HW116343   1.348   3.345   9.543 -0.5481  1.3756  1.3150
 1569SOL    HW216344   1.357   3.379   9.688  0.5292  3.0037 -3.1435
 1570SOL     OW16345   1.183   0.778   4.432  0.2164 -0.0288  0.0066
 1570SOL    HW116346   1.242   0.728   4.487  1.2062 -0.1863 -1.2010
 1570SOL    HW216347   1.157   0.850   4.490 -1.0534 -1.5936  1.3817
 1571SOL     OW16348   2.400   2.485   1.728  0.3988  0.3994  0.1211
 1571SOL    HW116349   2.403   2.433   1.808 -0.4948  1.1300  0.6199
 1571SOL    HW216350   2.334   2.555   1.732  0.4978  0.4264  1.1025
 1572SOL     OW16351   2.891   2.169   3.188 -0.6545  0.0907  0.3337
 1572SOL    HW116352   2.976   2.185   3.229  0.1550 -0.0664 -1.2706
 1572SOL    HW216353   2.927   2.114   3.119 -1.7050 -0.2505  0.0565
 1573SOL     OW16354   0.695   2.772   9.098 -0.0923  0.3268 -0.5526
 1573SOL    HW116355   0.599   2.775   9.104 -0.2671 -0.3758 -2.9255
 1573SOL    HW216356   0.712   2.861   9.068  1.6109  0.1590 -0.0960
 1574SOL     OW16357   1.808   4.468   0.781  0.5498  0.2898 -0.1267
 1574SOL    HW116358   1.869   4.542   0.785  0.2668  0.5024  0.2138
 1574SOL    HW216359   1.836   4.421   0.702  0.0713 -0.4106  0.1231
 1575SOL     OW16360   0.004   0.287  14.614 -0.1789 -0.4992  0.7337
 1575SOL    HW116361   4.676   0.353  14.592 -0.0693 -0.3526  0.8517
 1575SOL    HW216362   0.052   0.347  14.672  1.0582 -1.2624  0.4907
 1576SOL     OW16363   0.158   4.509   4.334 -0.0120 -0.5743 -0.1076
 1576SOL    HW116364   0.103   4.435   4.308 -1.6892  0.2746  1.0657
 1576SOL    HW216365   0.086   4.570   4.345  0.9343  0.2827  1.3024
 1577SOL     OW16366   4.437   0.949   6.013  0.1706  0.7733  0.1126
 1577SOL    HW116367   4.395   0.979   5.932 -2.2261 -0.2522  1.0115
 1577SOL    HW216368   4.415   1.017   6.077  0.5576  1.2655 -0.2695
 1578SOL     OW16369   0.759   1.254  13.113  0.4255 -0.2180  0.0276
 1578SOL    HW116370   0.788   1.163  13.118 -0.5538 -0.5846 -0.8812
 1578SOL    HW216371   0.834   1.313  13.119 -0.3264  0.9390 -1.6957
 1579SOL     OW16372   1.157   1.688   8.586  0.2694 -0.1287 -0.0441
 1579SOL    HW116373   1.125   1.601   8.561 -0.5875  0.8964 -2.5429
 1579SOL    HW216374   1.170   1.719   8.496  0.3496  1.0290  0.3595
 1580SOL     OW16375   2.063   4.731   4.372 -0.3927  0.0543 -0.0738
 1580SOL    HW116376   2.021   4.704   4.290  1.9614  0.7402 -1.5221
 1580SOL    HW216377   2.146   4.683   4.377  0.7064  2.0528  0.6927
 1581SOL     OW16378   3.404   0.167   0.723 -0.5220 -1.1185  0.1473
 1581SOL    HW116379   3.449   0.143   0.805 -0.4618 -1.1171  0.1146
 1581SOL    HW216380   3.481   0.189   0.670 -0.3231 -1.0838  0.4458
 1582SOL     OW16381   1.160   1.408   6.675  0.0072  0.4867 -0.2746
 1582SOL    HW116382   1.174   1.485   6.619 -0.7955  0.1633 -0.9184
 1582SOL    HW216383   1.089   1.442   6.729  1.0364  0.7277  0.9169
 1583SOL     OW16384   1.629   3.355  10.930 -0.1466 -0.4261 -0.3232
 1583SOL    HW116385   1.714   3.313  10.916 -0.9314 -1.5257 -1.8378
 1583SOL    HW216386   1.576   3.279  10.952 -0.4015  0.5468  2.3343
 1584SOL     OW16387   0.847   3.340  11.665  0.1586  0.0171  0.1403
 1584SOL    HW116388   0.778   3.350  11.730  0.7528  1.9764  0.4789
 1584SOL    HW216389   0.899   3.419  11.681  0.1257  0.1151 -0.2251
 1585SOL     OW16390   1.739   2.236   8.545 -0.1528  0.0838 -0.5495
 1585SOL    HW116391   1.775   2.323   8.528 -0.0701 -0.3455 -2.6133
 1585SOL    HW216392   1.798   2.188   8.486 -1.2442 -0.4046 -1.2496
 1586SOL     OW16393   2.740   2.712   7.587  0.2999  0.5152  0.2642
 1586SOL    HW116394   2.736   2.660   7.506 -3.3654  1.8935 -0.4139
 1586SOL    HW216395   2.651   2.746   7.591 -0.0716 -0.3845 -0.4152
 1587SOL     OW16396   0.005   1.581  15.319  0.0267 -0.0042 -0.1838
 1587SOL    HW116397   0.009   1.513  15.386  1.1901 -0.0582 -0.3151
 1587SOL    HW216398   4.647   1.579  15.303  0.2086  2.1210 -1.6280
 1588SOL     OW16399   4.715   2.043   7.472  0.6440  0.5574  0.1846
 1588SOL    HW116400   4.735   1.952   7.447 -0.9604  0.2176  0.1029
 1588SOL    HW216401   0.054   2.086   7.433 -0.2783  0.6047 -1.5228
 1589SOL     OW16402   2.715   0.049   7.112 -0.0364  0.4000  0.1794
 1589SOL    HW116403   2.711   4.699   7.071 -2.7637  0.4603  0.3410
 1589SOL    HW216404   2.627   0.085   7.102 -0.0432  0.1747 -0.5562
 1590SOL     OW16405   0.964   0.075   6.323  0.3793  0.1252  0.0546
 1590SOL    HW116406   0.879   0.036   6.341 -0.1720  0.5601 -1.6612
 1590SOL    HW216407   0.950   0.131   6.247  1.4235  0.4303  0.0830
 1591SOL     OW16408   3.445   0.670   9.023  0.3539 -0.1024 -0.3135
 1591SOL    HW116409   3.468   0.761   9.041 -0.6413  0.5241 -2.1997
 1591SOL    HW216410   3.508   0.656   8.952  0.7559 -2.3903  0.4850
 1592SOL     OW16411   2.871   1.880  14.527 -0.1771 -0.2870  0.1291
 1592SOL    HW116412   2.916   1.962  14.549  1.1886 -1.2923  1.0976
 1592SOL    HW216413   2.917   1.814  14.579 -0.7153 -1.0661 -0.3893
 1593SOL     OW16414   4.350   4.094  13.262 -0.0115  0.3592  0.7416
 1593SOL    HW116415   4.413   4.155  13.222 -0.4586 -0.0552 -0.6038
 1593SOL    HW216416   4.270   4.114  13.214 -0.2575 -0.0328  0.9862
 1594SOL     OW16417   0.060   4.032   3.467 -0.0443  0.1562  0.2098
 1594SOL    HW116418   0.123   3.982   3.416 -1.5052 -0.4492 -1.0221
 1594SOL    HW216419   0.108   4.046   3.549 -0.8869  0.1399  0.7103
 1595SOL     OW16420   4.530   4.178   2.110 -0.0025  0.4020 -0.5384
 1595SOL    HW116421   4.522   4.173   2.205 -0.4812  0.1849 -0.5878
 1595SOL    HW216422   4.547   4.272   2.107 -2.7165  0.8544 -1.9137
 1596SOL     OW16423   4.518   3.580  15.610 -0.1874 -0.4780  0.0402
 1596SOL    HW116424   4.471   3.536  15.539 -2.0629  3.1760 -0.9751
 1596SOL    HW216425   4.603   3.583  15.566  0.7860  0.6971  2.0677
 1597SOL     OW16426   2.312   2.328  14.098  0.2713 -0.2303 -0.3328
 1597SOL    HW116427   2.404   2.305  14.083  0.1284  0.0207 -1.5938
 1597SOL    HW216428   2.267   2.300  14.018 -2.6642 -0.4276  1.4028
 1598SOL     OW16429   2.635   1.652  13.099 -0.1831  0.2945  0.0826
 1598SOL    HW116430   2.632   1.620  13.189  0.2841  0.7715  0.2674
 1598SOL    HW216431   2.593   1.583  13.047  1.5566 -0.4960 -0.2529
 1599SOL     OW16432   0.464   1.131   7.534  0.3090 -0.0607  0.1389
 1599SOL    HW116433   0.544   1.123   7.481  0.0729 -0.7879 -0.1018
 1599SOL    HW216434   0.401   1.148   7.464 -0.5786 -1.0355  0.7089
 1600SOL     OW16435   3.772   3.696  11.722 -0.2664 -0.3717  0.1082
 1600SOL    HW116436   3.677   3.698  11.735 -0.2206  0.2179  0.3611
 1600SOL    HW216437   3.780   3.685  11.627 -0.6861 -0.6198  0.1001
 1601SOL     OW16438   3.568   1.487  14.170  0.3860  0.4837 -0.5165
 1601SOL    HW116439   3.597   1.578  14.174  0.8980  0.1974  2.4813
 1601SOL    HW216440   3.640   1.442  14.215 -0.8611  1.4370  2.3801
 1602SOL     OW16441   3.738   0.764   8.465 -0.2159  0.7129  0.7626
 1602SOL    HW116442   3.740   0.727   8.377 -2.1619  1.1078  0.5389
 1602SOL    HW216443   3.826   0.743   8.495  0.5017  3.2013  0.4091
 1603SOL     OW16444   2.400   0.322   7.061  0.2801 -0.2455 -0.6632
 1603SOL    HW116445   2.434   0.304   7.149 -3.3190  1.1712  1.0162
 1603SOL    HW216446   2.405   0.418   7.068 -0.8364 -0.3263  1.3048
 1604SOL     OW16447   0.953   3.725   2.167  0.0591  0.9513  0.4847
 1604SOL    HW116448   0.934   3.816   2.189 -1.4725  0.0862  2.7203
 1604SOL    HW216449   0.875   3.703   2.117 -0.0729  1.2748  0.5463
 1605SOL     OW16450   4.230   0.033   7.415 -0.2770 -0.2206 -0.1446
 1605SOL    HW116451   4.245   0.058   7.506  0.8787 -1.7661  0.0861
 1605SOL    HW216452   4.269   4.682   7.411  2.1028  0.8584 -0.6758
 1606SOL     OW16453   3.935   4.560   5.552 -0.5363  0.1457  0.1890
 1606SOL    HW116454   4.018   4.525   5.584 -0.4701  0.4877  0.4004
 1606SOL    HW216455   3.868   4.505   5.594  1.0746 -1.1044  1.1177
 1607SOL     OW16456   1.102   0.248  13.978 -1.0169 -0.0764  0.7471
 1607SOL    HW116457   1.024   0.239  13.922  0.3785  0.3156 -1.2396
 1607SOL    HW216458   1.162   0.214  13.912  0.1652  1.4320  1.0500
 1608SOL     OW16459   4.080   0.217   4.951  0.3618 -0.0024  0.2969
 1608SOL    HW116460   4.175   0.208   4.959  0.5237  0.4462 -1.2373
 1608SOL    HW216461   4.048   0.178   5.033 -1.3369 -0.9518 -0.8137
 1609SOL     OW16462   4.217   2.130   2.405  0.1747  0.0556 -0.0253
 1609SOL    HW116463   4.302   2.138   2.449 -1.0043 -1.3819  2.5678
 1609SOL    HW216464   4.155   2.141   2.477 -0.6238  0.2249 -0.7446
 1610SOL     OW16465   0.072   2.448   3.322  0.3013 -0.1556 -0.1543
 1610SOL    HW116466   0.058   2.444   3.417  1.1956  1.5491  0.0310
 1610SOL    HW216467   4.719   2.442   3.290  0.4993 -1.3881 -0.4888
 1611SOL     OW16468   1.378   3.000   3.746 -0.1559 -0.3697 -0.5051
 1611SOL    HW116469   1.403   2.986   3.655  1.5710 -1.3359  0.1219
 1611SOL    HW216470   1.391   3.093   3.760  0.6027 -0.1805 -2.4315
 1612SOL     OW16471   3.535   2.514   4.335 -0.1161 -0.0286 -0.5695
 1612SOL    HW116472   3.503   2.439   4.284  1.0317 -1.0453  0.2258
 1612SOL    HW216473   3.447   2.546   4.357 -0.4465  0.1823 -2.1898
 1613SOL     OW16474   3.166   3.460   3.300  0.3815 -0.2278  0.7733
 1613SOL    HW116475   3.254   3.436   3.269  0.1639 -0.9531  0.7077
 1613SOL    HW216476   3.130   3.532   3.249  0.2083  0.0540  1.3016
 1614SOL     OW16477   3.780   1.156   2.817  0.3361 -0.0752  0.2106
 1614SOL    HW116478   3.788   1.236   2.869 -0.3185  1.6996 -2.4543
 1614SOL    HW216479   3.871   1.132   2.800 -0.0247 -1.8312  0.7348
 1615SOL     OW16480   1.042   4.591   7.348  0.0504 -0.2997  0.4338
 1615SOL    HW116481   0.979   4.564   7.282 -0.7333  0.9816  0.6511
 1615SOL    HW216482   1.070   4.676   7.312 -1.2127  0.4216  1.1780
 1616SOL     OW16483   4.383   0.398   9.165  0.2255  0.0328  0.2963
 1616SOL    HW116484   4.347   0.486   9.169 -2.4875 -1.0069 -1.2170
 1616SOL    HW216485   4.346   0.361   9.245 -0.1122  0.6629  0.4273
 1617SOL     OW16486   0.242   3.341   7.039 -0.7083  0.6473  0.0486
 1617SOL    HW116487   0.209   3.280   7.105  2.2134 -0.8558  0.0917
 1617SOL    HW216488   0.163   3.386   7.008  0.2521  1.4745 -1.1948
 1618SOL     OW16489   3.514   3.977   0.147 -0.7087  0.3769 -0.0833
 1618SOL    HW116490   3.445   4.023   0.195 -1.9062  0.3998 -1.8292
 1618SOL    HW216491   3.546   4.045   0.088  0.4546  0.0261  0.1413
 1619SOL     OW16492   1.562   0.571   5.375 -0.3999 -0.3672  0.1622
 1619SOL    HW116493   1.603   0.485   5.364  2.9102  1.3908 -1.2168
 1619SOL    HW216494   1.596   0.624   5.304  0.3670 -0.5510  0.3936
 1620SOL     OW16495   3.061   0.602   4.362  0.2801  0.2075  0.6278
 1620SOL    HW116496   3.018   0.669   4.416 -1.1919 -0.8060  0.6810
 1620SOL    HW216497   3.152   0.612   4.392  0.4966 -3.6796  1.1518
 1621SOL     OW16498   3.741   1.816   9.420 -0.2980 -0.0025 -0.4698
 1621SOL    HW116499   3.763   1.908   9.432  1.8681 -0.8239  1.7886
 1621SOL    HW216500   3.695   1.821   9.336  0.4534  1.1467 -0.8199
 1622SOL     OW16501   2.487   0.127   0.740  0.4017  0.6891 -0.6860
 1622SOL    HW116502   2.408   0.175   0.765 -0.9624 -2.4685  1.1522
 1622SOL    HW216503   2.547   0.146   0.812 -1.9323 -0.3563  1.5073
 1623SOL     OW16504   0.935   1.295   2.387 -0.3982  0.2258 -0.3702
 1623SOL    HW116505   0.851   1.248   2.382 -0.8304  0.7279  2.6096
 1623SOL    HW216506   0.959   1.252   2.468  2.5932  1.1932 -0.7698
 1624SOL     OW16507   0.966   4.587   7.744 -0.8583  0.3492 -0.1395
 1624SOL    HW116508   0.938   4.500   7.716  1.8250 -0.2540 -0.9783
 1624SOL    HW216509   1.060   4.587   7.725 -0.8373 -0.1076 -0.0309
 1625SOL     OW16510   2.288   4.614   2.799 -0.0724  0.0787  0.2447
 1625SOL    HW116511   2.257   4.688   2.851  0.5454  1.0655 -0.8103
 1625SOL    HW216512   2.352   4.566   2.851  1.1485 -0.0430 -1.3896
 1626SOL     OW16513   1.548   1.502   6.125 -0.1316 -0.4066 -0.0299
 1626SOL    HW116514   1.533   1.433   6.190 -1.2733 -0.4729 -0.3737
 1626SOL    HW216515   1.485   1.473   6.059 -0.5801 -1.1598  0.7348
 1627SOL     OW16516   0.258   3.600   6.760 -0.4957  0.4454 -0.3801
 1627SOL    HW116517   0.212   3.620   6.841  1.9594  3.0681  0.3527
 1627SOL    HW216518   0.233   3.510   6.737 -2.3676  0.1225  2.9088
 1628SOL     OW16519   4.152   2.509   8.707  0.0081  0.1476  0.4221
 1628SOL    HW116520   4.074   2.540   8.753 -0.0753  0.6875 -0.0871
 1628SOL    HW216521   4.138   2.417   8.731  1.1205  0.1447  1.0537
 1629SOL     OW16522   0.005   3.330   3.343 -0.1524 -0.4550  0.6228
 1629SOL    HW116523   0.071   3.364   3.284  0.0934  0.6605  1.5531
 1629SOL    HW216524   0.052   3.341   3.425 -0.6711 -0.0395  0.8704
 1630SOL     OW16525   0.570   0.022   2.779  0.1430 -0.6105 -0.0147
 1630SOL    HW116526   0.572   0.112   2.746  0.3104 -0.5227  0.2366
 1630SOL    HW216527   0.663   4.735   2.779  0.6541  1.4104  0.0111
 1631SOL     OW16528   4.736   0.236   8.371  0.4198  0.5390  0.8697
 1631SOL    HW116529   0.095   0.240   8.371  0.4650 -0.5251  0.6660
 1631SOL    HW216530   4.722   0.278   8.286  0.7196  1.4052  1.2521
 1632SOL     OW16531   2.229   0.674   8.832  0.1856 -0.9144  0.3704
 1632SOL    HW116532   2.284   0.638   8.762  0.9325 -0.5002  0.7417
 1632SOL    HW216533   2.173   0.740   8.793 -0.5788 -2.3624 -1.0013
 1633SOL     OW16534   2.709   2.035  12.441  0.2404  0.0829 -0.0815
 1633SOL    HW116535   2.642   1.990  12.493 -0.4623  1.6362  0.3382
 1633SOL    HW216536   2.789   2.006  12.485 -0.0130  0.7494  0.8180
 1634SOL     OW16537   3.211   0.140   2.129  0.0780  0.2772 -0.5417
 1634SOL    HW116538   3.123   0.170   2.105  0.4668  2.4995  0.8687
 1634SOL    HW216539   3.222   0.070   2.064  1.2107 -0.5302  0.4998
 1635SOL     OW16540   4.706   1.216   6.738 -0.3668  0.3454  0.1346
 1635SOL    HW116541   4.683   1.196   6.647  2.9409  1.1520 -0.8740
 1635SOL    HW216542   0.030   1.146   6.763  1.9000  2.4000  0.3408
 1636SOL     OW16543   0.688   3.971   7.648 -0.3238 -0.1433  0.3135
 1636SOL    HW116544   0.662   4.061   7.627  1.0302  0.4412  1.1236
 1636SOL    HW216545   0.783   3.976   7.634 -0.0420 -1.9266  1.6861
 1637SOL     OW16546   2.068   2.220   3.691 -0.4054  0.2628 -0.1881
 1637SOL    HW116547   2.032   2.133   3.707  1.3283 -0.0551  1.8810
 1637SOL    HW216548   2.014   2.273   3.749 -0.6162  1.1601 -1.1906
 1638SOL     OW16549   1.314   2.122  12.350  0.1835  0.2779 -0.4552
 1638SOL    HW116550   1.344   2.126  12.440  2.4029 -1.6157 -1.1089
 1638SOL    HW216551   1.233   2.071  12.355  0.2004  0.2056 -0.8959
 1639SOL     OW16552   1.205   0.341   2.119  0.0613 -0.1488 -0.2551
 1639SOL    HW116553   1.228   0.363   2.028 -0.9629  1.4100 -0.1299
 1639SOL    HW216554   1.129   0.287   2.099 -0.5977  0.8932 -0.5832
 1640SOL     OW16555   0.580   2.738  16.282  0.3354  0.3508  0.0248
 1640SOL    HW116556   0.511   2.744  16.217 -0.8543 -0.0190  1.2602
 1640SOL    HW216557   0.640   2.804  16.248 -0.4373  1.1517  0.2403
 1641SOL     OW16558   2.003   1.670   4.279 -0.0280 -0.5018 -0.0667
 1641SOL    HW116559   1.949   1.664   4.357 -1.7769  2.5722 -1.0273
 1641SOL    HW216560   1.951   1.724   4.218  0.3990  0.1763  0.1789
 1642SOL     OW16561   1.632   4.630   3.577  0.0194 -0.7377  0.2767
 1642SOL    HW116562   1.603   4.618   3.487  0.4250 -1.7823  0.2845
 1642SOL    HW216563   1.557   4.584   3.615 -0.5755 -0.9771 -1.1689
 1643SOL     OW16564   1.215   1.797   6.019 -0.0791 -0.3422  0.1510
 1643SOL    HW116565   1.169   1.742   6.083  0.8425 -1.1729  0.1012
 1643SOL    HW216566   1.280   1.830   6.082  0.7293  0.3266 -1.0441
 1644SOL     OW16567   2.691   0.417   2.503 -0.2889 -0.4366 -0.3455
 1644SOL    HW116568   2.742   0.477   2.557  0.1872 -2.4173  1.4301
 1644SOL    HW216569   2.693   0.458   2.416 -1.2184 -0.3527 -0.3258
 1645SOL     OW16570   0.559   1.459  13.074 -0.1064 -0.2437  0.0333
 1645SOL    HW116571   0.476   1.505  13.060 -0.4381 -0.6426  0.6849
 1645SOL    HW216572   0.608   1.487  12.997 -0.4964  0.4133  0.0242
 1646SOL     OW16573   0.409   0.787   3.865  0.5224  0.5052 -0.0913
 1646SOL    HW116574   0.421   0.780   3.959 -1.2454  0.2750  0.1221
 1646SOL    HW216575   0.445   0.707   3.827 -1.9474  0.0186 -1.3746
 1647SOL     OW16576   4.473   3.334   6.156 -0.4655 -0.5303  0.4691
 1647SOL    HW116577   4.433   3.338   6.070  0.7345  1.0633 -0.0189
 1647SOL    HW216578   4.458   3.245   6.187  0.5586 -1.0690 -0.5965
 1648SOL     OW16579   1.733   4.021   1.636 -0.4739 -0.0201 -0.1108
 1648SOL    HW116580   1.762   3.930   1.624  1.4941  0.6331 -0.3864
 1648SOL    HW216581   1.737   4.027   1.732  2.1095  0.8606 -0.2506
 1649SOL     OW16582   2.347   0.053   2.467  0.3213  0.0900  0.0045
 1649SOL    HW116583   2.373   0.025   2.555  0.3007  2.0522  0.6478
 1649SOL    HW216584   2.389   0.139   2.461 -0.0324  0.4280  2.4803
 1650SOL     OW16585   3.080   3.086   4.427  0.2127 -0.4898 -0.1126
 1650SOL    HW116586   3.167   3.063   4.394  1.1276  0.6239  1.5728
 1650SOL    HW216587   3.036   3.004   4.449  0.2095 -0.6336 -0.6532
 1651SOL     OW16588   4.684   1.179   5.660 -0.7192 -0.4576  0.0461
 1651SOL    HW116589   4.592   1.188   5.686 -0.6345 -2.0094  0.9141
 1651SOL    HW216590   4.679   1.199   5.566  1.1775 -2.4706 -0.4983
 1652SOL     OW16591   1.219   3.886  14.625 -0.0142  0.2111 -0.2867
 1652SOL    HW116592   1.171   3.882  14.708 -0.9590  1.2257 -0.7826
 1652SOL    HW216593   1.276   3.962  14.633 -2.0189  1.4952  1.8260
 1653SOL     OW16594   0.677   4.446   2.311  0.7242  0.5478 -0.7221
 1653SOL    HW116595   0.709   4.439   2.221  1.4114 -0.0874 -0.4278
 1653SOL    HW216596   0.754   4.496   2.340 -0.7473  1.7817  1.0522
 1654SOL     OW16597   2.058   1.951   5.755  0.1160 -0.4630  0.1405
 1654SOL    HW116598   1.983   1.919   5.706 -0.7316 -0.1287  1.2012
 1654SOL    HW216599   2.061   1.911   5.842 -0.6060 -1.2976 -0.2266
 1655SOL     OW16600   0.148   1.466   7.855 -0.1028 -0.1695  0.6076
 1655SOL    HW116601   0.086   1.404   7.895  0.6658 -0.4192  1.4118
 1655SOL    HW216602   0.110   1.544   7.894 -0.3628  0.0400 -0.0746
 1656SOL     OW16603   0.714   4.156  13.532  0.0929  0.5009  0.7127
 1656SOL    HW116604   0.655   4.095  13.577 -0.6184 -0.2437 -1.2534
 1656SOL    HW216605   0.749   4.092  13.470  0.5333 -1.1757  2.6734
 1657SOL     OW16606   2.033   0.950   0.741 -0.1191  0.0875  0.1222
 1657SOL    HW116607   2.112   1.004   0.745  0.6620 -1.0498  0.3246
 1657SOL    HW216608   2.039   0.930   0.648 -0.4009 -0.9649  0.3302
 1658SOL     OW16609   3.814   3.963  10.612  0.6101  0.1160  0.3032
 1658SOL    HW116610   3.869   3.913  10.552 -0.0080 -1.4291  1.0259
 1658SOL    HW216611   3.801   4.046  10.567  2.3340 -0.7310 -1.7271
 1659SOL     OW16612   0.145   2.358   8.313 -0.2657  0.2546 -0.5745
 1659SOL    HW116613   0.219   2.398   8.267  0.4028  1.1975  1.3167
 1659SOL    HW216614   0.089   2.341   8.237 -3.1351  1.0048  1.4156
 1660SOL     OW16615   1.796   4.551  11.870 -0.5209  0.0944 -0.3006
 1660SOL    HW116616   1.889   4.532  11.858 -0.3682  0.1815  0.7542
 1660SOL    HW216617   1.750   4.488  11.815 -1.9297  0.8300  0.0404
 1661SOL     OW16618   0.752   3.851   8.832  0.7477  0.1750  0.1938
 1661SOL    HW116619   0.794   3.841   8.917 -0.2808  3.2927  1.0974
 1661SOL    HW216620   0.833   3.875   8.787  1.0443 -3.4782 -1.1351
 1662SOL     OW16621   1.917   3.938   8.904 -0.3246 -0.2917  0.1618
 1662SOL    HW116622   1.891   3.985   8.825  0.9730  1.1977  0.6367
 1662SOL    HW216623   1.884   3.851   8.882 -0.6942 -0.3669  1.0285
 1663SOL     OW16624   4.246   1.577   5.045 -0.1475 -0.2428  0.1302
 1663SOL    HW116625   4.213   1.539   5.126  1.0008 -0.9328  0.2819
 1663SOL    HW216626   4.197   1.659   5.041 -0.4408 -0.4632 -0.9566
 1664SOL     OW16627   3.916   3.887   5.222 -0.1308  0.1867  0.0496
 1664SOL    HW116628   3.841   3.901   5.164  0.4105 -0.1866 -0.7479
 1664SOL    HW216629   3.878   3.892   5.309 -0.9418  1.6104 -0.3792
 1665SOL     OW16630   0.162   0.715  12.249 -0.1514  0.4177  0.1068
 1665SOL    HW116631   0.228   0.653  12.280 -0.0261  0.1813 -0.6336
 1665SOL    HW216632   0.169   0.781  12.319  1.2081  1.7883 -1.3229
 1666SOL     OW16633   4.154   0.243   3.580  0.2436  0.2780  0.4640
 1666SOL    HW116634   4.103   0.264   3.502  0.2009 -2.7728 -0.3025
 1666SOL    HW216635   4.083   0.195   3.623 -0.6957  0.5184 -0.8365
 1667SOL     OW16636   2.508   2.118   8.460  0.3016  0.4934  0.4279
 1667SOL    HW116637   2.512   2.043   8.401  0.7266  1.3879 -0.6804
 1667SOL    HW216638   2.425   2.099   8.504 -0.4322  0.5857 -0.9247
 1668SOL     OW16639   0.876   3.762   3.158  0.1407  0.5422  0.2549
 1668SOL    HW116640   0.875   3.752   3.063 -0.3158  0.5742  0.2578
 1668SOL    HW216641   0.953   3.708   3.175 -0.5511 -1.0027 -1.5740
 1669SOL     OW16642   2.689   0.029  14.276  0.3680 -0.1042  0.5971
 1669SOL    HW116643   2.757   0.053  14.339 -0.4513  0.0821  1.4274
 1669SOL    HW216644   2.622   4.714  14.321  0.2100  0.2673  0.7956
 1670SOL     OW16645   0.803   0.059   2.999 -0.2903  0.4260  0.1214
 1670SOL    HW116646   0.893   0.092   2.994 -0.4552  1.1160  1.8339
 1670SOL    HW216647   0.764   0.143   3.023 -0.1709  0.8923 -1.2642
 1671SOL     OW16648   1.182   1.676   2.108  0.2671  0.0072 -0.1379
 1671SOL    HW116649   1.122   1.602   2.116  0.2628  0.2198  1.6654
 1671SOL    HW216650   1.119   1.748   2.111  0.3824  0.0532  0.9158
 1672SOL     OW16651   1.107   4.459  11.822 -0.0447  0.0598 -0.0044
 1672SOL    HW116652   1.141   4.509  11.747  0.6909 -0.1840  0.1612
 1672SOL    HW216653   1.120   4.368  11.796 -0.7878  0.2631 -1.0856
 1673SOL     OW16654   4.108   1.532   1.696  0.2184  0.4887  0.2242
 1673SOL    HW116655   4.146   1.491   1.619 -1.9463  0.4314 -0.7931
 1673SOL    HW216656   4.017   1.540   1.670 -0.0463 -0.7099  0.7492
 1674SOL     OW16657   1.728   2.368  12.914 -0.6345  0.1023  0.2579
 1674SOL    HW116658   1.783   2.347  12.839 -0.4862  1.6725 -0.0719
 1674SOL    HW216659   1.642   2.336  12.889 -1.0244  0.8610  0.6179
 1675SOL     OW16660   4.314   4.539   1.433 -0.1315 -0.2230 -0.0269
 1675SOL    HW116661   4.369   4.521   1.356 -0.3961 -2.1729  0.2463
 1675SOL    HW216662   4.274   4.620   1.401 -0.4659 -0.8054 -1.0665
 1676SOL     OW16663   1.760   2.191   6.752  0.1471 -0.3182  0.7164
 1676SOL    HW116664   1.757   2.110   6.701 -0.8043 -0.1819  0.5558
 1676SOL    HW216665   1.756   2.155   6.840 -0.0235 -0.4853  0.6399
 1677SOL     OW16666   4.326   4.074   3.463  0.5403 -0.2058 -0.5523
 1677SOL    HW116667   4.264   4.033   3.523 -0.3788  0.5597 -0.9894
 1677SOL    HW216668   4.383   4.114   3.529 -0.4396  0.8152 -0.3401
 1678SOL     OW16669   4.289   1.898   4.183 -0.5105 -0.4026 -0.1776
 1678SOL    HW116670   4.226   1.962   4.148 -0.5737 -0.3478  0.0351
 1678SOL    HW216671   4.372   1.945   4.181  1.3959 -3.7493  0.9460
 1679SOL     OW16672   4.314   1.058   3.623 -0.1349  0.3000  0.0061
 1679SOL    HW116673   4.396   1.067   3.575  0.1383 -0.8874  0.2371
 1679SOL    HW216674   4.345   1.027   3.708  0.8232  1.3901  0.0555
 1680SOL     OW16675   3.482   3.046  13.513  0.1516  0.3117 -0.5006
 1680SOL    HW116676   3.431   3.057  13.593  2.5065  0.6326  0.9678
 1680SOL    HW216677   3.433   2.981  13.463  0.4361  0.5126 -1.0482
 1681SOL     OW16678   3.780   4.349   9.727  0.0420  0.0346 -0.1212
 1681SOL    HW116679   3.794   4.427   9.673 -3.6925  0.5318 -0.3808
 1681SOL    HW216680   3.685   4.339   9.729  0.1464 -0.5744  1.6806
 1682SOL     OW16681   2.318   1.830   2.394 -0.2715 -0.4205  0.0671
 1682SOL    HW116682   2.229   1.819   2.361 -0.1189  0.8351 -0.7721
 1682SOL    HW216683   2.311   1.904   2.454  0.8117  0.4588 -0.8690
 1683SOL     OW16684   2.007   2.257  12.875  0.1722 -0.3190  0.0293
 1683SOL    HW116685   2.049   2.308  12.806 -0.1999  3.0760  2.3047
 1683SOL    HW216686   2.000   2.323  12.944 -1.4499  0.5065 -0.9376
 1684SOL     OW16687   3.060   2.150   3.823  0.5204 -0.1593 -0.7850
 1684SOL    HW116688   3.006   2.072   3.811  0.8152 -0.0557 -2.8025
 1684SOL    HW216689   3.055   2.143   3.918 -2.1651 -0.4457 -0.9282
 1685SOL     OW16690   2.515   4.216   3.093  0.1523 -0.1873 -0.4926
 1685SOL    HW116691   2.609   4.200   3.089  0.1414 -0.3695 -0.0158
 1685SOL    HW216692   2.486   4.127   3.114 -0.7986  1.1921  3.9710
 1686SOL     OW16693   2.493   0.036  15.117 -0.0445 -0.1801 -0.1085
 1686SOL    HW116694   2.441   0.115  15.134 -1.1870 -1.0720  0.4573
 1686SOL    HW216695   2.551   0.041  15.193 -1.1576  2.8844  0.5654
 1687SOL     OW16696   1.615   4.449   0.123 -0.3567  0.0489 -0.4102
 1687SOL    HW116697   1.522   4.426   0.121 -0.4155  0.1554  0.9367
 1687SOL    HW216698   1.611   4.541   0.149  1.9575  0.6429 -2.1410
 1688SOL     OW16699   3.828   0.369   2.264  0.6116 -0.3838 -0.6179
 1688SOL    HW116700   3.897   0.433   2.248 -0.9826  1.2165 -1.1097
 1688SOL    HW216701   3.774   0.422   2.323  3.1006 -1.0582  2.2355
 1689SOL     OW16702   3.923   2.284   3.627  0.4155 -0.2504 -0.0527
 1689SOL    HW116703   3.936   2.204   3.677  3.3046 -0.4425 -1.1519
 1689SOL    HW216704   3.830   2.287   3.604  1.4171 -1.6715 -4.2539
 1690SOL     OW16705   1.543   3.668   5.475 -0.0791  0.1073 -0.0196
 1690SOL    HW116706   1.556   3.726   5.550  0.6233  1.3151 -1.0660
 1690SOL    HW216707   1.612   3.606   5.499 -0.3385  0.2240  0.9959
 1691SOL     OW16708   0.315   3.724   8.598  0.6048  0.1231 -0.0160
 1691SOL    HW116709   0.361   3.807   8.584 -0.9283  0.9227 -0.3902
 1691SOL    HW216710   0.385   3.690   8.653 -0.2147 -0.7536  0.4827
 1692SOL     OW16711   3.733   3.701   9.036  0.0935  0.2936  0.7142
 1692SOL    HW116712   3.770   3.789   9.033 -0.6864  0.5543 -1.1529
 1692SOL    HW216713   3.798   3.635   9.014 -1.4721 -1.1952  0.4785
 1693SOL     OW16714   1.023   2.019  12.065  0.2438  0.4987  0.1583
 1693SOL    HW116715   1.069   1.937  12.084  2.1669  1.2829 -1.1234
 1693SOL    HW216716   1.085   2.062  12.006 -2.3738 -0.0728 -2.9705
 1694SOL     OW16717   3.817   2.249  11.991 -0.0205  0.0997  0.5105
 1694SOL    HW116718   3.861   2.334  11.985  0.1990 -0.0745 -0.3866
 1694SOL    HW216719   3.728   2.273  11.962 -0.1671 -2.5490 -1.2014
 1695SOL     OW16720   0.381   3.383  12.663  0.4403  0.4822  0.0560
 1695SOL    HW116721   0.309   3.446  12.664  1.0316  1.1659 -0.3172
 1695SOL    HW216722   0.401   3.386  12.569  0.4791 -0.1827  0.0418
 1696SOL     OW16723   0.938   0.913   5.591  0.2733  0.4311  0.4469
 1696SOL    HW116724   0.842   0.924   5.593  0.4516  2.1022 -0.3871
 1696SOL    HW216725   0.946   0.821   5.566 -0.9260  0.3896  0.2052
 1697SOL     OW16726   1.999   0.862   0.994 -0.6196  0.2508  0.0345
 1697SOL    HW116727   2.092   0.845   1.005 -0.7781 -0.7890 -0.2180
 1697SOL    HW216728   2.003   0.887   0.902 -1.2734 -0.4832 -0.1926
 1698SOL     OW16729   2.671   1.111   2.894  0.3159 -0.1824 -0.0377
 1698SOL    HW116730   2.732   1.057   2.844 -0.3951  2.0046 -3.2795
 1698SOL    HW216731   2.601   1.119   2.829  0.3978  0.4185 -0.0518
 1699SOL     OW16732   2.651   1.804  10.232 -0.4876  0.0266 -0.0003
 1699SOL    HW116733   2.692   1.813  10.145 -1.4242  0.3904 -0.4017
 1699SOL    HW216734   2.684   1.883  10.273  0.3856  0.3554 -1.3467
 1700SOL     OW16735   3.504   3.959   4.755  0.5819 -0.2643  0.1108
 1700SOL    HW116736   3.473   3.880   4.800 -3.0754  0.8891 -0.4523
 1700SOL    HW216737   3.474   3.953   4.665  1.6401  0.2884 -0.2801
 1701SOL     OW16738   2.578   2.888   6.970  0.0822  0.2514 -0.4614
 1701SOL    HW116739   2.577   2.806   6.921  0.8849 -0.4731  0.7249
 1701SOL    HW216740   2.672   2.889   6.988 -0.0060 -2.6544  0.0231
 1702SOL     OW16741   2.512   0.832   2.581  0.2682  0.2020  0.1250
 1702SOL    HW116742   2.604   0.822   2.556  0.8312  1.6893  1.6377
 1702SOL    HW216743   2.467   0.810   2.499  0.4643 -0.0894  0.0935
 1703SOL     OW16744   2.774   3.486   8.876 -0.8071 -0.0300  0.6631
 1703SOL    HW116745   2.765   3.456   8.785 -0.0274 -0.2084  0.6473
 1703SOL    HW216746   2.742   3.409   8.923  0.1668 -1.0160 -0.2744
 1704SOL     OW16747   0.842   2.995  11.115  0.1006  0.0326 -0.0829
 1704SOL    HW116748   0.893   2.918  11.142  0.9712  1.0928  1.2790
 1704SOL    HW216749   0.757   2.963  11.146 -0.3266  1.1280 -0.1348
 1705SOL     OW16750   0.788   4.599  14.491  0.0616 -0.3279  0.0365
 1705SOL    HW116751   0.788   4.543  14.569 -0.1447  0.5835  0.6948
 1705SOL    HW216752   0.829   4.679  14.523  1.3186 -0.6767 -0.6832
 1706SOL     OW16753   2.885   2.413   5.437 -1.0120 -0.0150 -0.4592
 1706SOL    HW116754   2.792   2.409   5.461 -0.3282 -0.6313  2.0985
 1706SOL    HW216755   2.902   2.507   5.442 -1.6383 -0.0365  2.1392
 1707SOL     OW16756   4.505   4.593   5.057 -0.4352 -0.2150  0.0817
 1707SOL    HW116757   4.426   4.599   5.110 -0.1708  0.9877  0.3313
 1707SOL    HW216758   4.542   4.679   5.074  0.9747 -0.4408 -1.7953
 1708SOL     OW16759   2.001   0.512  14.380  0.3950  0.3138  0.1745
 1708SOL    HW116760   1.928   0.458  14.352 -1.6165  3.6666 -1.1085
 1708SOL    HW216761   2.062   0.523  14.307  0.7286  1.0123  0.5491
 1709SOL     OW16762   3.645   2.713   5.298  0.6604 -0.5587  0.9817
 1709SOL    HW116763   3.643   2.808   5.292 -0.5080 -0.6871 -0.8588
 1709SOL    HW216764   3.612   2.689   5.211 -1.0929 -1.7905  1.9864
 1710SOL     OW16765   3.954   0.901  11.916  0.2522  0.3410 -0.1182
 1710SOL    HW116766   3.868   0.925  11.881  0.5608 -0.8966 -1.7337
 1710SOL    HW216767   3.992   0.982  11.951  2.3892  0.1233 -1.9315
 1711SOL     OW16768   0.978   2.324   0.647 -0.0788  0.6362  0.2656
 1711SOL    HW116769   0.927   2.257   0.694 -0.7642  0.8870 -0.1141
 1711SOL    HW216770   0.964   2.408   0.690 -0.1374  0.8431 -0.1551
 1712SOL     OW16771   0.056   4.133   8.942 -0.6196  0.5718 -0.5868
 1712SOL    HW116772   0.128   4.073   8.919 -1.5072 -0.5976 -0.3563
 1712SOL    HW216773   0.061   4.132   9.037 -1.9074  1.5367 -0.5159
 1713SOL     OW16774   4.322   4.380  14.429  0.0710  0.6383 -0.1833
 1713SOL    HW116775   4.241   4.422  14.400 -1.0780 -0.9814  0.6744
 1713SOL    HW216776   4.345   4.435  14.504 -0.6626 -2.9569  2.6795
 1714SOL     OW16777   4.645   0.780  12.581  0.1142  0.3011 -0.8046
 1714SOL    HW116778   4.680   0.822  12.660 -1.8029  0.4406 -0.0226
 1714SOL    HW216779   4.623   0.853  12.523 -1.5053 -1.3999 -2.3718
 1715SOL     OW16780   3.534   3.114   2.777  0.5140 -0.5593 -0.2960
 1715SOL    HW116781   3.621   3.075   2.787  2.2462  3.3299 -0.3558
 1715SOL    HW216782   3.553   3.208   2.770 -0.0205 -0.3463  1.1849
 1716SOL     OW16783   1.274   3.508   9.797  0.3096 -0.1188  0.2890
 1716SOL    HW116784   1.322   3.585   9.769  0.0936 -0.0342  0.1501
 1716SOL    HW216785   1.259   3.531   9.889  0.2040 -1.3974  0.5943
 1717SOL     OW16786   4.662   0.715   3.477  0.0624  0.4078  0.2986
 1717SOL    HW116787   4.648   0.808   3.497  0.8952  0.2317  1.6879
 1717SOL    HW216788   4.574   0.677   3.483  0.8336 -1.5128 -0.4515
 1718SOL     OW16789   3.451   0.917   2.777  0.8482 -0.2458 -0.6415
 1718SOL    HW116790   3.517   0.972   2.736  1.3267 -0.5480 -0.2802
 1718SOL    HW216791   3.383   0.979   2.801  0.3554 -1.0827  0.1489
 1719SOL     OW16792   1.061   4.366   7.507 -0.0936 -0.1002  0.4910
 1719SOL    HW116793   1.029   4.359   7.417  0.9528  0.1225  0.1080
 1719SOL    HW216794   1.083   4.459   7.503 -1.0769  0.0926 -0.4297
 1720SOL     OW16795   2.430   0.717   9.061 -0.1616  0.1497  0.0018
 1720SOL    HW116796   2.461   0.698   8.973  0.5225 -0.9968  0.4949
 1720SOL    HW216797   2.340   0.683   9.063  0.5866 -1.9423 -1.7920
 1721SOL     OW16798   2.725   3.731   3.756  0.2161  0.4122  0.5168
 1721SOL    HW116799   2.647   3.742   3.810 -0.3894  0.2703 -0.3427
 1721SOL    HW216800   2.675   3.719   3.675 -0.3557  0.5861  0.8435
 1722SOL     OW16801   1.597   0.758  10.859 -0.9405 -0.5322  0.3793
 1722SOL    HW116802   1.591   0.753  10.954  4.4610  0.0186  0.7488
 1722SOL    HW216803   1.509   0.794  10.846 -0.4480  1.3845  2.3027
 1723SOL     OW16804   1.693   4.684   7.675  0.5350  0.0618 -0.1299
 1723SOL    HW116805   1.694   4.592   7.648  2.1223 -0.1446  0.6183
 1723SOL    HW216806   1.721   4.730   7.596 -1.0135 -0.3066 -0.8892
 1724SOL     OW16807   1.215   3.224   4.315 -0.2543  0.0776 -0.0342
 1724SOL    HW116808   1.127   3.214   4.281  0.8385  2.0456 -3.4350
 1724SOL    HW216809   1.273   3.203   4.242  0.6128  1.3527  0.2876
 1725SOL     OW16810   1.605   3.120  17.636 -0.0929 -0.2571  0.0910
 1725SOL    HW116811   1.583   3.213  17.635  2.5142  0.3681 -0.4096
 1725SOL    HW216812   1.636   3.107  17.546  2.0621 -0.5888  0.8603
 1726SOL     OW16813   4.573   1.304   3.906 -0.0116 -0.4051 -0.1695
 1726SOL    HW116814   4.608   1.380   3.952 -1.3479 -0.0062  0.1903
 1726SOL    HW216815   4.547   1.347   3.824  0.4773  0.2066 -0.0038
 1727SOL     OW16816   2.379   3.334   0.118 -0.1580 -0.8096  0.6422
 1727SOL    HW116817   2.299   3.328   0.065 -0.0813  2.3732  0.1581
 1727SOL    HW216818   2.424   3.251   0.104 -1.0429 -1.1919  0.0482
 1728SOL     OW16819   1.517   2.662   0.577  0.1964 -0.1987 -0.0035
 1728SOL    HW116820   1.574   2.640   0.650 -0.7828  2.2296  1.4894
 1728SOL    HW216821   1.525   2.757   0.574 -1.2896 -0.0838 -0.4224
 1729SOL     OW16822   4.390   3.330   3.001 -0.0299  0.4513 -0.4307
 1729SOL    HW116823   4.432   3.397   3.055  1.0054  0.1031 -0.7984
 1729SOL    HW216824   4.466   3.303   2.950 -1.2121  0.9746 -2.4556
 1730SOL     OW16825   3.401   1.814   9.351  0.2588 -0.2202 -0.3545
 1730SOL    HW116826   3.372   1.735   9.305  1.0213 -0.3725 -0.5792
 1730SOL    HW216827   3.465   1.839   9.285  0.2150 -1.3694 -0.8375
 1731SOL     OW16828   1.128   1.093   7.354  0.3449 -0.5912 -0.4518
 1731SOL    HW116829   1.156   1.063   7.441 -1.3500 -2.1394 -0.4139
 1731SOL    HW216830   1.077   1.018   7.322 -0.1918 -1.0455  1.4348
 1732SOL     OW16831   3.143   0.779   2.493  0.1481  0.0014 -0.1516
 1732SOL    HW116832   3.113   0.844   2.556  1.5181  0.2724  0.2344
 1732SOL    HW216833   3.118   0.706   2.550 -1.9777  1.4706  0.7891
 1733SOL     OW16834   1.831   3.460   4.906 -0.2036  0.5949 -0.3281
 1733SOL    HW116835   1.802   3.409   4.982 -0.9188  2.7872  0.8727
 1733SOL    HW216836   1.841   3.391   4.841  1.1113  0.8098 -0.3490
 1734SOL     OW16837   1.011   1.204   5.387 -0.6827  0.1229  0.4085
 1734SOL    HW116838   1.060   1.131   5.425 -2.7914 -0.0801  2.7449
 1734SOL    HW216839   0.922   1.173   5.404 -0.0388 -2.3723 -0.7865
 1735SOL     OW16840   3.971   0.411   3.926  0.2226  0.3401 -0.2536
 1735SOL    HW116841   4.047   0.407   3.868  0.6528 -0.9176  0.4002
 1735SOL    HW216842   3.896   0.411   3.867  0.2234 -0.9247 -0.2579
 1736SOL     OW16843   1.475   0.291   0.317 -0.1644  0.0879 -0.3563
 1736SOL    HW116844   1.440   0.202   0.314  0.2740 -0.1265  1.2229
 1736SOL    HW216845   1.565   0.263   0.296  0.7295  0.7012  2.7302
 1737SOL     OW16846   3.494   0.405  11.142 -0.9598  0.0945 -0.0995
 1737SOL    HW116847   3.563   0.416  11.076 -0.7947 -2.3431 -0.3360
 1737SOL    HW216848   3.484   0.310  11.141 -0.4372  0.0207  1.6658
 1738SOL     OW16849   2.847   2.219   4.710  0.2950  0.4967  0.2573
 1738SOL    HW116850   2.904   2.283   4.751  1.0907  1.1656 -1.8787
 1738SOL    HW216851   2.765   2.268   4.706 -0.2971 -0.5358 -0.4981
 1739SOL     OW16852   3.111   2.022  17.021 -0.3676  0.1271 -0.0307
 1739SOL    HW116853   3.091   2.101  17.071  1.7640 -0.2798  1.4616
 1739SOL    HW216854   3.117   1.960  17.094 -0.1878 -0.8097 -0.8357
 1740SOL     OW16855   1.471   3.889   9.014 -0.2422 -0.0404 -0.1789
 1740SOL    HW116856   1.433   3.966   9.056  1.5032 -0.4992  2.3055
 1740SOL    HW216857   1.398   3.827   9.025 -1.1804  0.6184 -2.8155
 1741SOL     OW16858   1.820   3.873   2.436  0.4085  0.4617 -0.1271
 1741SOL    HW116859   1.833   3.936   2.507  2.1020 -0.3478  0.3089
 1741SOL    HW216860   1.882   3.803   2.459  1.3800  0.4765 -2.7460
 1742SOL     OW16861   0.337   2.226   8.876  0.1123  0.0298  0.1379
 1742SOL    HW116862   0.323   2.317   8.901 -3.7389 -0.7121  0.5700
 1742SOL    HW216863   0.323   2.236   8.782 -0.0694  2.2118  0.3958
 1743SOL     OW16864   3.763   3.070   8.489 -0.7227 -0.0274  0.0990
 1743SOL    HW116865   3.814   3.069   8.570 -0.9315  1.1409  0.2409
 1743SOL    HW216866   3.739   2.978   8.485  1.6741 -0.5481 -2.6595
 1744SOL     OW16867   1.651   0.191   6.676 -0.3845 -0.0802 -0.1672
 1744SOL    HW116868   1.725   0.221   6.729  0.7951  1.8934 -2.9009
 1744SOL    HW216869   1.693   0.177   6.591  0.7873  0.1127  0.3820
 1745SOL     OW16870   3.896   3.580  12.336 -0.0632  0.1200  0.3305
 1745SOL    HW116871   3.843   3.622  12.269 -1.4282  0.0082  1.3395
 1745SOL    HW216872   3.948   3.523  12.278 -0.6389  1.9692 -1.9926
 1746SOL     OW16873   3.674   3.035  16.179  0.3039  0.1196  0.9676
 1746SOL    HW116874   3.761   3.061  16.151 -0.3247 -0.7736 -1.8284
 1746SOL    HW216875   3.684   3.010  16.271  0.0905 -2.2065  0.3749
 1747SOL     OW16876   0.543   2.670  16.569 -0.3445 -0.0077  0.4861
 1747SOL    HW116877   0.623   2.722  16.578  0.3198 -0.5105 -2.2907
 1747SOL    HW216878   0.538   2.663  16.473  0.5427 -3.5287  0.7044
 1748SOL     OW16879   0.465   0.993  17.602  0.0607 -0.1571 -0.5169
 1748SOL    HW116880   0.437   1.012  17.513  1.5880  2.2797 -0.4803
 1748SOL    HW216881   0.553   1.031  17.599 -1.0280  2.3932  0.3173
 1749SOL     OW16882   0.205   0.921   4.106  0.4976 -0.2801  0.1304
 1749SOL    HW116883   0.170   0.981   4.041  2.6789 -2.1987 -2.7943
 1749SOL    HW216884   0.287   0.891   4.065  0.2640 -1.9156  0.8527
 1750SOL     OW16885   4.096   4.386  11.574  0.1989  0.3592  0.0967
 1750SOL    HW116886   4.152   4.379  11.497  0.2351 -0.8296  0.2256
 1750SOL    HW216887   4.038   4.310  11.569 -0.6371  1.1096 -1.5211
 1751SOL     OW16888   2.632   1.775   1.057 -0.4706  0.0771 -0.5536
 1751SOL    HW116889   2.559   1.720   1.084 -0.7044  0.1984 -0.9373
 1751SOL    HW216890   2.638   1.757   0.963  0.6628 -0.1031 -0.4456
 1752SOL     OW16891   1.748   3.289  16.383  0.1426  0.3674 -0.1294
 1752SOL    HW116892   1.837   3.320  16.366  0.0256  1.2426  0.8510
 1752SOL    HW216893   1.723   3.287  16.291 -0.7524 -0.4854  0.1323
 1753SOL     OW16894   1.385   4.677  16.465  0.0936  0.7758  0.2231
 1753SOL    HW116895   1.351   4.621  16.535  0.4819  1.6037  1.0747
 1753SOL    HW216896   1.321   4.667  16.394  0.8847  1.4295 -0.5751
 1754SOL     OW16897   1.363   2.054  10.230 -0.5453 -0.1129  0.2902
 1754SOL    HW116898   1.406   1.988  10.284  1.7500  0.6251 -0.6548
 1754SOL    HW216899   1.426   2.126  10.221 -1.6361  0.8973  0.6568
 1755SOL     OW16900   3.891   0.128  10.321 -0.2327  0.4936 -0.0185
 1755SOL    HW116901   3.852   0.176  10.394  0.2965 -0.7484  1.0893
 1755SOL    HW216902   3.911   0.201  10.263  3.0033 -0.3522  0.0070
 1756SOL     OW16903   3.891   2.147  15.499 -0.1174 -0.9531  0.4850
 1756SOL    HW116904   3.870   2.092  15.575 -3.0753  3.8968  3.1934
 1756SOL    HW216905   3.869   2.231  15.538 -0.0661  0.0593 -1.6572
 1757SOL     OW16906   3.433   1.271   5.731  0.1088  0.4497 -0.1059
 1757SOL    HW116907   3.410   1.232   5.647 -0.7455 -1.0391  0.8234
 1757SOL    HW216908   3.453   1.183   5.763 -0.4478 -0.1930 -1.5350
 1758SOL     OW16909   4.267   4.672   2.729  0.1968 -0.5067  0.3451
 1758SOL    HW116910   4.339   4.636   2.781 -1.7348 -2.2267  1.8074
 1758SOL    HW216911   4.310   4.722   2.660  0.1329  0.0268  0.6891
 1759SOL     OW16912   0.756   2.258   4.998  0.2744 -0.1559  0.2546
 1759SOL    HW116913   0.805   2.290   5.074 -0.3101  0.6267  0.3040
 1759SOL    HW216914   0.759   2.165   5.018 -1.1058 -0.0246  1.0400
 1760SOL     OW16915   2.949   2.186   6.816 -0.0927  0.0236  0.3502
 1760SOL    HW116916   3.005   2.262   6.829  0.6302 -0.9017  2.7102
 1760SOL    HW216917   3.000   2.117   6.773  1.8237  1.4589  0.3317
 1761SOL     OW16918   1.722   3.703   4.106 -0.1076 -0.9339  0.5058
 1761SOL    HW116919   1.661   3.766   4.067  2.3706  0.5636 -0.9211
 1761SOL    HW216920   1.761   3.678   4.023  0.3173  1.7460 -0.0793
 1762SOL     OW16921   4.475   1.929   6.805  0.3298 -0.5741  0.3871
 1762SOL    HW116922   4.533   1.875   6.753  0.6096 -1.5952  1.7487
 1762SOL    HW216923   4.456   1.876   6.882 -2.1947  0.6967  0.6611
 1763SOL     OW16924   4.107   2.361  13.030 -0.1697  0.1178 -0.3536
 1763SOL    HW116925   4.062   2.392  13.108 -0.9083  4.7060 -2.6145
 1763SOL    HW216926   4.034   2.335  12.974  0.9543 -1.1268 -1.2707
 1764SOL     OW16927   0.893   0.730   8.671  0.3294 -0.4119  0.3439
 1764SOL    HW116928   0.834   0.656   8.657  0.6210 -0.5411 -0.1866
 1764SOL    HW216929   0.833   0.800   8.695  1.0695  0.5768 -0.6681
 1765SOL     OW16930   4.429   4.100   3.024  0.0656  0.4576 -0.4777
 1765SOL    HW116931   4.370   4.025   3.028 -0.3610  0.9247  1.5514
 1765SOL    HW216932   4.453   4.111   3.116  0.9855  0.0853 -0.6703
 1766SOL     OW16933   2.371   4.344   8.786  0.3816 -0.1241  0.3620
 1766SOL    HW116934   2.419   4.266   8.759  0.6205  0.4012 -0.7214
 1766SOL    HW216935   2.418   4.368   8.866  1.3159  1.1483 -0.5773
 1767SOL     OW16936   1.232   4.380   2.473 -0.3821  0.5550  0.6905
 1767SOL    HW116937   1.281   4.338   2.543 -0.6623 -1.0470 -0.0731
 1767SOL    HW216938   1.243   4.473   2.490 -3.4087  1.3923 -1.9776
 1768SOL     OW16939   1.668   2.777   7.580 -0.3646 -0.0526  0.1082
 1768SOL    HW116940   1.643   2.843   7.515  1.9978  0.9599  0.2160
 1768SOL    HW216941   1.754   2.756   7.545  0.8211  2.1589  1.6985
 1769SOL     OW16942   0.634   3.439  17.379  0.1869 -0.2515 -0.2008
 1769SOL    HW116943   0.581   3.450  17.458  1.3436 -2.6414  0.9135
 1769SOL    HW216944   0.615   3.510  17.318  1.5789  0.0273 -0.3249
 1770SOL     OW16945   4.558   4.149   5.180 -0.0387 -0.0318 -0.1412
 1770SOL    HW116946   4.490   4.097   5.137  0.5536 -3.1867  2.7042
 1770SOL    HW216947   4.637   4.127   5.131 -0.3830  2.0247 -1.6266
 1771SOL     OW16948   2.973   1.331   8.446  0.6992 -0.7721 -0.1126
 1771SOL    HW116949   2.954   1.247   8.404 -0.4306 -0.5561 -0.0334
 1771SOL    HW216950   3.061   1.314   8.481  1.0543 -1.7442 -1.4831
 1772SOL     OW16951   3.648   0.691   5.500 -0.0974 -0.1296  0.4835
 1772SOL    HW116952   3.560   0.661   5.521 -0.4594  1.6255  1.4362
 1772SOL    HW216953   3.681   0.602   5.484  1.2022  0.5469 -0.6288
 1773SOL     OW16954   0.040   1.171   7.640  0.2711  0.4355  0.2847
 1773SOL    HW116955   0.003   1.123   7.714  0.6982 -1.5860 -0.7997
 1773SOL    HW216956   0.133   1.170   7.663  0.5146  0.0113 -0.7153
 1774SOL     OW16957   4.666   2.923  11.253  0.0296  0.1730  0.5883
 1774SOL    HW116958   4.732   2.990  11.270 -0.7607  0.7612  1.3516
 1774SOL    HW216959   4.720   2.847  11.233 -0.3202  0.8533 -3.0160
 1775SOL     OW16960   1.262   1.173   2.717 -0.0243 -0.1813 -0.4115
 1775SOL    HW116961   1.245   1.121   2.796 -0.8233  0.3451 -0.2387
 1775SOL    HW216962   1.334   1.231   2.738 -0.8096  0.6023  0.0982
 1776SOL     OW16963   3.681   4.439   7.363 -0.6374 -0.1884 -0.5935
 1776SOL    HW116964   3.592   4.416   7.336  0.4998 -1.8632 -2.8857
 1776SOL    HW216965   3.736   4.397   7.297  0.0680  0.2016 -0.2599
 1777SOL     OW16966   0.005   4.251   7.737 -0.5269  0.2246  0.0663
 1777SOL    HW116967   0.041   4.322   7.791 -3.2727  0.5837  1.4608
 1777SOL    HW216968   4.653   4.236   7.769 -0.9786  0.5342 -1.0620
 1778SOL     OW16969   0.943   3.136   2.038 -0.6048 -0.1204 -0.0902
 1778SOL    HW116970   0.878   3.090   2.091  0.3357 -1.3056  0.0398
 1778SOL    HW216971   0.895   3.212   2.005  0.2242  0.1999 -0.5564
 1779SOL     OW16972   3.457   4.546  14.255 -0.1610 -0.4514 -0.2204
 1779SOL    HW116973   3.396   4.504  14.195 -1.8668  1.2174  0.3499
 1779SOL    HW216974   3.441   4.640  14.244 -1.2772 -0.2580  2.8818
 1780SOL     OW16975   3.446   3.351  13.270  0.0586  0.0300 -0.5108
 1780SOL    HW116976   3.396   3.365  13.189  1.9499  1.8733 -1.3493
 1780SOL    HW216977   3.464   3.257  13.274 -3.1219 -0.6221 -0.9314
 1781SOL     OW16978   1.530   1.653   1.318 -0.1874 -0.2856 -0.1000
 1781SOL    HW116979   1.454   1.624   1.368 -0.4043 -0.5227 -0.5619
 1781SOL    HW216980   1.589   1.578   1.315 -2.7811 -2.3523  0.6152
 1782SOL     OW16981   4.459   4.636   4.122 -0.1478  0.3660 -0.3098
 1782SOL    HW116982   4.458   4.543   4.100  0.5734  0.4472 -0.6654
 1782SOL    HW216983   4.489   4.671   4.038 -0.9266  0.3252 -0.6152
 1783SOL     OW16984   3.836   0.327  10.497  0.3564  0.1121  0.2750
 1783SOL    HW116985   3.830   0.408  10.547  1.7326  0.9279 -0.8656
 1783SOL    HW216986   3.747   0.294  10.506  0.1323  0.4854 -0.5594
 1784SOL     OW16987   0.645   1.441   6.306 -0.0208 -0.0170  0.5486
 1784SOL    HW116988   0.714   1.400   6.255 -0.0731 -0.9203  1.1885
 1784SOL    HW216989   0.568   1.388   6.286  0.2403 -0.3351  0.3867
 1785SOL     OW16990   3.781   3.048   3.382  0.0027  0.1950  0.0505
 1785SOL    HW116991   3.873   3.072   3.386 -0.2915  1.5579 -1.3420
 1785SOL    HW216992   3.758   3.072   3.472 -1.0319 -2.7523  0.5810
 1786SOL     OW16993   2.299   2.790   0.139  0.5390 -0.1091 -0.3563
 1786SOL    HW116994   2.313   2.698   0.159 -2.2387 -0.4949 -0.1740
 1786SOL    HW216995   2.249   2.817   0.217  1.6007 -2.3206  1.0761
 1787SOL     OW16996   3.258   3.587   5.209  0.4937 -0.1301  0.1539
 1787SOL    HW116997   3.350   3.589   5.232  0.6932 -2.8317 -0.3537
 1787SOL    HW216998   3.218   3.651   5.267  2.3317  1.5088 -0.4028
 1788SOL     OW16999   2.800   0.214   2.991 -0.5310 -0.0200 -0.2914
 1788SOL    HW117000   2.882   0.262   3.004 -1.7152  2.2627 -1.1940
 1788SOL    HW217001   2.738   0.268   3.040 -0.2437 -0.5927  0.6980
 1789SOL     OW17002   0.781   3.632   7.366  0.3831 -0.6628  0.0156
 1789SOL    HW117003   0.743   3.568   7.306  0.3603 -0.2273 -0.4361
 1789SOL    HW217004   0.740   3.711   7.332  1.0387 -0.3664 -0.0834
 1790SOL     OW17005   3.616   3.533  13.732 -0.1949  0.3075  0.3698
 1790SOL    HW117006   3.588   3.539  13.641  0.9134  1.3588  0.0949
 1790SOL    HW217007   3.694   3.478  13.731  2.1250  3.5190  3.4595
 1791SOL     OW17008   2.150   2.129   2.960 -0.5529  0.7553 -0.0496
 1791SOL    HW117009   2.059   2.155   2.975 -1.7681 -2.4624 -2.0015
 1791SOL    HW217010   2.177   2.216   2.932 -2.7571  1.7115  0.7903
 1792SOL     OW17011   2.817   4.249  13.896 -0.3279 -0.0218  0.0067
 1792SOL    HW117012   2.723   4.247  13.909 -0.2493 -1.2984  0.4100
 1792SOL    HW217013   2.839   4.159  13.871 -1.2237 -0.6070  1.3483
 1793SOL     OW17014   3.185   0.481   4.763 -0.4223 -0.0400 -0.2036
 1793SOL    HW117015   3.256   0.463   4.825 -1.1776 -1.6813  0.1786
 1793SOL    HW217016   3.152   0.392   4.752 -0.0165 -0.0025 -1.7487
 1794SOL     OW17017   4.523   4.091   3.267 -0.3935 -0.2771 -0.1493
 1794SOL    HW117018   4.468   4.087   3.345 -0.4403  0.1466 -0.1615
 1794SOL    HW217019   4.608   4.056   3.294 -0.4072  0.7134  1.1842
 1795SOL     OW17020   1.468   2.248   4.781 -0.6372  0.1082 -0.3982
 1795SOL    HW117021   1.508   2.321   4.829  0.3894  0.7264 -2.1792
 1795SOL    HW217022   1.484   2.179   4.845  0.6826 -0.0455 -0.8815
 1796SOL     OW17023   3.595   2.689   9.508  0.6192  0.2671  0.1041
 1796SOL    HW117024   3.504   2.719   9.504  0.3158 -0.4723  1.5357
 1796SOL    HW217025   3.636   2.738   9.580 -2.3010  4.0981 -0.8366
 1797SOL     OW17026   3.502   2.910  17.694 -0.2868 -0.2516  0.6741
 1797SOL    HW117027   3.428   2.857  17.665  0.2999 -1.7436  1.9072
 1797SOL    HW217028   3.517   2.975  17.626  1.2871 -0.2399  1.0150
 1798SOL     OW17029   2.275   0.352   0.483 -0.4650  0.0087  0.4975
 1798SOL    HW117030   2.237   0.304   0.556  0.7993 -0.0105  1.1413
 1798SOL    HW217031   2.363   0.362   0.520 -0.5821  0.3023  0.6948
 1799SOL     OW17032   3.706   3.186  13.098 -0.0849  0.1098  0.3450
 1799SOL    HW117033   3.674   3.101  13.068 -0.1308  0.6729 -1.1710
 1799SOL    HW217034   3.654   3.246  13.045 -1.2641 -1.3687 -0.1950
 1800SOL     OW17035   3.476   3.118   8.461  0.3639  0.2077  0.2417
 1800SOL    HW117036   3.570   3.110   8.476  0.5588  2.4566  0.2626
 1800SOL    HW217037   3.474   3.090   8.369  0.9561  2.0674 -0.3249
 1801SOL     OW17038   4.406   4.079   8.614 -0.4150  0.4033  0.2315
 1801SOL    HW117039   4.376   4.070   8.705 -0.0012  0.1935  0.3484
 1801SOL    HW217040   4.322   4.074   8.568  0.2472  2.9409 -1.2195
 1802SOL     OW17041   1.099   1.744   5.746  0.0362  0.0658 -0.1467
 1802SOL    HW117042   1.123   1.733   5.839 -0.2994 -5.3889 -0.6949
 1802SOL    HW217043   1.011   1.780   5.748 -0.1206 -0.3447  0.7847
 1803SOL     OW17044   0.214   4.453   5.507  0.6310 -0.3387  0.0711
 1803SOL    HW117045   0.149   4.504   5.458  2.3255  0.0432 -1.7928
 1803SOL    HW217046   0.263   4.403   5.441  1.4463  0.2076  0.2657
 1804SOL     OW17047   2.569   4.150   7.933  0.0066 -0.1683 -0.2362
 1804SOL    HW117048   2.527   4.140   8.018  1.2273 -2.8003  0.0671
 1804SOL    HW217049   2.608   4.063   7.924  0.7566 -0.0079  1.5703
 1805SOL     OW17050   1.479   3.973   2.975 -0.6617  0.1146 -0.1372
 1805SOL    HW117051   1.443   3.885   2.982 -1.0073  0.5109  2.8682
 1805SOL    HW217052   1.552   3.963   2.914  0.6112 -2.4067  1.8010
 1806SOL     OW17053   1.712   1.861   2.726  0.3510 -0.6572  0.0644
 1806SOL    HW117054   1.701   1.819   2.641  0.8384 -0.6605  0.0023
 1806SOL    HW217055   1.723   1.954   2.709  1.8663 -1.1990 -1.9991
 1807SOL     OW17056   1.858   1.436   0.385  0.0941  0.3006  0.4734
 1807SOL    HW117057   1.788   1.462   0.325 -0.3059 -0.2189  0.7086
 1807SOL    HW217058   1.830   1.493   0.457 -1.6396  0.4095 -0.2759
 1808SOL     OW17059   3.433   2.036   2.486  0.0850 -0.7018 -0.4520
 1808SOL    HW117060   3.487   2.094   2.433  1.3375 -0.1462  1.4416
 1808SOL    HW217061   3.503   1.978   2.517 -0.3611 -1.3757 -0.7147
 1809SOL     OW17062   4.082   2.647   2.779 -0.7634  0.3626 -0.2114
 1809SOL    HW117063   4.084   2.706   2.854 -2.0557  0.0335  0.0777
 1809SOL    HW217064   4.143   2.700   2.728  0.2227 -0.9625 -0.4214
 1810SOL     OW17065   4.284   3.100   8.036  0.4516 -0.3521 -0.0195
 1810SOL    HW117066   4.201   3.135   8.068 -0.3231  0.1423 -2.5615
 1810SOL    HW217067   4.259   3.069   7.949  1.0345 -0.3011 -0.2084
 1811SOL     OW17068   4.161   0.591   8.358 -0.4607  0.5886  0.0100
 1811SOL    HW117069   4.151   0.629   8.270 -0.3758 -0.6079 -0.5146
 1811SOL    HW217070   4.085   0.621   8.407 -0.7509 -2.0950  1.1749
 1812SOL     OW17071   2.905   0.396   4.366 -0.0399 -0.8557  0.2896
 1812SOL    HW117072   2.938   0.486   4.360  0.3894 -1.0710 -0.5277
 1812SOL    HW217073   2.910   0.370   4.274 -1.0371  0.7924 -0.2316
 1813SOL     OW17074   1.241   0.356  10.780 -0.1873  0.0290 -0.4905
 1813SOL    HW117075   1.159   0.377  10.826 -0.7156  1.7375 -2.2252
 1813SOL    HW217076   1.306   0.390  10.842 -1.0616 -0.8400  0.8872
 1814SOL     OW17077   2.387   3.965   3.077 -0.0215 -0.1462  0.3653
 1814SOL    HW117078   2.311   3.974   3.020 -0.1730  0.0022  0.5908
 1814SOL    HW217079   2.423   3.884   3.041 -1.5596 -0.0595 -1.3337
 1815SOL     OW17080   3.004   1.471   3.010 -0.2099 -0.0459 -0.0719
 1815SOL    HW117081   2.961   1.386   3.021 -1.9455  0.7206 -0.8831
 1815SOL    HW217082   2.976   1.519   3.088  0.0669 -0.5190  0.3161
 1816SOL     OW17083   0.501   1.231   0.182  0.2515 -0.2568  0.1478
 1816SOL    HW117084   0.523   1.284   0.258 -0.9760 -0.2598  0.5180
 1816SOL    HW217085   0.583   1.202   0.143 -0.7050 -0.8492 -1.4540
 1817SOL     OW17086   2.567   1.542   3.847  0.1658 -0.0678 -0.1261
 1817SOL    HW117087   2.558   1.622   3.897  1.2790  0.5543 -0.9237
 1817SOL    HW217088   2.595   1.576   3.761  1.4555 -0.5289  0.1046
 1818SOL     OW17089   1.253   3.302   0.444  0.5654 -0.0200  0.8835
 1818SOL    HW117090   1.306   3.341   0.513  1.1825 -0.2935  0.5678
 1818SOL    HW217091   1.170   3.301   0.491  0.8446  0.6078  1.3791
 1819SOL     OW17092   2.742   3.078   5.400  0.3719  0.2047  0.0990
 1819SOL    HW117093   2.762   3.102   5.490 -0.1097  2.2872 -0.3282
 1819SOL    HW217094   2.760   3.152   5.341 -1.8243 -0.9062 -1.9713
 1820SOL     OW17095   1.922   1.703   9.198  0.0746 -0.6088  0.1718
 1820SOL    HW117096   1.829   1.707   9.221 -0.1891  0.3651 -1.0858
 1820SOL    HW217097   1.948   1.619   9.236  0.3673  0.4786  2.3584
 1821SOL     OW17098   2.991   2.825   8.363  0.1835  0.0309 -0.0903
 1821SOL    HW117099   2.899   2.807   8.342 -0.2562  0.7957  1.2311
 1821SOL    HW217100   3.007   2.732   8.383 -1.1439  0.0684  1.0699
 1822SOL     OW17101   1.691   1.768   1.620  0.3137 -0.2612 -0.1174
 1822SOL    HW117102   1.597   1.757   1.609  0.6578 -1.9912 -1.4220
 1822SOL    HW217103   1.692   1.854   1.662  0.3767 -0.7139  0.8091
 1823SOL     OW17104   3.021   4.647   2.406 -0.5930  0.3272  0.1907
 1823SOL    HW117105   2.994   4.608   2.323  1.4440  0.0134 -0.3027
 1823SOL    HW217106   2.980   4.733   2.397  0.2171  0.4809 -1.8665
 1824SOL     OW17107   1.016   1.297  16.648 -0.1166  0.5402  0.6230
 1824SOL    HW117108   1.055   1.362  16.589  0.0538 -0.3887 -0.2819
 1824SOL    HW217109   0.977   1.240  16.581 -0.9670 -0.3434  1.8878
 1825SOL     OW17110   4.169   2.280  13.935  0.2860  0.1648  0.0973
 1825SOL    HW117111   4.096   2.229  13.968 -1.1092  2.9959  1.3697
 1825SOL    HW217112   4.138   2.370  13.946  0.4134 -0.0024  1.8102
 1826SOL     OW17113   2.992   1.288   3.776  0.6729  0.3945 -0.9629
 1826SOL    HW117114   3.041   1.349   3.721  1.2938  1.3867  0.7099
 1826SOL    HW217115   2.973   1.352   3.844 -0.2031 -0.2759 -0.5700
 1827SOL     OW17116   0.884   2.732   8.286 -0.0683  0.8179  0.1585
 1827SOL    HW117117   0.827   2.806   8.266  0.2812  0.6293 -1.5465
 1827SOL    HW217118   0.904   2.696   8.200 -2.5172  2.4633 -1.1140
 1828SOL     OW17119   2.755   2.422   9.494 -0.3201  0.1895 -0.0707
 1828SOL    HW117120   2.727   2.449   9.406  2.4418  0.1315 -0.9738
 1828SOL    HW217121   2.844   2.403   9.466 -0.5182 -0.1413 -0.4730
 1829SOL     OW17122   3.339   4.227   5.483  0.3053 -0.2772 -0.3375
 1829SOL    HW117123   3.397   4.303   5.493 -1.3962  0.9176  0.6635
 1829SOL    HW217124   3.260   4.274   5.455  0.9722  0.3942 -1.1057
 1830SOL     OW17125   0.515   3.018   4.011 -0.1493 -0.8624  0.2201
 1830SOL    HW117126   0.511   2.922   4.005  0.0473 -0.9222  1.0503
 1830SOL    HW217127   0.520   3.044   3.919  1.2229 -2.5952 -0.2017
 1831SOL     OW17128   2.607   1.507   3.389  0.1971 -0.2135  0.5676
 1831SOL    HW117129   2.658   1.427   3.382  0.8603  0.5335 -2.8839
 1831SOL    HW217130   2.516   1.480   3.376  0.1629  0.8568 -1.4061
 1832SOL     OW17131   3.831   0.090   7.018  0.3102  0.4287  0.5096
 1832SOL    HW117132   3.877   0.119   7.096  0.1039 -0.6171  1.0246
 1832SOL    HW217133   3.754   0.042   7.050  0.0535  0.3091 -0.2770
 1833SOL     OW17134   2.579   2.757   7.952  0.7497 -0.1263 -0.7497
 1833SOL    HW117135   2.643   2.686   7.946  2.0533  0.9319  0.6668
 1833SOL    HW217136   2.606   2.803   7.873 -1.1246  0.8576 -0.8048
 1834SOL     OW17137   3.594   2.944  11.031  0.1264 -0.0409  0.4111
 1834SOL    HW117138   3.650   2.885  10.981  1.2129  0.3136  1.1787
 1834SOL    HW217139   3.545   2.874  11.075  0.1562  0.1410  0.7374
 1835SOL     OW17140   3.649   1.750  14.486  0.5432  0.0491  0.6384
 1835SOL    HW117141   3.697   1.803  14.551  2.2351 -0.4758 -0.1721
 1835SOL    HW217142   3.566   1.796  14.480  1.1673  0.9227 -1.5790
 1836SOL     OW17143   1.017   1.400   5.963 -0.5420 -0.0746  0.4975
 1836SOL    HW117144   1.029   1.331   6.029 -1.3548 -2.0249 -1.3701
 1836SOL    HW217145   1.010   1.344   5.885  0.9870 -1.4527  1.3660
 1837SOL     OW17146   4.455   0.629   5.727  0.2068 -0.3484 -0.2446
 1837SOL    HW117147   4.475   0.711   5.684 -0.3492 -1.2139 -2.1566
 1837SOL    HW217148   4.543   0.604   5.754 -0.0523 -0.0870  0.8508
 1838SOL     OW17149   4.554   0.025   1.548  0.3894 -0.1120 -0.5571
 1838SOL    HW117150   4.607   4.713   1.486 -1.0886 -2.3820 -0.0338
 1838SOL    HW217151   4.597   0.015   1.633 -2.1972  0.9644  0.8942
 1839SOL     OW17152   2.207   0.906   2.985 -0.2612 -0.2036  0.3492
 1839SOL    HW117153   2.275   0.967   3.014  0.2887 -1.2421  1.2253
 1839SOL    HW217154   2.237   0.864   2.903  2.4057 -0.0254  1.2326
 1840SOL     OW17155   4.429   0.179  17.317  0.1005  0.0014  0.1416
 1840SOL    HW117156   4.400   0.267  17.293  2.8036  0.3451 -1.8454
 1840SOL    HW217157   4.488   0.161  17.243 -0.1554 -0.0550 -0.0520
 1841SOL     OW17158   2.948   1.107   4.202  0.5832 -0.2345 -0.5908
 1841SOL    HW117159   2.893   1.033   4.227  0.6150 -1.8183 -5.2660
 1841SOL    HW217160   2.988   1.115   4.289  1.1719 -1.0170 -0.7857
 1842SOL     OW17161   3.793   0.862   7.663  0.3907 -0.0720 -0.6852
 1842SOL    HW117162   3.811   0.769   7.652 -2.4234 -0.3729 -2.8232
 1842SOL    HW217163   3.877   0.903   7.643  0.1738 -0.0242 -1.5384
 1843SOL     OW17164   3.145   1.518   3.724  0.0830 -0.6156  0.1190
 1843SOL    HW117165   3.187   1.535   3.809 -0.1450  1.6747 -0.2359
 1843SOL    HW217166   3.218   1.529   3.664 -0.3731 -0.6349 -0.4420
 1844SOL     OW17167   3.386   1.623  17.237 -0.3603 -0.4508  0.0606
 1844SOL    HW117168   3.331   1.551  17.204 -0.0475 -0.9903  0.7173
 1844SOL    HW217169   3.401   1.602  17.329  0.4451  0.9960  0.2520
 1845SOL     OW17170   0.778   1.870   3.016 -0.2787 -0.0882  0.1617
 1845SOL    HW117171   0.870   1.884   3.037 -0.4750 -0.9116  1.5746
 1845SOL    HW217172   0.779   1.780   2.984  1.3285 -0.3893  1.0800
 1846SOL     OW17173   2.647   1.487   7.662 -0.4835  0.2569 -0.2765
 1846SOL    HW117174   2.566   1.536   7.673 -0.8086  0.1792 -2.2016
 1846SOL    HW217175   2.636   1.454   7.572  2.4665  0.4310 -0.7240
 1847SOL     OW17176   1.978   4.265   8.901 -0.1969 -0.2961  0.5561
 1847SOL    HW117177   1.886   4.240   8.910 -0.1759 -0.4633  0.3248
 1847SOL    HW217178   2.031   4.200   8.948  0.7210 -0.2576 -0.4219
 1848SOL     OW17179   0.457   4.492   8.103  0.5643 -0.8943 -0.3916
 1848SOL    HW117180   0.548   4.470   8.083  1.1976  1.5012 -0.1198
 1848SOL    HW217181   0.428   4.420   8.160 -0.6682 -1.4547 -1.7200
 1849SOL     OW17182   0.588   2.646   4.695  0.5327  0.3987 -0.0818
 1849SOL    HW117183   0.643   2.601   4.759 -1.0133  2.3455  2.6206
 1849SOL    HW217184   0.543   2.573   4.654 -0.2866  0.1200  1.3005
 1850SOL     OW17185   1.001   1.201  17.641 -0.5468 -0.3736 -0.0370
 1850SOL    HW117186   1.005   1.290  17.606 -2.3034 -0.7126 -1.1185
 1850SOL    HW217187   0.918   1.174  17.602  0.2254 -1.7893 -0.6927
 1851SOL     OW17188   4.142   1.878   9.376  0.3541 -0.1939 -0.5191
 1851SOL    HW117189   4.077   1.948   9.382  0.9153  0.4524 -1.8847
 1851SOL    HW217190   4.225   1.925   9.378  0.8968 -1.0976 -2.3599
 1852SOL     OW17191   0.056   3.487  13.251  0.0427  0.7680  0.5272
 1852SOL    HW117192   0.124   3.452  13.308 -1.2630 -2.5291  0.1067
 1852SOL    HW217193   0.106   3.515  13.175 -0.8427  1.6177  0.2603
 1853SOL     OW17194   3.128   2.682   0.889 -0.1439  0.9360 -0.2820
 1853SOL    HW117195   3.133   2.651   0.799 -0.5705 -0.5776  0.2139
 1853SOL    HW217196   3.042   2.641   0.904  0.9220 -0.7110  1.3485
 1854SOL     OW17197   4.581   2.326   4.890 -0.1701 -1.0252  0.9618
 1854SOL    HW117198   4.557   2.355   4.803  3.5173  0.9703  0.5999
 1854SOL    HW217199   4.516   2.255   4.888 -0.4480 -0.7240 -0.8194
 1855SOL     OW17200   0.824   3.939  13.380  0.1421  0.1982 -0.9345
 1855SOL    HW117201   0.911   3.918  13.347  0.8230  0.4119  0.7183
 1855SOL    HW217202   0.797   3.852  13.409  0.8116  0.6960  1.1908
 1856SOL     OW17203   2.752   3.135   7.994  0.1285  0.1914 -0.6057
 1856SOL    HW117204   2.782   3.044   7.992 -0.1505  0.1770 -4.4657
 1856SOL    HW217205   2.836   3.177   8.016 -0.6547  1.0383  0.7749
 1857SOL     OW17206   3.931   2.971   9.310 -0.0619  0.3736  0.1552
 1857SOL    HW117207   3.991   2.914   9.358  2.0694 -0.9519 -4.0306
 1857SOL    HW217208   3.850   2.948   9.355  0.4870 -2.0065 -0.0624
 1858SOL     OW17209   3.722   1.152   7.472  0.2380 -0.2113  0.1703
 1858SOL    HW117210   3.775   1.192   7.541 -0.5604  0.4408  0.3978
 1858SOL    HW217211   3.661   1.216   7.435 -1.6285 -2.3002 -0.3602
 1859SOL     OW17212   3.064   2.611   2.840  0.3821  0.0412 -0.7455
 1859SOL    HW117213   3.118   2.689   2.829 -1.3091  1.4149  0.6024
 1859SOL    HW217214   3.023   2.608   2.754 -1.6146  0.3052  0.1858
 1860SOL     OW17215   3.636   0.883   4.440  0.5046  0.2397  0.2061
 1860SOL    HW117216   3.598   0.938   4.372 -0.3754  0.9684  1.2858
 1860SOL    HW217217   3.638   0.801   4.391 -2.1609 -0.0436  0.5626
 1861SOL     OW17218   3.049   3.562   2.732 -0.1843  0.4395  0.7827
 1861SOL    HW117219   3.074   3.654   2.723  1.1892  0.0311  0.5189
 1861SOL    HW217220   2.962   3.569   2.693 -0.1000 -0.1882  0.4887
 1862SOL     OW17221   2.220   3.436   4.178  0.6698 -0.4078  0.5735
 1862SOL    HW117222   2.126   3.422   4.171  0.8425 -1.8540  1.2521
 1862SOL    HW217223   2.223   3.529   4.201 -0.6540  0.0074 -0.9084
 1863SOL     OW17224   1.983   0.685   4.946 -0.1737  0.4239 -0.5410
 1863SOL    HW117225   1.920   0.647   4.885  0.3311 -1.2442 -0.0076
 1863SOL    HW217226   1.947   0.774   4.949 -2.7199 -0.6347  0.5263
 1864SOL     OW17227   4.629   3.298  13.411  0.0139  0.0030  0.4294
 1864SOL    HW117228   4.562   3.364  13.424  1.0591  0.8073  1.7775
 1864SOL    HW217229   4.700   3.362  13.404 -0.4175  0.3010 -1.2569
 1865SOL     OW17230   1.305   1.497   1.122 -0.1089 -0.9108 -0.3085
 1865SOL    HW117231   1.382   1.443   1.103  1.7771  2.1489 -1.4041
 1865SOL    HW217232   1.295   1.480   1.215  0.6323 -2.2112 -0.4647
 1866SOL     OW17233   3.396   4.309   3.858  0.2713 -0.0423 -0.4888
 1866SOL    HW117234   3.328   4.331   3.793 -1.2363 -1.3914  0.6242
 1866SOL    HW217235   3.477   4.330   3.812  1.2025  0.7204  1.5342
 1867SOL     OW17236   2.494   4.139   8.451  0.0130  0.2439  0.1515
 1867SOL    HW117237   2.473   4.228   8.425  0.6297  0.5829  0.8169
 1867SOL    HW217238   2.470   4.134   8.543  2.8816  0.5525  0.9271
 1868SOL     OW17239   2.981   1.364   6.076  0.2156  0.3308 -0.0851
 1868SOL    HW117240   2.975   1.390   6.168  1.0516  0.4474 -0.0597
 1868SOL    HW217241   3.049   1.424   6.045 -0.0896  0.9492  0.4580
 1869SOL     OW17242   1.324   2.684   0.391 -0.3112 -0.8193  0.1427
 1869SOL    HW117243   1.398   2.664   0.449 -0.7581 -2.9953 -0.0389
 1869SOL    HW217244   1.256   2.632   0.434 -0.2044 -1.5439 -0.5569
 1870SOL     OW17245   0.688   0.128   8.154  0.4775  0.0460 -0.3175
 1870SOL    HW117246   0.700   0.163   8.065 -0.3400  0.4514 -0.2655
 1870SOL    HW217247   0.757   0.176   8.200 -0.5936  1.4008 -0.1282
 1871SOL     OW17248   3.723   0.036   9.857  0.3631 -0.4813 -0.7712
 1871SOL    HW117249   3.711   0.105   9.922  0.6982  0.4071 -1.6353
 1871SOL    HW217250   3.709   0.093   9.781 -1.1719  1.6252  1.1073
 1872SOL     OW17251   4.197   2.996   7.811 -0.2464 -0.4615  0.2203
 1872SOL    HW117252   4.102   3.003   7.800 -0.3805  1.1578  2.4126
 1872SOL    HW217253   4.203   2.904   7.784 -1.2285 -0.5664  0.3493
 1873SOL     OW17254   1.312   0.576   5.269  0.3230 -0.3448 -0.1000
 1873SOL    HW117255   1.395   0.567   5.315  0.5330  1.9945  0.0139
 1873SOL    HW217256   1.342   0.616   5.187 -2.1262 -0.0123 -0.8369
 1874SOL     OW17257   4.397   2.978   2.090 -0.0961 -0.3111  0.9087
 1874SOL    HW117258   4.407   3.054   2.033 -0.1841 -0.7280  0.3432
 1874SOL    HW217259   4.451   3.013   2.162  1.1040 -0.0058 -0.1325
 1875SOL     OW17260   3.653   0.524   2.496  0.0966 -0.2141 -0.1543
 1875SOL    HW117261   3.682   0.453   2.553  1.7674  0.0658 -0.6540
 1875SOL    HW217262   3.626   0.591   2.560  1.0136 -1.0508  1.1164
 1876SOL     OW17263   4.182   3.412   3.506 -0.0530 -0.3140  0.7845
 1876SOL    HW117264   4.135   3.440   3.428  0.6408  0.7342  0.7499
 1876SOL    HW217265   4.272   3.412   3.474  0.4815 -2.1277  2.2586
 1877SOL     OW17266   1.855   3.701   8.775 -0.1064 -0.3040 -0.0042
 1877SOL    HW117267   1.771   3.729   8.739  0.4773  0.1256 -1.0273
 1877SOL    HW217268   1.844   3.606   8.768 -5.1585  0.1554  1.5305
 1878SOL     OW17269   2.502   0.139   6.637  0.2625 -0.0505  0.5902
 1878SOL    HW117270   2.451   0.126   6.717  2.1226  0.2477  1.8355
 1878SOL    HW217271   2.579   0.186   6.668 -0.1566 -0.2166  1.8795
 1879SOL     OW17272   0.218   0.970  12.673 -0.1565 -0.3191  0.9203
 1879SOL    HW117273   0.142   0.921  12.703 -0.9809 -0.1332 -0.8352
 1879SOL    HW217274   0.287   0.907  12.690  0.4352  0.4468  1.3684
 1880SOL     OW17275   1.080   3.199  10.888 -0.0518  0.3874  0.2498
 1880SOL    HW117276   0.987   3.212  10.870  0.1611  0.5808 -0.7183
 1880SOL    HW217277   1.105   3.280  10.843 -1.4935  0.6372 -0.0890
 1881SOL     OW17278   3.829   1.690  12.876  0.0153  0.0147  0.5202
 1881SOL    HW117279   3.868   1.725  12.796  0.4784 -2.9996 -0.5622
 1881SOL    HW217280   3.907   1.651  12.914  0.4746 -0.8001 -1.2603
 1882SOL     OW17281   4.241   3.809  14.703  0.2976 -0.5079  0.0596
 1882SOL    HW117282   4.240   3.779  14.794  2.3853 -0.7907 -0.0231
 1882SOL    HW217283   4.331   3.792  14.675 -0.2857 -1.5832 -1.2325
 1883SOL     OW17284   0.425   2.482  17.238  0.1480 -0.1729  0.1379
 1883SOL    HW117285   0.511   2.524  17.240 -0.8242  1.8140  0.9037
 1883SOL    HW217286   0.425   2.431  17.157 -2.0897  1.5012 -0.9196
 1884SOL     OW17287   3.194   3.157  14.442 -0.4374  0.3782  0.9793
 1884SOL    HW117288   3.204   3.062  14.436  1.3336  0.5097  2.1404
 1884SOL    HW217289   3.109   3.153  14.398  0.9233  2.6580 -1.7895
 1885SOL     OW17290   0.851   4.150   9.387  0.5504 -0.3231 -0.1391
 1885SOL    HW117291   0.824   4.227   9.436  1.6287 -1.5203  2.3649
 1885SOL    HW217292   0.920   4.190   9.334 -0.5865  1.3653 -0.3328
 1886SOL     OW17293   0.563   0.390   5.494  0.7845  0.1543 -0.3206
 1886SOL    HW117294   0.500   0.326   5.461 -0.6181  1.3474  0.0781
 1886SOL    HW217295   0.523   0.419   5.576  0.6485 -1.5502  0.2241
 1887SOL     OW17296   2.000   4.113   5.295 -0.1586  0.6201 -0.1318
 1887SOL    HW117297   1.955   4.062   5.229  0.3348 -0.0432  0.0515
 1887SOL    HW217298   2.084   4.123   5.250 -0.3224  0.6374 -0.4307
 1888SOL     OW17299   0.069   3.379   9.503  0.4513 -0.3731  0.7660
 1888SOL    HW117300   0.152   3.334   9.489  1.0268  0.8112  0.3677
 1888SOL    HW217301   0.006   3.325   9.455  0.0593  0.2788  0.5440
 1889SOL     OW17302   1.829   4.244  14.057  0.5285 -0.0568  0.2073
 1889SOL    HW117303   1.886   4.318  14.037 -2.6732  2.2331 -0.4295
 1889SOL    HW217304   1.740   4.279  14.056  1.2075  1.6996  0.9624
 1890SOL     OW17305   0.918   3.270   4.242  0.5674  0.6576 -0.2502
 1890SOL    HW117306   0.899   3.329   4.169  1.9173 -0.4456 -1.4960
 1890SOL    HW217307   0.887   3.320   4.317 -1.2440 -0.6794 -0.1140
 1891SOL     OW17308   3.968   2.520   3.468  0.1226 -0.2232  0.1063
 1891SOL    HW117309   3.958   2.471   3.549 -0.1105 -0.6266 -0.1651
 1891SOL    HW217310   3.880   2.557   3.465  0.9976  1.8273  0.0266
 1892SOL     OW17311   1.762   1.020   9.460 -0.0525 -0.1250  0.0620
 1892SOL    HW117312   1.741   0.948   9.402 -0.6827 -0.9947  1.3631
 1892SOL    HW217313   1.774   0.970   9.541 -2.7932 -1.4484 -0.3437
 1893SOL     OW17314   1.342   3.612   6.640 -0.4103 -0.2477 -0.4696
 1893SOL    HW117315   1.322   3.595   6.732  2.0565 -0.3151  0.0521
 1893SOL    HW217316   1.366   3.704   6.647  1.7190 -0.9461  1.3987
 1894SOL     OW17317   4.016   1.104   5.759  0.0436 -0.2172  0.2141
 1894SOL    HW117318   3.937   1.085   5.809  0.2781  0.3015  0.7859
 1894SOL    HW217319   3.986   1.090   5.669  0.5183  0.6226 -0.0758
 1895SOL     OW17320   2.321   1.923  12.734  0.2346 -0.1646 -0.2590
 1895SOL    HW117321   2.271   2.002  12.757  0.4644  0.1489 -0.8292
 1895SOL    HW217322   2.263   1.878  12.673 -1.3008 -0.2876  1.3107
 1896SOL     OW17323   0.301   3.021   4.586 -0.1198 -0.0538  0.1608
 1896SOL    HW117324   0.236   3.034   4.655 -1.0835 -0.2418 -0.7150
 1896SOL    HW217325   0.349   2.955   4.637  1.6468 -0.3392 -1.8913
 1897SOL     OW17326   3.934   1.825   9.124  0.0453 -0.3899 -0.3772
 1897SOL    HW117327   4.014   1.790   9.164  0.5673 -0.0257 -1.0962
 1897SOL    HW217328   3.874   1.751   9.127  0.6854 -0.8647  0.9177
 1898SOL     OW17329   0.069   2.863  10.967 -0.6526  0.6553 -0.4096
 1898SOL    HW117330   0.137   2.928  10.948 -0.4318  0.6525  0.3663
 1898SOL    HW217331   0.113   2.832  11.046 -2.3505 -1.3597 -0.2618
 1899SOL     OW17332   4.037   1.691  16.956  0.2248 -0.3451  0.1376
 1899SOL    HW117333   4.066   1.773  16.915 -2.8674  0.6070 -0.0832
 1899SOL    HW217334   4.043   1.705  17.051  0.4401  0.7620 -0.0380
 1900SOL     OW17335   0.192   1.274   5.146  0.0354  0.2619 -0.3143
 1900SOL    HW117336   0.233   1.355   5.116  1.4588 -0.7008 -0.9841
 1900SOL    HW217337   0.232   1.210   5.087  2.4806  0.3511  1.2395
 1901SOL     OW17338   2.802   2.422  13.535  0.2470  0.1678  0.1327
 1901SOL    HW117339   2.812   2.379  13.620  0.8849  1.9298  0.9403
 1901SOL    HW217340   2.708   2.416  13.517 -0.1328  1.6188  1.7472
 1902SOL     OW17341   2.819   1.692   2.671 -0.2382 -0.3118  0.5721
 1902SOL    HW117342   2.887   1.754   2.700 -1.6712  1.5349 -0.0469
 1902SOL    HW217343   2.745   1.750   2.657  0.3002  0.2741  0.1277
 1903SOL     OW17344   3.711   0.030  17.232 -0.2831 -0.2085  0.7249
 1903SOL    HW117345   3.617   0.025  17.216  0.3699 -1.9414 -2.5989
 1903SOL    HW217346   3.745   4.704  17.168  1.2457  0.8573  0.4997
 1904SOL     OW17347   3.858   1.650   6.548 -0.3557  0.6979  0.7466
 1904SOL    HW117348   3.950   1.646   6.574  0.5258 -0.6907 -2.6082
 1904SOL    HW217349   3.870   1.682   6.459  1.3380  1.1390  1.1476
 1905SOL     OW17350   4.033   2.171  10.498 -0.5156 -0.2508  0.6721
 1905SOL    HW117351   3.952   2.216  10.473  0.4513  0.4916 -1.1448
 1905SOL    HW217352   4.054   2.196  10.588 -0.2630  2.2484 -0.0799
 1906SOL     OW17353   1.663   0.707   3.588 -0.3283 -0.8001  0.2989
 1906SOL    HW117354   1.718   0.643   3.633  0.0721 -1.1449 -0.6688
 1906SOL    HW217355   1.577   0.665   3.580 -1.1633  1.0245 -0.2356
 1907SOL     OW17356   2.672   3.536   8.223 -0.3630  0.1211 -0.0009
 1907SOL    HW117357   2.645   3.626   8.206  0.0478  0.5512  1.6260
 1907SOL    HW217358   2.628   3.479   8.159  0.6902 -1.2162  0.4585
 1908SOL     OW17359   1.262   1.309   7.465  0.2019 -0.7734 -0.8918
 1908SOL    HW117360   1.349   1.269   7.475  0.8871  1.0228  0.3129
 1908SOL    HW217361   1.219   1.241   7.414 -1.7954 -0.7597  0.7687
 1909SOL     OW17362   4.398   0.038   9.013  0.1569 -0.0424  0.0439
 1909SOL    HW117363   4.339   0.039   9.089 -0.0042 -1.7079 -0.0574
 1909SOL    HW217364   4.453   0.113   9.034 -0.2545  0.7407 -1.7403
 1910SOL     OW17365   2.167   1.466   3.663  1.3457 -0.4831  0.1103
 1910SOL    HW117366   2.197   1.554   3.686 -1.0391  0.7783 -1.5872
 1910SOL    HW217367   2.081   1.468   3.704  0.5465  0.2747 -1.6065
 1911SOL     OW17368   1.084   0.779   0.827  0.4147  0.4527  0.5204
 1911SOL    HW117369   1.148   0.729   0.776  1.0619  0.7365  1.0498
 1911SOL    HW217370   1.130   0.795   0.909  0.9048  0.9564  0.1454
 1912SOL     OW17371   1.374   3.488  17.482  0.0154  0.2283 -0.3963
 1912SOL    HW117372   1.320   3.554  17.525 -1.5515 -0.6878 -0.9186
 1912SOL    HW217373   1.336   3.476  17.395  1.7191 -1.1143 -0.9615
 1913SOL     OW17374   0.536   2.512  10.932  0.4830  0.3968  0.8582
 1913SOL    HW117375   0.626   2.485  10.950  0.1488 -0.9993  0.4562
 1913SOL    HW217376   0.541   2.510  10.837 -1.3805  1.2416  0.7547
 1914SOL     OW17377   0.133   2.510   0.640 -0.3194  0.0298  0.0886
 1914SOL    HW117378   0.077   2.455   0.585  1.3347  0.4718 -2.0072
 1914SOL    HW217379   0.155   2.573   0.572 -0.4087 -0.1168 -0.0764
 1915SOL     OW17380   4.338   1.629   1.006 -0.2052 -1.2954 -0.0655
 1915SOL    HW117381   4.274   1.677   1.057  0.9418  0.0910  0.0723
 1915SOL    HW217382   4.356   1.553   1.061  2.3933  0.3874  1.4555
 1916SOL     OW17383   3.958   3.877   2.084  0.1137 -0.2300  0.0837
 1916SOL    HW117384   3.914   3.801   2.045 -3.8424  0.4149  3.3361
 1916SOL    HW217385   3.888   3.942   2.086 -1.0424 -1.5159  1.4960
 1917SOL     OW17386   0.354   3.120   1.889 -0.1570  0.5267  0.4125
 1917SOL    HW117387   0.335   3.134   1.796  0.8166  1.2087  0.3117
 1917SOL    HW217388   0.297   3.190   1.920 -0.9771  0.9546 -2.0548
 1918SOL     OW17389   2.704   3.191   6.971  0.3662  0.0549 -0.3320
 1918SOL    HW117390   2.622   3.234   6.947  0.7182 -0.8970 -3.2276
 1918SOL    HW217391   2.727   3.134   6.898  2.8063  1.0929 -0.3812
 1919SOL     OW17392   3.425   1.131   8.830 -0.4385 -0.3130 -0.4188
 1919SOL    HW117393   3.329   1.125   8.831 -0.4345 -0.5165 -1.6868
 1919SOL    HW217394   3.436   1.221   8.799 -2.6817 -0.2600 -1.0772
 1920SOL     OW17395   2.065   2.927   3.085  0.4670 -0.2224 -0.1404
 1920SOL    HW117396   1.983   2.916   3.134  0.7368 -0.2306  0.3101
 1920SOL    HW217397   2.097   3.014   3.109  0.7389 -0.5717  0.7972
 1921SOL     OW17398   4.441   2.345   1.003 -0.6410 -0.6920  0.2105
 1921SOL    HW117399   4.368   2.351   1.065 -0.2483  0.3389  0.5807
 1921SOL    HW217400   4.464   2.252   1.003 -0.1559 -0.5705  1.9111
 1922SOL     OW17401   4.438   3.004  12.750  0.4329 -0.1288  0.0433
 1922SOL    HW117402   4.517   3.043  12.787 -1.1435  2.9626  0.1020
 1922SOL    HW217403   4.372   3.033  12.812 -0.4498  0.9779 -1.4251
 1923SOL     OW17404   4.449   3.940   4.338  0.0044 -0.3163 -0.4844
 1923SOL    HW117405   4.449   3.882   4.262 -0.3453  0.1774 -0.8649
 1923SOL    HW217406   4.358   3.970   4.344  0.0558  0.0165 -1.3229
 1924SOL     OW17407   1.165   4.487   3.839  0.0655 -0.3919 -0.3186
 1924SOL    HW117408   1.144   4.394   3.830 -1.5071  0.0533 -1.2614
 1924SOL    HW217409   1.081   4.520   3.870 -1.0362 -1.5974 -2.0031
 1925SOL     OW17410   3.597   1.405   2.079  0.0105  0.0128  0.2096
 1925SOL    HW117411   3.667   1.348   2.112  0.4246 -0.4245 -1.3941
 1925SOL    HW217412   3.606   1.482   2.136 -1.8704 -1.6311  2.7016
 1926SOL     OW17413   1.395   4.107  10.022  0.5972  0.5157  0.1004
 1926SOL    HW117414   1.397   4.015  10.046  1.1240  0.8479  1.3031
 1926SOL    HW217415   1.304   4.124   9.997  1.0931 -1.3611 -2.8743
 1927SOL     OW17416   1.300   4.111   4.206  0.4262 -0.2582 -0.4042
 1927SOL    HW117417   1.284   4.110   4.112 -2.0986  0.0082  0.0316
 1927SOL    HW217418   1.230   4.172   4.228  1.3505  0.5413  0.3510
 1928SOL     OW17419   1.838   4.028  11.419  0.4567  0.2924 -0.6960
 1928SOL    HW117420   1.830   3.934  11.430  2.1186  0.2221 -0.1096
 1928SOL    HW217421   1.855   4.041  11.326 -2.1703  2.6429 -0.8478
 1929SOL     OW17422   3.203   0.659   9.730 -0.6693 -0.7705  0.3179
 1929SOL    HW117423   3.168   0.696   9.649  0.5504 -1.3434 -0.4544
 1929SOL    HW217424   3.291   0.696   9.724 -0.6033 -0.9630  0.0951
 1930SOL     OW17425   1.336   2.751  14.336  0.7564 -0.2903  0.3589
 1930SOL    HW117426   1.321   2.659  14.353  0.8722 -0.4334 -0.3072
 1930SOL    HW217427   1.251   2.781  14.369  0.8498 -1.6472  1.8213
 1931SOL     OW17428   3.003   0.851   2.002 -0.0583  0.3438 -0.5436
 1931SOL    HW117429   3.043   0.937   2.018 -0.6512  0.5938 -0.4048
 1931SOL    HW217430   2.995   0.822   2.093 -1.9316  2.3492 -0.0586
 1932SOL     OW17431   1.427   1.611   8.555  0.0053 -0.1536 -0.4995
 1932SOL    HW117432   1.338   1.645   8.550 -0.0123  0.1756  2.3307
 1932SOL    HW217433   1.473   1.694   8.547 -0.5361  0.0410 -1.5462
 1933SOL     OW17434   0.313   0.522   0.908 -0.6811 -0.0315  0.0893
 1933SOL    HW117435   0.324   0.528   0.813 -0.5078 -1.1396  0.0368
 1933SOL    HW217436   0.232   0.473   0.926 -2.0115  0.8769 -3.4640
 1934SOL     OW17437   2.786   3.078   9.016 -0.0607 -0.0097 -0.1713
 1934SOL    HW117438   2.868   3.101   8.973 -0.0302  0.0100 -0.1009
 1934SOL    HW217439   2.721   3.136   8.976  0.8355  0.2400 -1.2614
 1935SOL     OW17440   1.463   4.518   4.008 -0.3857  0.0579  0.2328
 1935SOL    HW117441   1.403   4.548   4.076  0.1073 -2.1881  1.6684
 1935SOL    HW217442   1.436   4.427   3.996 -1.2430  0.2706  0.5394
 1936SOL     OW17443   2.278   3.534   9.943 -0.3679  0.3193  0.4610
 1936SOL    HW117444   2.232   3.559   9.864 -1.5182  1.7865  1.6031
 1936SOL    HW217445   2.220   3.580  10.004  1.2553  0.5041  1.8731
 1937SOL     OW17446   2.038   1.073   9.150 -0.1611  0.2256  0.5033
 1937SOL    HW117447   1.986   1.000   9.181 -1.2811  0.4221 -0.8802
 1937SOL    HW217448   2.113   1.033   9.106 -0.3986  1.9693 -1.5335
 1938SOL     OW17449   0.280   0.706   4.940 -0.0944 -0.8959  0.4306
 1938SOL    HW117450   0.213   0.751   4.991 -0.2348  0.1073 -0.6570
 1938SOL    HW217451   0.347   0.774   4.947  0.7254 -1.5629 -1.0332
 1939SOL     OW17452   2.343   1.540   8.323  0.0715 -0.1413 -0.2864
 1939SOL    HW117453   2.354   1.453   8.284  1.4011 -0.9585  1.9256
 1939SOL    HW217454   2.430   1.577   8.336 -0.3784  1.0840 -0.7366
 1940SOL     OW17455   1.873   0.892  10.814  0.1561  0.4101 -0.4313
 1940SOL    HW117456   1.868   0.877  10.908  2.4179 -0.1255 -0.4089
 1940SOL    HW217457   1.782   0.877  10.788 -0.0403 -1.3025  1.2478
 1941SOL     OW17458   0.895   0.122  14.518  0.2925  0.6999  0.0613
 1941SOL    HW117459   0.944   0.159  14.445  1.0190 -0.8964 -0.2809
 1941SOL    HW217460   0.972   0.091  14.565  0.4555  1.0652  0.0325
 1942SOL     OW17461   2.889   4.402   8.766 -0.8551  0.3926 -0.1231
 1942SOL    HW117462   2.818   4.369   8.711  0.5197  1.8981 -2.7715
 1942SOL    HW217463   2.870   4.367   8.853 -2.1450 -0.3203 -0.6848
 1943SOL     OW17464   2.499   1.197   4.363 -0.1244  0.1707 -0.3574
 1943SOL    HW117465   2.435   1.244   4.417  0.0189 -0.8220  0.6889
 1943SOL    HW217466   2.456   1.185   4.278  0.3627 -0.1880 -0.5545
 1944SOL     OW17467   0.076   2.942   4.755 -0.4292 -0.6572  0.1117
 1944SOL    HW117468   0.078   2.945   4.851  0.6742  1.5284  0.0046
 1944SOL    HW217469   4.730   2.896   4.740 -0.2451 -0.7420 -0.6212
 1945SOL     OW17470   2.025   0.365   8.230  0.3951  0.3731 -0.5945
 1945SOL    HW117471   1.974   0.287   8.251 -0.5447  1.0867 -0.1689
 1945SOL    HW217472   1.960   0.425   8.194 -2.0208 -3.2357 -2.2429
 1946SOL     OW17473   0.109   0.633   0.359 -0.5502 -0.2804 -0.5679
 1946SOL    HW117474   0.186   0.689   0.357 -0.6730 -0.0252  1.5524
 1946SOL    HW217475   0.123   0.587   0.277  0.4483 -0.0398 -0.5309
 1947SOL     OW17476   4.363   3.730  12.460  0.2421  0.1042  0.0843
 1947SOL    HW117477   4.277   3.744  12.421  0.2544  2.1825  0.7787
 1947SOL    HW217478   4.394   3.820  12.447 -0.2069  0.1994 -0.2977
 1948SOL     OW17479   0.424   4.297   3.235 -0.0833  0.0744  0.2396
 1948SOL    HW117480   0.451   4.205   3.225  2.3879  0.9952 -1.4162
 1948SOL    HW217481   0.447   4.309   3.327 -0.7153 -1.7485  0.6366
 1949SOL     OW17482   1.715   2.773   6.856  0.0958  0.5832 -0.2014
 1949SOL    HW117483   1.755   2.860   6.857  0.0921  0.5844 -0.1007
 1949SOL    HW217484   1.785   2.721   6.818  0.1494  0.2172  0.3928
 1950SOL     OW17485   0.778   3.888   9.372 -0.2917  0.2155  0.0088
 1950SOL    HW117486   0.773   3.983   9.385  2.4134  0.3892 -0.3125
 1950SOL    HW217487   0.852   3.861   9.426  1.0252  0.6647 -1.5548
 1951SOL     OW17488   3.425   2.383   3.442  0.0407 -0.3740  0.0850
 1951SOL    HW117489   3.417   2.385   3.347  0.3049  2.1931  0.1034
 1951SOL    HW217490   3.444   2.476   3.456  1.2950 -0.3065 -2.1433
 1952SOL     OW17491   3.651   2.880   2.465  0.2232 -0.0179 -0.0433
 1952SOL    HW117492   3.698   2.802   2.495 -0.1430  0.1320  0.9246
 1952SOL    HW217493   3.722   2.945   2.470 -0.6914  1.1282 -1.9347
 1953SOL     OW17494   2.222   0.160  16.647  0.2249  0.1468  0.6358
 1953SOL    HW117495   2.237   0.167  16.742 -1.9026  0.3229  0.9728
 1953SOL    HW217496   2.286   0.227  16.623 -0.7269  0.9700  0.3692
 1954SOL     OW17497   1.321   1.202   0.987  0.1884 -0.0008  0.5759
 1954SOL    HW117498   1.334   1.118   1.031 -0.5223  0.4369  1.6134
 1954SOL    HW217499   1.398   1.199   0.930 -0.9723 -0.9174 -0.9445
 1955SOL     OW17500   0.080   2.570  15.203 -0.7499  0.2310  0.2240
 1955SOL    HW117501   0.054   2.486  15.163  2.0419 -1.0125  1.0528
 1955SOL    HW217502   0.054   2.553  15.294  1.1888  2.7322  1.2385
 1956SOL     OW17503   3.854   0.123   2.423 -0.3222 -0.1396  0.1919
 1956SOL    HW117504   3.881   0.203   2.378  1.1301 -0.4784  0.4428
 1956SOL    HW217505   3.763   0.122   2.395 -0.0093  1.5784 -0.8635
 1957SOL     OW17506   1.622   3.692  16.315 -0.3467 -0.5797 -0.2683
 1957SOL    HW117507   1.626   3.730  16.227 -2.7396  3.3635  1.3235
 1957SOL    HW217508   1.559   3.753  16.352  1.3243  1.6414 -1.0812
 1958SOL     OW17509   3.101   0.399   3.913 -0.3516  0.5814 -0.0465
 1958SOL    HW117510   3.165   0.345   3.865  1.6518  1.5712  1.4912
 1958SOL    HW217511   3.076   0.466   3.850 -1.3315  0.4724  0.2390
 1959SOL     OW17512   4.627   3.514   1.803 -0.0529  0.2740  0.0604
 1959SOL    HW117513   4.616   3.516   1.898  0.9619  2.4557  0.1490
 1959SOL    HW217514   4.712   3.555   1.786 -0.6440  1.3447 -0.3401
 1960SOL     OW17515   4.011   4.290   5.368  0.7029  0.0912  0.4098
 1960SOL    HW117516   3.978   4.266   5.282 -0.0699  0.3694  0.6275
 1960SOL    HW217517   3.967   4.374   5.380  0.6123  0.0690  0.2214
 1961SOL     OW17518   4.484   3.501   4.086 -0.0236  0.2175 -0.1347
 1961SOL    HW117519   4.486   3.510   3.991 -1.4483 -1.8910 -0.3515
 1961SOL    HW217520   4.564   3.454   4.106 -0.1243 -0.9944 -2.5951
 1962SOL     OW17521   4.423   1.983  16.045  0.1355  0.6403 -0.2072
 1962SOL    HW117522   4.462   2.052  15.991 -2.3227  1.0187 -1.4922
 1962SOL    HW217523   4.333   2.014  16.056 -0.8564 -2.5553  0.6715
 1963SOL     OW17524   0.049   3.522   9.153  0.1191  0.1914  0.2023
 1963SOL    HW117525   4.728   3.545   9.081  0.6263 -0.3798 -0.3906
 1963SOL    HW217526   0.066   3.602   9.203 -0.1718  0.4688 -0.1443
 1964SOL     OW17527   4.329   3.078   4.260 -0.3141 -0.3369 -0.2340
 1964SOL    HW117528   4.396   3.042   4.317  0.4516 -1.0282 -1.5503
 1964SOL    HW217529   4.299   3.150   4.315 -0.7391 -0.6730 -0.0365
 1965SOL     OW17530   3.964   3.399  16.442  0.1422 -0.2960  0.7453
 1965SOL    HW117531   4.047   3.351  16.441 -0.0128 -0.5644  1.0348
 1965SOL    HW217532   3.941   3.390  16.534 -0.7735 -0.0162  0.5378
 1966SOL     OW17533   3.374   0.391   4.957  0.3799  0.1562  0.3465
 1966SOL    HW117534   3.468   0.404   4.949  0.8486 -2.3441  1.8052
 1966SOL    HW217535   3.372   0.296   4.954 -1.7302  0.1165  2.5002
 1967SOL     OW17536   3.274   0.991   6.392 -0.7884  0.4655 -0.2281
 1967SOL    HW117537   3.228   0.916   6.430 -0.0377 -1.3507 -2.8884
 1967SOL    HW217538   3.232   1.059   6.444 -1.4423 -0.0863 -0.0296
 1968SOL     OW17539   1.782   2.923   8.551 -0.4911 -0.9201 -0.2722
 1968SOL    HW117540   1.711   2.904   8.491  1.3229 -0.2609 -2.6512
 1968SOL    HW217541   1.732   2.941   8.631  0.1052  1.7150 -0.4655
 1969SOL     OW17542   1.698   1.855   8.164 -0.1560  0.0944 -0.0834
 1969SOL    HW117543   1.788   1.829   8.143 -0.0624 -0.2575  0.7348
 1969SOL    HW217544   1.689   1.812   8.249  0.9282 -0.5015 -0.2654
 1970SOL     OW17545   4.054   2.374   2.687  0.4335  0.3259  0.0488
 1970SOL    HW117546   3.996   2.434   2.734  0.9462 -0.8015  2.0856
 1970SOL    HW217547   4.114   2.436   2.646 -1.1508  2.0380  0.3507
 1971SOL     OW17548   1.978   2.307   8.719 -0.1300 -0.5554  0.0150
 1971SOL    HW117549   1.890   2.342   8.715  0.0076 -0.1062  0.8746
 1971SOL    HW217550   1.960   2.229   8.771 -0.0354  0.0510  0.9635
 1972SOL     OW17551   2.888   2.611   3.040  0.1109 -0.5031  0.1279
 1972SOL    HW117552   2.963   2.638   2.987  0.5248 -0.0195  0.9633
 1972SOL    HW217553   2.867   2.518   3.029 -4.1699  0.6326 -1.0282
 1973SOL     OW17554   2.415   2.846  14.969  0.2810  0.2081  0.3801
 1973SOL    HW117555   2.423   2.919  14.907  1.1236 -2.8958 -3.1653
 1973SOL    HW217556   2.330   2.808  14.946  0.2295  0.7810 -0.3664
 1974SOL     OW17557   3.071   3.171   5.529 -0.3776 -0.0113  0.8545
 1974SOL    HW117558   3.117   3.187   5.446  0.7950 -0.1703  1.4796
 1974SOL    HW217559   2.997   3.231   5.521 -1.0996 -0.9303  0.7682
 1975SOL     OW17560   4.015   4.339   2.051  0.2227  0.3644 -0.3467
 1975SOL    HW117561   4.044   4.287   2.126 -0.3477  0.1436 -0.2737
 1975SOL    HW217562   3.961   4.398   2.103  0.2256 -0.2398  0.3547
 1976SOL     OW17563   0.227   4.279   5.907  0.3146 -0.3859  0.2581
 1976SOL    HW117564   0.197   4.368   5.892 -1.5117 -0.6356  2.5299
 1976SOL    HW217565   0.309   4.284   5.858  0.5260  0.1754  0.6751
 1977SOL     OW17566   3.373   1.110   5.519 -0.0938  0.0602 -0.2467
 1977SOL    HW117567   3.308   1.046   5.490  2.5914 -1.4803 -2.8611
 1977SOL    HW217568   3.352   1.188   5.467  0.7624 -0.3690 -1.2434
 1978SOL     OW17569   2.176   0.563  14.181  0.6702  0.0264 -0.3228
 1978SOL    HW117570   2.213   0.524  14.102 -1.2371  0.7225 -1.5616
 1978SOL    HW217571   2.094   0.600  14.150  1.6693  1.3275 -1.4196
 1979SOL     OW17572   0.399   4.105   7.116  0.3094 -0.3764  0.3541
 1979SOL    HW117573   0.364   4.184   7.158 -0.3232 -0.7948  0.6044
 1979SOL    HW217574   0.430   4.056   7.192 -0.3760  0.4733  1.1723
 1980SOL     OW17575   1.906   2.680  13.458  0.2325  0.1854 -0.1381
 1980SOL    HW117576   1.871   2.766  13.433 -0.1475  0.4709  1.3775
 1980SOL    HW217577   1.990   2.706  13.495  0.8898 -1.4707 -0.5012
 1981SOL     OW17578   3.645   0.904   3.579  0.2408  0.0011 -0.0994
 1981SOL    HW117579   3.658   0.902   3.674 -0.9181  0.8444  0.0801
 1981SOL    HW217580   3.665   0.996   3.563 -1.8781  0.6114  0.7516
 1982SOL     OW17581   2.600   3.793   4.708  0.2406 -0.1672  0.3306
 1982SOL    HW117582   2.524   3.754   4.752 -0.5656 -0.5217 -1.3798
 1982SOL    HW217583   2.617   3.734   4.634 -0.2205  1.6807 -1.2475
 1983SOL     OW17584   0.721   3.031   2.225  0.0025 -0.7068  0.1827
 1983SOL    HW117585   0.655   3.032   2.155  0.4276 -1.7629 -0.2337
 1983SOL    HW217586   0.716   2.938   2.249 -3.4001 -0.7250 -0.5316
 1984SOL     OW17587   0.722   3.938  17.041  0.1019  0.1807  0.9962
 1984SOL    HW117588   0.760   4.018  17.077 -1.2333  0.8362  0.9478
 1984SOL    HW217589   0.798   3.891  17.006 -0.2797  0.3629 -0.0911
 1985SOL     OW17590   3.724   1.359  17.081  0.7549 -0.7120  0.4292
 1985SOL    HW117591   3.668   1.291  17.119 -0.0532 -0.2697  0.0332
 1985SOL    HW217592   3.692   1.359  16.990  0.0958  0.6382  0.6610
 1986SOL     OW17593   2.834   2.670   4.163  0.4252  0.3912  0.4357
 1986SOL    HW117594   2.884   2.590   4.143 -0.4671 -0.2793  0.9051
 1986SOL    HW217595   2.904   2.735   4.155  2.9946 -2.6454 -1.7375
 1987SOL     OW17596   0.102   0.237   2.034 -0.0158  0.5355  0.4594
 1987SOL    HW117597   0.039   0.260   2.102  1.2090  1.6709  1.2008
 1987SOL    HW217598   0.169   0.191   2.085 -0.6574 -0.5528  0.3354
 1988SOL     OW17599   2.905   1.425   6.900  0.8895 -0.3069  0.3752
 1988SOL    HW117600   2.821   1.410   6.943  0.0576 -0.1186 -1.1954
 1988SOL    HW217601   2.951   1.349   6.937  0.5395 -0.4854  0.4459
 1989SOL     OW17602   3.758   1.432  10.670  0.3421 -0.2954  0.2496
 1989SOL    HW117603   3.719   1.359  10.623  0.1131 -0.1936  0.2775
 1989SOL    HW217604   3.693   1.442  10.740 -0.8524  2.1320 -1.1912
 1990SOL     OW17605   2.002   3.766   4.488 -0.2645 -0.1265  0.0539
 1990SOL    HW117606   2.023   3.844   4.540 -1.4919  0.6438 -0.6119
 1990SOL    HW217607   2.059   3.705   4.535  1.2987  2.2902  1.3041
 1991SOL     OW17608   3.127   1.606   4.365 -0.2990  0.1691 -0.6350
 1991SOL    HW117609   3.156   1.521   4.396 -4.7430 -0.3898  1.9644
 1991SOL    HW217610   3.037   1.589   4.339 -0.0775  1.2401 -2.1309
 1992SOL     OW17611   4.201   4.148   7.992 -0.1004  0.6487 -0.0331
 1992SOL    HW117612   4.291   4.117   7.998 -0.3368 -0.5922 -3.0332
 1992SOL    HW217613   4.166   4.125   8.078  0.4652  0.7560  0.2254
 1993SOL     OW17614   4.622   0.446   7.431 -0.5357  0.1267 -0.1313
 1993SOL    HW117615   4.634   0.395   7.512  2.5714  1.6073  0.3394
 1993SOL    HW217616   4.561   0.510   7.467  0.2207  1.2065 -0.7930
 1994SOL     OW17617   4.598   0.672   0.766 -0.1947  0.2678  0.6770
 1994SOL    HW117618   4.638   0.595   0.725  2.3722  0.6909  2.3894
 1994SOL    HW217619   4.670   0.710   0.815  1.2061 -1.6394  0.0878
 1995SOL     OW17620   4.249   4.246  15.204 -0.1069 -0.3225  0.6092
 1995SOL    HW117621   4.278   4.268  15.116  0.6610 -1.1259  0.6689
 1995SOL    HW217622   4.264   4.331  15.245  2.4363  0.1154 -1.2306
 1996SOL     OW17623   1.844   2.171   4.469  0.3623  0.1418 -0.2840
 1996SOL    HW117624   1.829   2.215   4.385 -1.9523  0.8433  0.5036
 1996SOL    HW217625   1.858   2.247   4.525 -1.1160  1.5008 -1.7365
 1997SOL     OW17626   4.350   4.458  16.612  0.3728  0.5849 -0.3724
 1997SOL    HW117627   4.425   4.406  16.638  0.1572 -0.5008 -1.8852
 1997SOL    HW217628   4.356   4.535  16.668 -0.0523  1.4281 -1.4859
 1998SOL     OW17629   1.141   4.251  14.925  0.2513  0.3447 -0.2449
 1998SOL    HW117630   1.212   4.316  14.929  0.5450  0.0652 -0.9724
 1998SOL    HW217631   1.111   4.265  14.835 -2.2467  1.2962  0.7509
 1999SOL     OW17632   0.143   2.739  11.233 -0.2752  0.4094 -0.1957
 1999SOL    HW117633   0.195   2.691  11.169 -0.4095 -0.7622  0.5688
 1999SOL    HW217634   0.182   2.711  11.316 -1.1725 -2.5861 -0.8107
 2000SOL     OW17635   3.716   3.255  11.500 -0.7324 -0.2967  0.3097
 2000SOL    HW117636   3.726   3.269  11.406 -0.9689  0.9449  0.4657
 2000SOL    HW217637   3.638   3.200  11.497 -1.2362  0.3377  1.5474
 2001SOL     OW17638   2.257   1.859   2.908 -0.4010 -0.4480 -0.2208
 2001SOL    HW117639   2.185   1.862   2.846 -1.7873 -0.9746  1.3808
 2001SOL    HW217640   2.240   1.947   2.942 -1.6041 -0.9148  0.3827
 2002SOL     OW17641   0.944   3.081   6.987 -0.4774 -0.5644 -1.1626
 2002SOL    HW117642   0.939   2.986   6.970  1.5005 -0.7414 -0.6896
 2002SOL    HW217643   0.915   3.087   7.078  0.6887  1.0876 -0.9024
 2003SOL     OW17644   1.182   1.057  17.065  0.4962 -0.0551 -0.3195
 2003SOL    HW117645   1.164   1.053  17.159 -0.2466 -0.5223 -0.4803
 2003SOL    HW217646   1.268   1.099  17.065  1.0416 -1.1852 -0.9588
 2004SOL     OW17647   4.695   4.052   4.294 -0.9107  0.4963 -0.1192
 2004SOL    HW117648   4.718   4.085   4.381  0.4253 -2.5356  0.6440
 2004SOL    HW217649   4.612   4.007   4.307 -0.5856  0.1664  0.7709
 2005SOL     OW17650   4.547   0.403   6.830  0.2933 -0.1633 -0.4311
 2005SOL    HW117651   4.623   0.347   6.843 -0.1568 -0.1500  2.2682
 2005SOL    HW217652   4.588   0.484   6.799 -1.0424  0.1158 -1.4827
 2006SOL     OW17653   3.830   1.176  14.537 -0.3598  0.0316  0.1197
 2006SOL    HW117654   3.864   1.229  14.465 -2.5354  1.3408  0.0748
 2006SOL    HW217655   3.853   1.238  14.606 -0.7995  0.3744 -0.0428
 2007SOL     OW17656   0.565   1.655   2.499  0.0344 -0.1372 -1.0614
 2007SOL    HW117657   0.532   1.608   2.576 -0.2175  3.7688  1.1853
 2007SOL    HW217658   0.494   1.713   2.469  0.8088  0.8166 -1.0274
 2008SOL     OW17659   2.919   2.083   8.058 -0.3612 -0.5427 -0.1584
 2008SOL    HW117660   2.944   2.070   8.150 -3.6277 -0.9244  0.6832
 2008SOL    HW217661   3.000   2.046   8.022  0.4776  0.6641  0.4549
 2009SOL     OW17662   2.965   3.101  16.111 -0.3983  0.1355 -0.6121
 2009SOL    HW117663   3.057   3.095  16.088 -0.8397  0.3144 -2.4702
 2009SOL    HW217664   2.942   3.193  16.103  0.1052  0.2317 -0.9415
 2010SOL     OW17665   4.570   3.603   4.790 -0.1089 -0.5154 -0.5146
 2010SOL    HW117666   4.502   3.589   4.855 -0.4106  0.1741 -0.6753
 2010SOL    HW217667   4.545   3.694   4.772 -0.8351 -0.4326  0.9368
 2011SOL     OW17668   0.120   1.506  14.273  0.2208 -0.0673 -0.2407
 2011SOL    HW117669   0.058   1.546  14.335 -0.8594 -3.3316  0.7768
 2011SOL    HW217670   0.193   1.568  14.283  1.0706 -1.0436 -0.3132
 2012SOL     OW17671   0.886   0.268   8.744 -0.0635 -0.0868 -0.0991
 2012SOL    HW117672   0.807   0.214   8.739  1.2059 -1.8406 -1.3110
 2012SOL    HW217673   0.857   0.358   8.733 -0.8271 -0.1690  1.1953
 2013SOL     OW17674   4.665   4.717  10.792 -0.3848 -0.1317  0.2962
 2013SOL    HW117675   4.732   4.706  10.859  1.0862  0.2487 -1.1001
 2013SOL    HW217676   4.687   0.070  10.767 -1.9049  0.2598  0.3035
 2014SOL     OW17677   4.040   0.731   2.077 -0.0136 -0.3274 -0.0346
 2014SOL    HW117678   4.080   0.818   2.077  0.7685 -0.6810 -0.1562
 2014SOL    HW217679   4.044   0.704   1.985  0.7187  0.3846 -0.2121
 2015SOL     OW17680   3.102   3.985   6.148 -0.0085  0.2616  0.9096
 2015SOL    HW117681   3.120   4.036   6.069  0.1519 -1.2384 -0.0210
 2015SOL    HW217682   3.053   3.919   6.099  0.7967 -1.4175  2.3481
 2016SOL     OW17683   1.009   1.185   3.224 -0.3570  0.3534 -0.1868
 2016SOL    HW117684   0.962   1.229   3.294 -0.9824 -2.0774  0.8800
 2016SOL    HW217685   0.949   1.120   3.188  1.6760 -1.1944 -0.7927
 2017SOL     OW17686   3.198   4.421   8.513  0.3334 -0.1377  0.8074
 2017SOL    HW117687   3.195   4.326   8.522 -0.1101 -0.0229  1.8085
 2017SOL    HW217688   3.127   4.442   8.453  0.7776 -1.8085 -0.3204
 2018SOL     OW17689   0.350   3.538  10.888 -0.4299  1.0083 -0.1063
 2018SOL    HW117690   0.439   3.538  10.922 -0.2352  0.8617 -0.6188
 2018SOL    HW217691   0.310   3.589  10.959 -0.1362  1.5585 -0.3337
 2019SOL     OW17692   1.083   1.694   3.996  0.2151 -0.2031  0.3906
 2019SOL    HW117693   1.135   1.614   3.985 -2.9317 -2.2205  0.2115
 2019SOL    HW217694   1.129   1.750   4.058  1.9988 -0.5283 -0.6323
 2020SOL     OW17695   3.266   1.684  14.593  0.8527 -0.7643 -0.0229
 2020SOL    HW117696   3.212   1.607  14.572  0.9643 -0.5743 -0.9814
 2020SOL    HW217697   3.286   1.719  14.507 -1.1073 -0.3517 -0.3040
 2021SOL     OW17698   4.734   4.459  15.715 -0.3545 -0.2876 -0.4379
 2021SOL    HW117699   4.707   4.394  15.780  2.8640 -2.6574 -1.4665
 2021SOL    HW217700   0.078   4.426  15.677  0.0425 -1.3694  1.3437
 2022SOL     OW17701   1.251   2.732  14.885  0.0767 -0.6501  0.4070
 2022SOL    HW117702   1.307   2.710  14.810  0.8037  1.1735  0.4267
 2022SOL    HW217703   1.162   2.727  14.852  0.4816  1.7617 -0.9762
 2023SOL     OW17704   1.324   2.809  15.432 -0.0503  0.1158 -0.1963
 2023SOL    HW117705   1.241   2.823  15.385 -0.8506 -2.5357  0.4460
 2023SOL    HW217706   1.353   2.900  15.447  0.3260 -0.0650  0.1689
 2024SOL     OW17707   1.650   3.769   8.418 -0.2575 -0.2250  0.0922
 2024SOL    HW117708   1.723   3.785   8.477 -0.8831 -1.4760  1.2024
 2024SOL    HW217709   1.698   3.740   8.341  0.2213  0.0675  0.2823
 2025SOL     OW17710   3.327   0.298   9.243 -0.1690 -0.1375  0.2856
 2025SOL    HW117711   3.231   0.303   9.250 -0.0573 -1.1619  2.6977
 2025SOL    HW217712   3.345   0.207   9.221 -0.5774  0.1938 -1.4453
 2026SOL     OW17713   2.067   0.131  11.292 -0.2590  0.2671 -0.9805
 2026SOL    HW117714   2.056   0.060  11.356 -1.6965  1.9407  0.6393
 2026SOL    HW217715   2.015   0.194  11.342 -0.3948 -0.0268 -0.7544
 2027SOL     OW17716   4.460   0.183   3.025  0.0605  0.2729  0.8090
 2027SOL    HW117717   4.542   0.212   3.065  1.0788 -2.0723  0.4294
 2027SOL    HW217718   4.405   0.248   3.069 -0.6753  1.5094 -1.9121
 2028SOL     OW17719   3.985   1.350  16.487  0.2700 -0.2450  0.3771
 2028SOL    HW117720   3.924   1.418  16.458  0.6730 -0.3189 -0.6159
 2028SOL    HW217721   3.946   1.334  16.573 -0.7472 -0.4913 -0.1342
 2029SOL     OW17722   1.274   3.450   9.387  0.1437 -0.5756  0.2515
 2029SOL    HW117723   1.329   3.449   9.308  0.1516 -2.1949  0.2791
 2029SOL    HW217724   1.240   3.540   9.385  0.9726 -0.2697  0.2274
 2030SOL     OW17725   2.565   2.840   4.613  0.2240 -0.2638 -0.5025
 2030SOL    HW117726   2.494   2.835   4.549  1.7032 -0.6296 -2.1294
 2030SOL    HW217727   2.582   2.934   4.619  0.9063 -0.5122  1.4625
 2031SOL     OW17728   4.189   4.474   5.674 -0.0813 -0.4426  0.1909
 2031SOL    HW117729   4.232   4.391   5.655 -1.3450 -1.1791  0.5800
 2031SOL    HW217730   4.183   4.486   5.769 -0.0691  0.7437  0.0488
 2032SOL     OW17731   2.209   4.331   7.296 -0.4550 -0.2921 -0.3975
 2032SOL    HW117732   2.268   4.309   7.368 -1.9983 -1.9552  0.3623
 2032SOL    HW217733   2.253   4.281   7.227 -2.1634 -0.1722 -1.5914
 2033SOL     OW17734   1.054   4.661   2.900 -0.2110 -0.4860 -0.3811
 2033SOL    HW117735   1.011   4.588   2.943  1.6785 -0.7928  0.9726
 2033SOL    HW217736   1.120   4.676   2.967 -0.4841  0.6210 -0.3542
 2034SOL     OW17737   2.195   2.830   7.426 -0.0974  0.0974 -0.0892
 2034SOL    HW117738   2.271   2.869   7.468 -0.8545 -0.1994  1.5503
 2034SOL    HW217739   2.208   2.736   7.441  2.3072  0.0606 -2.3794
 2035SOL     OW17740   0.859   3.750   4.505 -0.1946 -0.0788 -0.0380
 2035SOL    HW117741   0.880   3.743   4.598 -3.9423  2.6052  1.0342
 2035SOL    HW217742   0.945   3.768   4.466 -0.4047  0.2209 -0.3623
 2036SOL     OW17743   1.011   4.529   3.430  0.2368  0.1735 -0.1085
 2036SOL    HW117744   1.040   4.451   3.382 -0.6782  0.2744 -0.8461
 2036SOL    HW217745   1.074   4.535   3.501 -0.1814 -0.3071  0.3110
 2037SOL     OW17746   0.030   3.474  17.709  0.3414  0.0603 -0.6926
 2037SOL    HW117747   4.676   3.456  17.689  0.4766 -1.3474 -0.0193
 2037SOL    HW217748   0.027   3.566  17.736 -2.8814  0.4086 -2.2754
 2038SOL     OW17749   1.817   2.164   7.019  0.3510  0.0775 -0.5015
 2038SOL    HW117750   1.911   2.177   7.035  1.0879 -1.8966 -3.2517
 2038SOL    HW217751   1.796   2.100   7.087  2.0927  1.2283  1.1395
 2039SOL     OW17752   4.114   1.933   8.493  0.1145 -0.0741 -0.8090
 2039SOL    HW117753   4.171   1.987   8.547  0.7072 -1.0636 -0.4407
 2039SOL    HW217754   4.120   1.851   8.543 -0.0397 -0.9183 -2.1633
 2040SOL     OW17755   4.580   0.682   7.091 -0.7061 -0.0676  0.0012
 2040SOL    HW117756   4.554   0.708   7.002 -2.3949 -0.7671  0.2964
 2040SOL    HW217757   4.529   0.602   7.104  1.3526 -1.4246 -0.2390
 2041SOL     OW17758   2.879   0.201  16.402 -0.5437 -0.4119 -0.0307
 2041SOL    HW117759   2.833   0.218  16.484  0.6042 -3.2718  1.1909
 2041SOL    HW217760   2.949   0.264  16.421 -0.2249 -0.5289 -0.8227
 2042SOL     OW17761   3.472   4.452   7.108 -0.0161 -0.1027  0.2416
 2042SOL    HW117762   3.458   4.440   7.014 -0.9235 -0.3522  0.4031
 2042SOL    HW217763   3.414   4.390   7.152 -0.6123 -0.3846 -0.9583
 2043SOL     OW17764   1.773   2.859   4.579 -0.7779 -0.3152 -0.8594
 2043SOL    HW117765   1.743   2.949   4.574 -0.4743  0.0290  3.0452
 2043SOL    HW217766   1.753   2.818   4.495 -0.1252  0.0932 -1.2100
 2044SOL     OW17767   3.601   0.284  12.198  0.0093  0.0973 -0.0462
 2044SOL    HW117768   3.687   0.279  12.154  0.3189 -0.7395  0.6696
 2044SOL    HW217769   3.624   0.344  12.268  0.3776  0.1701 -0.2261
 2045SOL     OW17770   3.963   4.666  15.927 -0.2176  0.3065 -0.1049
 2045SOL    HW117771   3.989   4.575  15.944 -0.5444  0.0139 -1.1745
 2045SOL    HW217772   4.030   4.688  15.862 -3.5806  2.5861 -2.7538
 2046SOL     OW17773   3.264   2.144   2.106 -0.5941  0.4325 -0.2341
 2046SOL    HW117774   3.283   2.238   2.109 -0.6203  0.4575 -0.9808
 2046SOL    HW217775   3.346   2.102   2.132  0.0339  0.8673 -1.5230
 2047SOL     OW17776   3.909   2.757   7.423 -0.3047  0.4349  0.3891
 2047SOL    HW117777   3.954   2.835   7.454 -0.8281  0.4174  1.2006
 2047SOL    HW217778   3.820   2.793   7.416 -0.3558 -0.1641 -2.0865
 2048SOL     OW17779   0.067   4.271   4.190  0.4210 -0.1650 -0.0668
 2048SOL    HW117780   0.011   4.196   4.210 -0.9028  1.3378  1.9815
 2048SOL    HW217781   0.044   4.324   4.114  1.8966  0.6082  0.0175
 2049SOL     OW17782   2.434   3.720  12.800  0.5883  0.2187 -0.8144
 2049SOL    HW117783   2.384   3.801  12.787  1.8532  1.5428  2.5255
 2049SOL    HW217784   2.506   3.758  12.851  0.5273 -0.1697 -0.4435
 2050SOL     OW17785   1.749   0.986   0.429  0.2165 -0.2002 -0.7303
 2050SOL    HW117786   1.788   1.031   0.354  1.6222 -0.5852 -0.2295
 2050SOL    HW217787   1.664   1.026   0.416 -0.1244 -0.8169 -0.4137
 2051SOL     OW17788   4.596   0.720   0.399  0.2410  0.7527 -0.1377
 2051SOL    HW117789   4.562   0.743   0.312  2.0905  0.5589 -0.9109
 2051SOL    HW217790   4.671   0.666   0.372  0.2850  0.3245  0.8372
 2052SOL     OW17791   2.543   3.671   3.104  0.0590  0.3038  0.0937
 2052SOL    HW117792   2.639   3.678   3.103  0.1926 -1.4520  0.7436
 2052SOL    HW217793   2.528   3.698   3.013 -1.9334  1.2622  0.7191
 2053SOL     OW17794   3.341   1.901   8.137  0.4850 -0.2700 -0.0837
 2053SOL    HW117795   3.360   1.970   8.200  1.0761 -0.8304  0.3547
 2053SOL    HW217796   3.410   1.836   8.152 -0.4534 -1.1583  0.4656
 2054SOL     OW17797   1.128   4.560  13.931 -0.1887  0.0551 -0.0672
 2054SOL    HW117798   1.089   4.633  13.979  2.8879  0.7496  1.4434
 2054SOL    HW217799   1.112   4.485  13.989 -1.1383  0.3167  0.0103
 2055SOL     OW17800   3.185   0.838   8.827  0.1508  0.0332  0.6714
 2055SOL    HW117801   3.233   0.756   8.838  3.3817  1.2687 -4.7093
 2055SOL    HW217802   3.118   0.809   8.765 -0.9307  2.6978  0.6090
 2056SOL     OW17803   1.898   2.805   4.906 -0.0402  0.2067  0.0295
 2056SOL    HW117804   1.867   2.772   4.990  1.5108  2.4479  1.4976
 2056SOL    HW217805   1.833   2.769   4.846 -1.1936  0.4314  1.1450
 2057SOL     OW17806   0.283   3.022  11.002 -0.0452 -0.1606 -0.3507
 2057SOL    HW117807   0.345   2.992  11.067 -0.3831 -2.6424 -1.1647
 2057SOL    HW217808   0.292   3.117  11.010 -2.1860  0.1509 -1.5630
 2058SOL     OW17809   1.198   3.426   5.971 -0.3386  0.1449  0.6829
 2058SOL    HW117810   1.285   3.412   6.007 -0.8523 -0.6167  1.6239
 2058SOL    HW217811   1.153   3.475   6.040 -3.0415 -0.9751 -0.2619
 2059SOL     OW17812   2.826   2.081   6.397 -0.2060 -0.2082  0.0778
 2059SOL    HW117813   2.746   2.050   6.355 -0.1777  0.2320 -0.3067
 2059SOL    HW217814   2.887   2.012   6.374  0.1428  0.2809 -0.4627
 2060SOL     OW17815   3.791   0.596  16.742  0.1087 -0.0773  0.9018
 2060SOL    HW117816   3.730   0.565  16.809  1.1256  0.4522  2.0749
 2060SOL    HW217817   3.862   0.626  16.799  0.8509 -2.2209  1.1098
 2061SOL     OW17818   1.573   2.939   7.377 -1.0460  0.3241  0.1146
 2061SOL    HW117819   1.596   3.032   7.384 -1.7660  0.4393  1.0235
 2061SOL    HW217820   1.600   2.920   7.287  0.0174  2.3641  0.0001
 2062SOL     OW17821   4.102   0.027   2.188 -0.1965 -0.3112 -0.2959
 2062SOL    HW117822   4.042   0.086   2.141  0.2928 -0.5582 -1.2187
 2062SOL    HW217823   4.110   4.688   2.130  0.8200 -0.3920 -0.0487
 2063SOL     OW17824   4.277   0.863  13.047 -0.2159  0.1324 -0.2854
 2063SOL    HW117825   4.356   0.835  13.000  0.1356 -0.3093  0.5681
 2063SOL    HW217826   4.229   0.781  13.058  1.3625 -0.6551  0.7719
 2064SOL     OW17827   3.297   2.063   4.664  0.2355 -0.0019  0.3185
 2064SOL    HW117828   3.297   2.147   4.710 -2.4104 -0.1797  0.6718
 2064SOL    HW217829   3.244   2.009   4.722  0.1217  0.5510  0.7354
 2065SOL     OW17830   4.714   2.512   6.118  0.3374 -0.6698 -0.0530
 2065SOL    HW117831   0.009   2.600   6.140 -1.3661  0.7834 -3.4433
 2065SOL    HW217832   4.729   2.511   6.023  1.5107  1.2194  0.1084
 2066SOL     OW17833   2.549   1.003   0.520 -0.2280  0.2349 -0.2790
 2066SOL    HW117834   2.613   1.062   0.481  0.4569  0.1046  0.6262
 2066SOL    HW217835   2.503   0.967   0.445 -0.9695 -1.8066  1.1537
 2067SOL     OW17836   0.934   3.352   6.191  0.3339 -0.3275 -0.6717
 2067SOL    HW117837   0.999   3.309   6.248  0.8285  0.0519 -0.9483
 2067SOL    HW217838   0.952   3.445   6.200  1.4840 -0.6486  0.5303
 2068SOL     OW17839   3.008   3.175   7.407  0.6476 -0.0952  0.7384
 2068SOL    HW117840   2.939   3.149   7.468 -1.1227 -1.9232 -2.0506
 2068SOL    HW217841   3.041   3.251   7.455 -1.5621  1.2227  0.1821
 2069SOL     OW17842   0.293   1.458   6.040  0.3023 -0.0874  0.1217
 2069SOL    HW117843   0.351   1.507   6.098  1.6222 -0.8205 -0.5850
 2069SOL    HW217844   0.259   1.527   5.982 -0.9078 -0.0467  0.8859
 2070SOL     OW17845   2.654   1.380   9.008 -0.2911 -0.2536  0.7563
 2070SOL    HW117846   2.626   1.415   9.092 -3.2831 -0.7229 -0.0272
 2070SOL    HW217847   2.727   1.330   9.044 -0.0700 -1.1497 -0.9171
 2071SOL     OW17848   3.473   1.801   2.951 -0.1856  0.0033  0.1953
 2071SOL    HW117849   3.450   1.753   2.871  3.9486  0.2594 -1.1734
 2071SOL    HW217850   3.391   1.796   3.000 -0.9412 -2.3572 -1.3169
 2072SOL     OW17851   4.452   3.880   4.717  0.5113  0.5430 -0.2024
 2072SOL    HW117852   4.538   3.891   4.676  0.6268 -0.7507 -0.3272
 2072SOL    HW217853   4.440   3.968   4.752 -1.8570  0.3924 -0.6753
 2073SOL     OW17854   2.462   0.163  10.752 -0.2614  0.4436  0.7532
 2073SOL    HW117855   2.404   0.225  10.796 -1.9131  0.8773 -2.0636
 2073SOL    HW217856   2.505   0.227  10.695 -3.7893 -0.0889 -2.4903
 2074SOL     OW17857   1.166   1.064   1.341 -0.1120 -0.6326 -0.8639
 2074SOL    HW117858   1.250   1.106   1.325 -0.8095  0.7936 -0.8239
 2074SOL    HW217859   1.202   1.017   1.417  0.0023 -0.5105 -0.8428
 2075SOL     OW17860   0.525   3.943   9.033 -0.7044  0.2610  0.4580
 2075SOL    HW117861   0.498   3.866   9.082  0.7689 -0.8887 -0.5076
 2075SOL    HW217862   0.579   3.906   8.962  0.4779  2.2239  0.3162
 2076SOL     OW17863   1.132   3.478  11.969  0.0351 -0.1330 -0.0763
 2076SOL    HW117864   1.073   3.416  12.012 -0.7979  0.0550 -0.9465
 2076SOL    HW217865   1.147   3.539  12.042  0.9805 -1.9564  1.2329
 2077SOL     OW17866   2.537   3.498  16.687 -0.2672  0.3591  0.2212
 2077SOL    HW117867   2.629   3.495  16.715 -0.2514  0.2964  0.1619
 2077SOL    HW217868   2.492   3.454  16.759  0.7480  0.3425  0.8452
 2078SOL     OW17869   3.520   0.309   5.301  0.2969  0.7251  0.1541
 2078SOL    HW117870   3.584   0.238   5.295  0.7811  1.0296  1.7427
 2078SOL    HW217871   3.567   0.373   5.354  0.7065 -1.1626  2.0764
 2079SOL     OW17872   3.171   3.191   2.741  0.0323  0.0420 -0.1317
 2079SOL    HW117873   3.246   3.133   2.741  0.2529  0.3148 -1.2854
 2079SOL    HW217874   3.172   3.229   2.829 -0.9492  0.5709 -0.3422
 2080SOL     OW17875   2.716   2.284  10.550  0.2801  0.1614 -0.2635
 2080SOL    HW117876   2.637   2.231  10.543  0.0027  0.9609 -3.2490
 2080SOL    HW217877   2.740   2.305  10.459  3.3556  0.8180  0.7116
 2081SOL     OW17878   3.038   3.221   4.188 -0.2818 -0.3501 -0.7185
 2081SOL    HW117879   3.128   3.248   4.206 -0.7459 -0.1433  1.3324
 2081SOL    HW217880   3.023   3.165   4.264  1.8252  3.1876  2.3145
 2082SOL     OW17881   1.545   1.146  16.146  0.3188  0.1091  0.4012
 2082SOL    HW117882   1.576   1.121  16.060  0.7937  0.7203  0.3962
 2082SOL    HW217883   1.463   1.095  16.143 -1.0568  2.3218  0.2794
 2083SOL     OW17884   0.225   4.243  12.471 -0.4192  0.5238 -0.6608
 2083SOL    HW117885   0.258   4.154  12.463 -1.8830 -0.1301  0.4960
 2083SOL    HW217886   0.246   4.269  12.381  2.7476  0.2333 -0.0136
 2084SOL     OW17887   3.944   4.118   6.802  0.3494  0.5054  0.3740
 2084SOL    HW117888   4.005   4.118   6.728  0.3432 -1.0976  0.3490
 2084SOL    HW217889   3.897   4.199   6.784  1.4555  1.3848  1.4560
 2085SOL     OW17890   2.365   3.098   5.325  0.1074  0.2696  0.6263
 2085SOL    HW117891   2.437   3.134   5.272 -0.4734 -1.2447 -1.1787
 2085SOL    HW217892   2.392   3.007   5.324  2.4775  0.9904 -1.6992
 2086SOL     OW17893   1.898   0.508  13.989  0.0879 -0.5697 -0.6108
 2086SOL    HW117894   1.866   0.423  14.018 -1.0750  0.3652  0.8654
 2086SOL    HW217895   1.837   0.520  13.916  1.1584 -0.9922 -1.5728
 2087SOL     OW17896   0.959   4.686   2.143  0.1151  0.3397 -0.4901
 2087SOL    HW117897   0.944   4.680   2.237 -0.6245 -0.4430 -0.6691
 2087SOL    HW217898   1.050   4.659   2.130 -0.5675 -1.7571 -0.8613
 2088SOL     OW17899   0.303   4.574   3.274 -0.5412 -0.0388  0.1401
 2088SOL    HW117900   0.218   4.616   3.286 -0.5270 -0.1140  0.5100
 2088SOL    HW217901   0.280   4.491   3.232  2.1327 -0.6174 -0.1571
 2089SOL     OW17902   2.771   2.601   2.121 -0.5975 -0.1551  0.0614
 2089SOL    HW117903   2.785   2.619   2.214 -1.9637  1.2296  0.0053
 2089SOL    HW217904   2.807   2.513   2.119  1.4637  0.6315  1.6682
 2090SOL     OW17905   0.000   4.184   4.600  0.1877  0.3170 -0.1822
 2090SOL    HW117906   0.082   4.202   4.646  1.0144  0.5755 -1.7641
 2090SOL    HW217907   4.728   4.093   4.628  0.6806  0.3086 -0.0422
 2091SOL     OW17908   3.867   3.847   6.363  0.4605 -0.4646  0.8188
 2091SOL    HW117909   3.885   3.801   6.280 -0.7161  0.6812 -0.0624
 2091SOL    HW217910   3.949   3.836   6.411  0.8077  1.1303  0.5600
 2092SOL     OW17911   3.923   3.799   5.829  0.0574 -0.0285 -0.4421
 2092SOL    HW117912   3.961   3.868   5.884 -1.1497  0.9091 -0.7887
 2092SOL    HW217913   3.836   3.785   5.866  1.2943 -0.0131  2.4479
 2093SOL     OW17914   0.850   4.477   6.342 -0.0395  0.2980 -0.0969
 2093SOL    HW117915   0.791   4.410   6.307  1.5808 -1.0614 -0.2484
 2093SOL    HW217916   0.786   4.548   6.348  1.1125  1.3122  0.2032
 2094SOL     OW17917   1.827   3.477   3.265 -0.1448  0.2615  0.0996
 2094SOL    HW117918   1.909   3.520   3.241  0.0368  0.1906  0.5934
 2094SOL    HW217919   1.843   3.398   3.213 -1.2280  1.2093 -1.6823
 2095SOL     OW17920   4.132   1.608   5.308 -0.0303 -0.1467 -0.6112
 2095SOL    HW117921   4.191   1.625   5.381 -2.2422 -1.5010  1.5198
 2095SOL    HW217922   4.086   1.531   5.342 -0.0486 -0.5466 -1.5549
 2096SOL     OW17923   3.125   0.740   6.397  0.2846 -0.2661 -0.3771
 2096SOL    HW117924   3.031   0.721   6.392  0.0618  1.0309 -1.1420
 2096SOL    HW217925   3.155   0.725   6.307 -0.7980 -0.8292 -0.6432
 2097SOL     OW17926   0.334   3.160   2.534 -0.0500  0.1588  0.2398
 2097SOL    HW117927   0.388   3.216   2.478  0.9100 -0.9007  0.0933
 2097SOL    HW217928   0.380   3.076   2.543  0.5434  0.4910  0.2858
 2098SOL     OW17929   1.236   4.727   4.502  0.8218 -0.1894  0.1136
 2098SOL    HW117930   1.179   0.067   4.498 -0.8186 -1.2662  3.2249
 2098SOL    HW217931   1.182   4.662   4.458  0.4631 -0.2160  0.5938
 2099SOL     OW17932   1.832   1.438   3.831  0.1114  0.6454  0.2158
 2099SOL    HW117933   1.892   1.370   3.861 -2.3600 -1.5502  0.1153
 2099SOL    HW217934   1.767   1.377   3.796  0.2322  0.1689  0.8245
 2100SOL     OW17935   2.503   4.648   6.967  0.0506  0.2147  0.7157
 2100SOL    HW117936   2.454   4.724   6.936  0.8288  0.1837 -0.5912
 2100SOL    HW217937   2.436   4.613   7.026 -0.3918 -0.5470 -0.2386
 2101SOL     OW17938   1.811   4.486   0.454  0.0886  0.3953  0.4711
 2101SOL    HW117939   1.889   4.534   0.424  0.6584 -0.0953  1.1723
 2101SOL    HW217940   1.745   4.553   0.435 -0.3989  0.0545  0.9962
 2102SOL     OW17941   4.166   2.868   8.340 -0.4226 -0.3377 -0.3299
 2102SOL    HW117942   4.103   2.818   8.392  1.3318 -3.3292 -1.0476
 2102SOL    HW217943   4.138   2.868   8.249  0.1120  0.9320 -0.4903
 2103SOL     OW17944   4.035   4.494   8.704  0.8892  0.4770 -0.1062
 2103SOL    HW117945   3.995   4.410   8.682  1.5120 -0.0350  0.7400
 2103SOL    HW217946   4.046   4.538   8.620  2.9348 -1.2568 -0.7367
 2104SOL     OW17947   4.078   1.976  12.592  0.2527 -0.0779  0.3614
 2104SOL    HW117948   4.035   1.897  12.558 -0.3853  0.6759 -0.5769
 2104SOL    HW217949   4.107   2.013  12.509  0.3655 -0.1007  0.3911
 2105SOL     OW17950   1.305   2.986  14.601  0.3983 -0.8112  0.8355
 2105SOL    HW117951   1.261   2.910  14.561 -0.9579 -1.2958  3.2403
 2105SOL    HW217952   1.365   2.992  14.527 -0.6528 -0.8638 -0.0221
 2106SOL     OW17953   0.380   1.860  11.677  0.1569 -0.6639  0.1054
 2106SOL    HW117954   0.447   1.833  11.614  0.2102  0.1016 -0.1701
 2106SOL    HW217955   0.315   1.791  11.662 -1.7853  1.2821 -0.4960
 2107SOL     OW17956   3.372   2.637   7.128 -0.2808  0.9238  0.1180
 2107SOL    HW117957   3.387   2.585   7.049  1.0739  1.1387  0.2267
 2107SOL    HW217958   3.413   2.720   7.102  1.5483  0.1337  0.5131
 2108SOL     OW17959   2.560   0.348  10.589  0.5472  0.0779 -0.7321
 2108SOL    HW117960   2.532   0.411  10.523 -0.1633  1.4759  0.8739
 2108SOL    HW217961   2.622   0.296  10.538  0.7924 -0.6475  0.2964
 2109SOL     OW17962   3.940   3.524   6.005 -0.2657  0.0809 -0.5670
 2109SOL    HW117963   3.961   3.510   5.913  0.8472 -1.3402 -0.0974
 2109SOL    HW217964   3.974   3.442   6.041  0.5258  1.5474  2.0056
 2110SOL     OW17965   4.243   4.412   4.891  0.0665  0.3962  0.0320
 2110SOL    HW117966   4.316   4.371   4.937 -0.2459 -0.1005  0.0814
 2110SOL    HW217967   4.279   4.501   4.888  0.0514  0.5118  3.2630
 2111SOL     OW17968   1.513   2.396   6.599  0.3102 -0.9046 -0.9033
 2111SOL    HW117969   1.427   2.433   6.577 -0.3110 -2.0836 -0.4899
 2111SOL    HW217970   1.504   2.357   6.686 -1.1201 -1.7622 -1.4270
 2112SOL     OW17971   3.097   0.215   4.727 -0.1109  0.3031  0.6308
 2112SOL    HW117972   3.005   0.223   4.703 -0.3370  1.8966  2.0560
 2112SOL    HW217973   3.099   0.124   4.758  1.6740  0.3617  0.6978
 2113SOL     OW17974   2.902   0.611   1.896 -0.5235 -0.1141 -0.0577
 2113SOL    HW117975   2.933   0.698   1.920 -1.1551  0.0109  0.2971
 2113SOL    HW217976   2.985   0.563   1.900  0.7387  1.9844 -1.2859
 2114SOL     OW17977   0.632   2.747   2.265  0.1236 -0.0188 -0.0614
 2114SOL    HW117978   0.710   2.749   2.209 -0.5850  0.9427 -1.0181
 2114SOL    HW217979   0.570   2.682   2.233  0.0447  0.2631 -0.4801
 2115SOL     OW17980   2.344   2.766   4.119  0.1542  0.1070  0.2391
 2115SOL    HW117981   2.380   2.792   4.204  0.7166 -0.0111  0.0372
 2115SOL    HW217982   2.378   2.676   4.120 -0.5042 -0.1477 -0.2562
 2116SOL     OW17983   0.146   3.242  13.679  0.3161 -0.4032  0.6296
 2116SOL    HW117984   0.184   3.156  13.661 -1.7725 -0.4508 -3.6487
 2116SOL    HW217985   0.095   3.230  13.759 -0.7228  2.1043  0.3345
 2117SOL     OW17986   0.235   4.234   1.757  0.9807  0.4166 -0.0641
 2117SOL    HW117987   0.285   4.261   1.680 -0.3866 -2.0323 -1.8201
 2117SOL    HW217988   0.148   4.221   1.718  0.2617 -0.3324  1.7882
 2118SOL     OW17989   2.845   1.843   5.032 -0.2092 -0.3941 -0.1459
 2118SOL    HW117990   2.869   1.891   5.112 -3.0720 -0.3478  0.6792
 2118SOL    HW217991   2.823   1.910   4.968  1.8585  0.1864 -0.2603
 2119SOL     OW17992   2.337   1.370   3.430 -0.1176 -0.0910 -0.3788
 2119SOL    HW117993   2.367   1.288   3.470 -1.1206 -0.6295 -0.7220
 2119SOL    HW217994   2.263   1.394   3.486 -2.0971  0.1224 -3.0782
 2120SOL     OW17995   1.589   3.134   8.137 -0.3938 -0.1349 -0.5680
 2120SOL    HW117996   1.635   3.051   8.139 -1.5246 -0.7727 -1.3558
 2120SOL    HW217997   1.505   3.111   8.178  0.4449 -0.8403  0.7712
 2121SOL     OW17998   0.326   0.459   3.508 -0.6143  0.4282 -0.2488
 2121SOL    HW117999   0.336   0.553   3.494 -1.7335  0.4182 -1.1254
 2121SOL    HW218000   0.232   0.439   3.511 -0.5851  0.0043 -2.4780
 2122SOL     OW18001   0.329   1.300   9.129  0.9669 -0.0647 -0.0812
 2122SOL    HW118002   0.383   1.319   9.052  0.9433  0.5696  0.0594
 2122SOL    HW218003   0.377   1.225   9.165 -1.1753 -1.3070  0.1926
 2123SOL     OW18004   1.591   3.055  16.795 -0.0374 -0.8336 -0.5148
 2123SOL    HW118005   1.674   3.022  16.761  0.5154 -1.1605  1.1465
 2123SOL    HW218006   1.550   2.977  16.834  1.9254 -1.1229  0.9795
 2124SOL     OW18007   2.179   1.803   1.910  0.3968  0.1802 -0.0335
 2124SOL    HW118008   2.129   1.730   1.872 -1.0605  1.0715  0.1857
 2124SOL    HW218009   2.191   1.766   1.998 -2.6121  0.9214  0.6685
 2125SOL     OW18010   3.853   1.220   4.418  0.1822  0.3195  0.6081
 2125SOL    HW118011   3.927   1.183   4.466  2.5871  0.4640 -3.0188
 2125SOL    HW218012   3.871   1.190   4.329 -2.4772 -1.5379  0.7044
 2126SOL     OW18013   3.757   3.202   1.534 -0.1227 -0.5237  0.2078
 2126SOL    HW118014   3.777   3.287   1.571 -1.1406 -1.3196  2.5814
 2126SOL    HW218015   3.729   3.225   1.445 -0.4969 -2.2766 -0.1374
 2127SOL     OW18016   4.427   2.637  12.347  0.2172  0.6689 -0.0938
 2127SOL    HW118017   4.340   2.615  12.314  0.2987 -1.4881  1.1732
 2127SOL    HW218018   4.476   2.588  12.282 -1.3611 -0.7602 -0.2213
 2128SOL     OW18019   2.289   3.315   3.352 -0.1638  0.1404 -0.0605
 2128SOL    HW118020   2.358   3.255   3.381  3.2376  2.4785 -3.3418
 2128SOL    HW218021   2.328   3.392   3.392 -0.2428  0.0223  0.2497
 2129SOL     OW18022   4.567   1.637   6.715  0.2054 -0.5344  0.2885
 2129SOL    HW118023   4.494   1.594   6.670 -0.8754  2.4889 -0.8226
 2129SOL    HW218024   4.591   1.564   6.772  1.1681 -2.2901 -2.3652
 2130SOL     OW18025   2.051   0.894   5.499  0.0444 -0.2065 -0.7041
 2130SOL    HW118026   2.108   0.957   5.456  1.2237 -0.1537  0.9060
 2130SOL    HW218027   2.044   0.827   5.431 -1.3358  0.1188 -0.8838
 2131SOL     OW18028   0.242   1.231   8.349  0.4941 -0.2558  0.5437
 2131SOL    HW118029   0.177   1.293   8.315  2.1383  0.5179 -1.2100
 2131SOL    HW218030   0.199   1.147   8.331 -1.7116  0.8582  0.5322
 2132SOL     OW18031   3.254   2.507   6.394  0.0895  0.5815  0.2443
 2132SOL    HW118032   3.308   2.428   6.395  0.0752  0.5808  1.1479
 2132SOL    HW218033   3.234   2.516   6.301 -1.2119  2.1117  0.6634
 2133SOL     OW18034   2.807   0.622   1.553 -0.5044  0.2670  0.6212
 2133SOL    HW118035   2.900   0.642   1.568 -0.5580  0.4950  0.6460
 2133SOL    HW218036   2.815   0.613   1.458 -1.2301  0.6936  0.5255
 2134SOL     OW18037   0.906   3.349  12.106  0.2284  0.2140 -0.2924
 2134SOL    HW118038   0.874   3.292  12.175  2.1887  0.5474  0.8932
 2134SOL    HW218039   0.920   3.276  12.045 -0.1982  1.2218 -1.5913
 2135SOL     OW18040   2.576   1.060   5.907 -0.0240  0.3413  0.6536
 2135SOL    HW118041   2.537   1.136   5.864  0.2160  0.9473  1.5076
 2135SOL    HW218042   2.538   0.980   5.870  1.3944 -0.1943  0.3610
 2136SOL     OW18043   4.628   3.271   9.157 -0.4289 -0.6607 -0.6154
 2136SOL    HW118044   4.642   3.240   9.068 -1.3769  0.4423 -1.1592
 2136SOL    HW218045   4.684   3.349   9.162 -1.9691  0.3853  0.5655
 2137SOL     OW18046   2.048   1.262  13.964 -0.4228  0.3691  0.0281
 2137SOL    HW118047   1.990   1.338  13.956 -0.8268  0.3400  2.7433
 2137SOL    HW218048   2.070   1.253  13.871  3.1805  0.4615  0.8768
 2138SOL     OW18049   2.872   2.768   1.934 -0.0818 -0.3153 -0.0936
 2138SOL    HW118050   2.832   2.723   2.009 -0.8236  0.9435  0.2648
 2138SOL    HW218051   2.929   2.699   1.900  0.1182  0.8099 -2.0625
 2139SOL     OW18052   4.046   3.172   3.284  0.1752 -0.0819  0.4044
 2139SOL    HW118053   4.021   3.113   3.213 -1.3325  1.6563 -0.5305
 2139SOL    HW218054   4.139   3.153   3.284  0.1869 -0.0464 -1.9525
 2140SOL     OW18055   4.553   3.263   5.182  0.0107  0.1114  0.7262
 2140SOL    HW118056   4.633   3.250   5.234  0.1699  0.9523  0.6825
 2140SOL    HW218057   4.590   3.263   5.094 -0.6909  0.7166  0.4295
 2141SOL     OW18058   3.564   1.189   3.477  1.2052  0.0637 -0.0231
 2141SOL    HW118059   3.658   1.188   3.494  1.1338  1.6996  0.5203
 2141SOL    HW218060   3.539   1.267   3.526 -2.3311 -0.7194 -0.5830
 2142SOL     OW18061   2.331   3.437   8.353 -0.5712  0.5679  0.2007
 2142SOL    HW118062   2.372   3.394   8.428  1.7668  0.3436 -1.2032
 2142SOL    HW218063   2.322   3.530   8.377  0.3209  0.3473  1.4223
 2143SOL     OW18064   3.007   3.896  14.560  0.0203 -0.2533  0.2322
 2143SOL    HW118065   3.048   3.810  14.572  2.6290  1.1251  1.1525
 2143SOL    HW218066   2.959   3.910  14.641 -0.1186 -0.4452  0.1839
 2144SOL     OW18067   3.194   1.644   2.402  0.2481  0.3271 -0.1878
 2144SOL    HW118068   3.182   1.656   2.308  1.6701  0.1924 -0.3873
 2144SOL    HW218069   3.126   1.579   2.419  0.2122  0.4338  0.0885
 2145SOL     OW18070   2.397   0.280   3.857 -0.2620  0.0725 -0.2237
 2145SOL    HW118071   2.325   0.343   3.866 -0.1908 -0.0013  0.7821
 2145SOL    HW218072   2.388   0.236   3.941 -1.7924  0.5573 -0.1286
 2146SOL     OW18073   4.400   2.120   4.935 -0.1173 -0.0760 -0.2285
 2146SOL    HW118074   4.388   2.048   4.874 -0.7000 -0.4013  0.2702
 2146SOL    HW218075   4.310   2.151   4.946 -0.6579 -0.8484 -2.5599
 2147SOL     OW18076   2.561   2.616   9.063 -0.5553 -0.0085 -1.0205
 2147SOL    HW118077   2.503   2.691   9.079 -0.6315 -0.5713  1.3858
 2147SOL    HW218078   2.501   2.559   9.016  0.4242 -2.2187  0.4178
 2148SOL     OW18079   0.503   0.968   3.513 -0.1167 -0.0660 -0.1388
 2148SOL    HW118080   0.589   0.937   3.539 -0.8142 -0.7936  1.2919
 2148SOL    HW218081   0.521   0.994   3.423  1.0688 -1.3248 -0.2652
 2149SOL     OW18082   3.532   3.796  16.234  0.6705  0.2628  0.0044
 2149SOL    HW118083   3.606   3.741  16.259  0.9647  0.4674 -0.4337
 2149SOL    HW218084   3.579   3.867  16.191 -1.5656  0.7777 -1.6039
 2150SOL     OW18085   2.084   0.751  15.413  0.2583 -0.7287  0.5045
 2150SOL    HW118086   2.137   0.778  15.338 -2.5211 -0.0652 -1.2132
 2150SOL    HW218087   2.070   0.657  15.400 -3.0697 -0.2878  0.7274
 2151SOL     OW18088   2.703   1.526   2.497 -0.6701 -0.0901 -0.0513
 2151SOL    HW118089   2.753   1.584   2.555  0.0582  0.0656 -0.8359
 2151SOL    HW218090   2.613   1.554   2.507 -0.7671 -0.9066  1.4935
 2152SOL     OW18091   0.405   2.541   8.700  0.2687 -0.5859 -0.4532
 2152SOL    HW118092   0.367   2.621   8.737  0.3298 -0.7046 -0.1366
 2152SOL    HW218093   0.491   2.542   8.742  0.4972  0.7907 -0.9218
 2153SOL     OW18094   0.736   3.283   2.319 -0.2283 -0.4197  0.1980
 2153SOL    HW118095   0.725   3.195   2.283  0.6261 -0.5465  0.2515
 2153SOL    HW218096   0.821   3.302   2.281 -0.0886  0.0854  0.7728
 2154SOL     OW18097   1.512   0.065   9.071 -0.0411  0.4894 -0.0356
 2154SOL    HW118098   1.484   4.711   9.069  1.0475  0.1384  0.5595
 2154SOL    HW218099   1.446   0.112   9.122 -1.1032 -1.1884  0.1114
 2155SOL     OW18100   4.657   3.510   8.918  0.2390 -0.5905 -0.0268
 2155SOL    HW118101   4.619   3.589   8.880 -2.3380 -1.2213  1.2060
 2155SOL    HW218102   4.598   3.451   8.871 -1.6305  1.0409  0.2720
 2156SOL     OW18103   2.454   1.684   7.683 -0.0242  0.4853  0.1018
 2156SOL    HW118104   2.482   1.702   7.593 -1.3320  0.9702 -0.2104
 2156SOL    HW218105   2.431   1.766   7.727 -1.6446  1.3776 -2.3920
 2157SOL     OW18106   1.603   0.468   4.271 -0.7108  0.2939  0.1512
 2157SOL    HW118107   1.600   0.513   4.356  3.1011 -2.7537  1.9040
 2157SOL    HW218108   1.560   0.533   4.216 -0.2118 -1.1927 -1.9974
 2158SOL     OW18109   2.398   2.600  12.308  0.0174 -0.2399  0.3203
 2158SOL    HW118110   2.444   2.530  12.354  0.4500  0.0029  0.2563
 2158SOL    HW218111   2.449   2.680  12.322  0.5690 -0.6523  0.6503
 2159SOL     OW18112   1.862   4.090  17.122  0.2677  0.3897  0.0383
 2159SOL    HW118113   1.906   4.018  17.076  0.4084 -0.8468  2.1031
 2159SOL    HW218114   1.810   4.130  17.053 -1.1382 -0.6674  0.4984
 2160SOL     OW18115   4.477   4.596   7.432  0.0597 -0.0727 -0.2036
 2160SOL    HW118116   4.513   4.682   7.452 -2.4765  0.5182  1.7355
 2160SOL    HW218117   4.471   4.548   7.515  0.3308  1.2976  0.5966
 2161SOL     OW18118   4.034   1.042   3.206  0.8026 -0.1164  0.1098
 2161SOL    HW118119   3.978   1.120   3.197  0.6557 -0.2214  0.1127
 2161SOL    HW218120   4.027   1.026   3.300  3.3226  0.3733  0.3796
 2162SOL     OW18121   4.653   2.087  15.341  0.1630 -0.1780 -0.0378
 2162SOL    HW118122   4.581   2.145  15.366  0.2071 -0.7263  1.3976
 2162SOL    HW218123   4.620   2.010  15.387 -0.6560 -1.0105 -2.0301
 2163SOL     OW18124   3.489   3.192  15.964 -0.1923  0.1173  0.0961
 2163SOL    HW118125   3.516   3.109  16.004  1.3014  0.3231 -0.5217
 2163SOL    HW218126   3.542   3.258  16.008  0.6826  2.2293 -4.1585
 2164SOL     OW18127   1.926   2.289   9.086 -0.7887  0.1958  0.2476
 2164SOL    HW118128   1.842   2.331   9.070 -1.5498 -1.4398 -0.0831
 2164SOL    HW218129   1.986   2.363   9.080  2.5721 -2.4161  1.4799
 2165SOL     OW18130   4.601   3.221   2.799 -0.3559  0.2415 -0.5793
 2165SOL    HW118131   4.554   3.153   2.750  0.6691 -0.2023 -0.9544
 2165SOL    HW218132   4.617   3.161   2.872 -1.0485 -0.6568 -1.1621
 2166SOL     OW18133   1.376   1.001  13.540 -0.2473 -0.0280  0.2140
 2166SOL    HW118134   1.402   1.022  13.450 -1.4820  1.5090  0.2066
 2166SOL    HW218135   1.384   0.905  13.537  1.8618  0.2329 -2.4351
 2167SOL     OW18136   3.931   2.223   2.306 -0.1480 -0.0094  0.0566
 2167SOL    HW118137   3.913   2.272   2.226  0.0651  0.2270  0.1529
 2167SOL    HW218138   4.008   2.269   2.341 -0.0513  1.7413 -2.4632
 2168SOL     OW18139   3.281   4.465  14.091  0.4573 -0.2012  1.1717
 2168SOL    HW118140   3.206   4.405  14.084  0.7093 -0.2162 -1.5370
 2168SOL    HW218141   3.326   4.449  14.008  1.0804 -0.2264  1.5179
 2169SOL     OW18142   0.763   1.913   5.860  0.0838 -0.3856 -0.0394
 2169SOL    HW118143   0.714   1.984   5.900 -1.6674 -0.7296 -1.5495
 2169SOL    HW218144   0.702   1.859   5.809 -0.4541 -0.0441  0.2418
 2170SOL     OW18145   1.469   4.195   4.431 -0.0335  0.5297  0.5549
 2170SOL    HW118146   1.414   4.150   4.367  2.0900  1.5983 -2.0149
 2170SOL    HW218147   1.534   4.228   4.369 -2.1637  3.3954 -0.1288
 2171SOL     OW18148   0.924   1.051   8.761 -0.4839 -0.0068 -0.5458
 2171SOL    HW118149   0.832   1.076   8.759 -0.3130  0.6822 -0.0734
 2171SOL    HW218150   0.930   0.990   8.687 -1.3689 -0.2846 -0.3830
 2172SOL     OW18151   4.110   3.375   4.675  0.4411 -0.0622 -0.1791
 2172SOL    HW118152   4.176   3.319   4.716  1.1681  0.7112 -0.2925
 2172SOL    HW218153   4.129   3.460   4.715  0.4080  0.3093 -0.9600
 2173SOL     OW18154   3.058   1.112   2.085  0.1330 -0.0073  0.1253
 2173SOL    HW118155   3.062   1.098   2.180 -0.8886 -0.3756  0.1188
 2173SOL    HW218156   3.115   1.188   2.082 -0.7093  0.6040 -0.3557
 2174SOL     OW18157   3.198   0.622  17.599  0.4047 -0.6741  0.2070
 2174SOL    HW118158   3.119   0.623  17.543  1.7448 -0.3723 -1.6877
 2174SOL    HW218159   3.255   0.669  17.538 -1.1625  1.6853  0.5834
 2175SOL     OW18160   0.177   4.714  15.673 -0.2428 -0.5444  0.0283
 2175SOL    HW118161   0.213   4.628  15.652 -0.6605 -0.9858  1.1037
 2175SOL    HW218162   0.221   4.737  15.755 -3.1659 -1.3904  1.8026
 2176SOL     OW18163   0.122   2.492   7.627 -0.3198  0.1121  0.0184
 2176SOL    HW118164   0.052   2.528   7.572 -1.2735  1.4284  2.1082
 2176SOL    HW218165   0.081   2.406   7.637  1.7574 -0.6232  2.0854
 2177SOL     OW18166   4.724   3.692   7.612 -1.2182 -0.0457 -0.2147
 2177SOL    HW118167   4.725   3.697   7.708 -0.9815 -0.0519 -0.2178
 2177SOL    HW218168   0.016   3.602   7.596 -3.1145 -0.6001 -0.4763
 2178SOL     OW18169   3.319   3.152   4.807 -0.3987  0.0601  0.0124
 2178SOL    HW118170   3.321   3.154   4.903  0.6426  0.7338 -0.0260
 2178SOL    HW218171   3.229   3.182   4.796  0.6684  1.5178 -4.4978
 2179SOL     OW18172   2.044   2.892   2.322  0.2563 -0.0231 -0.0625
 2179SOL    HW118173   1.975   2.827   2.327  0.0605  0.1254 -0.9091
 2179SOL    HW218174   2.058   2.905   2.416 -2.1584  0.2331  0.2422
 2180SOL     OW18175   0.779   2.326   8.261 -0.2994  0.1733 -0.0292
 2180SOL    HW118176   0.776   2.407   8.210 -2.5905  1.2119  1.7536
 2180SOL    HW218177   0.850   2.349   8.321 -1.1478  0.4228  0.8919
 2181SOL     OW18178   3.212   1.381   3.396  0.0403 -0.7872  0.8136
 2181SOL    HW118179   3.225   1.474   3.414 -0.4788 -0.6173  0.2853
 2181SOL    HW218180   3.231   1.350   3.485 -3.0441  0.3244  1.8524
 2182SOL     OW18181   2.980   2.051   8.781  0.2018 -0.1890 -0.6486
 2182SOL    HW118182   2.986   1.967   8.827 -1.0579 -0.6907 -1.3958
 2182SOL    HW218183   3.060   2.091   8.815  1.5379 -1.4381 -2.3450
 2183SOL     OW18184   1.750   4.514   9.825 -0.1349 -0.2815 -0.0236
 2183SOL    HW118185   1.729   4.601   9.860  1.1113 -0.4890  1.2699
 2183SOL    HW218186   1.703   4.457   9.885 -1.5367  1.5301  0.5988
 2184SOL     OW18187   2.147   0.580  15.044  0.5824 -0.6709  0.2599
 2184SOL    HW118188   2.100   0.629  14.976  0.3176  2.4781  2.6833
 2184SOL    HW218189   2.170   0.499  15.000 -0.6005 -1.1542  0.5281
 2185SOL     OW18190   0.382   2.483   6.034 -0.0197 -0.0131  0.3566
 2185SOL    HW118191   0.440   2.535   6.090  0.8551  1.8329 -2.2689
 2185SOL    HW218192   0.308   2.485   6.094  1.1922  0.3258  1.8586
 2186SOL     OW18193   2.757   3.526  16.865 -0.1804 -0.2870 -0.6914
 2186SOL    HW118194   2.712   3.517  16.949  1.7836 -3.1753  0.0496
 2186SOL    HW218195   2.764   3.621  16.862  1.9359 -0.4340 -0.4772
 2187SOL     OW18196   0.374   2.137   5.508 -0.5203  0.3926 -0.6273
 2187SOL    HW118197   0.334   2.056   5.540  1.1925 -1.3991 -3.0579
 2187SOL    HW218198   0.301   2.195   5.531 -0.4460 -0.0955  0.8473
 2188SOL     OW18199   1.249   3.824  13.567  0.4445 -0.4500 -0.1588
 2188SOL    HW118200   1.303   3.889  13.523 -0.5626 -0.6125 -1.6518
 2188SOL    HW218201   1.266   3.749  13.509 -1.9319  1.4480 -3.3346
 2189SOL     OW18202   3.998   1.476   1.935  0.1780  0.5599  0.2746
 2189SOL    HW118203   4.038   1.510   1.855 -1.7515  1.3788 -0.3303
 2189SOL    HW218204   3.920   1.436   1.898 -0.2494 -0.9682  2.7948
 2190SOL     OW18205   3.689   2.474   9.321  0.0707  0.0342 -0.0442
 2190SOL    HW118206   3.782   2.453   9.318 -0.4344 -2.1318 -0.5286
 2190SOL    HW218207   3.687   2.516   9.407 -2.3151  0.9627 -0.5411
 2191SOL     OW18208   2.854   2.882   7.978  0.0146  0.3664  0.1858
 2191SOL    HW118209   2.883   2.854   7.892  3.2076  0.3664  1.2427
 2191SOL    HW218210   2.895   2.810   8.025 -1.3715 -0.4707  0.0947
 2192SOL     OW18211   2.081   0.092   5.621 -0.3399  0.6398 -0.2829
 2192SOL    HW118212   2.011   0.129   5.568  0.8173 -1.5344 -3.3153
 2192SOL    HW218213   2.055   4.737   5.622  0.0571  0.5458  1.4222
 2193SOL     OW18214   0.644   2.704  14.375 -0.2473 -0.3574  0.1576
 2193SOL    HW118215   0.652   2.719  14.281 -0.4735  1.2976  0.3962
 2193SOL    HW218216   0.553   2.733  14.385  0.0470  0.8683 -0.7106
 2194SOL     OW18217   0.732   3.032   9.111 -0.6022 -0.0740 -0.7453
 2194SOL    HW118218   0.795   3.062   9.176 -0.1886 -1.0073 -0.7078
 2194SOL    HW218219   0.653   3.066   9.151 -1.0118 -2.1151  0.1954
 2195SOL     OW18220   4.295   1.968  14.402  0.0671 -0.0866 -0.2122
 2195SOL    HW118221   4.326   2.049  14.442  0.2580 -1.7507  2.9871
 2195SOL    HW218222   4.325   1.994  14.315  2.3382 -0.6221  0.3973
 2196SOL     OW18223   2.590   0.860   9.209 -0.9418  0.5229 -0.3094
 2196SOL    HW118224   2.619   0.805   9.281  1.2360  0.2583 -1.3933
 2196SOL    HW218225   2.558   0.794   9.146  0.3135 -1.0884  0.7557
 2197SOL     OW18226   2.829   3.319   7.640 -0.0906 -0.0994  0.0205
 2197SOL    HW118227   2.747   3.336   7.685  0.9204  0.2965  1.7416
 2197SOL    HW218228   2.830   3.224   7.623  2.1363 -0.7471  3.7103
 2198SOL     OW18229   0.683   2.614   6.510 -0.2602 -0.4322  0.0299
 2198SOL    HW118230   0.776   2.602   6.490 -0.0726  0.0093  0.6302
 2198SOL    HW218231   0.680   2.604   6.605 -0.8652  1.6169  0.2366
 2199SOL     OW18232   0.087   0.316   6.723  0.1346  0.1783  0.7531
 2199SOL    HW118233   0.047   0.300   6.637  1.5984  1.2279 -0.1132
 2199SOL    HW218234   0.130   0.231   6.735  0.6977  0.6243  1.8429
 2200SOL     OW18235   2.343   2.561   6.436 -0.5711  0.0749  0.2899
 2200SOL    HW118236   2.414   2.502   6.458 -0.7960  1.1433  3.8897
 2200SOL    HW218237   2.313   2.520   6.355  0.1938  0.4822 -0.1941
 2201SOL     OW18238   1.256   1.282   1.873 -0.0413  0.9248  0.3888
 2201SOL    HW118239   1.281   1.236   1.953  2.2821  1.7098  0.1158
 2201SOL    HW218240   1.171   1.317   1.898 -0.5838 -0.9518  1.1023
 2202SOL     OW18241   0.839   0.450  12.010  0.6362 -0.7590 -0.0071
 2202SOL    HW118242   0.885   0.375  12.048 -0.4554 -0.5880  1.6181
 2202SOL    HW218243   0.911   0.505  11.978 -0.6229  0.6843 -0.3642
 2203SOL     OW18244   4.173   2.456   7.886  0.0224  0.3971 -0.1067
 2203SOL    HW118245   4.161   2.539   7.933 -2.8521 -0.3885  0.5314
 2203SOL    HW218246   4.174   2.392   7.956 -1.6382 -0.6326 -1.0327
 2204SOL     OW18247   2.040   1.898   9.396  0.1429  0.2316 -0.5719
 2204SOL    HW118248   2.010   1.987   9.380 -0.2631  0.3656  0.8849
 2204SOL    HW218249   1.997   1.855   9.323 -1.0137 -0.6696  0.6508
 2205SOL     OW18250   2.631   0.747  11.756 -0.6038 -0.0986 -0.0841
 2205SOL    HW118251   2.672   0.742  11.670  1.5876 -2.0949  1.0911
 2205SOL    HW218252   2.640   0.840  11.777 -0.0896 -0.2221  0.2557
 2206SOL     OW18253   2.561   2.297   0.214  0.1413 -0.1420  0.5363
 2206SOL    HW118254   2.573   2.353   0.291 -3.1615  1.2626  0.0131
 2206SOL    HW218255   2.653   2.271   0.208  0.0943  0.2649 -1.7167
 2207SOL     OW18256   4.092   0.360  10.721 -0.1731  0.0141 -0.0196
 2207SOL    HW118257   4.014   0.415  10.715  0.0574  0.2550 -0.9276
 2207SOL    HW218258   4.062   0.298  10.787  0.0355 -0.2995 -0.2168
 2208SOL     OW18259   2.158   2.089   1.951  0.9562  0.1306  0.4822
 2208SOL    HW118260   2.159   1.994   1.942  2.1958 -0.0540  2.4155
 2208SOL    HW218261   2.064   2.105   1.954  0.8736 -0.6190  1.8296
 2209SOL     OW18262   1.487   0.788   0.899  0.0235  0.7069 -0.1809
 2209SOL    HW118263   1.444   0.829   0.974 -0.2472 -1.1095  0.6661
 2209SOL    HW218264   1.446   0.701   0.904 -1.7886  1.6328  1.1290
 2210SOL     OW18265   1.763   3.211   3.513 -0.1057  0.2766 -0.1807
 2210SOL    HW118266   1.857   3.213   3.498  0.1700 -0.1536  1.4583
 2210SOL    HW218267   1.740   3.165   3.432 -0.3960 -0.3128  0.2358
 2211SOL     OW18268   3.218   2.695   5.065 -0.2920  0.2276 -0.2809
 2211SOL    HW118269   3.137   2.684   5.015 -0.0361 -2.1545 -0.1717
 2211SOL    HW218270   3.266   2.617   5.037 -0.2766  0.2384 -0.2843
 2212SOL     OW18271   1.417   1.827   2.456 -0.0892 -0.2425  0.1978
 2212SOL    HW118272   1.448   1.909   2.416  1.2199 -1.4888 -1.3793
 2212SOL    HW218273   1.439   1.765   2.386  1.0953 -1.1559  1.3957
 2213SOL     OW18274   2.866   1.274   7.970 -0.1582 -0.2286 -0.1371
 2213SOL    HW118275   2.790   1.314   7.927  0.2796  0.0586 -0.6429
 2213SOL    HW218276   2.934   1.339   7.954 -0.6502  0.7170  1.5704
 2214SOL     OW18277   3.551   1.763  13.170  0.2262 -0.3914  0.6233
 2214SOL    HW118278   3.523   1.705  13.240 -0.1693 -0.6974  0.2100
 2214SOL    HW218279   3.638   1.782  13.204  0.9459 -1.3147 -0.6977
 2215SOL     OW18280   2.851   0.707   3.025 -0.0785 -0.5037 -0.4335
 2215SOL    HW118281   2.911   0.782   3.024  0.3310 -0.8242  0.6048
 2215SOL    HW218282   2.793   0.722   2.950 -0.0861 -0.7671 -0.4794
 2216SOL     OW18283   4.079   3.045   2.803 -0.1302  0.6628 -0.6859
 2216SOL    HW118284   4.074   3.018   2.895 -0.8224  2.0403 -0.3262
 2216SOL    HW218285   4.012   3.110   2.785 -0.6636  0.3535  0.1440
 2217SOL     OW18286   0.607   4.661   1.308 -0.1094 -0.7830 -0.2453
 2217SOL    HW118287   0.684   4.604   1.320  0.6540  0.4627  0.7232
 2217SOL    HW218288   0.541   4.596   1.331  0.0384 -0.5564  0.7886
 2218SOL     OW18289   0.637   3.645   8.168  0.6030  0.2437 -0.5780
 2218SOL    HW118290   0.578   3.572   8.149 -0.0939  0.4461  0.8150
 2218SOL    HW218291   0.611   3.706   8.100  0.1385 -0.2328 -0.8281
 2219SOL     OW18292   1.573   0.167   8.614 -0.5954 -0.1227  0.1556
 2219SOL    HW118293   1.656   0.209   8.591 -1.1959 -0.0807 -1.9519
 2219SOL    HW218294   1.574   0.176   8.709 -0.9793  1.0377  0.0485
 2220SOL     OW18295   0.835   2.342   1.589 -0.6327  0.3030 -0.2048
 2220SOL    HW118296   0.816   2.305   1.503  2.1894  0.0069 -0.6887
 2220SOL    HW218297   0.749   2.361   1.628 -0.2846  1.2651  0.0819
 2221SOL     OW18298   0.782   1.197   0.713 -0.2117  0.0792  0.0333
 2221SOL    HW118299   0.825   1.168   0.632 -2.1672 -0.8794 -0.6579
 2221SOL    HW218300   0.793   1.126   0.777  2.4001 -0.6650 -1.2474
 2222SOL     OW18301   0.099   0.646   7.056 -0.6363 -0.4989 -0.0489
 2222SOL    HW118302   0.010   0.678   7.070 -0.3130 -0.0558  0.9755
 2222SOL    HW218303   0.093   0.583   7.127 -1.1794 -0.9082 -0.4626
 2223SOL     OW18304   4.453   1.865   2.359  0.4544  0.2259  0.3248
 2223SOL    HW118305   4.388   1.800   2.386 -0.2471  0.1368 -1.5558
 2223SOL    HW218306   4.522   1.827   2.414  0.3573 -0.6212 -0.1281
 2224SOL     OW18307   0.454   0.817   4.526 -0.0438  0.3308  0.2055
 2224SOL    HW118308   0.391   0.849   4.461 -2.4521  0.4913  2.5997
 2224SOL    HW218309   0.414   0.743   4.572 -0.6797  1.2592  1.1333
 2225SOL     OW18310   4.243   2.673   7.138 -0.3360  0.0501  1.2113
 2225SOL    HW118311   4.156   2.645   7.166 -1.2479  0.8445 -0.8326
 2225SOL    HW218312   4.235   2.767   7.127  3.1167  0.0991 -0.9996
 2226SOL     OW18313   0.624   2.571   2.492  0.2756 -0.1345 -0.1995
 2226SOL    HW118314   0.715   2.590   2.468  0.6368 -3.1359 -1.2480
 2226SOL    HW218315   0.589   2.586   2.405  0.0429  0.3646 -0.0195
 2227SOL     OW18316   3.079   0.718   4.824 -0.0592 -0.0066  0.5885
 2227SOL    HW118317   3.096   0.627   4.800  1.1099  1.0928 -2.7594
 2227SOL    HW218318   3.169   0.746   4.807  0.6829 -2.5704  0.2909
 2228SOL     OW18319   1.038   4.204  14.669 -0.1676 -0.2506  0.6153
 2228SOL    HW118320   1.023   4.277  14.609  2.2962 -0.3659 -0.1261
 2228SOL    HW218321   0.974   4.140  14.638  0.4471 -0.4437 -0.2361
 2229SOL     OW18322   3.415   4.514   4.552 -0.3399 -0.3122 -0.4941
 2229SOL    HW118323   3.492   4.491   4.501  0.8859  0.2931  1.0636
 2229SOL    HW218324   3.464   4.553   4.625 -1.1287 -0.7951  0.2965
 2230SOL     OW18325   1.728   2.931  10.827  0.3914  0.4249 -0.0418
 2230SOL    HW118326   1.742   2.848  10.781  0.6732  0.6610 -0.3776
 2230SOL    HW218327   1.722   2.905  10.919 -0.8496 -0.1120 -0.2706
 2231SOL     OW18328   0.603   3.727   7.175 -0.0101  0.0568  0.0319
 2231SOL    HW118329   0.531   3.699   7.118  0.6567  0.5436 -1.0603
 2231SOL    HW218330   0.546   3.787   7.223 -0.8756  0.4618 -1.5067
 2232SOL     OW18331   1.306   4.659   8.068  0.1074 -0.5967 -0.0869
 2232SOL    HW118332   1.370   4.653   7.997  0.4342 -0.1011  0.1583
 2232SOL    HW218333   1.222   4.660   8.024  0.7529 -0.5089 -1.3138
 2233SOL     OW18334   0.884   3.426   3.994 -0.1114 -0.0383  0.3413
 2233SOL    HW118335   0.793   3.398   4.004  0.0401 -0.7893 -0.4174
 2233SOL    HW218336   0.931   3.346   3.972 -1.5962 -0.5533 -0.9212
 2234SOL     OW18337   1.274   2.506   4.105  0.1044  0.0465 -0.0805
 2234SOL    HW118338   1.218   2.434   4.076  1.0262 -1.2091  1.2226
 2234SOL    HW218339   1.234   2.585   4.069 -0.0460 -0.0223 -0.0605
 2235SOL     OW18340   1.908   2.318   4.921  0.0223 -0.2174 -0.3333
 2235SOL    HW118341   1.819   2.350   4.938  0.4456  0.5594  0.3907
 2235SOL    HW218342   1.956   2.377   4.979  1.6339  1.1204 -3.0413
 2236SOL     OW18343   2.940   2.034   9.794  0.3197  0.1379  0.3551
 2236SOL    HW118344   2.960   2.127   9.807 -0.0859  0.0929  1.2629
 2236SOL    HW218345   3.020   2.003   9.752  0.7777 -0.9747  2.0699
 2237SOL     OW18346   3.363   1.134   2.537 -0.1947  0.0256  0.7273
 2237SOL    HW118347   3.458   1.136   2.551  0.4254 -0.8513 -3.2429
 2237SOL    HW218348   3.361   1.199   2.467 -0.5367 -1.8023 -0.9684
 2238SOL     OW18349   1.697   4.526   4.130  0.3593 -0.0627  0.0481
 2238SOL    HW118350   1.626   4.546   4.069 -0.9853 -1.7753  1.0661
 2238SOL    HW218351   1.688   4.433   4.150 -1.0530  0.2910  1.0577
 2239SOL     OW18352   2.619   1.038   0.779 -0.4077 -0.4099 -0.7236
 2239SOL    HW118353   2.594   1.020   0.688 -1.5775  1.8323 -0.8573
 2239SOL    HW218354   2.682   0.967   0.788  1.1375  0.9754 -0.5322
 2240SOL     OW18355   4.034   2.896   8.078 -0.1898 -0.3522  0.7923
 2240SOL    HW118356   4.028   2.989   8.101 -3.6674 -0.7845  1.6837
 2240SOL    HW218357   4.003   2.900   7.988  1.7462  0.6724  0.1885
 2241SOL     OW18358   1.571   0.749   5.604  0.6308  0.3236  0.5831
 2241SOL    HW118359   1.567   0.757   5.508 -2.5324 -1.2544  0.5612
 2241SOL    HW218360   1.509   0.816   5.634 -1.4569 -2.5117  2.6131
 2242SOL     OW18361   3.623   4.615   3.990  0.0701  0.0656  0.2927
 2242SOL    HW118362   3.571   4.557   4.047  0.3842 -1.7995 -1.3146
 2242SOL    HW218363   3.633   4.698   4.036 -2.1354  1.2041 -1.3283
 2243SOL     OW18364   3.066   1.511   1.122  0.6883 -0.2526  0.3743
 2243SOL    HW118365   2.980   1.508   1.163  0.4517  0.2488 -0.0902
 2243SOL    HW218366   3.098   1.421   1.119  2.1435  0.2512  0.7709
 2244SOL     OW18367   2.997   3.947   2.503 -0.8481  0.0653  0.5503
 2244SOL    HW118368   3.049   4.009   2.452 -1.0048  1.5621  2.2302
 2244SOL    HW218369   2.966   3.886   2.436 -0.8941  0.0031  0.6280
 2245SOL     OW18370   0.993   3.645   0.720  0.9558  0.4479  0.2740
 2245SOL    HW118371   0.948   3.729   0.716 -1.7522 -0.9891  0.9865
 2245SOL    HW218372   1.018   3.630   0.629  0.3149 -2.9090  0.6647
 2246SOL     OW18373   4.731   4.546   3.214 -0.0603  0.3109 -0.7238
 2246SOL    HW118374   4.663   4.608   3.189  1.7328  2.3540 -0.5305
 2246SOL    HW218375   0.022   4.502   3.133 -0.7654  0.5297 -1.0896
 2247SOL     OW18376   1.434   0.436   2.227 -0.4343  0.1514 -0.1671
 2247SOL    HW118377   1.359   0.407   2.175 -0.2411 -0.8192  0.1032
 2247SOL    HW218378   1.399   0.444   2.315  1.8979  1.6640  0.6427
 2248SOL     OW18379   4.150   2.027   7.811  0.1411  0.6156  0.6902
 2248SOL    HW118380   4.242   2.042   7.833 -1.0482  2.9920  4.0841
 2248SOL    HW218381   4.131   2.097   7.749 -0.3029 -0.7652 -0.7201
 2249SOL     OW18382   4.483   2.455   1.394  0.3205  0.4482  0.7053
 2249SOL    HW118383   4.507   2.547   1.392  1.3567  0.1325 -1.5056
 2249SOL    HW218384   4.448   2.448   1.483  1.3949 -1.0814  1.0004
 2250SOL     OW18385   3.243   3.253   3.905 -0.7337  0.9270  0.4177
 2250SOL    HW118386   3.293   3.190   3.854 -0.5064  1.6150 -0.2174
 2250SOL    HW218387   3.266   3.230   3.995 -0.0420  1.8462  0.4769
 2251SOL     OW18388   1.632   4.716   8.133  0.1340  0.2016 -0.1293
 2251SOL    HW118389   1.720   4.683   8.114 -0.2208 -2.4573  2.8723
 2251SOL    HW218390   1.590   4.663   8.201  1.0380  2.5392  2.2830
 2252SOL     OW18391   0.437   3.118   9.199  0.4572 -0.4038 -0.1727
 2252SOL    HW118392   0.422   3.187   9.264  1.8007 -0.5838  0.3225
 2252SOL    HW218393   0.395   3.162   9.124 -1.6086 -1.3228  0.4560
 2253SOL     OW18394   4.659   0.025  14.637  0.0938  0.2026  0.4251
 2253SOL    HW118395   4.564   0.030  14.650  0.4085 -1.5735  3.6439
 2253SOL    HW218396   4.692   0.112  14.618 -1.8633  0.8533  0.0452
 2254SOL     OW18397   2.756   3.026   9.269 -0.0443 -0.0886 -0.5087
 2254SOL    HW118398   2.674   2.977   9.275 -0.1902  0.4099  1.3027
 2254SOL    HW218399   2.759   3.063   9.181 -2.0518  1.5752  0.1259
 2255SOL     OW18400   2.149   0.996   2.591  0.5302 -0.3970 -0.0535
 2255SOL    HW118401   2.141   0.955   2.505 -0.5011 -1.4034  0.5203
 2255SOL    HW218402   2.209   0.938   2.637  1.7209  0.9779  0.1227
 2256SOL     OW18403   2.445   3.628   0.550  0.2152 -0.2047 -0.3318
 2256SOL    HW118404   2.433   3.604   0.458  2.7024 -2.3918 -0.0770
 2256SOL    HW218405   2.418   3.549   0.597 -0.3259 -0.4448 -1.0510
 2257SOL     OW18406   4.625   0.394   4.287  0.3335 -0.3644  0.5363
 2257SOL    HW118407   4.563   0.437   4.229  0.3504  1.2423  1.7135
 2257SOL    HW218408   4.662   0.464   4.340 -0.6502  0.0419  0.6886
 2258SOL     OW18409   2.856   0.277   6.978  0.1260 -0.2054 -0.0607
 2258SOL    HW118410   2.947   0.250   6.982  0.5501  1.3487  0.9887
 2258SOL    HW218411   2.809   0.194   6.984 -0.6921  0.1978 -0.7314
 2259SOL     OW18412   4.121   3.069   0.163 -1.2026 -0.1149  0.9677
 2259SOL    HW118413   4.098   3.049   0.254 -2.0723 -2.5781  0.1890
 2259SOL    HW218414   4.135   2.976   0.147 -0.8745  0.2682 -0.9308
 2260SOL     OW18415   3.567   3.996   3.610  0.6358  0.1621 -0.0791
 2260SOL    HW118416   3.566   3.959   3.698  1.3422 -2.1203 -1.0482
 2260SOL    HW218417   3.605   4.080   3.635 -1.9242  1.1692  0.4939
 2261SOL     OW18418   1.659   2.015   1.772  0.5105  0.1914  0.5020
 2261SOL    HW118419   1.666   2.105   1.738 -1.5646 -0.5981 -1.9883
 2261SOL    HW218420   1.596   2.027   1.843  0.4793  0.2142  0.4703
 2262SOL     OW18421   2.410   1.718   4.557 -0.5319  0.1518  0.3517
 2262SOL    HW118422   2.469   1.682   4.623 -1.6139 -0.3530  1.0562
 2262SOL    HW218423   2.327   1.685   4.592  0.0478 -1.8303 -0.1665
 2263SOL     OW18424   3.709   3.140   3.644  0.2006 -0.5711 -0.2255
 2263SOL    HW118425   3.791   3.159   3.689  0.4167  0.8210 -1.2310
 2263SOL    HW218426   3.688   3.058   3.689  2.4163 -1.2646 -0.4742
 2264SOL     OW18427   3.195   1.375  15.931 -1.0365 -0.2832  0.4008
 2264SOL    HW118428   3.168   1.285  15.947  0.4986 -0.3888  2.3508
 2264SOL    HW218429   3.171   1.424  16.010 -0.9983 -0.1567  0.3340
 2265SOL     OW18430   3.597   0.217  10.851  0.2845 -0.3445  0.0479
 2265SOL    HW118431   3.641   0.293  10.891 -0.0940 -1.0488  1.8010
 2265SOL    HW218432   3.626   0.144  10.905 -0.4405  0.8886  2.1325
 2266SOL     OW18433   0.666   1.333   8.828 -0.0677 -0.0845  0.0793
 2266SOL    HW118434   0.682   1.427   8.828 -1.3568  0.1291 -0.2405
 2266SOL    HW218435   0.712   1.306   8.907 -1.6326 -1.1746  0.6068
 2267SOL     OW18436   0.114   3.740   6.972 -0.3630 -0.0256 -0.2990
 2267SOL    HW118437   0.142   3.828   6.948 -0.5270 -0.5373 -2.3338
 2267SOL    HW218438   0.113   3.733   7.068  2.4235 -0.4877 -0.3036
 2268SOL     OW18439   4.059   2.655   2.468 -0.6199 -0.2832  0.4569
 2268SOL    HW118440   4.132   2.606   2.430 -0.7402  0.5877 -0.9031
 2268SOL    HW218441   4.106   2.738   2.476 -1.8225  0.5774 -1.3197
 2269SOL     OW18442   4.316   1.602   7.428 -0.3707  0.0687  0.2530
 2269SOL    HW118443   4.283   1.574   7.513 -0.3116 -1.4331 -0.2323
 2269SOL    HW218444   4.289   1.693   7.439 -1.2944 -0.1074 -0.6355
 2270SOL     OW18445   4.623   3.448   6.673  0.1999 -0.0323  0.1236
 2270SOL    HW118446   4.712   3.428   6.644 -0.7166 -1.7038 -1.5551
 2270SOL    HW218447   4.630   3.437   6.768 -0.4621  1.3181  0.3240
 2271SOL     OW18448   2.399   2.416   7.230  0.0507  0.1023 -0.0664
 2271SOL    HW118449   2.445   2.492   7.264 -0.5357 -0.2638  1.5397
 2271SOL    HW218450   2.422   2.403   7.138  0.2043 -0.6691  0.0812
 2272SOL     OW18451   1.052   0.886   0.035 -0.0733  0.1608  0.1952
 2272SOL    HW118452   1.049   0.922   0.124 -2.1002 -0.7835  0.5023
 2272SOL    HW218453   1.037   0.963  17.726 -1.7001 -0.3733 -0.0921
 2273SOL     OW18454   0.466   3.461   7.974 -0.3486  0.0421 -0.3073
 2273SOL    HW118455   0.517   3.395   7.927 -2.1051 -1.8074  0.3998
 2273SOL    HW218456   0.466   3.539   7.918  1.7218 -1.6753 -2.7175
 2274SOL     OW18457   0.368   3.057   8.326  0.2365 -0.0564  0.0750
 2274SOL    HW118458   0.299   2.998   8.359 -0.9470  1.2183 -0.1128
 2274SOL    HW218459   0.316   3.136   8.339 -0.6221 -0.8001  1.1984
 2275SOL     OW18460   1.158   2.005   3.531  1.0501  0.1103  0.2430
 2275SOL    HW118461   1.246   1.972   3.516  1.4313  1.0986  0.3849
 2275SOL    HW218462   1.120   1.958   3.456 -0.5990  2.9710 -0.7025
 2276SOL     OW18463   3.399   4.173  13.535  0.4866 -0.4788  0.0982
 2276SOL    HW118464   3.310   4.207  13.529  0.0986 -1.6240 -0.7305
 2276SOL    HW218465   3.364   4.087  13.560  1.7028 -0.6860  1.0637
 2277SOL     OW18466   3.585   2.674   6.335 -0.1129  0.2918  0.7442
 2277SOL    HW118467   3.573   2.704   6.245 -1.8723 -1.6510  0.3289
 2277SOL    HW218468   3.651   2.605   6.334  0.5061  0.8936  0.4193
 2278SOL     OW18469   0.074   1.424   3.387 -0.2018  0.4838 -0.0480
 2278SOL    HW118470   0.020   1.369   3.445  0.3372 -0.9052 -0.8884
 2278SOL    HW218471   0.012   1.449   3.319 -1.3295 -1.2863  0.3122
 2279SOL     OW18472   1.828   1.160   6.274  0.0002  0.1294 -0.2647
 2279SOL    HW118473   1.858   1.081   6.318  0.9026  0.9450  0.5860
 2279SOL    HW218474   1.789   1.212   6.344  0.7248  1.7156 -1.0445
 2280SOL     OW18475   4.577   2.772   7.248  0.1316 -0.1004  0.2328
 2280SOL    HW118476   4.542   2.697   7.295 -1.3391  0.4313  0.0064
 2280SOL    HW218477   4.607   2.723   7.172  1.6163 -0.4796  1.0659
 2281SOL     OW18478   1.806   1.591   4.842 -0.1979  0.9400 -0.0182
 2281SOL    HW118479   1.715   1.576   4.815  0.9741 -1.7976 -2.4389
 2281SOL    HW218480   1.859   1.527   4.795  0.5410  0.7404  1.0945
 2282SOL     OW18481   2.599   3.641   2.634  0.3626  0.9380 -0.1215
 2282SOL    HW118482   2.681   3.643   2.584 -0.9207 -0.2341 -2.3238
 2282SOL    HW218483   2.530   3.635   2.568 -2.4918  1.1141  2.8508
 2283SOL     OW18484   2.575   2.810   5.878 -0.1642 -0.1966  0.2005
 2283SOL    HW118485   2.537   2.898   5.879 -2.0051 -0.9645 -0.4823
 2283SOL    HW218486   2.659   2.822   5.834 -0.4866  0.1417 -0.3269
 2284SOL     OW18487   1.859   0.893   5.122  0.5334 -0.4113 -0.1404
 2284SOL    HW118488   1.829   0.930   5.038 -1.4333 -0.8039  0.3901
 2284SOL    HW218489   1.815   0.962   5.172  1.6535  0.1024  0.1419
 2285SOL     OW18490   2.104   2.836   6.348 -0.1446  0.0902 -0.0235
 2285SOL    HW118491   2.134   2.815   6.260  0.0431  0.5483 -0.0683
 2285SOL    HW218492   2.011   2.813   6.352 -0.0647 -0.4153 -1.2770
 2286SOL     OW18493   0.594   1.662   5.726 -0.0105  0.5492 -0.0769
 2286SOL    HW118494   0.506   1.627   5.711  0.5000  1.1362 -4.4591
 2286SOL    HW218495   0.624   1.598   5.790 -1.3860 -0.2793 -0.2580
 2287SOL     OW18496   2.051   2.793   8.496 -0.0293  0.7933 -0.1521
 2287SOL    HW118497   1.964   2.824   8.521 -0.2431 -0.7172  0.9318
 2287SOL    HW218498   2.028   2.702   8.477 -1.5219  1.0463  0.4588
 2288SOL     OW18499   2.756   3.221  10.360 -0.0282 -0.0532  0.6257
 2288SOL    HW118500   2.803   3.152  10.406  0.5053 -0.6765 -0.8664
 2288SOL    HW218501   2.813   3.233  10.284  0.1307 -0.5226  0.6717
 2289SOL     OW18502   3.672   0.624   6.427 -0.5736 -0.2956  0.5072
 2289SOL    HW118503   3.766   0.639   6.423 -0.5461  0.7259  4.9391
 2289SOL    HW218504   3.648   0.667   6.345 -2.5129  0.6533  1.5636
 2290SOL     OW18505   2.993   4.717   9.865 -0.7817  0.1360 -0.5782
 2290SOL    HW118506   2.968   0.053   9.922  1.7616  0.9738 -0.5603
 2290SOL    HW218507   2.965   4.640   9.914 -0.3519  1.2141  1.3800
 2291SOL     OW18508   4.430   2.578   3.017  0.3194  0.0731  0.0599
 2291SOL    HW118509   4.458   2.580   3.109 -0.9836  1.6902  0.4295
 2291SOL    HW218510   4.432   2.484   3.000 -0.0747  0.1164 -0.2387
 2292SOL     OW18511   0.585   2.911  14.938 -0.0220 -0.1857 -0.3498
 2292SOL    HW118512   0.537   2.984  14.977 -1.7170  0.4662 -3.7078
 2292SOL    HW218513   0.644   2.953  14.876  0.9333 -0.2092  0.5449
 2293SOL     OW18514   0.724   4.430   0.320 -0.0648  0.4573 -0.4416
 2293SOL    HW118515   0.641   4.447   0.365  0.8297 -1.8074  2.0277
 2293SOL    HW218516   0.732   4.336   0.331 -1.3737  0.3741 -0.1891
 2294SOL     OW18517   3.347   0.224   2.631 -0.1005  0.1956 -0.1001
 2294SOL    HW118518   3.282   0.271   2.682 -1.9795 -1.0422 -1.3748
 2294SOL    HW218519   3.293   0.198   2.556 -2.7370 -2.6611  2.7750
 2295SOL     OW18520   4.236   4.539   6.857 -0.3411  0.4734  0.2172
 2295SOL    HW118521   4.246   4.475   6.786 -1.1233  1.1030 -0.4667
 2295SOL    HW218522   4.234   4.625   6.814 -1.0335  0.3641  0.0310
 2296SOL     OW18523   2.391   1.115  11.936  0.4425 -0.6476 -0.1454
 2296SOL    HW118524   2.445   1.172  11.991  0.5702  0.6514 -1.6419
 2296SOL    HW218525   2.305   1.113  11.977 -0.4719  1.4865 -1.9839
 2297SOL     OW18526   1.950   2.114   9.271 -0.3218 -0.3329  0.3242
 2297SOL    HW118527   1.976   2.050   9.204 -1.6966 -0.1537 -0.3714
 2297SOL    HW218528   1.938   2.191   9.216  2.4238 -0.5146 -0.5641
 2298SOL     OW18529   3.423   4.496   5.035 -0.5801  0.5078  0.0358
 2298SOL    HW118530   3.329   4.518   5.038 -0.6359 -0.1640  2.7039
 2298SOL    HW218531   3.429   4.409   5.074  0.1412 -0.3208 -1.9396
 2299SOL     OW18532   1.741   1.311  13.780 -0.5363  0.5850  0.1063
 2299SOL    HW118533   1.829   1.345  13.799  0.1005  1.2068 -3.8553
 2299SOL    HW218534   1.693   1.318  13.862 -1.2393 -2.1117 -0.0955
 2300SOL     OW18535   1.140   1.870  15.158  0.0460  0.5231  0.2058
 2300SOL    HW118536   1.079   1.937  15.190  0.0653  2.6760 -4.1309
 2300SOL    HW218537   1.213   1.927  15.135 -0.4206  0.3186 -1.8485
 2301SOL     OW18538   0.276   4.276   3.564  0.1068 -0.0646  0.2898
 2301SOL    HW118539   0.339   4.342   3.535  0.4624 -0.2126  0.7278
 2301SOL    HW218540   0.259   4.227   3.483 -0.3939  0.2367  0.2110
 2302SOL     OW18541   3.659   0.470   4.528 -0.2867 -0.3030 -0.3019
 2302SOL    HW118542   3.604   0.400   4.494 -1.0050 -0.1609  0.5619
 2302SOL    HW218543   3.605   0.510   4.596  0.4683 -2.4934  1.5581
 2303SOL     OW18544   3.186   0.513   1.667  1.1414  0.2330 -0.4535
 2303SOL    HW118545   3.237   0.563   1.603 -0.8464  0.7103 -1.6759
 2303SOL    HW218546   3.119   0.475   1.610 -0.8439  0.0698  1.9951
 2304SOL     OW18547   3.074   2.057   6.615 -0.9387 -0.5414  0.3997
 2304SOL    HW118548   3.132   2.022   6.546  0.2356 -0.9844  1.6110
 2304SOL    HW218549   3.033   2.136   6.579 -0.8517 -0.4723  0.4531
 2305SOL     OW18550   2.055   1.067   4.319 -0.1356 -0.1168  0.0975
 2305SOL    HW118551   2.123   1.003   4.340  1.7919  1.8924 -0.0594
 2305SOL    HW218552   2.007   1.088   4.399 -2.5029 -1.2591 -1.0328
 2306SOL     OW18553   1.015   3.221  16.406 -0.4209  0.9541  0.0507
 2306SOL    HW118554   1.014   3.269  16.489 -2.0683  0.2467  0.4411
 2306SOL    HW218555   1.046   3.288  16.345 -0.1574 -0.7222 -1.6528
 2307SOL     OW18556   1.878   2.984   7.348  0.3236 -0.2025 -0.2213
 2307SOL    HW118557   1.954   2.965   7.293 -0.0107 -2.9787  0.2601
 2307SOL    HW218558   1.810   2.983   7.281 -1.4778  0.5132  1.6125
 2308SOL     OW18559   4.367   3.329   5.841  0.4408 -0.2361  0.0033
 2308SOL    HW118560   4.321   3.245   5.832 -1.8227  0.9832  0.2118
 2308SOL    HW218561   4.360   3.372   5.756 -0.2319 -0.1651  0.0954
 2309SOL     OW18562   3.284   2.618  12.128 -0.4402 -0.0684  0.6790
 2309SOL    HW118563   3.360   2.565  12.148  1.0693  1.7361 -0.2907
 2309SOL    HW218564   3.238   2.549  12.080 -0.6546  0.0528  0.7112
 2310SOL     OW18565   0.071   4.616   7.641 -0.9048  0.0502 -0.5467
 2310SOL    HW118566   0.094   4.543   7.584 -0.8625 -1.6186  1.6128
 2310SOL    HW218567   0.120   4.597   7.720 -1.3603 -1.3382 -0.6023
 2311SOL     OW18568   2.602   3.421   6.184 -0.0070  0.1318 -0.1742
 2311SOL    HW118569   2.629   3.347   6.129 -0.0648  0.1611 -0.2429
 2311SOL    HW218570   2.662   3.409   6.257 -0.9440 -0.4429  0.5066
 2312SOL     OW18571   0.531   3.316   8.239 -0.3900  0.5539  0.3576
 2312SOL    HW118572   0.461   3.382   8.243 -2.8038 -1.9312 -0.9042
 2312SOL    HW218573   0.483   3.239   8.209  0.9044  0.8712 -2.5287
 2313SOL     OW18574   2.322   1.296   9.700 -0.5044  0.1374 -0.0097
 2313SOL    HW118575   2.350   1.379   9.737  0.9570 -0.7623  0.9191
 2313SOL    HW218576   2.236   1.309   9.660 -0.2418  1.4712 -0.1456
 2314SOL     OW18577   2.650   3.801   8.176 -0.3783 -0.0585 -0.1722
 2314SOL    HW118578   2.587   3.860   8.216 -0.6123 -0.1225 -0.4522
 2314SOL    HW218579   2.725   3.858   8.160 -1.1250  0.5213 -1.5582
 2315SOL     OW18580   4.200   0.930   8.968 -0.2064 -1.1112 -0.7946
 2315SOL    HW118581   4.148   0.963   8.895 -0.4972 -0.5714 -0.3441
 2315SOL    HW218582   4.188   0.836   8.956  0.3945 -1.5043  1.7291
 2316SOL     OW18583   2.918   1.094   7.504 -0.1753  0.3695  0.3092
 2316SOL    HW118584   2.968   1.035   7.448 -0.2724  0.7173 -0.1430
 2316SOL    HW218585   2.910   1.170   7.446 -1.9736 -0.5789 -0.6899
 2317SOL     OW18586   1.183   2.174   7.657 -0.0216 -0.1237  0.4578
 2317SOL    HW118587   1.277   2.173   7.639 -0.2124  0.5946 -0.6010
 2317SOL    HW218588   1.158   2.082   7.648 -0.8385  0.4235 -2.7058
 2318SOL     OW18589   3.433   3.396   5.547  0.2652 -0.1656  0.1988
 2318SOL    HW118590   3.444   3.430   5.458 -1.9376 -0.4385 -0.1576
 2318SOL    HW218591   3.378   3.463   5.587  1.1949  1.2784 -0.9198
 2319SOL     OW18592   1.187   4.667   2.531 -0.2495  0.1772 -0.3941
 2319SOL    HW118593   1.170   4.720   2.609  2.1291  0.1023  0.1833
 2319SOL    HW218594   1.217   4.725   2.461  1.4174 -0.2944 -0.0567
 2320SOL     OW18595   3.241   0.521  12.312  0.0188  0.3159 -0.7514
 2320SOL    HW118596   3.215   0.491  12.400  1.7540 -1.1968 -0.7630
 2320SOL    HW218597   3.269   0.612  12.326  0.0233 -0.1732  2.4500
 2321SOL     OW18598   3.465   2.788  12.330  0.3992  0.1608 -0.2430
 2321SOL    HW118599   3.420   2.724  12.275 -1.5720  0.4744  0.9979
 2321SOL    HW218600   3.467   2.859  12.266 -1.0790 -0.1085 -0.5791
 2322SOL     OW18601   3.805   0.432   9.483 -0.2468  0.8136 -0.3085
 2322SOL    HW118602   3.819   0.418   9.389  2.3593 -2.7335  0.5812
 2322SOL    HW218603   3.738   0.500   9.477 -0.5919  0.2887 -2.5532
 2323SOL     OW18604   0.729   2.848   4.838  0.5716 -0.0555  0.3961
 2323SOL    HW118605   0.648   2.804   4.814 -0.1481  1.2406  0.4778
 2323SOL    HW218606   0.738   2.850   4.933  0.4574 -6.5368  0.4941
 2324SOL     OW18607   2.017   3.052  10.087 -0.4538  0.8651  0.3973
 2324SOL    HW118608   2.088   3.110  10.058 -0.7116  2.4074  2.8028
 2324SOL    HW218609   2.079   3.000  10.138 -0.4972  1.6391  1.2432
 2325SOL     OW18610   1.203   1.894   7.103  0.2699 -0.0445  0.0986
 2325SOL    HW118611   1.210   1.960   7.172  0.5723  1.0312 -0.9722
 2325SOL    HW218612   1.121   1.851   7.124  0.6422 -1.0640 -0.5433
 2326SOL     OW18613   3.027   0.081   5.064  0.2663 -0.3070 -0.3507
 2326SOL    HW118614   2.993   0.154   5.012 -1.1088 -0.9104 -0.3007
 2326SOL    HW218615   3.054   0.120   5.147 -0.1011  0.0761 -0.4059
 2327SOL     OW18616   0.081   0.367   0.974 -0.3805 -0.6504  0.1570
 2327SOL    HW118617   0.058   0.327   1.058  0.4526  0.3283  0.8496
 2327SOL    HW218618   0.052   0.457   0.994  1.9812  0.3707 -1.0627
 2328SOL     OW18619   1.872   3.307  15.436  0.2236  0.0847  0.3613
 2328SOL    HW118620   1.839   3.244  15.372  0.6547  1.7082 -1.4731
 2328SOL    HW218621   1.945   3.343  15.386  0.2651  0.3257  0.5964
 2329SOL     OW18622   3.692   2.032   8.330  0.6241  0.3048  0.1301
 2329SOL    HW118623   3.602   2.013   8.353 -0.0216  0.6081 -2.1032
 2329SOL    HW218624   3.736   2.013   8.413  2.1322  1.6016 -0.3634
 2330SOL     OW18625   2.758   0.115   7.515 -0.2950 -0.3952  0.5178
 2330SOL    HW118626   2.813   0.106   7.593  0.1291 -2.6678 -0.0308
 2330SOL    HW218627   2.717   0.196   7.545  0.7590  0.3670 -0.0886
 2331SOL     OW18628   3.674   1.050   6.907 -0.3009 -0.0136 -0.2778
 2331SOL    HW118629   3.764   1.048   6.939 -0.7028 -4.1959  0.6321
 2331SOL    HW218630   3.682   1.070   6.814 -2.7162  0.5523 -0.3645
 2332SOL     OW18631   3.276   1.382   8.986  0.3444 -0.1178  0.6477
 2332SOL    HW118632   3.199   1.439   8.978 -0.6471 -1.6359 -0.5803
 2332SOL    HW218633   3.242   1.310   8.933 -0.0777 -0.6597  1.6451
 2333SOL     OW18634   0.407   1.053   6.826  0.2946 -0.3745  0.0570
 2333SOL    HW118635   0.426   0.974   6.876 -2.4400 -0.7455  0.5276
 2333SOL    HW218636   0.313   1.053   6.843  0.3554 -1.1126  0.4052
 2334SOL     OW18637   2.621   1.140  10.769  0.1242 -0.2251  0.1223
 2334SOL    HW118638   2.543   1.177  10.726 -0.8198 -2.1377  0.2154
 2334SOL    HW218639   2.646   1.070  10.708 -1.1849 -1.0006  0.4683
 2335SOL     OW18640   4.117   1.903  14.595  0.6130  0.4206 -0.0193
 2335SOL    HW118641   4.203   1.892  14.555 -0.8930 -1.7227 -2.6339
 2335SOL    HW218642   4.063   1.931  14.521 -0.9369 -0.8227  0.6324
 2336SOL     OW18643   0.496   2.836   3.722 -0.2452  0.4186 -0.3892
 2336SOL    HW118644   0.555   2.900   3.682 -0.3691  0.8132  0.0673
 2336SOL    HW218645   0.416   2.888   3.712 -0.9131 -0.2012  1.6364
 2337SOL     OW18646   4.147   3.082   5.301  0.3282  0.1687  0.0939
 2337SOL    HW118647   4.102   3.129   5.232 -2.8017 -0.7556  1.5000
 2337SOL    HW218648   4.192   3.011   5.255 -0.3742 -0.9375  1.1151
 2338SOL     OW18649   0.051   3.270  17.152 -0.0627  0.0697  0.1570
 2338SOL    HW118650   0.014   3.338  17.209 -0.3471 -0.6682  0.8612
 2338SOL    HW218651   0.134   3.258  17.199 -0.1799  2.1147  0.8799
 2339SOL     OW18652   3.219   2.014  15.062 -0.5146  0.6064 -0.7701
 2339SOL    HW118653   3.188   1.924  15.059 -0.9099  0.6746  1.0581
 2339SOL    HW218654   3.311   1.989  15.052 -0.8446 -1.2201  0.7990
 2340SOL     OW18655   1.895   0.459   4.214 -0.2295 -0.3194  0.3645
 2340SOL    HW118656   1.808   0.440   4.250 -0.2286  0.1720  0.6255
 2340SOL    HW218657   1.877   0.486   4.124 -0.8224 -0.6366  0.3893
 2341SOL     OW18658   1.619   4.570   4.378  0.1340  0.1067  0.0962
 2341SOL    HW118659   1.587   4.660   4.374  0.7190  0.2660 -0.9477
 2341SOL    HW218660   1.642   4.561   4.285  3.7581  1.5729  0.8737
 2342SOL     OW18661   1.035   1.650   3.700 -0.5371 -0.1737 -0.3993
 2342SOL    HW118662   1.058   1.735   3.739 -1.1900 -0.2065  0.0535
 2342SOL    HW218663   1.011   1.597   3.776 -2.7019 -0.3403 -1.2014
 2343SOL     OW18664   0.829   0.738   5.061  0.1907 -0.1958 -0.1167
 2343SOL    HW118665   0.902   0.700   5.109 -1.0106 -1.4182  0.7622
 2343SOL    HW218666   0.829   0.679   4.985  0.1634  0.2761 -0.4859
 2344SOL     OW18667   4.331   0.706   9.809  0.6551  0.2178 -0.0991
 2344SOL    HW118668   4.395   0.693   9.739 -0.0353 -0.9164 -0.5160
 2344SOL    HW218669   4.356   0.647   9.880 -3.8463 -1.2196  0.2607
 2345SOL     OW18670   1.675   3.641   9.745 -0.1291  0.2263  0.0265
 2345SOL    HW118671   1.704   3.579   9.812 -0.1167 -0.8905 -1.0312
 2345SOL    HW218672   1.713   3.605   9.666 -1.2168  2.8143 -1.6815
 2346SOL     OW18673   4.380   1.389   4.886  0.0759 -0.3778  0.1392
 2346SOL    HW118674   4.328   1.442   4.946 -0.9688 -0.6799 -0.5030
 2346SOL    HW218675   4.375   1.436   4.802  1.8152  2.8960  1.8548
 2347SOL     OW18676   0.155   3.816   5.081  0.0338 -0.2060  0.1372
 2347SOL    HW118677   0.077   3.775   5.118 -0.5895  0.7441 -0.1143
 2347SOL    HW218678   0.164   3.760   5.005 -2.3014 -0.5562  0.1258
 2348SOL     OW18679   4.242   2.893   9.478  0.7149 -0.1684  0.1912
 2348SOL    HW118680   4.316   2.832   9.470  1.3148  0.7117 -0.9038
 2348SOL    HW218681   4.288   2.977   9.484  1.5032 -0.8004  3.4823
 2349SOL     OW18682   4.684   0.422   4.896  0.2897 -0.2592  0.3180
 2349SOL    HW118683   4.626   0.364   4.847  1.4964  0.3252 -1.7920
 2349SOL    HW218684   4.670   0.373   4.977 -0.6445  0.7235  0.7617
 2350SOL     OW18685   0.331   1.657  14.308 -0.6444  0.8651  0.0353
 2350SOL    HW118686   0.366   1.685  14.392  0.8719 -1.5468  0.2269
 2350SOL    HW218687   0.412   1.654  14.256 -1.6728  4.1514 -1.6913
 2351SOL     OW18688   3.371   0.614   5.558  0.4208 -0.0518 -0.4905
 2351SOL    HW118689   3.332   0.601   5.472  1.7476  0.1979 -1.1288
 2351SOL    HW218690   3.349   0.536   5.609 -1.5977  1.2346  0.5984
 2352SOL     OW18691   0.789   4.040  15.967 -1.0919 -0.7070 -0.1238
 2352SOL    HW118692   0.714   4.055  16.025 -1.7440 -0.6935 -0.9587
 2352SOL    HW218693   0.807   3.946  15.961  1.0030 -0.3425  0.5246
 2353SOL     OW18694   3.154   0.974   1.129 -0.1135  0.2829 -0.0038
 2353SOL    HW118695   3.247   0.952   1.131  0.0690  1.0042 -0.3536
 2353SOL    HW218696   3.140   0.958   1.035  1.5288 -0.5392 -0.1060
 2354SOL     OW18697   1.931   4.258   4.955  0.0807  0.0345  0.4191
 2354SOL    HW118698   2.022   4.267   4.926  0.2270 -1.0453  0.5411
 2354SOL    HW218699   1.936   4.164   4.974 -0.0832  0.1497  1.0513
 2355SOL     OW18700   3.430   1.178   4.517 -0.0712 -0.0858 -0.2142
 2355SOL    HW118701   3.362   1.115   4.495  1.0018 -1.9735  1.9285
 2355SOL    HW218702   3.468   1.140   4.596  0.9821 -1.9943 -1.6160
 2356SOL     OW18703   4.653   0.304   5.763 -0.0766 -0.3298  0.2205
 2356SOL    HW118704   4.670   0.397   5.779  1.0236 -0.6624  0.9592
 2356SOL    HW218705   4.678   0.263   5.846  0.3847 -0.2045  0.1407
 2357SOL     OW18706   0.785   1.274  10.702 -0.0112  0.0834  0.1584
 2357SOL    HW118707   0.782   1.361  10.742  0.4784 -0.4124  1.2464
 2357SOL    HW218708   0.717   1.225  10.748 -0.9150 -0.6386 -1.9212
 2358SOL     OW18709   1.233   2.609   7.164  0.1985 -0.0005  0.4887
 2358SOL    HW118710   1.301   2.574   7.222  0.6678  0.5262  0.2598
 2358SOL    HW218711   1.263   2.700   7.172 -1.9468  0.6646  0.9981
 2359SOL     OW18712   0.107   4.284  15.046 -0.1997 -0.0256 -0.6938
 2359SOL    HW118713   0.182   4.332  15.011  1.3611 -0.8802  1.4552
 2359SOL    HW218714   0.051   4.267  14.970 -0.0780  0.5877 -0.9153
 2360SOL     OW18715   3.842   1.413   2.981  0.2487 -0.0950  0.0400
 2360SOL    HW118716   3.857   1.507   2.987 -0.7429  0.0325  0.4718
 2360SOL    HW218717   3.912   1.378   3.037  1.2032  1.0483 -0.4458
 2361SOL     OW18718   2.231   1.268   2.578  0.0059  0.4677  0.3891
 2361SOL    HW118719   2.199   1.185   2.612 -0.9105  0.3723 -0.7030
 2361SOL    HW218720   2.171   1.333   2.615  0.4465  2.2421 -2.0111
 2362SOL     OW18721   4.399   0.997   3.883 -0.1674  0.7268 -0.2063
 2362SOL    HW118722   4.494   1.011   3.887  0.5096 -4.8740  2.6233
 2362SOL    HW218723   4.364   1.057   3.950  0.6827  1.2340 -0.2125
 2363SOL     OW18724   4.726   2.762  14.331  0.3822  0.2653 -0.2628
 2363SOL    HW118725   0.051   2.693  14.308  1.5287  1.1131  0.3023
 2363SOL    HW218726   4.726   2.751  14.426  0.6792  1.6514 -0.1010
 2364SOL     OW18727   3.569   2.595  12.075  0.4066 -0.5349  1.0372
 2364SOL    HW118728   3.588   2.504  12.052  0.8275 -0.6681  1.9088
 2364SOL    HW218729   3.513   2.616  12.000  2.5435 -0.0394 -0.4183
 2365SOL     OW18730   2.196   2.398  12.121 -0.1635 -0.2266  0.3920
 2365SOL    HW118731   2.285   2.403  12.087 -1.0325  1.8566 -1.6074
 2365SOL    HW218732   2.152   2.370  12.041  0.2865 -1.3946  0.5495
 2366SOL     OW18733   3.377   1.234   6.088  0.5586 -0.4394 -0.0594
 2366SOL    HW118734   3.372   1.324   6.056  0.7185  0.4510  2.4474
 2366SOL    HW218735   3.389   1.188   6.005 -1.2765 -1.1076  0.0611
 2367SOL     OW18736   3.185   2.013   6.128  0.0898  0.2086 -0.1202
 2367SOL    HW118737   3.124   1.979   6.062  0.5394  1.0557 -0.9750
 2367SOL    HW218738   3.259   1.954   6.122  0.4739  0.7306 -0.5247
 2368SOL     OW18739   1.185   1.030  17.334 -0.5342 -0.3993  0.4983
 2368SOL    HW118740   1.210   1.053  17.423  0.6301  0.3135 -0.0159
 2368SOL    HW218741   1.214   0.939  17.336 -1.1922 -0.6036  0.8872
 2369SOL     OW18742   3.726   4.020   0.405 -0.4486 -0.2863  0.8315
 2369SOL    HW118743   3.815   4.014   0.369 -1.7620  1.4695 -2.6479
 2369SOL    HW218744   3.685   3.949   0.356  0.0826  1.0321 -1.5023
 2370SOL     OW18745   3.239   1.307  12.893 -0.0132  0.1135 -0.3016
 2370SOL    HW118746   3.275   1.365  12.960  1.5870 -0.1116 -0.9684
 2370SOL    HW218747   3.296   1.231  12.882 -0.3179 -0.2123  0.3744
 2371SOL     OW18748   2.559   3.220   7.443 -0.5323  0.0933 -0.0489
 2371SOL    HW118749   2.617   3.144   7.454  1.2300  1.2988 -0.9885
 2371SOL    HW218750   2.579   3.262   7.526  2.5447 -1.1099 -0.1826
 2372SOL     OW18751   1.778   4.029   5.867 -0.0780 -0.2522  0.4679
 2372SOL    HW118752   1.813   4.109   5.827 -1.5596 -0.5795 -1.4507
 2372SOL    HW218753   1.709   4.066   5.922  0.0257 -2.0022  1.7971
 2373SOL     OW18754   1.034   0.806   7.513  0.3196 -0.6902 -0.0589
 2373SOL    HW118755   0.995   0.776   7.595 -1.5064 -1.9003 -1.3594
 2373SOL    HW218756   1.055   0.893   7.546 -0.1511 -0.5724 -0.0584
 2374SOL     OW18757   1.572   0.537   6.198  0.1860 -0.8286 -0.3703
 2374SOL    HW118758   1.652   0.569   6.157 -0.9519  0.6172 -1.4537
 2374SOL    HW218759   1.606   0.513   6.285  2.7960  0.8590 -0.9094
 2375SOL     OW18760   2.944   2.356  13.075  0.2642 -0.1454 -0.3444
 2375SOL    HW118761   2.960   2.449  13.059  2.1369 -0.4563 -0.2448
 2375SOL    HW218762   2.879   2.369  13.144  1.0570 -2.9801  0.9291
 2376SOL     OW18763   3.261   0.421   9.894  0.0481  0.0946 -1.2047
 2376SOL    HW118764   3.225   0.363   9.827  1.0338 -0.7367 -1.0114
 2376SOL    HW218765   3.234   0.504   9.854 -0.0247 -0.0372 -1.4304
 2377SOL     OW18766   1.877   2.486   1.689  0.1561  0.4505 -0.1002
 2377SOL    HW118767   1.880   2.426   1.614  0.4395  2.7849 -1.9572
 2377SOL    HW218768   1.964   2.524   1.701 -0.0133  1.0397 -0.7464
 2378SOL     OW18769   2.358   4.597   5.968 -0.0857  0.3016  0.3342
 2378SOL    HW118770   2.268   4.579   5.997 -0.5681 -0.8098 -1.8963
 2378SOL    HW218771   2.350   4.644   5.885 -0.8669 -0.5921 -0.1005
 2379SOL     OW18772   0.888   2.755  16.326 -0.3804  0.0681  0.3458
 2379SOL    HW118773   0.824   2.751  16.398  1.1877 -1.2433  1.6714
 2379SOL    HW218774   0.835   2.778  16.250 -2.9903  1.4306  2.5703
 2380SOL     OW18775   0.944   1.054   1.164  0.1901  0.0334  0.3148
 2380SOL    HW118776   1.023   1.074   1.214  0.0291  0.5455  0.3723
 2380SOL    HW218777   0.879   1.057   1.235 -0.3588  1.6350 -0.2561
 2381SOL     OW18778   1.031   3.336  16.922 -0.2958 -0.5661 -0.1014
 2381SOL    HW118779   1.036   3.268  16.854  2.5144 -0.4229 -0.0177
 2381SOL    HW218780   0.942   3.311  16.950 -0.9462  0.6724 -1.0405
 2382SOL     OW18781   1.394   3.035   8.294 -0.1355  0.0838 -0.1079
 2382SOL    HW118782   1.366   3.124   8.316  0.3699  0.0059  0.8506
 2382SOL    HW218783   1.312   2.992   8.269  0.0850 -0.3296 -0.1119
 2383SOL     OW18784   2.053   1.789   2.331 -0.2651  0.2979 -0.1251
 2383SOL    HW118785   1.987   1.737   2.285 -2.8286  2.5594  1.0101
 2383SOL    HW218786   2.009   1.874   2.335  1.8880  1.4420 -0.6118
 2384SOL     OW18787   3.017   2.823   2.552  0.3641 -0.2452 -0.7634
 2384SOL    HW118788   3.083   2.766   2.514  0.6258 -0.1869 -0.4012
 2384SOL    HW218789   2.969   2.846   2.473 -1.8828  0.0890  0.6723
 2385SOL     OW18790   3.140   0.954   3.861  0.3976  0.3552 -0.4870
 2385SOL    HW118791   3.171   0.873   3.820  1.4215  0.0285  0.9391
 2385SOL    HW218792   3.047   0.934   3.876  0.6374  0.0362  0.5881
 2386SOL     OW18793   3.311   3.697   4.348  0.0996 -0.2354  0.4072
 2386SOL    HW118794   3.299   3.639   4.423  1.3521 -0.2318  0.6080
 2386SOL    HW218795   3.326   3.643   4.270 -2.8636  1.6379 -1.4837
 2387SOL     OW18796   1.896   3.467   7.672 -0.0850  0.1467  0.3725
 2387SOL    HW118797   1.806   3.435   7.684  0.0892  0.0200  1.3982
 2387SOL    HW218798   1.898   3.496   7.581 -1.2235 -0.4364  0.1647
 2388SOL     OW18799   2.058   3.802   9.114 -0.1713  0.6941  0.6378
 2388SOL    HW118800   1.987   3.846   9.068  0.8090 -0.5275 -2.0934
 2388SOL    HW218801   2.116   3.876   9.132  1.3909 -0.4220  0.2284
 2389SOL     OW18802   2.915   4.557   4.679 -0.5000  0.3606 -0.2794
 2389SOL    HW118803   2.877   4.546   4.592  2.6960 -1.0558 -1.4718
 2389SOL    HW218804   2.897   4.651   4.687 -0.9997  0.2942 -0.5942
 2390SOL     OW18805   3.788   0.896   6.619 -0.3549  0.3916 -0.5920
 2390SOL    HW118806   3.766   0.985   6.648 -0.6364  0.0755  0.1474
 2390SOL    HW218807   3.777   0.915   6.526  1.5345 -0.6151 -1.0155
 2391SOL     OW18808   2.574   1.382   7.431  0.7361  0.0265  0.1208
 2391SOL    HW118809   2.550   1.313   7.369  1.0990  1.2578 -1.3884
 2391SOL    HW218810   2.628   1.445   7.383  0.2813  1.2911  1.2676
 2392SOL     OW18811   2.514   2.654  17.578 -0.6437 -0.2687  0.9017
 2392SOL    HW118812   2.582   2.715  17.605 -1.3910 -0.2802  2.8173
 2392SOL    HW218813   2.535   2.589  17.645 -0.8164 -0.8695  0.3760
 2393SOL     OW18814   3.151   1.805  17.180 -0.4543 -0.3720 -0.0297
 2393SOL    HW118815   3.157   1.818  17.275 -1.2349 -0.7599  0.0786
 2393SOL    HW218816   3.239   1.771  17.169 -0.8381 -1.1376 -0.7402
 2394SOL     OW18817   1.063   0.468   7.423  0.0150  0.1389  0.1713
 2394SOL    HW118818   1.024   0.541   7.472 -1.3563  0.3811 -1.2863
 2394SOL    HW218819   0.987   0.420   7.391 -0.5715 -0.2917  2.1942
 2395SOL     OW18820   3.717   1.595  15.953 -0.7223  0.0678 -0.4365
 2395SOL    HW118821   3.796   1.571  15.904 -0.2385 -3.2083  1.9852
 2395SOL    HW218822   3.708   1.685  15.921 -0.1499  0.0169 -0.7421
 2396SOL     OW18823   1.729   2.085  10.753 -0.1269 -0.1106  0.0275
 2396SOL    HW118824   1.773   2.154  10.703 -3.9468  2.0724 -0.3639
 2396SOL    HW218825   1.763   2.007  10.709 -2.6078 -1.3651  0.3024
 2397SOL     OW18826   2.511   1.256  16.865  0.0724  0.1473 -0.4715
 2397SOL    HW118827   2.481   1.346  16.871 -1.7575 -0.6405  1.9343
 2397SOL    HW218828   2.571   1.265  16.791 -0.4010 -0.3432 -0.9057
 2398SOL     OW18829   3.499   3.759   3.298 -0.7008  0.1700  0.1544
 2398SOL    HW118830   3.569   3.768   3.363  0.6455  1.4644 -1.4589
 2398SOL    HW218831   3.486   3.664   3.300  0.2923  0.0704  2.1236
 2399SOL     OW18832   0.360   3.074   0.893 -0.3392 -0.1437  0.1380
 2399SOL    HW118833   0.430   3.074   0.958  0.4165 -2.2344 -0.6718
 2399SOL    HW218834   0.317   3.158   0.906  0.2296  0.1666 -0.0395
 2400SOL     OW18835   2.045   0.212   4.941 -0.1182 -0.6049 -0.3494
 2400SOL    HW118836   2.095   0.291   4.957 -0.2360 -0.2605 -1.6723
 2400SOL    HW218837   2.046   0.209   4.845  1.4624 -1.5397 -0.3190
 2401SOL     OW18838   2.166   2.631  15.575 -0.2797  0.1339  0.5761
 2401SOL    HW118839   2.081   2.674  15.588 -0.4609  0.5392 -1.8369
 2401SOL    HW218840   2.231   2.666  15.634  1.0236  1.2973 -1.5369
 2402SOL     OW18841   2.109   0.745   6.376 -0.4293  0.4101 -0.2976
 2402SOL    HW118842   2.118   0.716   6.467 -1.0322 -1.5359 -0.8696
 2402SOL    HW218843   2.016   0.742   6.356 -0.0631 -0.2147 -1.9362
 2403SOL     OW18844   4.219   1.485   9.287 -0.0978 -1.8615  0.3024
 2403SOL    HW118845   4.292   1.450   9.339  0.9850 -0.3301 -0.1630
 2403SOL    HW218846   4.148   1.434   9.325 -1.0687 -1.2242 -0.6872
 2404SOL     OW18847   2.192   2.647   9.735  0.3607 -0.3216 -0.0235
 2404SOL    HW118848   2.253   2.574   9.742  0.0168 -0.4263  1.8445
 2404SOL    HW218849   2.184   2.678   9.825 -2.2010  0.8931 -0.6722
 2405SOL     OW18850   4.086   2.060   4.111  0.0584 -0.3628 -0.0371
 2405SOL    HW118851   3.997   2.086   4.134  0.0184 -0.8792  0.4010
 2405SOL    HW218852   4.131   2.145   4.110 -1.9372  0.7324  2.0798
 2406SOL     OW18853   4.547   4.318  16.751 -1.0489  0.5481  0.6338
 2406SOL    HW118854   4.500   4.262  16.813  0.0963 -3.1298 -1.7426
 2406SOL    HW218855   4.582   4.392  16.799  0.4493 -0.1874  0.6886
 2407SOL     OW18856   1.772   3.010   9.544  0.1469 -0.9334  0.3958
 2407SOL    HW118857   1.829   3.055   9.606  2.0332  1.4648 -3.0135
 2407SOL    HW218858   1.755   3.078   9.478  0.6820 -0.2567  0.9424
 2408SOL     OW18859   4.145   0.384  13.275  0.1710 -0.1493  0.3671
 2408SOL    HW118860   4.053   0.376  13.303  0.8987 -4.4012  1.5494
 2408SOL    HW218861   4.183   0.320  13.335  0.7564 -0.7995 -0.6898
 2409SOL     OW18862   0.721   0.724   9.506 -0.3467  0.2418 -0.0412
 2409SOL    HW118863   0.726   0.641   9.555  0.3722 -0.8398 -1.9792
 2409SOL    HW218864   0.694   0.699   9.418 -1.3854 -0.1187  0.3729
 2410SOL     OW18865   2.345   2.787  10.428  0.0747  0.4256 -0.3685
 2410SOL    HW118866   2.394   2.868  10.411  0.8893 -0.6630 -3.1662
 2410SOL    HW218867   2.419   2.728  10.438 -1.5422 -1.5734 -0.2912
 2411SOL     OW18868   4.513   1.115   2.657 -0.5012  0.9209  0.2741
 2411SOL    HW118869   4.496   1.189   2.599  0.3362  2.1217  1.5599
 2411SOL    HW218870   4.470   1.037   2.622  2.8073 -0.3658 -0.9031
 2412SOL     OW18871   2.126   0.857   4.667  0.3584  0.4355 -0.1458
 2412SOL    HW118872   2.070   0.917   4.717 -1.1830  0.4002 -1.8435
 2412SOL    HW218873   2.189   0.924   4.637 -0.1894  2.1817  2.6122
 2413SOL     OW18874   2.779   4.541   5.669  0.0976  0.0520  0.7608
 2413SOL    HW118875   2.777   4.630   5.704  0.7913  0.3705 -0.0299
 2413SOL    HW218876   2.693   4.504   5.687  0.6280 -1.3935  0.3448
 2414SOL     OW18877   0.966   4.635   9.576 -0.9348 -0.6997  0.2299
 2414SOL    HW118878   1.020   4.569   9.620  0.0642 -1.9186 -2.7795
 2414SOL    HW218879   1.033   4.692   9.540 -1.0572 -0.7906 -0.1494
 2415SOL     OW18880   0.989   1.942   1.567  0.7351  0.1168 -0.4822
 2415SOL    HW118881   0.999   1.880   1.639 -1.2494  0.7987  0.3727
 2415SOL    HW218882   0.978   1.880   1.496  1.2389  0.3107 -0.7315
 2416SOL     OW18883   0.971   0.828   9.488  0.1741 -0.4312 -0.4273
 2416SOL    HW118884   0.885   0.786   9.491  0.8350 -1.7345  0.0226
 2416SOL    HW218885   0.938   0.916   9.507  0.1334 -0.7247  0.8475
 2417SOL     OW18886   0.191   1.464   6.507  0.7812 -0.1072  0.5787
 2417SOL    HW118887   0.137   1.386   6.500  3.0444 -1.5094 -1.1315
 2417SOL    HW218888   0.184   1.484   6.600  1.1461  0.4013  0.5020
 2418SOL     OW18889   0.410   0.328   1.424  0.5239 -0.3492 -0.2510
 2418SOL    HW118890   0.364   0.403   1.463  0.8980 -1.4247  2.2278
 2418SOL    HW218891   0.442   0.367   1.342  2.4451 -0.4466  0.4599
 2419SOL     OW18892   1.330   0.647   4.613  0.0447 -0.4389 -0.0832
 2419SOL    HW118893   1.305   0.558   4.636  1.9287 -1.3732 -1.6213
 2419SOL    HW218894   1.423   0.632   4.597  0.0312 -0.5692 -0.0401
 2420SOL     OW18895   1.221   4.301   6.139 -0.1857 -0.1335  0.1726
 2420SOL    HW118896   1.165   4.378   6.132  0.2453  0.1312 -0.3242
 2420SOL    HW218897   1.285   4.324   6.207 -0.0537 -2.0215  0.6956
 2421SOL     OW18898   1.346   1.105   7.178  0.5824 -0.6536 -0.2248
 2421SOL    HW118899   1.327   1.141   7.092 -0.1176  0.9838  0.6160
 2421SOL    HW218900   1.269   1.072   7.225  1.1651 -1.2369  0.3269
 2422SOL     OW18901   4.087   0.422   6.102  0.3158 -0.1806  0.7718
 2422SOL    HW118902   4.075   0.513   6.073 -1.8620 -0.4057  0.9371
 2422SOL    HW218903   3.997   0.403   6.126  0.1598 -2.3150 -1.5594
 2423SOL     OW18904   2.906   0.787   3.795  0.0077  0.0801 -0.1525
 2423SOL    HW118905   2.933   0.803   3.704 -0.9567  0.1239 -0.4311
 2423SOL    HW218906   2.811   0.791   3.786 -0.0364 -2.0363 -0.7516
 2424SOL     OW18907   1.385   0.968   1.136  0.1887  0.1057 -0.9879
 2424SOL    HW118908   1.323   0.931   1.197  0.8535  0.9427  0.1905
 2424SOL    HW218909   1.461   0.971   1.194 -0.4124 -0.2496 -0.2018
 2425SOL     OW18910   0.512   4.449   3.018 -0.1687  0.1401  0.1482
 2425SOL    HW118911   0.510   4.406   3.103  3.1917 -1.4764 -0.6028
 2425SOL    HW218912   0.465   4.381   2.970  0.4208 -0.8541  0.9709
 2426SOL     OW18913   4.318   3.837   6.662 -0.2938  0.1488 -0.0523
 2426SOL    HW118914   4.412   3.821   6.656 -0.3901 -1.7698  3.3299
 2426SOL    HW218915   4.314   3.918   6.712  2.4677  0.9361 -1.1292
 2427SOL     OW18916   4.531   1.077   6.937 -0.0966  0.4226  0.2551
 2427SOL    HW118917   4.568   1.144   6.879  0.0166 -0.2871 -0.4979
 2427SOL    HW218918   4.593   1.085   7.010  1.8402  3.4012 -1.6682
 2428SOL     OW18919   4.081   4.409  15.930 -0.3500 -0.3260 -0.1042
 2428SOL    HW118920   4.057   4.321  15.960 -2.1215 -0.2873 -1.3608
 2428SOL    HW218921   4.138   4.442  15.999  0.4545  0.4064 -1.1192
 2429SOL     OW18922   3.905   0.136   8.477  0.4398 -0.5027  0.2130
 2429SOL    HW118923   3.941   0.047   8.477  2.5760  0.3601 -1.2272
 2429SOL    HW218924   3.839   0.119   8.545 -0.6013 -3.6963 -1.5616
 2430SOL     OW18925   2.984   4.021   5.302 -0.0655 -0.5021  0.7129
 2430SOL    HW118926   2.908   4.078   5.318  1.0642  1.2970 -0.2969
 2430SOL    HW218927   2.950   3.934   5.319  0.4444 -1.3290 -2.4207
 2431SOL     OW18928   3.506   2.680   6.790  0.7235  0.0052  0.1446
 2431SOL    HW118929   3.487   2.772   6.770 -1.7523 -0.8492 -1.4448
 2431SOL    HW218930   3.558   2.651   6.715  1.7466 -1.7038  1.5251
 2432SOL     OW18931   1.612   3.062   1.844 -0.0843  0.2414 -0.0856
 2432SOL    HW118932   1.597   3.116   1.766 -0.0047  0.8568  0.3260
 2432SOL    HW218933   1.683   3.005   1.815 -0.8513  0.2878 -2.1159
 2433SOL     OW18934   2.921   0.390  12.990  0.1763 -0.0414 -0.1657
 2433SOL    HW118935   2.839   0.407  12.943 -0.4974  0.1024  1.0433
 2433SOL    HW218936   2.922   0.459  13.056 -0.9101 -0.2438  0.0754
 2434SOL     OW18937   4.231   1.947   4.446 -0.6994 -0.1754  0.1825
 2434SOL    HW118938   4.143   1.985   4.450 -1.0285 -1.1520  2.0935
 2434SOL    HW218939   4.247   1.945   4.351 -2.6354  2.4023 -0.2031
 2435SOL     OW18940   2.238   1.160   8.136  0.4100 -0.3098  0.4541
 2435SOL    HW118941   2.226   1.113   8.053 -1.5445  0.5915  0.2165
 2435SOL    HW218942   2.332   1.178   8.128  0.1505  0.8058  0.0024
 2436SOL     OW18943   0.569   1.114   4.471 -0.2134  0.5746  0.0008
 2436SOL    HW118944   0.547   1.062   4.548 -1.3970  1.1484  0.0420
 2436SOL    HW218945   0.485   1.112   4.424  0.2376  0.5297 -0.8140
 2437SOL     OW18946   4.687   2.835  17.119  0.8798  0.1820 -0.0439
 2437SOL    HW118947   4.729   2.756  17.155  1.2935  1.0416  1.3641
 2437SOL    HW218948   4.635   2.863  17.195  0.4866  0.5886 -0.4687
 2438SOL     OW18949   1.720   3.934   2.810 -0.5193 -0.5426  0.2228
 2438SOL    HW118950   1.763   4.006   2.764 -2.1249 -0.5883 -1.3840
 2438SOL    HW218951   1.795   3.917   2.866  1.0780  2.3466 -1.0298
 2439SOL     OW18952   3.472   1.404   9.372  0.4724 -0.1457 -0.1788
 2439SOL    HW118953   3.461   1.322   9.420  0.4734 -1.2163 -2.0145
 2439SOL    HW218954   3.384   1.432   9.347  0.9618  3.2497  1.8767
 2440SOL     OW18955   2.464   0.482   6.670 -0.1367  0.3557 -0.4420
 2440SOL    HW118956   2.386   0.430   6.688  0.7590 -0.3673  1.3845
 2440SOL    HW218957   2.541   0.429   6.692 -1.1132 -0.2438  1.4610
 2441SOL     OW18958   0.640   3.327  14.956 -0.3119  0.2696  0.3920
 2441SOL    HW118959   0.727   3.305  14.922 -0.7181 -1.9278  0.7805
 2441SOL    HW218960   0.606   3.247  14.996  2.0257 -0.4184  0.9568
 2442SOL     OW18961   0.483   3.663  11.852 -0.2689 -0.3563 -0.2590
 2442SOL    HW118962   0.470   3.691  11.943  0.6489 -1.5842  0.2537
 2442SOL    HW218963   0.566   3.618  11.870 -0.1023 -0.2427 -0.7373
 2443SOL     OW18964   2.190   4.272   3.340  0.0681 -0.1816 -0.1630
 2443SOL    HW118965   2.189   4.332   3.414  1.0749 -0.5836  0.1720
 2443SOL    HW218966   2.281   4.282   3.311  1.1985 -1.2547  3.0283
 2444SOL     OW18967   0.928   1.507   4.294  0.1829  0.0811  0.5810
 2444SOL    HW118968   0.906   1.423   4.254 -1.7183 -0.0059  1.8552
 2444SOL    HW218969   1.024   1.516   4.294  0.1934  0.0431 -0.8542
 2445SOL     OW18970   3.253   4.187   4.618 -0.2281 -0.4209  0.1734
 2445SOL    HW118971   3.335   4.234   4.633 -0.7551  0.2379  1.0097
 2445SOL    HW218972   3.274   4.112   4.562 -0.1127  1.3232 -2.1302
 2446SOL     OW18973   3.159   4.497   6.473 -0.2295  0.1629  0.0399
 2446SOL    HW118974   3.170   4.552   6.550  1.6113  2.2377 -1.6833
 2446SOL    HW218975   3.092   4.438   6.506 -2.3124  1.2203 -2.3434
 2447SOL     OW18976   0.719   4.532   5.005 -0.1443  0.0072  0.0837
 2447SOL    HW118977   0.701   4.625   4.996 -0.2929  0.1187  1.5815
 2447SOL    HW218978   0.788   4.517   4.940 -0.2831  1.0669 -0.3035
 2448SOL     OW18979   4.358   4.210   1.896  0.0099  0.0287 -0.0856
 2448SOL    HW118980   4.280   4.213   1.951 -0.8328  0.0935 -1.2840
 2448SOL    HW218981   4.427   4.220   1.962  0.2116  0.8124 -0.4199
 2449SOL     OW18982   2.346   4.015  12.727 -0.3491  0.1435  0.0638
 2449SOL    HW118983   2.262   4.046  12.761 -1.2951 -1.1484 -1.1282
 2449SOL    HW218984   2.365   4.096  12.679 -0.7973 -0.4671 -1.1395
 2450SOL     OW18985   2.169   3.330  11.363  0.0279  0.8798  0.0001
 2450SOL    HW118986   2.240   3.390  11.342  1.0913 -0.5238 -0.4855
 2450SOL    HW218987   2.205   3.241  11.363  1.8786  1.6196 -0.9647
 2451SOL     OW18988   0.405   3.143   8.899 -0.3336 -0.3465  0.1988
 2451SOL    HW118989   0.456   3.224   8.901  0.4616 -0.8573  0.7809
 2451SOL    HW218990   0.377   3.146   8.808  1.7836  0.4788 -0.4268
 2452SOL     OW18991   3.155   4.354   6.906 -0.0977 -0.1850 -0.5747
 2452SOL    HW118992   3.112   4.439   6.908  0.6120  0.2187 -2.0771
 2452SOL    HW218993   3.247   4.376   6.887  0.4537 -0.1546  2.1149
 2453SOL     OW18994   1.769   2.587   2.810 -0.0996  0.8772 -0.4763
 2453SOL    HW118995   1.676   2.583   2.830  0.2094  1.1582  1.0752
 2453SOL    HW218996   1.808   2.556   2.892 -1.8654  1.1127  0.4514
 2454SOL     OW18997   0.151   0.591   6.671  0.1814  0.0145  0.0837
 2454SOL    HW118998   0.123   0.503   6.699  1.4568 -0.9111 -1.5707
 2454SOL    HW218999   0.213   0.614   6.741 -1.2944  0.5612  1.2118
 2455SOL     OW19000   1.555   4.302   6.869 -0.3410 -0.0051  0.1365
 2455SOL    HW119001   1.627   4.356   6.903 -1.0700  0.8024  0.4099
 2455SOL    HW219002   1.492   4.310   6.941  0.2981 -0.6497  0.7753
 2456SOL     OW19003   4.615   0.706   4.054 -0.0556  0.1192 -0.0381
 2456SOL    HW119004   4.582   0.792   4.027 -0.5290 -0.1672 -0.3786
 2456SOL    HW219005   4.546   0.648   4.021  3.2417 -2.2804 -2.6946
 2457SOL     OW19006   2.230   3.899   2.771  0.5275 -0.0473 -0.6658
 2457SOL    HW119007   2.198   3.987   2.753  0.6782  0.3411  0.9439
 2457SOL    HW219008   2.158   3.841   2.743 -1.8228  2.6564 -0.2131
 2458SOL     OW19009   1.853   4.480  11.454  0.1137 -0.5349  0.0655
 2458SOL    HW119010   1.918   4.531  11.406  0.7775  0.6185  2.2110
 2458SOL    HW219011   1.795   4.553  11.474 -0.1142 -0.9957  1.0543
 2459SOL     OW19012   1.238   1.269   6.939 -0.2545  0.3452 -0.1427
 2459SOL    HW119013   1.147   1.269   6.968 -1.2774  0.8465 -3.3681
 2459SOL    HW219014   1.228   1.247   6.846 -0.2217 -0.5733  0.0710
 2460SOL     OW19015   3.620   2.084   8.081  0.4024  0.5905 -0.5564
 2460SOL    HW119016   3.650   1.999   8.047 -0.8250  1.1600 -3.1046
 2460SOL    HW219017   3.643   2.080   8.173 -0.3760 -1.1636 -0.4199
 2461SOL     OW19018   0.427   1.299  17.684 -0.4502 -0.3886 -0.5494
 2461SOL    HW119019   0.386   1.214  17.671  2.2589 -1.8275  0.4123
 2461SOL    HW219020   0.464   1.292   0.026  2.1718  1.7404 -1.4744
 2462SOL     OW19021   2.626   3.882   8.723  0.0741 -0.2653  0.0706
 2462SOL    HW119022   2.648   3.962   8.772  1.4491 -0.5154 -0.1377
 2462SOL    HW219023   2.696   3.824   8.753  1.0319 -0.1079 -1.8423
 2463SOL     OW19024   4.467   1.841   7.718  0.1506 -0.1224 -0.4031
 2463SOL    HW119025   4.460   1.937   7.721 -1.5078 -0.2654  0.2727
 2463SOL    HW219026   4.389   1.810   7.763  2.2813 -0.9719  2.7062
 2464SOL     OW19027   2.454   3.294   5.500 -0.0543  0.1188  0.1813
 2464SOL    HW119028   2.439   3.222   5.438  0.4679  0.2495 -0.0983
 2464SOL    HW219029   2.384   3.288   5.565  1.2272  1.9085  1.7149
 2465SOL     OW19030   3.856   3.426  11.685 -0.0782 -0.4774 -0.0169
 2465SOL    HW119031   3.921   3.482  11.643  0.1199 -0.1572  0.7175
 2465SOL    HW219032   3.810   3.385  11.612 -0.4363  0.8858 -0.5505
 2466SOL     OW19033   2.879   1.754  14.027 -0.4443  0.4388 -0.3170
 2466SOL    HW119034   2.888   1.848  14.045  0.6919  0.2764 -0.0128
 2466SOL    HW219035   2.797   1.731  14.071 -0.8044  1.6939 -0.3364
 2467SOL     OW19036   1.807   3.470   2.512  0.4506 -0.6363  0.4468
 2467SOL    HW119037   1.757   3.507   2.584  1.7198 -2.6047  2.3784
 2467SOL    HW219038   1.756   3.390   2.501 -0.3328  0.0547 -0.8678
 2468SOL     OW19039   1.804   2.297   5.203  0.2421 -0.4846  0.3596
 2468SOL    HW119040   1.874   2.260   5.149  0.2773 -0.2757  0.2648
 2468SOL    HW219041   1.775   2.222   5.255  2.2658 -1.3795  0.2042
 2469SOL     OW19042   1.372   2.868   7.581 -0.7055 -0.0391 -0.7863
 2469SOL    HW119043   1.398   2.896   7.669 -2.3143 -1.7476  0.2313
 2469SOL    HW219044   1.442   2.907   7.529 -0.4805 -1.3067 -1.4398
 2470SOL     OW19045   0.025   3.761   4.417 -0.4844  0.1890  0.0996
 2470SOL    HW119046   0.066   3.720   4.341  0.4885 -0.9485  1.2359
 2470SOL    HW219047   0.082   3.729   4.487 -1.1721 -0.7236  0.2440
 2471SOL     OW19048   4.076   1.026  15.028  0.5064  0.0749 -0.2465
 2471SOL    HW119049   4.168   1.002  15.033  0.2888 -0.9172 -1.0374
 2471SOL    HW219050   4.071   1.059  14.938 -0.7384 -1.1328 -0.6348
 2472SOL     OW19051   4.666   3.067   8.140 -0.1793  0.5372  0.1950
 2472SOL    HW119052   4.585   3.102   8.178 -0.3868 -0.3854  0.6014
 2472SOL    HW219053   4.695   3.149   8.099 -0.2479  0.7048  0.4779
 2473SOL     OW19054   2.660   3.210   5.682 -0.3064  0.4155  0.3081
 2473SOL    HW119055   2.611   3.128   5.687 -1.0282  0.7416 -1.5092
 2473SOL    HW219056   2.587   3.269   5.667 -0.9352 -0.6814 -0.9913
 2474SOL     OW19057   2.934   0.828   1.240 -0.4070 -0.0032 -0.5662
 2474SOL    HW119058   2.897   0.885   1.307  1.1390  1.4580 -0.9634
 2474SOL    HW219059   3.015   0.877   1.226  0.5076 -0.8285  1.8059
 2475SOL     OW19060   2.725   4.532   3.033  0.1297 -0.1153 -0.0139
 2475SOL    HW119061   2.771   4.532   3.117  1.4269  0.8405 -0.7313
 2475SOL    HW219062   2.773   4.478   2.970  0.8499  0.5547 -0.0389
 2476SOL     OW19063   4.612   0.896   7.676 -0.1581  0.2048  0.1063
 2476SOL    HW119064   4.699   0.908   7.638 -0.7954  0.0604 -1.4025
 2476SOL    HW219065   4.556   0.959   7.630  0.3998 -0.5228 -1.5786
 2477SOL     OW19066   0.781   2.921   2.777  0.1259  0.0324 -0.4288
 2477SOL    HW119067   0.686   2.919   2.769  0.1592 -1.1471 -0.6521
 2477SOL    HW219068   0.789   2.958   2.865  1.0105  2.0000 -1.3423
 2478SOL     OW19069   0.648   1.539  10.790 -0.1137  0.5084 -0.2631
 2478SOL    HW119070   0.713   1.595  10.749 -1.2399  0.2988 -2.3212
 2478SOL    HW219071   0.571   1.568  10.741 -0.7256 -0.9363 -0.1722
 2479SOL     OW19072   2.160   0.482   3.874 -0.0958 -0.1697  0.0193
 2479SOL    HW119073   2.095   0.534   3.921 -0.1729  0.7503 -1.1228
 2479SOL    HW219074   2.216   0.548   3.836 -0.6563  1.9552  2.8592
 2480SOL     OW19075   4.157   1.282  13.131  0.5788  0.0827  0.6656
 2480SOL    HW119076   4.180   1.370  13.102 -2.7714  0.8722  0.3088
 2480SOL    HW219077   4.174   1.287  13.225 -0.2099 -1.4279  0.8995
 2481SOL     OW19078   1.918   2.090   8.855  0.0574 -0.4855 -0.0780
 2481SOL    HW119079   1.948   2.049   8.936 -3.3809  0.3413  1.6066
 2481SOL    HW219080   1.823   2.087   8.854  0.1575 -3.9845  1.1227
 2482SOL     OW19081   0.170   1.802  17.199 -0.1775 -0.2214 -0.7265
 2482SOL    HW119082   0.147   1.894  17.186 -0.6301 -0.2020  0.1981
 2482SOL    HW219083   0.265   1.803  17.188  0.1734 -0.0353  2.1903
 2483SOL     OW19084   1.755   2.321  14.919 -0.1065 -0.2129  0.2927
 2483SOL    HW119085   1.778   2.267  14.995  1.6257  1.2587  0.8022
 2483SOL    HW219086   1.699   2.388  14.958  1.3829  0.8471  0.5637
 2484SOL     OW19087   3.786   1.697   8.322 -0.3530 -0.0840  0.6452
 2484SOL    HW119088   3.754   1.746   8.398 -0.7352 -1.3557  1.2970
 2484SOL    HW219089   3.806   1.611   8.358 -0.1244 -0.3434 -0.1051
 2485SOL     OW19090   1.896   1.733   1.862  0.0194  0.0585 -0.4262
 2485SOL    HW119091   1.802   1.717   1.869 -0.1459  0.5448 -1.4475
 2485SOL    HW219092   1.922   1.813   1.908 -0.8589 -0.0993  0.3510
 2486SOL     OW19093   2.833   0.374   3.349 -0.3032 -0.2916  0.1968
 2486SOL    HW119094   2.780   0.349   3.424 -1.1819 -0.1135 -0.3726
 2486SOL    HW219095   2.765   0.382   3.282 -0.7522 -0.7440  0.6038
 2487SOL     OW19096   2.587   1.993   6.260  0.3008  0.1890 -0.1638
 2487SOL    HW119097   2.502   2.006   6.301 -0.0550  0.8075 -1.0868
 2487SOL    HW219098   2.563   2.027   6.173  0.9850  1.7051  0.2392
 2488SOL     OW19099   2.948   2.559   6.461  0.4103  0.3209 -0.1571
 2488SOL    HW119100   3.028   2.553   6.410 -1.5012 -1.5759 -2.9334
 2488SOL    HW219101   2.880   2.601   6.407 -1.2801 -1.4720  0.5673
 2489SOL     OW19102   3.724   1.157   4.665  0.5596 -0.1383  0.0209
 2489SOL    HW119103   3.802   1.147   4.720  2.2733  0.3311 -2.3138
 2489SOL    HW219104   3.772   1.164   4.582  0.4977  0.5599  0.0462
 2490SOL     OW19105   4.462   0.684   8.766  0.1605 -0.3498  0.1027
 2490SOL    HW119106   4.493   0.595   8.782 -0.5048 -0.4356  0.9010
 2490SOL    HW219107   4.418   0.667   8.683 -3.0094 -0.1993  1.7672
 2491SOL     OW19108   4.664   4.176  17.027  0.0420  0.2375  0.1706
 2491SOL    HW119109   4.690   4.267  17.044 -0.1279  0.1893  0.6775
 2491SOL    HW219110   4.569   4.178  17.019  0.0651 -0.2706 -0.1868
 2492SOL     OW19111   3.717   3.559  11.449  0.1532 -0.0319  0.0465
 2492SOL    HW119112   3.629   3.537  11.479  0.0144  0.1998 -0.1949
 2492SOL    HW219113   3.709   3.563  11.354 -1.9946  0.3198  0.2539
 2493SOL     OW19114   0.148   0.634  17.332 -0.0129  0.3411 -0.5494
 2493SOL    HW119115   0.113   0.710  17.287  0.1501 -0.0333 -1.3117
 2493SOL    HW219116   0.082   0.568  17.313 -0.2058  0.7087 -1.1513
 2494SOL     OW19117   1.651   2.784   5.824 -0.0470 -0.0024  0.1647
 2494SOL    HW119118   1.680   2.777   5.733  0.3494  3.0631  0.0741
 2494SOL    HW219119   1.584   2.716   5.832  1.8845 -1.8382  0.6154
 2495SOL     OW19120   3.022   2.128   1.146  0.4444  0.2773 -0.0393
 2495SOL    HW119121   2.997   2.051   1.095 -4.0548  2.4342 -1.0367
 2495SOL    HW219122   3.014   2.101   1.237 -2.9529  2.5477  0.3451
 2496SOL     OW19123   2.410   1.664   5.351 -0.4845  0.1514 -0.1959
 2496SOL    HW119124   2.467   1.682   5.277  0.4859  1.4026  0.8675
 2496SOL    HW219125   2.474   1.617   5.405 -0.2032 -0.6137 -1.1876
 2497SOL     OW19126   1.939   1.016  13.914  0.3484 -0.0230  0.1022
 2497SOL    HW119127   1.992   1.004  13.836 -0.6849 -1.6406 -0.3611
 2497SOL    HW219128   1.993   1.077  13.965 -2.6598 -0.3104  3.6937
 2498SOL     OW19129   4.322   2.367   3.567  0.0829  0.2014  0.0871
 2498SOL    HW119130   4.344   2.447   3.520 -3.2234  0.6609 -0.6875
 2498SOL    HW219131   4.294   2.395   3.654  0.1238 -0.3860  0.2868
 2499SOL     OW19132   2.431   4.216   7.545  0.1302 -0.0889  0.5125
 2499SOL    HW119133   2.413   4.290   7.602 -1.6988  0.6033 -0.9652
 2499SOL    HW219134   2.408   4.144   7.604 -1.7052  1.0224  1.1641
 2500SOL     OW19135   3.311   0.088   3.537 -0.0235 -0.5192 -0.0302
 2500SOL    HW119136   3.391   0.039   3.554  0.0540 -0.0157  1.0536
 2500SOL    HW219137   3.329   0.117   3.447 -0.4145  0.8872  0.3432
 2501SOL     OW19138   2.339   2.448   5.212 -0.3146  0.0403 -0.1224
 2501SOL    HW119139   2.320   2.522   5.154 -3.2856 -1.0753 -0.5335
 2501SOL    HW219140   2.350   2.493   5.296  0.5281 -1.6884  0.6763
 2502SOL     OW19141   4.728   3.587   9.655 -1.0148  0.0434  0.2715
 2502SOL    HW119142   4.637   3.590   9.625 -1.1342  0.5738  0.6831
 2502SOL    HW219143   0.018   3.537   9.578 -2.9337 -1.6339  0.6743
 2503SOL     OW19144   0.503   0.967  12.151  0.1616 -0.3023 -0.8277
 2503SOL    HW119145   0.449   0.914  12.093  0.5193 -1.5678  0.0049
 2503SOL    HW219146   0.440   1.027  12.192 -0.1840 -2.6186  2.0317
 2504SOL     OW19147   0.109   0.252   9.214  0.1125  0.5024 -0.2774
 2504SOL    HW119148   0.202   0.273   9.223 -0.3463  2.8506 -0.9972
 2504SOL    HW219149   0.082   0.291   9.297  0.7869  1.0183 -0.3000
 2505SOL     OW19150   1.435   4.340   6.323  0.4159 -0.1312  0.1227
 2505SOL    HW119151   1.437   4.264   6.381  2.4106 -1.4922 -1.7339
 2505SOL    HW219152   1.525   4.363   6.344  0.5472  0.2236 -0.8212
 2506SOL     OW19153   1.073   0.998   4.570  0.0885 -0.5358  0.3295
 2506SOL    HW119154   1.093   1.065   4.505 -0.0764  0.8818  1.7400
 2506SOL    HW219155   0.985   1.021   4.598 -0.4795  0.0527 -1.9197
 2507SOL     OW19156   0.516   3.353   1.364 -0.2722 -0.3885  0.0094
 2507SOL    HW119157   0.502   3.265   1.399 -0.0961  0.2039  1.5625
 2507SOL    HW219158   0.612   3.348   1.362 -0.3034 -0.7019 -1.1118
 2508SOL     OW19159   2.193   4.484  15.461 -0.2898  0.2555 -0.6487
 2508SOL    HW119160   2.163   4.459  15.373 -0.1085  1.5193 -1.0728
 2508SOL    HW219161   2.255   4.550  15.431  3.1016 -1.8085  1.8133
 2509SOL     OW19162   3.416   0.951  13.898 -0.4507  0.2672 -0.3072
 2509SOL    HW119163   3.395   0.863  13.931 -0.3414  0.4956  0.3707
 2509SOL    HW219164   3.497   0.931  13.851  0.5067  3.0019  0.1937
 2510SOL     OW19165   1.199   2.055   6.260 -0.2607 -0.4229 -0.9286
 2510SOL    HW119166   1.112   2.016   6.262 -0.4276  0.0068  0.2275
 2510SOL    HW219167   1.254   1.979   6.283 -1.2166 -0.4634  1.1665
 2511SOL     OW19168   2.597   4.515   7.366  0.5204  0.4092 -0.1978
 2511SOL    HW119169   2.519   4.505   7.311  1.3693 -0.4556 -1.2462
 2511SOL    HW219170   2.620   4.422   7.363 -2.3401 -0.3118  0.6323
 2512SOL     OW19171   2.647   1.685   5.166 -0.3074 -0.3018  0.1714
 2512SOL    HW119172   2.662   1.765   5.115 -0.2128 -0.6223 -0.3073
 2512SOL    HW219173   2.740   1.670   5.183 -0.2428 -0.0743  0.0153
 2513SOL     OW19174   0.786   4.331   6.852 -0.6834  0.7745 -0.4044
 2513SOL    HW119175   0.874   4.365   6.835 -0.5255  0.5387 -0.0403
 2513SOL    HW219176   0.746   4.350   6.767 -1.4884  0.1279 -0.1679
 2514SOL     OW19177   4.598   0.561  16.263 -0.3079 -0.3413 -0.2394
 2514SOL    HW119178   4.593   0.470  16.233  1.3906 -0.2687 -0.7282
 2514SOL    HW219179   4.567   0.608  16.186 -0.8684  1.5190  1.1433
 2515SOL     OW19180   1.565   3.694   0.445 -1.1631  0.0033 -0.2058
 2515SOL    HW119181   1.542   3.643   0.367 -0.1368 -2.0270  0.8257
 2515SOL    HW219182   1.511   3.772   0.430  0.3796  0.7524 -1.8715
 2516SOL     OW19183   2.907   2.429   1.831  0.0828  0.6343  0.0362
 2516SOL    HW119184   2.832   2.408   1.887 -0.5014  2.1801 -0.1513
 2516SOL    HW219185   2.878   2.375   1.757  1.6737 -0.0713 -0.0650
 2517SOL     OW19186   4.420   3.217  13.757  0.2914  0.1979 -0.1255
 2517SOL    HW119187   4.446   3.144  13.813 -1.2993 -0.5328 -0.3620
 2517SOL    HW219188   4.490   3.211  13.693  2.1130  0.0509  1.8658
 2518SOL     OW19189   4.287   1.257   6.858 -0.4453 -0.1097 -0.1731
 2518SOL    HW119190   4.328   1.311   6.926  0.3848  0.5202 -1.1618
 2518SOL    HW219191   4.275   1.174   6.903 -0.0346 -0.4052 -0.6164
 2519SOL     OW19192   0.000   2.572  13.475 -0.4386 -0.2759  0.1147
 2519SOL    HW119193   4.660   2.548  13.527 -0.1740 -0.1466  0.5737
 2519SOL    HW219194   0.017   2.492  13.426  0.0161 -0.1271  0.0276
 2520SOL     OW19195   4.390   1.453   3.178 -0.0275  0.0699 -0.0553
 2520SOL    HW119196   4.334   1.524   3.210  1.4507 -0.0024  2.7677
 2520SOL    HW219197   4.327   1.404   3.127  0.5220 -2.1236  1.3925
 2521SOL     OW19198   4.093   2.257   8.786  0.1935 -0.2339 -0.9236
 2521SOL    HW119199   4.162   2.229   8.846 -0.0532  0.9392 -0.0894
 2521SOL    HW219200   4.042   2.176   8.793  0.3038 -0.3645 -1.5956
 2522SOL     OW19201   4.434   2.654  10.944 -0.3871 -0.4904  0.4879
 2522SOL    HW119202   4.461   2.629  11.032  1.1716  1.8540  0.6889
 2522SOL    HW219203   4.511   2.629  10.893  0.0088  1.2930  0.2112
 2523SOL     OW19204   0.908   0.144   4.114  0.3146  0.3686 -0.5529
 2523SOL    HW119205   0.855   0.128   4.192 -0.2865  2.1343 -0.6101
 2523SOL    HW219206   0.978   0.079   4.124 -2.2778 -2.3973 -0.5510
 2524SOL     OW19207   1.014   0.256   9.031 -0.2425  0.0653 -0.0693
 2524SOL    HW119208   0.987   0.348   9.028 -1.3311 -0.2548  0.1774
 2524SOL    HW219209   0.976   0.215   8.954 -0.7540 -0.5721  0.5191
 2525SOL     OW19210   0.422   3.237   2.827  0.6851  0.1072 -0.2768
 2525SOL    HW119211   0.337   3.261   2.790 -0.0818 -0.2904  1.1911
 2525SOL    HW219212   0.463   3.323   2.835  1.1288 -0.3072  1.7867
 2526SOL     OW19213   3.568   0.178   4.735  0.7681 -0.2435  0.5369
 2526SOL    HW119214   3.478   0.210   4.739  1.6500  2.1986  0.7558
 2526SOL    HW219215   3.587   0.185   4.642 -0.2917 -0.3943  0.3065
 2527SOL     OW19216   3.033   0.656   8.684 -0.4561  0.2861 -0.1612
 2527SOL    HW119217   3.120   0.616   8.693 -0.0615  0.2086 -4.0655
 2527SOL    HW219218   3.001   0.611   8.606 -0.7140 -0.0889  0.1609
 2528SOL     OW19219   1.362   3.900   2.376 -0.6364  0.1815  0.0272
 2528SOL    HW119220   1.319   3.841   2.314  2.1298  0.9063 -2.5878
 2528SOL    HW219221   1.449   3.885   2.340 -0.2023 -1.1075  1.6115
 2529SOL     OW19222   2.419   1.536   6.199 -0.5052 -0.2188  0.2590
 2529SOL    HW119223   2.417   1.615   6.253 -1.1396 -0.0084 -0.0787
 2529SOL    HW219224   2.456   1.474   6.261  0.7219 -1.4994 -1.7505
 2530SOL     OW19225   0.594   1.677  15.625  0.6502 -0.5589  0.3372
 2530SOL    HW119226   0.549   1.628  15.695  1.1051 -0.1293  0.9325
 2530SOL    HW219227   0.580   1.627  15.545 -0.6044  0.6116 -0.1839
 2531SOL     OW19228   2.957   3.490   7.444 -0.3280 -0.0564 -0.1443
 2531SOL    HW119229   2.928   3.485   7.353  1.2969  0.6911 -0.6945
 2531SOL    HW219230   2.877   3.458   7.486 -1.3172  3.6587  0.7864
 2532SOL     OW19231   0.003   1.445   2.880 -0.3685 -0.5537  0.6661
 2532SOL    HW119232   0.077   1.506   2.871 -1.0465  0.3275  1.0664
 2532SOL    HW219233   0.043   1.360   2.863  2.0119  0.6815  0.1118
 2533SOL     OW19234   1.674   3.212   4.320 -0.1510 -0.1243  0.1708
 2533SOL    HW119235   1.770   3.204   4.322 -0.3811 -2.9928 -0.7442
 2533SOL    HW219236   1.666   3.307   4.312 -1.1451 -0.3867 -2.0136
 2534SOL     OW19237   0.502   2.743   4.078 -0.4106 -0.4896  0.3339
 2534SOL    HW119238   0.584   2.778   4.113 -0.2812 -0.3198 -0.1432
 2534SOL    HW219239   0.454   2.722   4.158 -1.4830  0.4803 -0.0565
 2535SOL     OW19240   1.830   2.334  12.356 -0.4320  0.6336 -0.2921
 2535SOL    HW119241   1.776   2.305  12.283 -0.8325  0.4334  0.0818
 2535SOL    HW219242   1.836   2.428  12.336  2.6327  1.0242  2.4101
 2536SOL     OW19243   0.238   0.082   1.433  0.2710 -0.0261 -0.3351
 2536SOL    HW119244   0.193   0.102   1.514  1.0138 -1.7901  0.5149
 2536SOL    HW219245   0.284   0.165   1.417 -1.5906  0.7182 -1.8210
 2537SOL     OW19246   2.940   2.645   8.109  0.0228  0.1279 -0.2245
 2537SOL    HW119247   2.849   2.615   8.107  0.0506 -0.1101  1.8648
 2537SOL    HW219248   2.969   2.580   8.174  0.6096  0.8764  0.2630
 2538SOL     OW19249   3.276   4.444  15.132  0.1785  0.0904  0.0414
 2538SOL    HW119250   3.301   4.361  15.091  0.9939  0.7526 -0.8008
 2538SOL    HW219251   3.278   4.507  15.060 -2.3894 -0.4933 -0.5288
 2539SOL     OW19252   0.425   3.671   3.427  0.5141  0.5886 -0.1192
 2539SOL    HW119253   0.436   3.604   3.494  2.1683  1.7527  0.7816
 2539SOL    HW219254   0.504   3.723   3.441 -0.4284  1.7663  0.9419
 2540SOL     OW19255   2.692   2.583   1.674  0.0554  0.2150 -0.4486
 2540SOL    HW119256   2.738   2.651   1.723 -0.9641 -0.0478  0.8711
 2540SOL    HW219257   2.616   2.564   1.729 -0.2102  2.4818 -0.0435
 2541SOL     OW19258   1.114   1.725   4.763 -0.2497 -0.3603  0.3163
 2541SOL    HW119259   1.088   1.742   4.854  0.2349 -0.1030  0.4100
 2541SOL    HW219260   1.179   1.793   4.743 -0.6928 -0.7738 -2.4501
 2542SOL     OW19261   2.114   1.037   6.158 -0.4004  0.2933 -0.0068
 2542SOL    HW119262   2.186   1.029   6.219 -0.7446  1.1441  0.5102
 2542SOL    HW219263   2.062   0.959   6.177  0.3069 -0.5888 -1.6463
 2543SOL     OW19264   0.683   2.856  16.898 -0.0927  0.3516 -0.4523
 2543SOL    HW119265   0.594   2.822  16.889 -0.9486  2.1904  0.9579
 2543SOL    HW219266   0.709   2.853  16.806 -0.2757 -1.1401 -0.4490
 2544SOL     OW19267   4.647   3.257   5.611 -0.0932 -0.0217  0.0430
 2544SOL    HW119268   4.736   3.286   5.591 -0.1147 -0.5718 -0.8407
 2544SOL    HW219269   4.659   3.268   5.706 -0.5417  2.4967 -0.1812
 2545SOL     OW19270   0.107   1.800   0.003 -0.5355  0.8198  0.0439
 2545SOL    HW119271   0.153   1.716  17.735 -2.5666  0.0238 -1.8834
 2545SOL    HW219272   0.052   1.774   0.077 -0.4250  0.9082  0.1577
 2546SOL     OW19273   4.600   1.542  14.841 -0.6995 -0.4791  0.2691
 2546SOL    HW119274   4.680   1.526  14.790 -0.4588 -0.2988  0.5876
 2546SOL    HW219275   4.591   1.448  14.858  1.1288 -0.9826 -1.5536
 2547SOL     OW19276   2.571   2.877   1.070 -0.2405  0.0987 -0.4441
 2547SOL    HW119277   2.524   2.795   1.084 -1.5627  0.6856 -1.4652
 2547SOL    HW219278   2.503   2.930   1.028  0.4037  0.6008 -0.8657
 2548SOL     OW19279   0.470   1.550   4.156 -0.0038  0.0762 -0.4318
 2548SOL    HW119280   0.430   1.626   4.198  0.3252 -0.1182  0.2457
 2548SOL    HW219281   0.547   1.535   4.211 -0.2595 -1.7999 -0.5889
 2549SOL     OW19282   0.350   2.864   5.665 -0.2270 -0.2495  0.2059
 2549SOL    HW119283   0.358   2.769   5.671 -2.0313 -0.4088  0.1607
 2549SOL    HW219284   0.404   2.879   5.588  0.5617  0.9009  0.9784
 2550SOL     OW19285   2.351   4.183   5.595  0.3865 -0.8775 -0.2087
 2550SOL    HW119286   2.424   4.161   5.653 -0.2761 -3.2611 -0.3014
 2550SOL    HW219287   2.350   4.110   5.533 -1.3709 -2.0813  1.2313
 2551SOL     OW19288   3.263   1.759  15.782  0.1603  0.1920 -0.3203
 2551SOL    HW119289   3.256   1.686  15.720  1.9360  0.9745 -1.4510
 2551SOL    HW219290   3.221   1.831  15.735  1.6984  1.4799  0.2942
 2552SOL     OW19291   0.488   2.022   3.282  0.1449  0.5296  0.3847
 2552SOL    HW119292   0.485   2.002   3.376 -0.8225 -3.4290 -0.5222
 2552SOL    HW219293   0.428   2.097   3.284  0.8390  1.1249 -0.6936
 2553SOL     OW19294   3.665   1.881  16.092  0.4704 -0.5100  0.0734
 2553SOL    HW119295   3.589   1.869  16.035 -1.3799 -1.8206  2.8714
 2553SOL    HW219296   3.616   1.912  16.168  0.7835 -0.1656  0.1405
 2554SOL     OW19297   2.582   3.861   6.048 -0.2779 -0.4171  1.0938
 2554SOL    HW119298   2.593   3.838   6.140  0.0593 -1.5131  0.7755
 2554SOL    HW219299   2.522   3.797   6.010 -0.2926  0.9371 -1.0983
 2555SOL     OW19300   1.898   1.445   8.170  0.1747  0.1142 -0.4676
 2555SOL    HW119301   1.947   1.501   8.231  0.9487 -0.5458 -0.4766
 2555SOL    HW219302   1.956   1.430   8.096  3.4822  0.0244  2.1057
 2556SOL     OW19303   4.490   2.346   7.668 -0.1171  0.2761 -0.0347
 2556SOL    HW119304   4.470   2.285   7.597 -1.4594  2.4631 -1.5312
 2556SOL    HW219305   4.409   2.397   7.668 -0.2515  0.0658  1.3398
 2557SOL     OW19306   0.896   1.036  17.110 -0.5338  0.3577  0.6687
 2557SOL    HW119307   0.878   1.111  17.053 -0.0855  0.6601  0.9258
 2557SOL    HW219308   0.989   1.018  17.095 -0.9100 -1.3009  0.3079
 2558SOL     OW19309   0.231   3.482  11.218  0.2434 -0.0029 -0.2633
 2558SOL    HW119310   0.208   3.499  11.310 -0.2326 -1.9293 -0.0340
 2558SOL    HW219311   0.142   3.487  11.184 -0.2008 -0.8245  0.7676
 2559SOL     OW19312   1.208   4.718   8.811 -0.2266 -0.2386 -0.1470
 2559SOL    HW119313   1.219   0.058   8.867 -1.6123 -1.9131  2.4451
 2559SOL    HW219314   1.267   4.659   8.858  1.3288 -0.0638 -1.8724
 2560SOL     OW19315   4.349   2.644   8.157 -0.5862 -0.7592  0.0655
 2560SOL    HW119316   4.436   2.648   8.198 -1.9259 -1.2655  2.9955
 2560SOL    HW219317   4.293   2.601   8.222 -1.2567  0.9142  0.5999
 2561SOL     OW19318   4.514   4.133   2.375  0.0423 -0.2837  0.1768
 2561SOL    HW119319   4.559   4.053   2.350  0.1734 -0.0349 -0.3853
 2561SOL    HW219320   4.581   4.146   2.442  0.1587  1.5402 -0.2889
 2562SOL     OW19321   2.803   2.226   7.081 -0.2705 -0.2644 -0.1293
 2562SOL    HW119322   2.810   2.318   7.053  1.7347  0.0766  1.4969
 2562SOL    HW219323   2.858   2.230   7.159 -0.6859 -0.0546  0.1477
 2563SOL     OW19324   4.390   2.465  17.128  0.1290 -0.4087  0.2401
 2563SOL    HW119325   4.461   2.502  17.077  1.3355 -0.4979  1.8691
 2563SOL    HW219326   4.436   2.396  17.175  1.2247  0.3009  0.2125
 2564SOL     OW19327   3.033   4.592   6.940  0.4297 -0.0119 -0.0438
 2564SOL    HW119328   3.040   4.667   6.880 -0.8775 -0.7974 -1.1647
 2564SOL    HW219329   2.939   4.577   6.951  0.8248 -1.8063  0.8113
 2565SOL     OW19330   0.405   2.658  17.489 -0.2954  0.0488  0.2861
 2565SOL    HW119331   0.390   2.579  17.437 -3.3482  1.3519 -0.7731
 2565SOL    HW219332   0.461   2.617  17.556 -1.2067 -0.6200  0.6475
 2566SOL     OW19333   3.965   0.448   7.201 -0.1794 -0.4734  0.2152
 2566SOL    HW119334   4.002   0.427   7.286 -0.0182 -2.1325 -0.2628
 2566SOL    HW219335   4.006   0.372   7.160  1.6177  0.9595 -0.6677
 2567SOL     OW19336   1.822   0.714  16.629 -0.0746 -0.0300 -0.1861
 2567SOL    HW119337   1.781   0.749  16.550 -0.4625 -0.4175 -0.1599
 2567SOL    HW219338   1.864   0.792  16.663  0.1853 -0.4580  0.4785
 2568SOL     OW19339   0.064   2.020   7.842 -0.2603  0.8868 -0.0455
 2568SOL    HW119340   0.149   2.054   7.870  0.6640 -1.2190 -0.2463
 2568SOL    HW219341   0.014   2.005   7.922  0.7563 -2.4620 -0.0007
 2569SOL     OW19342   1.886   3.144   6.702  0.6792  0.2667 -0.5519
 2569SOL    HW119343   1.879   3.183   6.615  0.4696  0.3755 -0.4856
 2569SOL    HW219344   1.977   3.168   6.719  1.1471 -0.7214 -1.6596
 2570SOL     OW19345   3.401   3.281   6.442 -0.2338 -0.1317 -0.5433
 2570SOL    HW119346   3.496   3.287   6.453  0.0442 -2.2118 -1.7498
 2570SOL    HW219347   3.366   3.286   6.531 -2.1940  2.1791 -1.4564
 2571SOL     OW19348   4.578   0.892   9.803  0.0223  0.3056  0.0131
 2571SOL    HW119349   4.671   0.897   9.821  0.6937  1.1979 -3.6698
 2571SOL    HW219350   4.591   0.922   9.713  1.3401 -2.0238 -0.5674
 2572SOL     OW19351   1.905   0.581   3.964 -0.5759  0.4243 -0.2881
 2572SOL    HW119352   1.845   0.515   3.931  0.4594 -1.0278  0.7745
 2572SOL    HW219353   1.926   0.640   3.892  1.3867  0.6496  0.4818
 2573SOL     OW19354   3.192   4.406   6.155 -0.0183  0.6658  0.0898
 2573SOL    HW119355   3.217   4.458   6.231  1.0249 -1.4322  1.1916
 2573SOL    HW219356   3.100   4.380   6.165 -0.0601  0.6775 -0.2910
 2574SOL     OW19357   1.919   0.724   4.319  0.4864  0.0029  0.3405
 2574SOL    HW119358   1.913   0.643   4.269  0.4096 -0.1184  0.5512
 2574SOL    HW219359   1.881   0.780   4.251  0.9938 -2.0836 -1.6701
 2575SOL     OW19360   1.339   1.064   4.593 -0.7646 -0.1485 -0.5025
 2575SOL    HW119361   1.246   1.044   4.597 -0.6586 -0.4303  0.8623
 2575SOL    HW219362   1.345   1.157   4.615 -2.2154 -0.0142 -0.7082
 2576SOL     OW19363   0.312   4.020   6.498  0.0938  0.2165 -0.4778
 2576SOL    HW119364   0.338   3.936   6.458  1.1979  0.9476 -1.3127
 2576SOL    HW219365   0.229   4.041   6.456  0.0556  3.6929  1.3525
 2577SOL     OW19366   1.428   2.611   8.279 -0.1682 -0.3580 -0.2383
 2577SOL    HW119367   1.505   2.662   8.305  0.2237 -0.3993 -1.3384
 2577SOL    HW219368   1.430   2.627   8.185 -1.6127  0.9383 -0.0450
 2578SOL     OW19369   2.058   2.119   5.060 -0.3624 -0.5516 -0.3233
 2578SOL    HW119370   2.097   2.046   5.012  1.7418 -0.9870  2.0717
 2578SOL    HW219371   1.993   2.153   4.998 -0.1844 -0.9029 -0.7067
 2579SOL     OW19372   0.090   0.979   2.885 -0.3317  0.1406  0.1009
 2579SOL    HW119373   0.158   0.912   2.878  0.0277  0.6430 -1.2745
 2579SOL    HW219374   0.017   0.934   2.928 -0.2367  1.0996  1.2794
 2580SOL     OW19375   2.144   2.346  13.408 -0.1814 -0.3032  0.1451
 2580SOL    HW119376   2.050   2.350  13.389  0.0970 -1.6767 -1.5086
 2580SOL    HW219377   2.159   2.433  13.372 -1.4083  0.4295  1.4042
 2581SOL     OW19378   3.482   0.561   3.258 -0.8217  0.5575  1.0790
 2581SOL    HW119379   3.554   0.501   3.235 -0.5346  0.5819  1.9034
 2581SOL    HW219380   3.410   0.500   3.244  0.4114 -0.7276  0.2384
 2582SOL     OW19381   3.596   0.714  14.369 -0.2220  0.0838  0.1238
 2582SOL    HW119382   3.554   0.768  14.435 -1.8530 -0.6457 -0.3219
 2582SOL    HW219383   3.595   0.770  14.291 -0.5389  1.1940  0.9245
 2583SOL     OW19384   3.626   3.735   4.159  0.1615 -0.3773  0.5752
 2583SOL    HW119385   3.638   3.650   4.201 -0.6207 -0.9960 -0.4768
 2583SOL    HW219386   3.555   3.783   4.203  0.5388  2.5170 -1.9988
 2584SOL     OW19387   4.384   2.332   6.803  0.3291  0.1360 -0.4717
 2584SOL    HW119388   4.379   2.426   6.821 -1.4682  0.0832 -0.6428
 2584SOL    HW219389   4.403   2.334   6.709  0.0060 -0.2266 -0.5471
 2585SOL     OW19390   4.460   2.182   8.083 -0.2777  0.7619 -0.1044
 2585SOL    HW119391   4.525   2.145   8.143 -0.0941  0.4112 -0.5168
 2585SOL    HW219392   4.497   2.263   8.047 -2.1444  0.7299 -2.0632
 2586SOL     OW19393   0.661   0.131   8.624  0.1340  0.1473  0.1096
 2586SOL    HW119394   0.586   0.071   8.628  2.9450 -3.3414  0.0392
 2586SOL    HW219395   0.712   0.069   8.573 -0.6533 -0.5246  0.1445
 2587SOL     OW19396   2.063   4.629   3.648  0.0050  0.3750  0.2867
 2587SOL    HW119397   2.083   4.691   3.718  1.7593 -0.2750  0.3591
 2587SOL    HW219398   1.968   4.637   3.649 -0.2718 -2.8808  1.5261
 2588SOL     OW19399   0.298   4.216   9.594  0.0745 -0.1087 -0.3921
 2588SOL    HW119400   0.302   4.236   9.687 -0.4458  1.6095 -0.7397
 2588SOL    HW219401   0.330   4.294   9.548  0.4774  0.5266  0.9842
 2589SOL     OW19402   3.582   2.032   6.125  0.5882  0.1195 -0.0423
 2589SOL    HW119403   3.562   2.028   6.031 -0.2378  0.1879  0.1234
 2589SOL    HW219404   3.592   1.939   6.142  0.2176 -0.6327 -3.8415
 2590SOL     OW19405   0.319   0.903   6.404  0.6431  0.6769  0.0829
 2590SOL    HW119406   0.230   0.869   6.399  0.7340  0.2434  1.4494
 2590SOL    HW219407   0.306   0.962   6.330  0.0727 -1.3454 -1.4088
 2591SOL     OW19408   0.355   4.271   2.883 -0.0551  0.2523  0.0116
 2591SOL    HW119409   0.426   4.212   2.857  0.1471  0.3005  0.4568
 2591SOL    HW219410   0.339   4.323   2.805 -0.1176  0.5196  0.2058
 2592SOL     OW19411   2.880   4.733   5.419 -0.0598 -0.0635  0.7846
 2592SOL    HW119412   2.927   4.652   5.443 -1.5452 -1.4325 -0.8832
 2592SOL    HW219413   2.795   4.715   5.458 -0.0155 -1.1200  0.4222
 2593SOL     OW19414   0.122   4.687  10.465  0.2079 -0.0608  0.0135
 2593SOL    HW119415   0.067   0.017  10.505  1.4312  2.5078 -2.5990
 2593SOL    HW219416   0.121   4.704  10.371 -1.2245  1.2752  0.2755
 2594SOL     OW19417   1.778   2.017   5.133  0.2232 -0.2350  0.0332
 2594SOL    HW119418   1.719   2.018   5.209  1.5141  3.5757  0.9915
 2594SOL    HW219419   1.852   1.979   5.180 -0.0518  0.5550  1.1091
 2595SOL     OW19420   0.242   3.138   6.470  0.2531  0.2181 -0.5895
 2595SOL    HW119421   0.330   3.102   6.467 -0.7421 -2.1674 -1.1636
 2595SOL    HW219422   0.249   3.215   6.414 -0.0128 -0.9360 -2.2089
 2596SOL     OW19423   1.268   3.989  12.409 -0.3032  0.0746  0.2649
 2596SOL    HW119424   1.251   4.040  12.488  2.4484 -0.7722  1.4140
 2596SOL    HW219425   1.252   4.044  12.333  0.9790  0.8349  0.5474
 2597SOL     OW19426   0.462   2.546   2.180 -0.7021 -0.4300 -0.0598
 2597SOL    HW119427   0.379   2.581   2.211 -0.8239 -1.5801  0.8889
 2597SOL    HW219428   0.475   2.462   2.223  1.0186 -1.0536 -1.7840
 2598SOL     OW19429   1.449   1.876   3.132  0.1398  0.6538 -0.0999
 2598SOL    HW119430   1.521   1.835   3.083 -0.7560  1.2795 -1.9426
 2598SOL    HW219431   1.397   1.797   3.142  2.8980 -1.2653 -0.7110
 2599SOL     OW19432   4.091   0.832   9.583 -0.1264  0.6432  0.2149
 2599SOL    HW119433   4.126   0.775   9.514  0.1712  0.2244  0.7166
 2599SOL    HW219434   4.167   0.889   9.598 -0.4770  1.4497 -1.0590
 2600SOL     OW19435   2.602   4.558   4.682 -0.1743 -0.3429  0.5840
 2600SOL    HW119436   2.600   4.509   4.764  2.3110 -1.1902  0.1482
 2600SOL    HW219437   2.586   4.646   4.715 -0.8942 -0.0439 -0.5489
 2601SOL     OW19438   0.597   2.260   7.024 -0.4828  0.5487 -0.0663
 2601SOL    HW119439   0.672   2.319   7.018 -0.1364  0.0749 -0.3339
 2601SOL    HW219440   0.616   2.201   6.951 -0.6940  0.3985 -0.0018
 2602SOL     OW19441   4.626   1.855   8.411 -0.4942 -0.2648  0.1410
 2602SOL    HW119442   4.546   1.804   8.423 -0.8197  0.2074  0.0077
 2602SOL    HW219443   4.681   1.823   8.482 -2.0544 -0.0991  1.4099
 2603SOL     OW19444   0.520   1.238   2.885  0.4343  0.0888  0.7287
 2603SOL    HW119445   0.467   1.199   2.816  1.4338 -0.5350  0.3156
 2603SOL    HW219446   0.594   1.273   2.834  0.5795 -0.7906  0.3315
 2604SOL     OW19447   3.665   4.228  13.588  0.0503  0.2399  0.0314
 2604SOL    HW119448   3.683   4.136  13.604 -0.1756  0.4958  1.7262
 2604SOL    HW219449   3.572   4.216  13.571 -0.1494  2.3881 -0.3774
 2605SOL     OW19450   3.227   0.674   7.991 -0.0954  0.2101  0.4167
 2605SOL    HW119451   3.239   0.639   8.079  2.8807 -0.1204 -0.1313
 2605SOL    HW219452   3.267   0.609   7.934  0.5015 -0.8725  2.0695
 2606SOL     OW19453   0.506   0.510   6.745 -0.5664  0.7022 -0.1929
 2606SOL    HW119454   0.526   0.444   6.811  1.5484  2.3765  0.8271
 2606SOL    HW219455   0.423   0.530   6.788  0.2147 -0.1259  1.6584
 2607SOL     OW19456   3.984   4.419  16.624  0.4500  0.2598 -0.4949
 2607SOL    HW119457   4.055   4.410  16.688  0.1263  0.2184 -0.1433
 2607SOL    HW219458   3.910   4.452  16.675 -0.0889  0.5012 -1.4502
 2608SOL     OW19459   3.701   4.666   2.838 -0.1742  0.6136 -0.3694
 2608SOL    HW119460   3.605   4.664   2.842 -0.1019 -0.4464  0.7401
 2608SOL    HW219461   3.725   4.581   2.874 -0.2551  0.3096 -1.0345
 2609SOL     OW19462   0.506   1.625   4.684  0.4834 -0.2647 -0.1954
 2609SOL    HW119463   0.413   1.607   4.671 -0.5386  3.1189  2.5518
 2609SOL    HW219464   0.537   1.547   4.638 -3.1538 -1.2427 -0.9890
 2610SOL     OW19465   1.495   3.689   2.498  0.4125  0.4850  0.2627
 2610SOL    HW119466   1.432   3.757   2.477  1.5089  1.3413 -0.2707
 2610SOL    HW219467   1.583   3.722   2.481  0.3558  0.4979 -0.0064
 2611SOL     OW19468   2.469   2.110   2.164  0.2847  0.6557  0.0848
 2611SOL    HW119469   2.461   2.101   2.070 -2.1509 -0.6032  0.4297
 2611SOL    HW219470   2.387   2.114   2.212 -0.8299  1.1986 -1.8797
 2612SOL     OW19471   2.712   3.522   4.248  0.0291 -0.3980 -0.5252
 2612SOL    HW119472   2.768   3.498   4.174  1.8851  2.2649  0.0328
 2612SOL    HW219473   2.760   3.482   4.320 -1.1436  0.7326  0.8699
 2613SOL     OW19474   0.130   4.614   1.846 -0.4429  0.3927  0.7186
 2613SOL    HW119475   0.035   4.613   1.838 -0.4362  1.5918  0.3558
 2613SOL    HW219476   0.149   4.589   1.936  0.8539  0.1318  0.3663
 2614SOL     OW19477   0.025   3.827   3.773 -0.2651  0.5367  0.2144
 2614SOL    HW119478   4.719   3.827   3.859 -1.7928 -0.5629 -0.5462
 2614SOL    HW219479   0.054   3.917   3.765  4.1027 -0.6207  2.7998
 2615SOL     OW19480   1.529   1.179   7.514 -0.1691  0.2366  0.2444
 2615SOL    HW119481   1.547   1.154   7.604 -0.2681  0.7343  0.3976
 2615SOL    HW219482   1.577   1.110   7.467 -2.9427 -1.5250 -0.0030
 2616SOL     OW19483   3.480   2.904   7.022  0.5153 -0.4237 -0.1366
 2616SOL    HW119484   3.498   2.920   6.929 -1.5893 -0.9874 -0.6421
 2616SOL    HW219485   3.433   2.982   7.050 -0.6059 -0.4971 -1.8328
 2617SOL     OW19486   1.599   2.563  12.043  0.2294 -0.4564 -0.2303
 2617SOL    HW119487   1.674   2.533  11.991 -0.9471  0.5630 -2.5265
 2617SOL    HW219488   1.576   2.630  11.978  0.3041 -0.1221  0.0853
 2618SOL     OW19489   1.417   3.354   1.310  0.6622  0.4876 -0.2836
 2618SOL    HW119490   1.328   3.364   1.274  0.8784 -0.1238 -0.9683
 2618SOL    HW219491   1.426   3.259   1.305 -2.1614  0.1470  0.9844
 2619SOL     OW19492   0.758   1.266   6.105  0.0680  0.2345 -0.3595
 2619SOL    HW119493   0.726   1.176   6.112  1.2760 -0.3503 -2.1831
 2619SOL    HW219494   0.852   1.254   6.117 -0.1138 -1.1188 -0.2554
 2620SOL     OW19495   0.729   2.187   4.662 -0.0198 -0.0620 -0.0014
 2620SOL    HW119496   0.803   2.216   4.715 -0.4059  3.3884 -1.3363
 2620SOL    HW219497   0.660   2.239   4.701 -0.8471 -0.0667 -1.4318
 2621SOL     OW19498   1.005   0.399   3.993 -0.2023 -0.0926  0.1514
 2621SOL    HW119499   0.930   0.400   3.932 -0.8217 -0.7149  0.9036
 2621SOL    HW219500   0.982   0.318   4.037 -1.8807 -0.4384 -1.3406
 2622SOL     OW19501   1.742   2.225   2.128 -0.6558 -0.4493  0.1179
 2622SOL    HW119502   1.678   2.250   2.194 -0.7841  0.8715 -0.5176
 2622SOL    HW219503   1.820   2.210   2.181 -1.5865 -1.5721  1.1872
 2623SOL     OW19504   2.788   0.728   0.708 -0.3353 -0.5062 -0.4214
 2623SOL    HW119505   2.719   0.712   0.643 -0.1688 -1.6981 -0.3016
 2623SOL    HW219506   2.824   0.814   0.688  1.0152 -1.1551 -0.7393
 2624SOL     OW19507   3.829   4.158   8.060  0.3453  0.6741  0.4893
 2624SOL    HW119508   3.762   4.112   8.111  0.3653 -1.7816 -1.7080
 2624SOL    HW219509   3.898   4.092   8.065 -0.5037 -0.1787  1.0779
 2625SOL     OW19510   1.144   0.439   4.883  0.6451  0.4478  0.2490
 2625SOL    HW119511   1.197   0.386   4.823 -0.4851  0.2496 -0.5819
 2625SOL    HW219512   1.188   0.402   4.959 -3.1672  0.5094  2.4619
 2626SOL     OW19513   4.099   3.760  12.105 -0.2978 -0.3132 -0.3084
 2626SOL    HW119514   4.097   3.844  12.058  1.0750 -0.9186 -1.4460
 2626SOL    HW219515   4.042   3.706  12.051 -0.1758  0.9729 -1.7433
 2627SOL     OW19516   2.013   2.786   2.842  0.2509 -0.1961 -0.3855
 2627SOL    HW119517   2.025   2.830   2.926 -2.6204 -0.2526  0.0325
 2627SOL    HW219518   1.949   2.721   2.870 -1.1356  1.0539 -0.6753
 2628SOL     OW19519   3.938   1.973  11.471  0.1825 -0.3284  0.9596
 2628SOL    HW119520   3.851   1.956  11.507 -0.4133  0.9080  0.1144
 2628SOL    HW219521   3.914   2.005  11.384  3.2586 -0.0988  0.2088
 2629SOL     OW19522   2.656   2.347   1.932 -0.1562  0.2891  0.4598
 2629SOL    HW119523   2.581   2.305   1.889 -2.1824  2.2911  2.0516
 2629SOL    HW219524   2.613   2.382   2.010  1.5746 -0.3921  1.7090
 2630SOL     OW19525   3.624   0.344   9.171 -0.0254  0.2503  0.1362
 2630SOL    HW119526   3.573   0.411   9.218  0.0649  1.2513 -1.1904
 2630SOL    HW219527   3.553   0.309   9.118 -0.4518  1.6180 -0.1975
 2631SOL     OW19528   4.152   1.649   0.776 -0.1223 -0.0474 -0.2736
 2631SOL    HW119529   4.210   1.666   0.850 -0.4460 -2.2562  0.4944
 2631SOL    HW219530   4.220   1.660   0.709  0.6135 -1.7956  0.1754
 2632SOL     OW19531   4.263   1.205  16.752 -0.6713 -0.4123  0.2269
 2632SOL    HW119532   4.214   1.272  16.800 -0.1003  0.9257 -1.0654
 2632SOL    HW219533   4.253   1.244  16.665  0.8357  0.2185  0.3387
 2633SOL     OW19534   1.819   4.435   3.385 -0.3690  0.3587 -0.3741
 2633SOL    HW119535   1.878   4.387   3.328 -0.3130  1.1980 -1.0259
 2633SOL    HW219536   1.737   4.436   3.335 -0.5036  1.1493 -0.1503
 2634SOL     OW19537   2.379   3.266   2.976 -0.3390  0.1093  0.2050
 2634SOL    HW119538   2.459   3.219   2.954 -1.2187 -1.2557 -0.0858
 2634SOL    HW219539   2.334   3.262   2.892  0.2659 -0.4823 -0.0817
 2635SOL     OW19540   2.571   0.003   8.215  0.3400  0.1129  0.7394
 2635SOL    HW119541   2.511   0.065   8.173 -0.4798 -0.4817  1.0485
 2635SOL    HW219542   2.592   4.690   8.136 -0.3450  1.2443 -0.1545
 2636SOL     OW19543   3.819   0.723  10.152  0.6410  0.0903 -0.0974
 2636SOL    HW119544   3.862   0.663  10.091  0.9607  0.5776 -0.3493
 2636SOL    HW219545   3.728   0.721  10.119  0.0373  3.9472  1.3385
 2637SOL     OW19546   1.476   4.734   2.195  0.4380  0.7290  0.1659
 2637SOL    HW119547   1.526   0.004   2.114  1.2593  1.3697  0.7410
 2637SOL    HW219548   1.529   4.673   2.246 -1.0196  0.1335  0.9820
 2638SOL     OW19549   0.903   1.911   6.897  0.4152 -0.5213 -0.5128
 2638SOL    HW119550   0.946   1.871   6.973  0.8143 -0.9400 -0.9552
 2638SOL    HW219551   0.905   1.838   6.836  0.7384 -0.1832 -0.9018
 2639SOL     OW19552   4.377   1.410   4.335  0.4197 -0.3885 -0.2226
 2639SOL    HW119553   4.447   1.346   4.322 -0.3512 -1.7321  2.2279
 2639SOL    HW219554   4.411   1.441   4.419  2.6004 -4.6604  0.4946
 2640SOL     OW19555   1.828   4.245   3.100 -0.0299 -0.4788 -0.5105
 2640SOL    HW119556   1.906   4.289   3.066  0.3264 -0.5239  0.2504
 2640SOL    HW219557   1.870   4.194   3.169  2.1428  1.1197 -0.6324
 2641SOL     OW19558   4.351   0.682   0.692 -0.4517  0.1799  0.1014
 2641SOL    HW119559   4.435   0.667   0.736 -0.8593 -0.9513  0.4884
 2641SOL    HW219560   4.374   0.759   0.640 -1.1419  0.9371  0.9085
 2642SOL     OW19561   4.197   3.822   3.410 -0.3052  0.1795 -0.3014
 2642SOL    HW119562   4.116   3.870   3.391  0.6760  1.2705 -1.7492
 2642SOL    HW219563   4.256   3.896   3.396 -2.4505  2.1191  0.8775
 2643SOL     OW19564   0.973   3.935   2.460  0.0424  0.1048 -0.1588
 2643SOL    HW119565   0.952   4.003   2.397  0.9807  0.4118 -0.1441
 2643SOL    HW219566   1.051   3.975   2.498  0.9797 -0.3333 -1.6033
 2644SOL     OW19567   1.267   3.421  16.978  0.2544  0.2430 -0.5621
 2644SOL    HW119568   1.315   3.373  16.910  1.3563 -0.0968  0.4673
 2644SOL    HW219569   1.179   3.388  16.960  0.9034 -2.2736  0.9523
 2645SOL     OW19570   0.309   2.266   1.138  0.3942 -0.0221 -0.9599
 2645SOL    HW119571   0.393   2.241   1.097  1.8921  1.2349  1.3592
 2645SOL    HW219572   0.298   2.357   1.112  0.8150  0.0595 -0.8504
 2646SOL     OW19573   0.411   3.357   9.422 -0.6053 -0.0598 -0.1174
 2646SOL    HW119574   0.496   3.344   9.463 -0.6711 -0.3188 -0.0670
 2646SOL    HW219575   0.404   3.453   9.426  0.0410  0.0306 -1.0683
 2647SOL     OW19576   2.027   4.365   2.983 -0.6133  0.3982  0.7824
 2647SOL    HW119577   2.060   4.433   3.041 -0.7791 -0.0819  1.4404
 2647SOL    HW219578   2.005   4.413   2.903  0.3948  0.2033  0.3841
 2648SOL     OW19579   0.697   1.376   2.643  0.4707  0.0067 -0.7596
 2648SOL    HW119580   0.667   1.410   2.559 -0.7480 -0.6146 -0.5696
 2648SOL    HW219581   0.640   1.300   2.652  0.0502  0.2137 -1.6814
 2649SOL     OW19582   3.821   2.961   1.388  0.3309  0.9182 -0.2722
 2649SOL    HW119583   3.759   3.013   1.439 -0.1034 -0.3947  0.5097
 2649SOL    HW219584   3.894   2.963   1.449 -2.0203  0.1754  2.5202
 2650SOL     OW19585   1.959   2.607   5.883 -0.0863  0.0408  0.3339
 2650SOL    HW119586   1.890   2.618   5.818 -0.1512 -1.7221  0.1070
 2650SOL    HW219587   2.028   2.570   5.827  1.4559  0.2932  2.0923
 2651SOL     OW19588   0.389   0.841   8.523  0.3416  0.2789  0.3834
 2651SOL    HW119589   0.421   0.931   8.536 -1.9588  1.2806 -0.8031
 2651SOL    HW219590   0.402   0.824   8.429 -1.0284 -1.6176  0.5362
 2652SOL     OW19591   4.593   3.055   9.389  0.1677  0.7490  0.2702
 2652SOL    HW119592   4.592   3.129   9.328 -1.3444  0.1830 -0.4032
 2652SOL    HW219593   4.519   3.084   9.443 -0.8601  0.0768 -0.7831
 2653SOL     OW19594   1.004   1.692   9.229  0.7284 -0.4680 -0.0620
 2653SOL    HW119595   1.067   1.628   9.261  1.6080  0.9919  1.1612
 2653SOL    HW219596   1.060   1.770   9.234 -0.5620  0.4452  0.2033
 2654SOL     OW19597   1.007   2.365   7.633  0.5938 -0.0005 -0.1728
 2654SOL    HW119598   1.093   2.324   7.624  1.4635  1.8686 -0.3788
 2654SOL    HW219599   0.950   2.290   7.618  1.7551 -0.7262 -0.9495
 2655SOL     OW19600   3.992   2.567   9.699 -0.5643  0.1815 -0.1208
 2655SOL    HW119601   3.949   2.649   9.675 -2.8474 -0.1622  2.7061
 2655SOL    HW219602   4.084   2.592   9.695 -0.5763  0.4937  1.3134
 2656SOL     OW19603   4.389   2.410  11.644  0.1389 -0.1027  0.3312
 2656SOL    HW119604   4.472   2.418  11.597 -0.3674 -0.3990 -0.6131
 2656SOL    HW219605   4.392   2.318  11.670  0.2669 -0.5028 -1.0837
 2657SOL     OW19606   2.377   1.715  16.203  0.1610  0.3246  0.2854
 2657SOL    HW119607   2.399   1.767  16.280 -1.6514 -0.1376  1.1083
 2657SOL    HW219608   2.453   1.657  16.197 -0.3348 -0.1514 -1.4198
 2658SOL     OW19609   3.426   2.418   7.700 -0.0398 -0.9415  0.2887
 2658SOL    HW119610   3.425   2.342   7.641 -0.6279  1.4010 -2.7000
 2658SOL    HW219611   3.484   2.383   7.768  1.1424  1.7012  0.6187
 2659SOL     OW19612   0.429   0.350   9.445  0.2236  0.0566  0.1514
 2659SOL    HW119613   0.365   0.278   9.448  0.4498 -0.2026 -1.0960
 2659SOL    HW219614   0.412   0.387   9.532 -2.7815  0.2444 -0.4894
 2660SOL     OW19615   3.027   3.738   6.570  0.0244  0.4793 -0.2824
 2660SOL    HW119616   3.098   3.679   6.544  0.1205  0.4359  0.0868
 2660SOL    HW219617   2.974   3.743   6.490 -1.6859 -1.3477  0.7334
 2661SOL     OW19618   2.975   1.967  12.619  0.0048 -0.0212  0.0517
 2661SOL    HW119619   3.037   1.897  12.598 -2.3399 -1.7637 -1.0300
 2661SOL    HW219620   2.977   1.944  12.712  6.2704  0.7983  0.1011
 2662SOL     OW19621   0.016   0.837   1.967 -0.1730 -0.2396 -0.1985
 2662SOL    HW119622   0.055   0.754   1.995 -0.1865 -0.2917 -0.3358
 2662SOL    HW219623   0.088   0.892   1.935 -0.0355  0.3155  1.0531
 2663SOL     OW19624   0.113   2.355  17.057  0.3463 -0.2372 -0.0697
 2663SOL    HW119625   0.156   2.435  17.087  2.7900 -1.6057  0.0640
 2663SOL    HW219626   0.189   2.305  17.029  0.0753  0.1885 -1.5932
 2664SOL     OW19627   1.050   2.519   3.703 -0.2925  0.3426 -0.0388
 2664SOL    HW119628   1.079   2.451   3.643 -3.1052 -0.6727 -0.2766
 2664SOL    HW219629   1.068   2.488   3.792 -1.3365  0.6547  0.2796
 2665SOL     OW19630   2.166   3.066   3.713  0.3181 -0.1600 -0.0893
 2665SOL    HW119631   2.201   3.042   3.799  2.8077  1.5437 -0.6264
 2665SOL    HW219632   2.075   3.046   3.736 -0.4196  0.8361 -2.1431
 2666SOL     OW19633   2.997   1.454   5.566  0.4726 -0.5487  0.5068
 2666SOL    HW119634   2.972   1.387   5.503 -0.1086 -0.7544  0.9529
 2666SOL    HW219635   3.080   1.482   5.529  0.4512 -0.5312  0.4726
 2667SOL     OW19636   1.223   4.544   0.280  0.4645  0.3815  0.2063
 2667SOL    HW119637   1.203   4.470   0.223  2.0349  0.5582 -0.5578
 2667SOL    HW219638   1.220   4.496   0.364 -0.1793  0.1607  0.0558
 2668SOL     OW19639   3.364   0.386  13.047 -0.5913  0.4229 -0.0373
 2668SOL    HW119640   3.350   0.470  13.003  0.8895  0.7211  0.0412
 2668SOL    HW219641   3.389   0.410  13.137  1.2755  0.9125 -0.6857
 2669SOL     OW19642   2.705   3.540   1.584 -0.2098  0.4865 -0.1649
 2669SOL    HW119643   2.664   3.626   1.574 -3.3630 -0.9530  0.4784
 2669SOL    HW219644   2.748   3.541   1.498  0.2500  2.0029  0.0787
 2670SOL     OW19645   0.960   3.764  17.067  0.7321  0.6327  0.2275
 2670SOL    HW119646   0.961   3.687  17.123 -0.8007  0.2356 -0.2702
 2670SOL    HW219647   1.006   3.727  16.992  1.7586  0.1223  1.1160
 2671SOL     OW19648   1.971   3.199  13.552  0.8979  0.4908 -0.2285
 2671SOL    HW119649   1.912   3.230  13.622  1.2276 -1.7541  1.0400
 2671SOL    HW219650   2.043   3.259  13.573  1.1861 -0.7946  2.4179
 2672SOL     OW19651   0.299   4.516   5.014 -0.3689 -0.6992  0.2020
 2672SOL    HW119652   0.245   4.587   5.047  0.5106  1.7498 -3.5994
 2672SOL    HW219653   0.324   4.555   4.930  2.4506 -1.9406  0.4585
 2673SOL     OW19654   2.399   3.885  13.339 -0.6896 -0.2125  0.2175
 2673SOL    HW119655   2.460   3.942  13.292 -1.0841  0.1357  0.1270
 2673SOL    HW219656   2.331   3.867  13.274 -0.0448 -0.9978 -0.2416
 2674SOL     OW19657   3.681   2.974   0.313  0.6755 -0.2887 -0.9316
 2674SOL    HW119658   3.729   3.021   0.244 -0.2565 -0.0618 -1.4256
 2674SOL    HW219659   3.712   3.013   0.395 -1.3559  0.8085 -0.6997
 2675SOL     OW19660   2.426   0.557   2.272  0.7827  0.3952 -0.0738
 2675SOL    HW119661   2.515   0.526   2.257  0.4729 -1.2558  1.4912
 2675SOL    HW219662   2.426   0.647   2.304 -1.3044  0.4342 -0.1423
 2676SOL     OW19663   4.050   3.835   1.398  0.1331 -0.1837  0.0409
 2676SOL    HW119664   4.129   3.808   1.444 -0.2367 -0.0544  0.7558
 2676SOL    HW219665   4.043   3.765   1.333 -2.6586 -0.0852  0.2308
 2677SOL     OW19666   0.507   4.302  15.078  0.1332 -0.4649  0.2701
 2677SOL    HW119667   0.435   4.331  15.021 -0.9725 -0.5470  1.6374
 2677SOL    HW219668   0.523   4.377  15.134 -1.5803 -0.5887  0.9339
 2678SOL     OW19669   1.365   4.353   9.778  0.2730 -0.1787 -0.2915
 2678SOL    HW119670   1.321   4.269   9.787 -0.5703  0.2994 -0.0419
 2678SOL    HW219671   1.442   4.346   9.835 -0.9404 -0.7479  1.2914
 2679SOL     OW19672   2.792   3.124   4.988 -0.4275 -0.3383  0.0310
 2679SOL    HW119673   2.815   3.138   5.080 -0.0182 -0.7606 -0.0112
 2679SOL    HW219674   2.844   3.045   4.977  0.2853  0.2114 -0.5223
 2680SOL     OW19675   3.346   3.273  15.754 -0.3437  0.7900  0.1302
 2680SOL    HW119676   3.282   3.298  15.820  0.1663 -0.9358  1.2822
 2680SOL    HW219677   3.409   3.228  15.811 -1.3960 -0.0564  0.6252
 2681SOL     OW19678   1.040   4.477   5.773  0.4138  0.2408  0.1618
 2681SOL    HW119679   0.977   4.521   5.830  1.6527  1.9501  0.1885
 2681SOL    HW219680   1.120   4.514   5.809 -0.2493  0.7125  1.1547
 2682SOL     OW19681   3.274   0.794   7.085  0.3298 -0.9300  0.1462
 2682SOL    HW119682   3.220   0.723   7.048 -1.3580  0.2371  0.3800
 2682SOL    HW219683   3.334   0.822   7.016  0.9807  1.2502  1.6178
 2683SOL     OW19684   1.940   3.159   4.334 -0.2692 -0.2723 -0.2410
 2683SOL    HW119685   1.883   3.094   4.291  0.8609  0.1233 -2.3328
 2683SOL    HW219686   2.016   3.102   4.347  0.5162  1.0427  0.8693
 2684SOL     OW19687   3.956   2.603   4.085  0.4918  0.4776 -0.4144
 2684SOL    HW119688   3.947   2.535   4.152 -3.3006  0.9253 -0.4829
 2684SOL    HW219689   3.975   2.556   4.005 -0.3521 -0.3685 -0.1114
 2685SOL     OW19690   3.750   0.908  13.909  0.0062 -0.2483 -0.2459
 2685SOL    HW119691   3.765   0.813  13.912 -1.3592 -0.4176  1.1699
 2685SOL    HW219692   3.773   0.929  13.818  0.1638 -0.5038 -0.2660
 2686SOL     OW19693   4.685   4.442  10.556 -0.3676 -0.2683  0.3693
 2686SOL    HW119694   4.684   4.537  10.570 -0.7454 -0.3000  0.5665
 2686SOL    HW219695   0.029   4.442  10.504  1.2917  1.8638  2.9146
 2687SOL     OW19696   3.693   3.296   3.053  0.1158  0.2757 -0.1304
 2687SOL    HW119697   3.782   3.332   3.053 -0.0150  0.5947 -0.1601
 2687SOL    HW219698   3.646   3.378   3.062 -0.7721 -0.3019  0.5565
 2688SOL     OW19699   2.044   1.746   2.681  0.2756 -0.2261 -0.4771
 2688SOL    HW119700   2.042   1.808   2.608 -0.5854 -1.8532 -1.8481
 2688SOL    HW219701   1.949   1.744   2.695  0.4956 -1.7704  0.8091
 2689SOL     OW19702   4.554   0.523   2.731 -0.2037 -0.7782 -0.4163
 2689SOL    HW119703   4.586   0.510   2.641  2.1042  0.5556  0.2192
 2689SOL    HW219704   4.638   0.515   2.775  0.6975 -1.4466 -2.2298
 2690SOL     OW19705   4.176   3.748   8.776 -0.3466  0.1836 -0.0144
 2690SOL    HW119706   4.195   3.732   8.684  1.5056  2.3309 -0.0159
 2690SOL    HW219707   4.136   3.663   8.795 -3.2227  2.1320  2.6306
 2691SOL     OW19708   2.260   0.159  15.312 -0.7441 -0.2902 -0.7222
 2691SOL    HW119709   2.191   0.126  15.369 -0.9559  0.4466 -0.5445
 2691SOL    HW219710   2.228   0.135  15.226 -1.8111  0.8105 -0.6426
 2692SOL     OW19711   0.765   0.949  12.188 -0.0667 -0.1128 -0.0093
 2692SOL    HW119712   0.792   0.907  12.269 -0.1450 -1.8542 -0.8837
 2692SOL    HW219713   0.670   0.943  12.190  0.0654 -2.8556 -2.0298
 2693SOL     OW19714   2.154   0.808  15.695 -0.5274 -1.1769 -0.4219
 2693SOL    HW119715   2.126   0.790  15.605  0.7929 -2.4820 -0.5715
 2693SOL    HW219716   2.203   0.888  15.675 -3.5846  0.7392 -0.2456
 2694SOL     OW19717   2.285   1.174   6.378 -0.3530 -0.4141 -0.2295
 2694SOL    HW119718   2.342   1.235   6.331  1.8576 -2.1214  0.2604
 2694SOL    HW219719   2.205   1.225   6.364  0.4150  0.1891 -2.3790
 2695SOL     OW19720   4.058   4.717   0.835 -0.0386  0.7079 -0.0543
 2695SOL    HW119721   3.984   0.034   0.807  0.4445  0.9479 -0.8526
 2695SOL    HW219722   4.041   4.638   0.784 -0.6017 -1.5574  3.6567
 2696SOL     OW19723   4.499   4.099  15.316  0.3099 -0.0422 -0.2673
 2696SOL    HW119724   4.552   4.160  15.265 -0.4649 -0.1041 -1.1391
 2696SOL    HW219725   4.420   4.153  15.320 -0.6403 -1.4922  0.2635
 2697SOL     OW19726   2.196   0.592   7.477  0.1190 -0.1000 -0.2203
 2697SOL    HW119727   2.226   0.660   7.538  0.1069  0.2798 -0.6323
 2697SOL    HW219728   2.185   0.649   7.401  0.6738 -0.1367 -0.3267
 2698SOL     OW19729   2.641   0.460   2.855 -0.3684  0.0527 -0.3304
 2698SOL    HW119730   2.647   0.506   2.939 -1.1946  1.1130 -0.8402
 2698SOL    HW219731   2.725   0.488   2.818 -1.2797  0.6545 -1.9598
 2699SOL     OW19732   1.025   3.675  11.302 -0.1680 -0.2233 -0.1356
 2699SOL    HW119733   1.039   3.604  11.239  1.5854 -0.3023  0.3578
 2699SOL    HW219734   1.051   3.757  11.260 -1.1270  0.3698  0.4312
 2700SOL     OW19735   0.048   3.517   5.837  0.1102  0.1452 -0.1545
 2700SOL    HW119736   0.051   3.450   5.906  1.1742 -0.3189 -0.6400
 2700SOL    HW219737   0.012   3.585   5.894  1.6965  1.3993 -0.6390
 2701SOL     OW19738   4.673   3.132  14.398  0.1675  0.4005 -0.0459
 2701SOL    HW119739   4.581   3.155  14.407 -0.1613 -0.6968 -0.6557
 2701SOL    HW219740   4.716   3.195  14.455 -1.6870  0.1448  1.6392
 2702SOL     OW19741   0.437   2.745  16.816 -0.0882  0.6086  0.2072
 2702SOL    HW119742   0.494   2.723  16.742  1.2298  1.9523  0.8283
 2702SOL    HW219743   0.363   2.761  16.757  0.0808  2.5933  0.5191
 2703SOL     OW19744   1.931   1.116  17.098  0.4628 -0.3213 -0.4437
 2703SOL    HW119745   1.982   1.179  17.045 -0.5843  1.3978  0.5920
 2703SOL    HW219746   1.884   1.071  17.028  1.2641 -0.4703 -0.8931
 2704SOL     OW19747   1.436   3.088   6.431 -0.0387 -0.3393 -0.4997
 2704SOL    HW119748   1.415   3.181   6.438 -0.2350 -0.5991  2.3893
 2704SOL    HW219749   1.520   3.079   6.477 -0.9997  0.8088  1.4489
 2705SOL     OW19750   2.331   2.295   4.279 -0.4760 -0.5430  0.4592
 2705SOL    HW119751   2.307   2.224   4.220  0.1738 -0.6535  0.3246
 2705SOL    HW219752   2.263   2.301   4.346  1.1704 -0.9846  2.1618
 2706SOL     OW19753   0.692   2.490   5.636  0.5715  0.1345  0.1742
 2706SOL    HW119754   0.658   2.563   5.688 -2.8410 -1.1754 -0.2470
 2706SOL    HW219755   0.755   2.531   5.578  0.0070 -0.6337 -0.9761
 2707SOL     OW19756   1.811   2.494   7.319  0.5812  0.3473 -0.4563
 2707SOL    HW119757   1.802   2.571   7.376  0.5632  0.1676 -0.2156
 2707SOL    HW219758   1.845   2.527   7.235 -1.5905  3.7552 -0.0139
 2708SOL     OW19759   0.547   0.587   3.727  0.2378 -0.5785 -0.6082
 2708SOL    HW119760   0.548   0.507   3.779  1.2567 -0.1241  0.0612
 2708SOL    HW219761   0.513   0.553   3.644  1.6874  0.0071 -1.4389
 2709SOL     OW19762   0.921   1.643   0.890  0.5759 -0.2341  0.0288
 2709SOL    HW119763   0.977   1.692   0.830  0.2247 -1.8402 -1.5939
 2709SOL    HW219764   0.907   1.565   0.836  0.6760  0.3291 -0.8184
 2710SOL     OW19765   0.702   2.251   0.071 -0.5399  0.2818  0.1028
 2710SOL    HW119766   0.615   2.269   0.105  0.4424  1.4343  2.0078
 2710SOL    HW219767   0.750   2.287   0.146 -0.8580 -1.7659  1.3023
 2711SOL     OW19768   0.383   0.677  12.449  1.4350  0.4702 -0.2233
 2711SOL    HW119769   0.331   0.666  12.528 -0.2668  1.1520 -1.2262
 2711SOL    HW219770   0.443   0.747  12.476 -0.0537  1.6866 -0.0649
 2712SOL     OW19771   0.891   0.095   5.678 -0.4008  0.2690 -0.0298
 2712SOL    HW119772   0.961   0.046   5.636 -0.9442 -1.6527  1.3090
 2712SOL    HW219773   0.858   0.146   5.604 -2.5417 -1.1067 -0.0410
 2713SOL     OW19774   3.507   3.714   7.575 -0.1440 -0.1402 -0.4179
 2713SOL    HW119775   3.532   3.738   7.486  0.0245 -1.9837 -0.8666
 2713SOL    HW219776   3.420   3.753   7.567  0.3832  0.9915 -0.7251
 2714SOL     OW19777   3.942   0.879   4.314 -0.1441 -0.2227 -0.2667
 2714SOL    HW119778   3.943   0.795   4.359  0.6419 -1.4214 -2.5062
 2714SOL    HW219779   3.966   0.943   4.381 -2.3217  1.0217 -0.6562
 2715SOL     OW19780   1.710   1.833  17.005 -0.1052 -0.1202  0.0582
 2715SOL    HW119781   1.801   1.803  17.014  0.0839  0.4723  0.0882
 2715SOL    HW219782   1.671   1.834  17.092 -0.7371  1.4705 -0.2506
 2716SOL     OW19783   3.136   3.702  15.095  0.2237 -0.1238 -0.1546
 2716SOL    HW119784   3.142   3.644  15.171  0.3210 -0.7022 -0.6040
 2716SOL    HW219785   3.183   3.775  15.136 -0.2438  1.0089 -1.6109
 2717SOL     OW19786   2.168   2.529   9.247 -0.4141  0.2263 -0.0870
 2717SOL    HW119787   2.153   2.436   9.260 -0.3600  0.4512  1.5019
 2717SOL    HW219788   2.232   2.548   9.316 -0.1160 -0.1449 -0.2595
 2718SOL     OW19789   2.501   3.564   5.628  0.5728 -0.0528 -0.5000
 2718SOL    HW119790   2.532   3.527   5.711 -0.2222 -1.3517 -0.7785
 2718SOL    HW219791   2.429   3.501   5.622 -1.2022  1.9875 -0.6224
 2719SOL     OW19792   4.508   1.428   3.659  0.0976 -0.2676 -0.6831
 2719SOL    HW119793   4.482   1.492   3.593  2.4694  0.5706 -0.7826
 2719SOL    HW219794   4.417   1.401   3.672 -0.2745  1.9080  1.3465
 2720SOL     OW19795   2.843   3.052   3.930 -0.2690  0.1038  0.7989
 2720SOL    HW119796   2.879   3.101   3.856 -2.4287  1.4354  0.6323
 2720SOL    HW219797   2.778   3.009   3.875 -1.4348  1.0365  1.4276
 2721SOL     OW19798   1.122   1.758   0.725 -0.2893 -0.2870  0.1656
 2721SOL    HW119799   1.209   1.797   0.732 -0.7428  0.8068 -0.3255
 2721SOL    HW219800   1.111   1.754   0.630  1.2531  1.3834 -0.0867
 2722SOL     OW19801   3.137   0.405  12.821  0.0270 -0.3682  0.1760
 2722SOL    HW119802   3.057   0.425  12.871  0.5166 -1.6006  1.4538
 2722SOL    HW219803   3.195   0.376  12.892 -0.5195 -0.3703  0.6265
 2723SOL     OW19804   4.626   1.729   5.949 -0.0341 -0.0103  0.0380
 2723SOL    HW119805   4.616   1.824   5.952 -1.4387 -0.1408 -0.6361
 2723SOL    HW219806   4.715   1.722   5.914 -0.2054 -0.1839 -0.3668
 2724SOL     OW19807   2.855   1.442  13.861 -0.0964  0.3807  0.2678
 2724SOL    HW119808   2.938   1.439  13.909  0.4609  0.8951 -0.6703
 2724SOL    HW219809   2.800   1.498  13.917 -2.1368  1.1368 -2.5004
 2725SOL     OW19810   1.339   3.611  13.410 -0.6097  0.2389  0.3184
 2725SOL    HW119811   1.367   3.525  13.378  1.4130  0.9960  0.0922
 2725SOL    HW219812   1.257   3.615  13.360  0.5371  1.8566 -1.4184
 2726SOL     OW19813   3.300   3.879   7.470 -0.3194 -0.3686 -0.0884
 2726SOL    HW119814   3.319   3.879   7.376 -0.8622  1.5843 -0.2010
 2726SOL    HW219815   3.214   3.836   7.472 -0.7905  0.4842 -2.1566
 2727SOL     OW19816   3.522   0.629  10.189 -0.6618  0.2168  0.0417
 2727SOL    HW119817   3.506   0.683  10.113  0.6150 -2.3483 -2.0600
 2727SOL    HW219818   3.430   0.608  10.206 -0.4485 -1.4762 -0.8576
 2728SOL     OW19819   3.018   0.658   1.033  0.2757  0.4762  0.0328
 2728SOL    HW119820   2.968   0.704   1.100 -0.0946  0.3740 -0.1737
 2728SOL    HW219821   3.058   0.727   0.979 -2.0210  0.0554 -2.2262
 2729SOL     OW19822   1.928   2.672   6.735  0.2069 -0.2375  0.0776
 2729SOL    HW119823   1.879   2.591   6.747  1.5128 -0.8784  1.0232
 2729SOL    HW219824   2.006   2.646   6.686  0.6800  0.5175  0.4297
 2730SOL     OW19825   3.108   2.566   7.143 -0.7449 -0.3550 -0.5380
 2730SOL    HW119826   3.073   2.554   7.231  0.5151 -0.7932 -0.0866
 2730SOL    HW219827   3.201   2.572   7.165 -0.3618  1.6204 -2.6789
 2731SOL     OW19828   3.825   0.843  12.884  0.1493  0.7474 -0.3623
 2731SOL    HW119829   3.860   0.883  12.804  0.1695  0.3543 -0.5490
 2731SOL    HW219830   3.900   0.790  12.909 -1.0815 -0.6033  0.4645
 2732SOL     OW19831   1.241   3.643   4.143 -0.1369 -0.1340  0.0609
 2732SOL    HW119832   1.273   3.627   4.054  1.4883 -0.9502  0.7938
 2732SOL    HW219833   1.150   3.662   4.123 -0.8762 -2.1526  1.4653
 2733SOL     OW19834   4.202   1.911   6.204 -0.6914  0.1520 -0.2635
 2733SOL    HW119835   4.113   1.945   6.201 -1.0314 -0.8389 -1.2582
 2733SOL    HW219836   4.247   1.934   6.122  1.1820  0.0908  0.7272
 2734SOL     OW19837   2.309   1.008  17.330 -0.0220 -0.0463  0.1459
 2734SOL    HW119838   2.348   1.026  17.244  0.2372 -0.6366  0.1414
 2734SOL    HW219839   2.273   1.095  17.348  0.6337  0.5101 -1.1850
 2735SOL     OW19840   0.992   3.197   8.829  0.1463 -0.5748  0.0368
 2735SOL    HW119841   0.960   3.108   8.845 -0.3759 -0.2094  0.9996
 2735SOL    HW219842   0.961   3.217   8.741  1.0345  2.3441  0.4057
 2736SOL     OW19843   1.110   0.109   2.717  0.3541  0.3956 -0.2429
 2736SOL    HW119844   1.088   0.057   2.794  0.8736  1.5281  0.6733
 2736SOL    HW219845   1.176   0.173   2.742 -1.4808  1.7624  1.0924
 2737SOL     OW19846   2.750   2.261  10.258  0.0938 -0.6569  0.2110
 2737SOL    HW119847   2.705   2.234  10.178 -0.2176 -0.8041  0.4344
 2737SOL    HW219848   2.806   2.332  10.227 -2.1352  0.6612 -0.7473
 2738SOL     OW19849   3.654   4.136   8.777 -0.2549  0.2304  0.0491
 2738SOL    HW119850   3.563   4.162   8.764 -0.7000 -1.3148  0.1209
 2738SOL    HW219851   3.689   4.224   8.761  0.4329 -0.4693 -2.2125
 2739SOL     OW19852   4.385   2.851   4.095 -0.0489  0.3147 -0.4835
 2739SOL    HW119853   4.359   2.897   4.016 -3.0201 -1.6467 -0.6324
 2739SOL    HW219854   4.370   2.921   4.159  2.8351 -0.0421  0.6025
 2740SOL     OW19855   0.767   3.866  16.472 -0.0660  0.2915  0.2171
 2740SOL    HW119856   0.811   3.879  16.556  1.8388 -0.4659 -0.6532
 2740SOL    HW219857   0.702   3.802  16.500  0.9493 -1.5025 -1.5442
 2741SOL     OW19858   2.306   2.566   2.560 -0.2810 -0.1791 -0.4983
 2741SOL    HW119859   2.340   2.638   2.614  0.8525 -1.3373  0.3071
 2741SOL    HW219860   2.259   2.609   2.489  1.4023 -1.3937 -2.3392
 2742SOL     OW19861   0.307   2.733   6.492  0.0827 -0.0688 -0.4548
 2742SOL    HW119862   0.387   2.740   6.543 -0.8956 -1.1641  1.2218
 2742SOL    HW219863   0.320   2.797   6.421 -0.3429  0.4157 -0.0981
 2743SOL     OW19864   0.909   3.088   2.602  0.5099 -0.1700  0.3431
 2743SOL    HW119865   0.830   3.118   2.557 -0.0947  0.2807  1.7008
 2743SOL    HW219866   0.879   3.012   2.652 -0.7928  1.0532  1.4181
 2744SOL     OW19867   0.370   2.167   9.207  0.2734  0.1175 -0.2021
 2744SOL    HW119868   0.431   2.098   9.178  1.5990  2.2243 -2.4230
 2744SOL    HW219869   0.347   2.204   9.121  0.6497 -0.2763 -0.4733
 2745SOL     OW19870   3.908   0.552   9.978 -0.4064 -0.7423  0.2509
 2745SOL    HW119871   3.852   0.508   9.914  0.3383 -0.2698 -0.7438
 2745SOL    HW219872   3.966   0.600   9.918  0.7253  0.9633  2.7169
 2746SOL     OW19873   3.282   0.943  10.291 -0.0952  0.2854  0.6469
 2746SOL    HW119874   3.301   0.854  10.261 -1.1044  0.7128 -1.2449
 2746SOL    HW219875   3.197   0.939  10.334 -0.3118 -1.3951  0.0901
 2747SOL     OW19876   1.437   4.332   0.658  0.0261  0.5422  0.5564
 2747SOL    HW119877   1.451   4.408   0.714  3.4772  0.6367 -0.4105
 2747SOL    HW219878   1.509   4.275   0.686  0.2103  1.5497  2.1358
 2748SOL     OW19879   0.687   2.122   5.996  0.1039 -0.0279  0.1686
 2748SOL    HW119880   0.622   2.171   6.046 -1.6107 -0.0254 -2.1126
 2748SOL    HW219881   0.729   2.200   5.960 -1.5394  1.5688  1.7143
 2749SOL     OW19882   3.931   0.095   7.295  0.0622 -0.9577  0.0213
 2749SOL    HW119883   3.989   0.065   7.364  0.8106 -1.0134 -0.6355
 2749SOL    HW219884   3.850   0.048   7.316  0.7640 -1.3084  1.9098
 2750SOL     OW19885   2.803   3.691   3.199 -0.3227 -0.3125 -0.1273
 2750SOL    HW119886   2.890   3.682   3.161 -0.4527 -0.7238 -0.3324
 2750SOL    HW219887   2.834   3.675   3.288 -0.3252 -0.9703 -0.2373
 2751SOL     OW19888   0.095   1.682   2.316 -0.3804 -0.2891  0.1344
 2751SOL    HW119889   0.028   1.637   2.368 -0.0484 -0.7909  0.1211
 2751SOL    HW219890   0.048   1.764   2.298  0.2736 -0.1817 -1.0555
 2752SOL     OW19891   0.618   2.044   2.897 -0.0459 -0.2233 -0.4928
 2752SOL    HW119892   0.564   1.973   2.861  0.8875 -1.0570 -0.2467
 2752SOL    HW219893   0.676   1.982   2.942 -1.1469  0.1752  1.4628
 2753SOL     OW19894   0.624   4.700   7.212  0.0296  0.1195 -0.0354
 2753SOL    HW119895   0.577   0.033   7.258  1.7356  2.2945 -1.5724
 2753SOL    HW219896   0.604   4.723   7.121 -0.7103  0.5939  0.2503
 2754SOL     OW19897   1.105   2.076  10.944 -0.0820  0.0155  0.4595
 2754SOL    HW119898   1.146   2.098  11.027 -1.5060 -1.3367  1.5106
 2754SOL    HW219899   1.046   2.151  10.936 -0.1427 -0.1697 -0.8178
 2755SOL     OW19900   0.524   0.069   4.780  0.4771  0.0830  0.1266
 2755SOL    HW119901   0.458   0.127   4.816  0.7977  0.0887  0.7035
 2755SOL    HW219902   0.598   0.086   4.839 -1.6382  1.1077  2.4439
 2756SOL     OW19903   3.408   3.341  15.483 -0.2105  0.0145 -0.3477
 2756SOL    HW119904   3.406   3.315  15.575  0.3400 -0.4089 -0.4580
 2756SOL    HW219905   3.314   3.356  15.467 -0.0767  1.1424 -0.0494
 2757SOL     OW19906   4.228   1.480   7.678  0.3148 -0.1974  0.3031
 2757SOL    HW119907   4.173   1.425   7.733  1.1111 -0.2122  1.0715
 2757SOL    HW219908   4.310   1.434   7.694  0.7743  0.9312  1.2275
 2758SOL     OW19909   4.214   1.734   4.630 -0.4448 -0.0927 -0.2275
 2758SOL    HW119910   4.224   1.795   4.557 -1.1585  1.3882  0.9132
 2758SOL    HW219911   4.283   1.766   4.687 -1.9666 -1.7998  2.5678
 2759SOL     OW19912   0.004   3.166   3.737  0.1135  0.1305  0.0385
 2759SOL    HW119913   4.721   3.074   3.750 -1.3143  0.9946  3.9961
 2759SOL    HW219914   4.665   3.186   3.683 -0.3960  0.1854  0.7753
 2760SOL     OW19915   4.579   4.619   1.823 -0.7004  0.1467  0.5158
 2760SOL    HW119916   4.547   4.533   1.796 -2.1082  0.6542  0.6025
 2760SOL    HW219917   4.503   4.644   1.874  0.3402 -2.3987  3.3052
 2761SOL     OW19918   1.252   3.745   8.766 -0.4150 -0.1854  0.7675
 2761SOL    HW119919   1.275   3.838   8.762  3.4693 -1.0876  2.6276
 2761SOL    HW219920   1.198   3.746   8.845  0.2225  1.1398  1.1921
 2762SOL     OW19921   2.427   3.461  12.701  0.2196  0.1995  0.0214
 2762SOL    HW119922   2.435   3.447  12.795 -0.1378  0.6221  0.1163
 2762SOL    HW219923   2.417   3.556  12.703  2.8907  0.4805 -0.3514
 2763SOL     OW19924   3.089   3.079  16.985 -0.1918 -0.2015 -0.2789
 2763SOL    HW119925   3.163   3.131  17.017 -0.1736 -0.1773 -0.3618
 2763SOL    HW219926   3.025   3.150  16.978 -1.2099 -1.1835 -0.9722
 2764SOL     OW19927   1.020   3.910   4.971 -0.4419  1.0468  0.1059
 2764SOL    HW119928   0.968   3.974   4.922  0.8192  2.8296  1.0674
 2764SOL    HW219929   1.092   3.969   4.994 -0.8589  1.6572 -0.1577
 2765SOL     OW19930   0.998   4.589  15.470 -0.4763  0.5529 -0.2808
 2765SOL    HW119931   0.969   4.570  15.380 -1.1580 -2.4158  0.5589
 2765SOL    HW219932   1.087   4.621  15.462  0.8704 -2.9318  0.8230
 2766SOL     OW19933   0.298   3.416   9.850  0.1217  0.3500  0.3663
 2766SOL    HW119934   0.208   3.418   9.819  0.2475  0.7853  0.0432
 2766SOL    HW219935   0.346   3.452   9.775  2.5098 -0.1751  1.6256
 2767SOL     OW19936   3.293   1.140   8.036 -0.1900  0.1397 -0.4191
 2767SOL    HW119937   3.331   1.072   8.092 -0.1818  0.0122 -0.5766
 2767SOL    HW219938   3.349   1.133   7.958 -0.9177 -0.8751 -0.8549
 2768SOL     OW19939   3.671   4.476   3.567  0.6198 -0.1135  0.0267
 2768SOL    HW119940   3.706   4.477   3.478  0.0410  0.3189 -0.1946
 2768SOL    HW219941   3.715   4.556   3.596  2.0284 -1.7232  2.3417
 2769SOL     OW19942   0.424   0.042   8.070 -0.1622  0.1175 -0.0474
 2769SOL    HW119943   0.449   4.687   8.063  1.3584  0.2233  3.8536
 2769SOL    HW219944   0.504   0.088   8.095  0.0555  0.1797 -0.8855
 2770SOL     OW19945   4.110   1.092   7.207  0.0893 -0.3119 -0.0465
 2770SOL    HW119946   4.131   1.050   7.291  2.0117  0.1822 -0.2674
 2770SOL    HW219947   4.121   1.182   7.237  1.4142 -0.0552 -1.2921
 2771SOL     OW19948   3.581   2.219  16.111 -0.1684  0.4718  0.2383
 2771SOL    HW119949   3.648   2.204  16.178 -2.5518 -0.4565  2.3812
 2771SOL    HW219950   3.519   2.163  16.158 -1.1197  2.8007  1.7241
 2772SOL     OW19951   0.240   4.433  15.621 -0.0634  0.0507 -0.7052
 2772SOL    HW119952   0.328   4.395  15.618  0.4116  1.1904 -1.4412
 2772SOL    HW219953   0.216   4.435  15.528  0.2221 -1.3788 -0.8113
 2773SOL     OW19954   1.660   1.488  15.461  0.3572  0.3275  0.1546
 2773SOL    HW119955   1.677   1.445  15.545 -0.4392  0.0145  0.1583
 2773SOL    HW219956   1.637   1.413  15.406 -2.1289 -0.6400  2.4569
 2774SOL     OW19957   0.112   2.001   2.363 -0.3245  0.4460  0.0446
 2774SOL    HW119958   0.029   2.047   2.354 -0.5493  0.3791  1.8543
 2774SOL    HW219959   0.132   1.998   2.269 -0.0771 -0.2487  0.1177
 2775SOL     OW19960   2.116   0.492   7.061 -0.0340  0.2696 -0.2852
 2775SOL    HW119961   2.084   0.572   7.103 -3.9047 -1.1675 -0.5610
 2775SOL    HW219962   2.081   0.427   7.121  0.8628  0.9318  0.9725
 2776SOL     OW19963   4.566   1.797   3.187 -0.3293  0.4256 -0.6192
 2776SOL    HW119964   4.538   1.748   3.109 -1.0590 -1.2122  0.6805
 2776SOL    HW219965   4.584   1.885   3.155  0.8129  1.1931  2.1411
 2777SOL     OW19966   0.908   2.365   5.224  0.3041 -0.2710 -0.2755
 2777SOL    HW119967   0.928   2.378   5.317 -1.8628  0.4274  0.1119
 2777SOL    HW219968   0.966   2.435   5.194  0.4507 -0.0296  0.5749
 2778SOL     OW19969   3.753   4.099   6.448  0.3806 -0.5812  0.0449
 2778SOL    HW119970   3.800   4.026   6.409  0.3767  0.4204 -1.8425
 2778SOL    HW219971   3.822   4.165   6.453  0.7746 -0.8404 -2.1089
 2779SOL     OW19972   4.149   1.307  10.272  0.6970 -0.8136  0.1811
 2779SOL    HW119973   4.076   1.275  10.325  0.8100  0.0055  0.8333
 2779SOL    HW219974   4.109   1.380  10.225 -1.4490 -1.7330  0.5866
 2780SOL     OW19975   3.640   1.663   5.578  0.1354 -0.1849  0.1447
 2780SOL    HW119976   3.568   1.642   5.637 -0.8822  0.0810 -0.9971
 2780SOL    HW219977   3.613   1.631   5.492 -1.3582 -0.5664  0.7599
 2781SOL     OW19978   2.949   1.960   4.753  0.0073  0.1311 -0.0086
 2781SOL    HW119979   2.899   2.019   4.810 -1.1477 -1.7713  0.9713
 2781SOL    HW219980   2.914   1.995   4.671 -0.2969 -1.7297 -0.6896
 2782SOL     OW19981   0.257   1.711   7.579 -0.2196  0.0683 -0.1192
 2782SOL    HW119982   0.266   1.621   7.549  1.0664  0.4161 -0.7617
 2782SOL    HW219983   0.162   1.720   7.565 -0.0216  1.2687 -0.7268
 2783SOL     OW19984   1.871   4.201  11.963  0.4375 -0.0837  0.0088
 2783SOL    HW119985   1.813   4.132  11.932  0.7136  0.0093 -0.7165
 2783SOL    HW219986   1.907   4.231  11.879  1.2710  2.9682  1.4423
 2784SOL     OW19987   4.252   0.627   3.269  0.0497  0.5184 -0.0774
 2784SOL    HW119988   4.306   0.661   3.340  0.6384 -0.4261 -0.0736
 2784SOL    HW219989   4.212   0.709   3.242  0.4924  1.3188  1.7283
 2785SOL     OW19990   1.907   2.888  10.432 -0.4048 -0.4772  0.5044
 2785SOL    HW119991   1.870   2.968  10.469  1.2861  0.4019  0.2750
 2785SOL    HW219992   1.839   2.861  10.370 -0.3693 -0.8139  0.6116
 2786SOL     OW19993   4.483   4.300   6.008 -0.2438 -0.2441 -0.2433
 2786SOL    HW119994   4.505   4.316   6.100  1.4446  1.6316 -0.9723
 2786SOL    HW219995   4.556   4.240   5.994  0.1964  0.7407 -2.1133
 2787SOL     OW19996   0.118   3.575   4.198 -0.4526  0.1514  0.3322
 2787SOL    HW119997   0.151   3.599   4.112 -2.4254 -0.4106 -0.5815
 2787SOL    HW219998   0.090   3.485   4.183  0.9802 -0.1918 -0.3080
 2788SOL     OW19999   1.016   1.211   0.163  0.2907  0.8054 -0.2770
 2788SOL    HW120000   0.998   1.195   0.070  2.4510  0.4932 -0.6379
 2788SOL    HW220001   1.111   1.196   0.161  0.1961  0.0310  1.0315
 2789SOL     OW20002   0.200   2.065  17.068 -0.0804  0.1801 -0.3261
 2789SOL    HW120003   0.268   2.133  17.060  0.8877 -0.6238  1.0390
 2789SOL    HW220004   0.182   2.049  16.976 -0.3799  1.0323 -0.4150
 2790SOL     OW20005   0.269   2.980   3.617  0.3155 -0.3392  0.0797
 2790SOL    HW120006   0.207   2.909   3.634 -2.3807  1.9740 -0.2386
 2790SOL    HW220007   0.231   3.022   3.541  0.9233 -0.3304 -0.2194
 2791SOL     OW20008   0.399   4.428   9.468  0.1136  0.4720 -0.3143
 2791SOL    HW120009   0.391   4.447   9.375 -2.1780 -0.8253 -0.3755
 2791SOL    HW220010   0.492   4.446   9.480  0.2259  0.2269 -0.8114
 2792SOL     OW20011   2.721   1.864  13.595 -0.1273 -0.1316 -0.2794
 2792SOL    HW120012   2.781   1.791  13.614 -0.5989 -1.2627 -3.0867
 2792SOL    HW220013   2.713   1.846  13.501  2.2010  0.0506 -0.5152
 2793SOL     OW20014   4.382   2.312   6.512 -0.2915  0.6043 -0.2361
 2793SOL    HW120015   4.397   2.221   6.485  0.7022  0.4733  0.7335
 2793SOL    HW220016   4.460   2.355   6.477 -1.3081  2.3620 -0.3050
 2794SOL     OW20017   2.226   3.915   5.623 -0.3765 -0.5707 -0.1878
 2794SOL    HW120018   2.261   3.944   5.539  0.4927  0.0567  0.3833
 2794SOL    HW220019   2.307   3.882   5.662 -0.2067  0.6783  0.5425
 2795SOL     OW20020   2.560   2.611   6.063  0.2674  0.5354 -0.2915
 2795SOL    HW120021   2.469   2.590   6.084  0.4245 -0.3593 -0.5122
 2795SOL    HW220022   2.560   2.690   6.009 -0.8363  2.0981  1.9802
 2796SOL     OW20023   2.899   0.172   8.300  0.2807 -0.0436 -0.0647
 2796SOL    HW120024   2.967   0.128   8.249  0.4213  0.0838  0.0130
 2796SOL    HW220025   2.952   0.215   8.367  2.0427 -2.0099 -0.1818
 2797SOL     OW20026   2.946   1.651  13.052  0.6067  0.0358  0.4877
 2797SOL    HW120027   2.962   1.732  13.004 -0.1821 -0.3309 -0.3943
 2797SOL    HW220028   2.852   1.656  13.068 -0.0033  0.2681 -3.2160
 2798SOL     OW20029   1.194   0.824   9.366 -0.1145  0.2126 -0.5471
 2798SOL    HW120030   1.193   0.872   9.283  1.7363  1.4719  0.1516
 2798SOL    HW220031   1.102   0.835   9.388  0.4718  2.8796  0.5557
 2799SOL     OW20032   3.883   0.080   8.968 -0.1469  0.2030 -0.3916
 2799SOL    HW120033   3.949   0.013   8.953 -1.3026 -0.7619 -1.1749
 2799SOL    HW220034   3.933   0.149   8.925 -0.2494  0.8671  0.5456
 2800SOL     OW20035   1.377   0.548  17.369 -0.1853  0.1141 -0.3598
 2800SOL    HW120036   1.383   0.542  17.273  2.9743 -1.2031 -0.0949
 2800SOL    HW220037   1.341   0.463  17.394 -1.9487  0.3411 -2.1235
 2801SOL     OW20038   0.577   3.671   4.942  0.2347  0.8618  0.3123
 2801SOL    HW120039   0.614   3.582   4.943  1.9499  1.5903 -0.0935
 2801SOL    HW220040   0.540   3.680   5.030  0.4237 -1.5924  0.6640
 2802SOL     OW20041   4.537   2.128   5.167  0.5768 -0.2482  0.2951
 2802SOL    HW120042   4.485   2.121   5.087  0.7410  0.1466  0.1525
 2802SOL    HW220043   4.470   2.130   5.236  0.4521  0.4800  0.1545
 2803SOL     OW20044   0.185   4.282   2.022 -0.0085  0.6619  0.5282
 2803SOL    HW120045   0.130   4.359   2.034  0.3610  0.4984  3.3355
 2803SOL    HW220046   0.213   4.287   1.931  0.7556  1.4110  0.8053
 2804SOL     OW20047   4.335   1.608   4.146  0.2215 -0.1564 -0.8446
 2804SOL    HW120048   4.312   1.534   4.203  0.5268  0.4622  0.0784
 2804SOL    HW220049   4.307   1.681   4.201  0.5710 -0.6228 -0.0534
 2805SOL     OW20050   0.742   3.898   2.298 -0.0054 -0.0747  0.3869
 2805SOL    HW120051   0.708   3.817   2.337 -0.8654 -0.2026 -0.6215
 2805SOL    HW220052   0.820   3.906   2.353  0.2664 -1.7015  0.2400
 2806SOL     OW20053   2.423   2.638   1.169  0.2119 -0.2594  0.2373
 2806SOL    HW120054   2.415   2.556   1.119 -0.9830  1.6133 -2.5855
 2806SOL    HW220055   2.395   2.605   1.254  2.5784 -1.4524  0.5764
 2807SOL     OW20056   0.172   0.359   8.179  0.1174 -0.5963  0.3401
 2807SOL    HW120057   0.163   0.454   8.189 -1.5821 -0.8917  1.6295
 2807SOL    HW220058   0.172   0.347   8.084 -0.7637  0.1711  0.2383
 2808SOL     OW20059   2.432   1.669   2.843  0.1005  0.0803  0.1773
 2808SOL    HW120060   2.484   1.640   2.919 -0.3169  2.3744  1.3357
 2808SOL    HW220061   2.363   1.725   2.879  0.9143  1.4623 -0.4412
 2809SOL     OW20062   3.524   0.298   8.029 -0.5272 -0.1270  0.1980
 2809SOL    HW120063   3.534   0.318   7.936  1.5744 -1.0542  0.2203
 2809SOL    HW220064   3.447   0.351   8.050 -1.1196 -0.8900 -0.0559
 2810SOL     OW20065   0.333   2.269   3.703  0.6682 -0.2238 -0.5989
 2810SOL    HW120066   0.378   2.315   3.775 -0.5729 -0.9812  0.6357
 2810SOL    HW220067   0.402   2.206   3.682  1.3647  1.3284 -3.0071
 2811SOL     OW20068   0.981   3.016   4.335  0.1925 -0.5633 -0.6467
 2811SOL    HW120069   0.939   3.099   4.312  0.7842 -0.4843 -1.4194
 2811SOL    HW220070   0.919   2.975   4.396  1.2205 -0.1735  0.6666
 2812SOL     OW20071   2.570   4.004  14.847 -0.1195  0.4257  0.5656
 2812SOL    HW120072   2.629   3.947  14.797 -1.5253  0.5916 -1.2928
 2812SOL    HW220073   2.531   4.059  14.778 -0.7860 -1.0324 -0.2313
 2813SOL     OW20074   1.149   4.544   8.434  0.2378  0.4052  0.3325
 2813SOL    HW120075   1.228   4.555   8.487 -0.2482  1.0930  0.9097
 2813SOL    HW220076   1.166   4.477   8.367  2.5326 -1.5255  2.8357
 2814SOL     OW20077   1.589   1.632   3.626 -0.5590  0.0433 -0.4917
 2814SOL    HW120078   1.622   1.552   3.585  0.6287  0.5315 -0.4947
 2814SOL    HW220079   1.626   1.700   3.571  1.9958 -2.6976 -2.1555
 2815SOL     OW20080   4.121   0.691   3.554 -0.0330  0.3471 -0.0235
 2815SOL    HW120081   4.047   0.631   3.564  0.4131 -0.1309  0.4157
 2815SOL    HW220082   4.126   0.718   3.646  2.5121  0.0924 -0.1015
 2816SOL     OW20083   3.855   3.412  10.899  0.1075 -0.2681  0.0005
 2816SOL    HW120084   3.895   3.479  10.955  1.4237  0.0725 -1.3550
 2816SOL    HW220085   3.892   3.333  10.940 -0.4728  0.7828  2.5968
 2817SOL     OW20086   3.292   0.838  12.261 -0.2530  0.4854  0.3730
 2817SOL    HW120087   3.283   0.932  12.247 -0.2426  0.0196 -2.7948
 2817SOL    HW220088   3.211   0.820  12.213  0.0132 -0.6086  0.3222
 2818SOL     OW20089   0.176   2.123   1.623  0.0245  0.3524 -0.0939
 2818SOL    HW120090   0.104   2.070   1.589  0.0651  1.6150 -2.0987
 2818SOL    HW220091   0.189   2.180   1.547  2.2102  1.0161  0.7838
 2819SOL     OW20092   3.682   1.654  16.234 -0.2491 -0.4778 -0.3557
 2819SOL    HW120093   3.696   1.681  16.144 -2.0109  1.7574  0.0375
 2819SOL    HW220094   3.588   1.639  16.228 -0.2113 -1.1836  0.7403
 2820SOL     OW20095   1.047   2.894   0.003  0.2622 -0.3627  0.2431
 2820SOL    HW120096   1.024   2.939   0.085  1.1852 -1.5565  1.1561
 2820SOL    HW220097   0.982   2.944  17.700 -0.6565 -1.4029  0.4029
 2821SOL     OW20098   2.579   1.393   2.194  0.1345 -0.2159 -0.7012
 2821SOL    HW120099   2.641   1.432   2.255 -3.5683  0.4786  2.5800
 2821SOL    HW220100   2.492   1.406   2.231  0.6750  0.0236  0.4790
 2822SOL     OW20101   0.287   3.114   7.461 -0.5682 -0.2734  0.8999
 2822SOL    HW120102   0.253   3.204   7.455  0.1293  0.0199  1.3612
 2822SOL    HW220103   0.371   3.134   7.503 -0.2067  2.3349 -1.0033
 2823SOL     OW20104   2.378   1.822   6.998 -0.0386 -0.4537  0.2100
 2823SOL    HW120105   2.446   1.886   7.020 -1.2647  1.0315 -0.2870
 2823SOL    HW220106   2.398   1.787   6.912 -1.2680  0.5286 -0.4811
 2824SOL     OW20107   0.959   1.746   7.147  0.3247  0.1774 -0.3768
 2824SOL    HW120108   1.011   1.706   7.216 -0.4722  0.5072  0.4089
 2824SOL    HW220109   0.876   1.759   7.193  0.4963 -1.8038  0.4991
 2825SOL     OW20110   4.495   1.195   5.412  0.3910  0.0103  0.2891
 2825SOL    HW120111   4.539   1.280   5.409  1.1289 -0.3456  1.0173
 2825SOL    HW220112   4.405   1.220   5.432  0.0622 -0.8889 -0.0973
 2826SOL     OW20113   3.854   4.522   8.346  0.3458  0.2805  0.2504
 2826SOL    HW120114   3.877   4.440   8.303  0.1824  1.2925 -1.7660
 2826SOL    HW220115   3.765   4.503   8.375 -0.0427  0.7592 -0.6596
 2827SOL     OW20116   2.150   2.701  10.578  0.1090  0.2666 -0.1817
 2827SOL    HW120117   2.216   2.733  10.516  1.8937 -1.5462  0.7685
 2827SOL    HW220118   2.081   2.761  10.552  0.9459  0.6596 -1.5635
 2828SOL     OW20119   4.664   1.582  14.477 -0.0946  0.7598  0.5301
 2828SOL    HW120120   4.619   1.663  14.500 -1.8173  0.1001 -0.5529
 2828SOL    HW220121   4.712   1.559  14.556  0.3312  0.4842  0.1941
 2829SOL     OW20122   3.408   1.605  17.509  0.1058 -0.1406  0.0583
 2829SOL    HW120123   3.465   1.585  17.583  2.1003  1.9626 -0.8928
 2829SOL    HW220124   3.329   1.615  17.562  0.8605  0.5574  1.0636
 2830SOL     OW20125   0.552   3.522  14.758 -0.0923  0.1738  0.2799
 2830SOL    HW120126   0.476   3.467  14.738  0.1836  0.2247 -0.8895
 2830SOL    HW220127   0.597   3.453  14.806 -0.8015  0.9184  2.0291
 2831SOL     OW20128   1.054   1.482  14.537  0.6877 -0.0044 -0.3400
 2831SOL    HW120129   1.076   1.403  14.488 -1.1469 -2.1245  2.2438
 2831SOL    HW220130   1.099   1.549  14.485  0.1182  2.1336  1.9225
 2832SOL     OW20131   1.076   4.254   2.073  0.1135 -0.5549  0.0678
 2832SOL    HW120132   1.057   4.306   1.995 -2.9161  0.9427  1.7922
 2832SOL    HW220133   1.172   4.251   2.077  0.0236 -1.6628  1.5467
 2833SOL     OW20134   4.706   1.255   9.401 -0.0350 -0.1457 -0.4351
 2833SOL    HW120135   4.710   1.246   9.306  1.6834 -1.2506 -0.2648
 2833SOL    HW220136   0.043   1.202   9.432 -1.7937 -1.0747  2.1171
 2834SOL     OW20137   2.771   1.554   9.400 -0.1336 -0.4144  0.4958
 2834SOL    HW120138   2.780   1.636   9.448 -0.0698 -0.3062  0.2967
 2834SOL    HW220139   2.817   1.493   9.457 -0.5467  0.9333  2.2725
 2835SOL     OW20140   4.283   1.226   9.550 -0.0904 -0.0742  0.1774
 2835SOL    HW120141   4.213   1.195   9.494  1.5393 -2.5717 -0.4342
 2835SOL    HW220142   4.232   1.273   9.617  0.9099  0.2737  0.6906
 2836SOL     OW20143   2.108   4.625  15.020  0.1690  0.5193 -0.2083
 2836SOL    HW120144   2.185   4.648  14.967 -0.8019 -0.0775 -1.8897
 2836SOL    HW220145   2.055   4.580  14.954  2.5850 -1.4712 -0.8041
 2837SOL     OW20146   3.608   2.491   9.049 -0.2634 -0.4225  0.2368
 2837SOL    HW120147   3.618   2.497   9.144  0.4313  1.7200  0.0092
 2837SOL    HW220148   3.697   2.476   9.019 -0.1466 -0.4946  0.6164
 2838SOL     OW20149   0.198   2.983   1.327  0.3678  0.3723 -0.1508
 2838SOL    HW120150   0.181   2.937   1.245  1.3973  1.0791 -0.7666
 2838SOL    HW220151   0.153   3.067   1.320  1.2838  1.0986  2.5392
 2839SOL     OW20152   3.235   0.360  15.839  0.3232  0.4378  0.3391
 2839SOL    HW120153   3.200   0.427  15.781  1.7221 -0.7565 -1.8450
 2839SOL    HW220154   3.253   0.285  15.783  0.0890  0.1308  0.6672
 2840SOL     OW20155   1.401   1.293   4.723 -0.4772  0.4233  0.1685
 2840SOL    HW120156   1.464   1.362   4.708  0.1197 -0.7497 -2.6444
 2840SOL    HW220157   1.324   1.349   4.729 -0.2566  1.0079 -2.8124
 2841SOL     OW20158   0.332   0.760   7.978  0.1071  0.1483  0.5885
 2841SOL    HW120159   0.373   0.747   8.063 -1.6882  0.3654  1.4934
 2841SOL    HW220160   0.406   0.802   7.934 -0.5214 -0.3368 -0.9445
 2842SOL     OW20161   3.129   0.149   6.903  0.0713 -0.5747  0.3663
 2842SOL    HW120162   3.204   0.208   6.912 -0.2825 -0.4016  2.2424
 2842SOL    HW220163   3.122   0.146   6.808 -2.4143  2.0814  0.4675
 2843SOL     OW20164   2.922   2.366   7.943  0.1927 -0.2402  0.0418
 2843SOL    HW120165   2.947   2.409   8.025  1.8307 -0.5149 -0.3059
 2843SOL    HW220166   2.933   2.276   7.974 -1.4126 -1.5035 -3.0108
 2844SOL     OW20167   4.612   2.109   4.208 -0.3615  0.0659  0.6421
 2844SOL    HW120168   4.553   2.182   4.228  0.9733  1.2362  0.3304
 2844SOL    HW220169   4.638   2.130   4.119 -2.0933 -1.0412 -0.1272
 2845SOL     OW20170   0.944   2.608   5.501  0.2910 -0.3051 -0.3849
 2845SOL    HW120171   0.954   2.696   5.537 -0.8447 -0.4012  0.1598
 2845SOL    HW220172   0.968   2.639   5.413  2.6511 -0.8278  0.0857
 2846SOL     OW20173   3.043   1.553   6.585  0.2948 -0.1952  0.3385
 2846SOL    HW120174   2.984   1.606   6.639  1.0116 -1.0691  1.9773
 2846SOL    HW220175   3.064   1.489   6.653  0.7685 -2.3396 -1.7918
 2847SOL     OW20176   2.868   0.306   4.041  0.0182 -0.0809 -0.2242
 2847SOL    HW120177   2.824   0.237   3.992  2.3840 -2.6394  1.2544
 2847SOL    HW220178   2.931   0.341   3.977 -0.4674 -0.0725 -0.7003
 2848SOL     OW20179   2.147   3.616   3.962 -0.1342  0.1163 -0.3596
 2848SOL    HW120180   2.200   3.537   3.965  2.3634  1.8493  1.9300
 2848SOL    HW220181   2.103   3.605   4.047  0.3566  1.6231  0.1030
 2849SOL     OW20182   0.812   0.441   7.319  0.0944  0.4390 -0.3116
 2849SOL    HW120183   0.794   0.380   7.247 -1.7820 -1.9792  2.2076
 2849SOL    HW220184   0.856   0.511   7.271  2.1573 -1.1277 -0.7489
 2850SOL     OW20185   1.041   0.777   6.289 -0.0583 -0.1313 -0.1269
 2850SOL    HW120186   1.105   0.709   6.267  0.5765  0.1600  0.8557
 2850SOL    HW220187   1.027   0.750   6.380 -1.4311 -0.5304 -0.4516
 2851SOL     OW20188   1.000   2.515   6.539 -0.2239  0.0972 -0.5723
 2851SOL    HW120189   0.954   2.446   6.587 -0.0307 -0.4729 -1.2049
 2851SOL    HW220190   0.985   2.599   6.581  1.7600 -0.3099  0.9267
 2852SOL     OW20191   1.407   1.716   0.505  0.4953  0.4178 -0.2821
 2852SOL    HW120192   1.460   1.774   0.560  1.7542 -0.1897 -0.8485
 2852SOL    HW220193   1.354   1.672   0.572  0.6368 -0.6197 -0.8539
 2853SOL     OW20194   3.087   4.246   5.049  0.0561 -0.4529 -0.5070
 2853SOL    HW120195   3.001   4.205   5.039 -0.3589 -0.2071  1.8401
 2853SOL    HW220196   3.112   4.258   4.958  2.4570  0.0442  0.2201
 2854SOL     OW20197   4.512   4.416   6.870  0.6620  0.9732 -0.2400
 2854SOL    HW120198   4.473   4.334   6.839  2.4889 -0.3282  0.9273
 2854SOL    HW220199   4.599   4.415   6.830  0.8574  1.1012  0.1855
 2855SOL     OW20200   4.276   4.343   8.921  0.0208  0.4358 -0.6805
 2855SOL    HW120201   4.352   4.291   8.948 -1.3045  0.5830  3.2362
 2855SOL    HW220202   4.213   4.279   8.951 -1.0678  1.3702 -0.9805
 2856SOL     OW20203   0.893   3.427   7.818  0.4744  0.6762  0.1045
 2856SOL    HW120204   0.937   3.468   7.893  0.1986 -0.9768  1.1592
 2856SOL    HW220205   0.798   3.425   7.829  0.3705 -1.2183 -1.2285
 2857SOL     OW20206   1.349   2.467   5.766 -0.1788 -0.2752 -0.2394
 2857SOL    HW120207   1.393   2.495   5.846  0.4699 -1.1054 -0.3065
 2857SOL    HW220208   1.301   2.548   5.752 -1.1692 -0.5547  1.5384
 2858SOL     OW20209   0.069   4.360   2.356  0.3389 -0.4603  0.3856
 2858SOL    HW120210   0.152   4.346   2.311 -0.1977 -2.3125 -0.0381
 2858SOL    HW220211   0.018   4.404   2.288  0.5525 -1.5082 -0.4490
 2859SOL     OW20212   1.479   1.966   5.292  0.2649  0.3459  0.2889
 2859SOL    HW120213   1.411   2.034   5.295 -1.3818 -1.1975 -1.4090
 2859SOL    HW220214   1.432   1.891   5.329 -0.2381  0.4052 -0.2260
 2860SOL     OW20215   1.681   1.311   1.786 -0.5490 -0.2160  0.3301
 2860SOL    HW120216   1.746   1.381   1.794 -0.7209 -0.0966  0.7203
 2860SOL    HW220217   1.730   1.233   1.760 -2.1144 -0.7831 -0.8630
 2861SOL     OW20218   2.191   1.329  16.305  0.2143 -0.3531  0.5766
 2861SOL    HW120219   2.169   1.422  16.307 -0.0395 -0.3962 -0.5000
 2861SOL    HW220220   2.263   1.327  16.242  0.8675 -0.8774  1.3386
 2862SOL     OW20221   0.070   1.000   9.816  0.0150 -0.1046  0.2198
 2862SOL    HW120222   0.073   1.080   9.764  1.3732  0.2500  0.8714
 2862SOL    HW220223   0.119   1.026   9.893  0.2636  3.0884 -1.0210
 2863SOL     OW20224   4.485   4.713   9.962 -0.0070  0.4256 -0.1476
 2863SOL    HW120225   4.442   0.007  10.042 -1.8584  0.7456 -1.2589
 2863SOL    HW220226   4.404   4.685   9.919 -0.2240  0.4689  0.2399
 2864SOL     OW20227   4.137   0.434   8.596 -0.5808  0.4611 -0.0636
 2864SOL    HW120228   4.060   0.476   8.558  1.2829  2.8847 -1.1225
 2864SOL    HW220229   4.193   0.417   8.521 -0.8003  1.0368 -0.3555
 2865SOL     OW20230   3.181   2.378   2.977  0.4401  0.1215  0.3796
 2865SOL    HW120231   3.121   2.304   2.981 -1.0120  1.2888  0.2754
 2865SOL    HW220232   3.140   2.436   2.912 -1.0823 -1.0760  0.2710
 2866SOL     OW20233   3.825   0.107  11.685 -0.0102 -0.1102 -0.6089
 2866SOL    HW120234   3.920   0.102  11.669 -0.5143 -3.4406 -2.4678
 2866SOL    HW220235   3.804   0.016  11.707 -0.3180  0.4905  1.5951
 2867SOL     OW20236   3.310   4.090   6.295 -0.1425 -0.7595 -0.2121
 2867SOL    HW120237   3.251   4.036   6.242 -2.7322  1.0735  0.8630
 2867SOL    HW220238   3.394   4.074   6.252  1.1517  0.8518  1.7767
 2868SOL     OW20239   1.415   2.625  14.697 -0.5252 -0.3274 -0.4059
 2868SOL    HW120240   1.507   2.622  14.671  0.0900 -1.6269  1.8639
 2868SOL    HW220241   1.373   2.562  14.639 -2.3831 -0.8577  1.5025
 2869SOL     OW20242   3.901   2.270   2.954 -0.0014  0.0979  0.2155
 2869SOL    HW120243   3.993   2.286   2.977 -0.2434  0.8845  0.6138
 2869SOL    HW220244   3.866   2.355   2.927 -1.2275 -0.4638  0.0757
 2870SOL     OW20245   0.266   0.498   6.919  0.0641 -0.2151  0.0401
 2870SOL    HW120246   0.206   0.548   6.975 -2.2401 -1.4301 -1.3664
 2870SOL    HW220247   0.222   0.413   6.909 -0.1290 -0.0188 -0.7363
 2871SOL     OW20248   0.009   3.087  10.269  0.9116  0.1683 -0.0750
 2871SOL    HW120249   4.665   3.061  10.224  0.4210  1.9077 -0.2063
 2871SOL    HW220250   0.030   3.172  10.230 -0.5853  0.0915 -1.0652
 2872SOL     OW20251   3.442   0.145   6.507  0.2543 -0.3463  0.4147
 2872SOL    HW120252   3.405   0.145   6.419 -0.5724 -4.1732  0.7431
 2872SOL    HW220253   3.491   0.227   6.508 -0.9365  0.3854 -0.8893
 2873SOL     OW20254   2.599   0.269  14.593 -0.1638  0.3061  0.8927
 2873SOL    HW120255   2.599   0.284  14.498 -2.7012 -1.0030  0.6750
 2873SOL    HW220256   2.686   0.230  14.603 -1.2511 -2.1369  1.0561
 2874SOL     OW20257   4.324   2.008   8.683 -1.0909  0.1963 -0.0719
 2874SOL    HW120258   4.336   2.053   8.766  0.7087  3.2004 -1.9539
 2874SOL    HW220259   4.382   1.932   8.693  0.8560  1.7858  0.8309
 2875SOL     OW20260   1.898   2.334   1.898  0.0764 -0.1004  0.2313
 2875SOL    HW120261   1.882   2.388   1.821  1.8189  0.3537  0.1913
 2875SOL    HW220262   1.814   2.302   1.931 -0.2767  2.3514  1.7604
 2876SOL     OW20263   4.372   3.062   3.775 -0.4041  0.0485 -0.1338
 2876SOL    HW120264   4.453   3.012   3.768 -0.4520 -0.0747  0.1913
 2876SOL    HW220265   4.325   3.012   3.708 -0.9006 -0.4975  0.6245
 2877SOL     OW20266   1.392   2.123  12.604  0.6629  0.0615 -0.0996
 2877SOL    HW120267   1.421   2.213  12.618  1.9130 -0.2226 -0.8824
 2877SOL    HW220268   1.403   2.088  12.692 -0.9731  0.8435  0.4066
 2878SOL     OW20269   3.817   0.395   6.222 -0.1760  0.0116  0.3811
 2878SOL    HW120270   3.733   0.397   6.177  0.5592 -0.4913 -1.0322
 2878SOL    HW220271   3.826   0.305   6.253 -0.8837  0.5255  2.0889
 2879SOL     OW20272   0.973   2.006   3.987 -0.2067  0.0281 -0.0048
 2879SOL    HW120273   1.039   1.963   4.041  1.3410 -0.7129 -2.4804
 2879SOL    HW220274   0.938   2.078   4.040 -1.3871 -0.1328 -0.5658
 2880SOL     OW20275   0.411   0.950   9.834 -0.6998  0.5998 -0.1520
 2880SOL    HW120276   0.445   0.951   9.923  1.0561 -1.1548 -0.7840
 2880SOL    HW220277   0.481   0.995   9.786 -0.6843  0.6485 -0.0828
 2881SOL     OW20278   3.107   1.785   5.437 -0.1817  0.1717  0.6026
 2881SOL    HW120279   3.158   1.824   5.366 -0.2905 -0.4435  0.1822
 2881SOL    HW220280   3.058   1.717   5.390  1.6168 -0.4527 -0.3684
 2882SOL     OW20281   0.368   1.325   6.877 -0.0925 -0.5200  0.4065
 2882SOL    HW120282   0.389   1.304   6.968  1.0979  0.9210  0.4562
 2882SOL    HW220283   0.385   1.237   6.844  3.1020 -0.3699  1.6894
 2883SOL     OW20284   1.917   2.255   6.102  0.3897  0.2038 -0.2033
 2883SOL    HW120285   1.834   2.298   6.119  1.2192  1.8793 -0.3614
 2883SOL    HW220286   1.883   2.179   6.056  2.6945  0.5546 -2.4781
 2884SOL     OW20287   2.097   0.856   7.337 -0.1850  0.2568 -0.0176
 2884SOL    HW120288   2.188   0.875   7.313 -0.6540 -0.1984 -2.1357
 2884SOL    HW220289   2.053   0.929   7.294  1.7154  1.3776 -0.0634
 2885SOL     OW20290   0.235   2.541  13.640 -0.1341  0.3870  0.1030
 2885SOL    HW120291   0.159   2.581  13.599 -0.4043 -0.3207 -0.0816
 2885SOL    HW220292   0.299   2.608  13.615  0.0003  0.2617  0.1112
 2886SOL     OW20293   3.115   3.794   5.749  0.0123  0.1792  0.3148
 2886SOL    HW120294   3.139   3.852   5.676 -1.3066  0.4893  0.1323
 2886SOL    HW220295   3.079   3.717   5.706  0.9831  1.4712 -2.8484
 2887SOL     OW20296   3.324   2.758   9.201 -0.3802  0.4643 -0.1467
 2887SOL    HW120297   3.339   2.749   9.295 -0.6913  1.7723  0.0340
 2887SOL    HW220298   3.250   2.701   9.178  0.5740 -0.2044 -1.6199
 2888SOL     OW20299   2.935   0.501  17.493  0.6355  0.9432 -0.2877
 2888SOL    HW120300   2.966   0.580  17.449  0.2630 -0.4408 -3.0164
 2888SOL    HW220301   3.019   0.466  17.523 -1.3438 -0.1982  3.9992
 2889SOL     OW20302   0.152   0.584  12.651 -0.4463 -0.5690 -0.0926
 2889SOL    HW120303   0.078   0.644  12.644 -2.3470 -2.9509 -0.0712
 2889SOL    HW220304   0.106   0.510  12.612 -0.7145  0.5976 -1.9698
 2890SOL     OW20305   1.500   0.918  17.231 -0.1986 -0.6033  0.6309
 2890SOL    HW120306   1.418   0.872  17.248 -0.7222 -0.1426 -0.7172
 2890SOL    HW220307   1.562   0.866  17.282  1.1729  0.5737  0.1669
 2891SOL     OW20308   1.550   3.954   5.406  0.0116  0.0383  0.3578
 2891SOL    HW120309   1.457   3.973   5.410  0.0217  0.2358 -0.4377
 2891SOL    HW220310   1.547   3.882   5.343  0.9362  2.0583 -1.9564
 2892SOL     OW20311   3.592   1.968   7.558 -0.2648  0.7314 -0.3538
 2892SOL    HW120312   3.570   1.882   7.523  1.4515  0.0306  0.2827
 2892SOL    HW220313   3.678   1.959   7.599 -1.5872  0.3459  2.3391
 2893SOL     OW20314   3.431   2.373   9.270  0.1444  0.4174  0.3321
 2893SOL    HW120315   3.510   2.417   9.303  0.6481 -1.0235  1.0303
 2893SOL    HW220316   3.376   2.385   9.348  0.2809 -0.1683  0.5139
 2894SOL     OW20317   3.190   4.497   3.758 -0.1172 -0.2085 -1.0767
 2894SOL    HW120318   3.172   4.582   3.718  0.3081  0.5080  0.2536
 2894SOL    HW220319   3.112   4.442   3.751  0.5036 -1.2102 -0.1609
 2895SOL     OW20320   3.415   2.403   1.706  0.7652 -0.0041 -0.4338
 2895SOL    HW120321   3.364   2.484   1.707 -0.3245 -0.7410  2.4780
 2895SOL    HW220322   3.447   2.407   1.796 -0.7807  1.2721  0.0496
 2896SOL     OW20323   4.007   4.053   0.397 -0.0892 -0.1599  0.1431
 2896SOL    HW120324   4.042   4.095   0.475 -1.6627 -0.6979  1.1340
 2896SOL    HW220325   4.057   3.972   0.413 -0.5774 -0.5948 -0.5125
 2897SOL     OW20326   1.138   4.079   8.941 -0.5303  0.1518 -0.1242
 2897SOL    HW120327   1.218   4.094   8.991 -0.5241 -0.6962  0.1151
 2897SOL    HW220328   1.070   4.061   9.006 -0.8383 -1.5203 -0.9196
 2898SOL     OW20329   2.355   2.445   9.732 -0.7960  0.0604 -0.2648
 2898SOL    HW120330   2.447   2.416   9.733 -0.9656 -0.4845 -0.4227
 2898SOL    HW220331   2.320   2.377   9.673  1.3558 -1.3948  0.1145
 2899SOL     OW20332   3.568   2.002  16.320  0.2188  0.1383  0.2137
 2899SOL    HW120333   3.500   2.030  16.381  0.2966 -0.3550  0.5320
 2899SOL    HW220334   3.598   1.921  16.362 -2.9109 -0.6041  1.0095
 2900SOL     OW20335   3.861   1.229   3.497 -0.6881 -0.4762  0.1786
 2900SOL    HW120336   3.894   1.293   3.559 -2.0919 -0.1234  0.5551
 2900SOL    HW220337   3.917   1.151   3.503  0.4459  0.3891  0.9229
 2901SOL     OW20338   4.245   2.817   3.002 -0.6004 -0.1668  0.2172
 2901SOL    HW120339   4.322   2.761   3.017 -1.1885 -1.2909 -0.9808
 2901SOL    HW220340   4.288   2.901   3.013  0.7839 -0.5317 -2.3089
 2902SOL     OW20341   4.581   3.650   3.424  0.1459 -0.6202 -0.1441
 2902SOL    HW120342   4.506   3.660   3.483  1.9027  3.4136  1.4160
 2902SOL    HW220343   4.646   3.604   3.477  1.7813  1.8627 -0.0040
 2903SOL     OW20344   2.159   0.196   3.367 -0.2002  0.2427  0.1807
 2903SOL    HW120345   2.209   0.172   3.445 -0.1222  0.6595  0.2595
 2903SOL    HW220346   2.137   0.104   3.355 -0.2801  0.2116  0.5560
 2904SOL     OW20347   4.462   0.769   7.305  0.2429  0.1122 -0.3139
 2904SOL    HW120348   4.521   0.739   7.236  0.9419  0.7800  0.0026
 2904SOL    HW220349   4.401   0.695   7.296  1.1957 -0.5626 -1.2757
 2905SOL     OW20350   3.448   0.853   6.910 -0.1431 -0.0538  0.1102
 2905SOL    HW120351   3.528   0.905   6.908  0.5192 -1.0135  2.1899
 2905SOL    HW220352   3.419   0.887   6.825 -0.5565  0.9852  0.6694
 2906SOL     OW20353   0.177   2.371   5.454  0.2142 -0.3784  0.5963
 2906SOL    HW120354   0.208   2.350   5.366  0.1239  0.2402  0.4182
 2906SOL    HW220355   0.082   2.372   5.451  0.2208 -0.3845  0.3439
 2907SOL     OW20356   0.091   4.093   5.409 -0.1262 -0.0430  0.3542
 2907SOL    HW120357   0.109   4.011   5.456 -0.7132  1.2579  2.8376
 2907SOL    HW220358   0.106   4.151   5.484  0.6582  0.0517  0.1265
 2908SOL     OW20359   2.637   0.000   9.411 -0.9469  0.0397  0.3958
 2908SOL    HW120360   2.565   0.062   9.396 -0.0061  1.1023  0.1968
 2908SOL    HW220361   2.685   0.034   9.486 -0.3424  0.3661 -0.1332
 2909SOL     OW20362   0.948   3.016   7.508 -0.8734 -0.3506 -0.1696
 2909SOL    HW120363   1.008   2.954   7.551 -0.8592 -0.7908 -0.8300
 2909SOL    HW220364   0.976   3.093   7.557  0.0383 -1.3023  0.8435
 2910SOL     OW20365   3.513   3.979  15.064  0.1527 -0.0959  0.2132
 2910SOL    HW120366   3.589   3.983  15.121  1.0951  2.0048 -1.2120
 2910SOL    HW220367   3.449   3.955  15.132 -0.8874  2.7664  0.2512
 2911SOL     OW20368   1.414   0.727  13.531  0.2701  0.4119 -0.0391
 2911SOL    HW120369   1.482   0.683  13.480  0.7012  1.8239 -0.6609
 2911SOL    HW220370   1.361   0.653  13.561 -2.8456  2.5626 -0.3096
 2912SOL     OW20371   0.063   3.356  10.216  0.2920 -0.6145 -0.4843
 2912SOL    HW120372   0.131   3.406  10.172 -0.5862 -1.4568 -2.7976
 2912SOL    HW220373   0.089   3.369  10.307 -2.6172 -0.1583  0.2832
 2913SOL     OW20374   2.257   2.302   7.997 -0.3400 -0.3348 -0.2165
 2913SOL    HW120375   2.229   2.332   8.084  0.3149 -1.2812  0.3132
 2913SOL    HW220376   2.309   2.232   8.036 -1.1019 -0.4228  0.6317
 2914SOL     OW20377   2.412   2.490   8.879 -0.0376  0.5486 -0.4217
 2914SOL    HW120378   2.386   2.416   8.824  1.2266 -1.3150  1.4897
 2914SOL    HW220379   2.464   2.536   8.813  2.0583  2.4619  2.5681
 2915SOL     OW20380   4.639   1.066  10.234 -0.0837  0.0101 -0.2933
 2915SOL    HW120381   4.550   1.051  10.203  0.7733 -0.3786 -2.5982
 2915SOL    HW220382   4.623   1.052  10.327 -0.7653 -0.8072 -0.5373
 2916SOL     OW20383   1.783   4.601  12.332  0.3966 -0.4680 -0.0336
 2916SOL    HW120384   1.867   4.561  12.352  0.6309  0.6612  1.2381
 2916SOL    HW220385   1.790   4.611  12.237 -0.7222 -2.0288 -0.2722
 2917SOL     OW20386   0.309   0.632   9.485 -0.3509 -0.1822  0.2083
 2917SOL    HW120387   0.340   0.595   9.568  0.5647 -0.5390 -0.3074
 2917SOL    HW220388   0.315   0.726   9.505 -2.7300 -0.0052  0.1140
 2918SOL     OW20389   3.496   0.820   5.229 -1.1003 -0.5300  0.2321
 2918SOL    HW120390   3.418   0.776   5.265 -1.7648 -2.1797 -3.1649
 2918SOL    HW220391   3.566   0.755   5.241 -0.6286 -0.0347  0.1294
 2919SOL     OW20392   3.426   1.589  16.222 -0.1487  1.0130  0.0466
 2919SOL    HW120393   3.437   1.526  16.293  0.4177 -1.5293 -2.3143
 2919SOL    HW220394   3.334   1.612  16.230 -0.6685 -0.7020 -1.0846
 2920SOL     OW20395   3.060   1.796   2.672  0.2406 -0.2995  0.8713
 2920SOL    HW120396   3.092   1.794   2.582 -0.3705  1.1013  0.6161
 2920SOL    HW220397   3.128   1.838   2.725 -0.4207  1.3643  0.4211
 2921SOL     OW20398   3.935   0.412   2.785  0.0953  0.0668  0.5239
 2921SOL    HW120399   3.861   0.352   2.795  1.0516 -1.2981 -0.6452
 2921SOL    HW220400   3.990   0.354   2.732  1.0463  0.4057  1.1367
 2922SOL     OW20401   4.419   3.713   1.222  0.2830  0.6512  0.3834
 2922SOL    HW120402   4.359   3.782   1.250  0.1393  0.2029  1.1936
 2922SOL    HW220403   4.499   3.764   1.216  0.9156 -0.6178 -2.0833
 2923SOL     OW20404   0.167   4.697   5.311  0.0996 -0.0028 -0.0542
 2923SOL    HW120405   0.158   4.707   5.405  1.4005 -1.0845  0.1860
 2923SOL    HW220406   0.262   4.703   5.297  0.0605  1.3269  0.1860
 2924SOL     OW20407   2.058   2.634  12.189  0.9746 -0.0097 -0.0184
 2924SOL    HW120408   2.051   2.712  12.133  2.1638  1.5725  2.0550
 2924SOL    HW220409   2.124   2.574  12.155  3.0204  2.7712 -0.9252
 2925SOL     OW20410   0.793   2.519   3.209  0.5014  0.2979 -0.1456
 2925SOL    HW120411   0.804   2.474   3.292  1.2411  1.3591  0.3375
 2925SOL    HW220412   0.698   2.523   3.204  0.4065 -2.6868 -0.4593
 2926SOL     OW20413   0.774   3.926  11.883  0.5081  0.1362  0.4143
 2926SOL    HW120414   0.718   3.899  11.809 -0.3160 -0.2837  1.1916
 2926SOL    HW220415   0.814   3.843  11.908 -0.7693 -1.1784 -1.8720
 2927SOL     OW20416   1.027   1.071   8.485 -0.5176 -0.2031 -0.3884
 2927SOL    HW120417   1.014   1.082   8.391  2.9108 -0.4351 -0.8859
 2927SOL    HW220418   0.951   1.122   8.511 -1.0226 -0.7396 -0.7989
 2928SOL     OW20419   4.400   4.573  10.749  0.6346 -0.4553  0.1812
 2928SOL    HW120420   4.373   4.605  10.662 -1.8323 -0.0164  1.1125
 2928SOL    HW220421   4.479   4.622  10.771 -0.2948  0.8030  0.6864
 2929SOL     OW20422   2.661   1.179   4.735  0.3698  0.2327  0.2473
 2929SOL    HW120423   2.720   1.105   4.727  1.7395  1.0606  2.5608
 2929SOL    HW220424   2.613   1.166   4.817  2.2764  0.0978  1.3552
 2930SOL     OW20425   1.324   1.464   1.425 -0.8592  0.1643  0.0669
 2930SOL    HW120426   1.349   1.416   1.504  1.8122 -0.3148 -1.0614
 2930SOL    HW220427   1.234   1.465   1.457 -0.2036  2.4599  1.8026
 2931SOL     OW20428   2.843   0.847   4.258  1.0634 -0.1926  0.1796
 2931SOL    HW120429   2.842   0.767   4.206  0.3105 -0.7232  1.0243
 2931SOL    HW220430   2.787   0.824   4.332  0.2339 -1.6246 -0.8996
 2932SOL     OW20431   0.465   2.456   0.414  0.7697 -0.2276 -0.0857
 2932SOL    HW120432   0.381   2.500   0.417  1.4679  0.9340  2.6501
 2932SOL    HW220433   0.452   2.395   0.487 -0.7056  1.5932  1.1627
 2933SOL     OW20434   1.913   1.761  16.202 -0.1955  0.0604  0.5154
 2933SOL    HW120435   1.947   1.816  16.132  1.3330 -2.4428 -0.7438
 2933SOL    HW220436   1.842   1.822  16.222  0.5904  1.5788 -1.3415
 2934SOL     OW20437   4.361   3.267   5.548  0.1133 -0.3770 -0.2282
 2934SOL    HW120438   4.449   3.273   5.583 -0.0317 -2.6463  0.5595
 2934SOL    HW220439   4.365   3.322   5.470  1.0468 -0.1744 -0.0344
 2935SOL     OW20440   1.124   4.449   9.119  0.5455 -0.3448 -0.0013
 2935SOL    HW120441   1.175   4.482   9.193  0.9564 -0.9076 -0.0340
 2935SOL    HW220442   1.037   4.462   9.157  0.0432 -1.1502 -0.8858
 2936SOL     OW20443   1.249   4.144   8.683  0.1865 -0.1537 -0.0333
 2936SOL    HW120444   1.233   4.238   8.689  0.1822 -0.1290 -0.4408
 2936SOL    HW220445   1.239   4.124   8.776  1.1966 -0.9119 -0.0985
 2937SOL     OW20446   2.221   2.086   4.145 -0.0975  1.1129 -0.3746
 2937SOL    HW120447   2.128   2.109   4.145 -0.6278 -1.0117 -0.7770
 2937SOL    HW220448   2.226   2.010   4.203 -1.6951  1.8079  0.6829
 2938SOL     OW20449   1.927   1.243   8.581  0.4271  0.2346  0.0747
 2938SOL    HW120450   2.014   1.205   8.570  0.7077  1.5022 -2.0304
 2938SOL    HW220451   1.911   1.243   8.675 -1.8928  3.2774 -0.3110
 2939SOL     OW20452   0.596   2.742   7.372  0.5850  0.7360  0.2220
 2939SOL    HW120453   0.628   2.780   7.454  1.9533  0.9851 -0.4283
 2939SOL    HW220454   0.660   2.771   7.306 -0.2670 -0.4126 -1.0887
 2940SOL     OW20455   1.330   2.714   8.556  0.0190 -0.1566 -0.0213
 2940SOL    HW120456   1.419   2.742   8.577 -0.0932 -2.1033  3.0319
 2940SOL    HW220457   1.344   2.674   8.470  2.3403 -0.2188  0.3858
 2941SOL     OW20458   3.711   1.306   8.502 -0.4708  0.2338  0.1056
 2941SOL    HW120459   3.761   1.227   8.521  0.4344  1.2815  2.1219
 2941SOL    HW220460   3.783   1.364   8.529 -0.3002 -0.3120  0.8099
 2942SOL     OW20461   0.657   1.312  16.922 -0.0478 -0.2765  0.0654
 2942SOL    HW120462   0.741   1.278  16.952 -0.8548 -0.5123  2.0211
 2942SOL    HW220463   0.664   1.303  16.827  4.0895  0.1182  0.3384
 2943SOL     OW20464   2.055   3.427   5.573 -0.0583 -0.6433 -0.0034
 2943SOL    HW120465   2.129   3.477   5.538  0.9702 -1.3758  1.1078
 2943SOL    HW220466   2.032   3.386   5.490  2.2913 -2.1001  0.0527
 2944SOL     OW20467   2.615   1.415   0.047 -0.2485  0.4162 -0.2735
 2944SOL    HW120468   2.689   1.415  17.731  0.1414  2.1084  0.1796
 2944SOL    HW220469   2.534   1.409  17.741  1.4796 -1.2244 -2.7731
 2945SOL     OW20470   0.019   0.374   9.949  0.0371 -0.0536 -0.0879
 2945SOL    HW120471   0.042   0.444  10.010  1.4216  0.1719 -0.8699
 2945SOL    HW220472   0.061   0.301   9.995  2.1963  0.8881 -0.5548
 2946SOL     OW20473   0.159   3.365   5.581  0.2368  0.1923  0.6279
 2946SOL    HW120474   0.218   3.403   5.517 -2.3519 -0.0365 -1.9164
 2946SOL    HW220475   0.226   3.322   5.634  0.9154  0.5076  0.0199
 2947SOL     OW20476   0.509   4.561   8.928  0.3928  0.2100  0.0137
 2947SOL    HW120477   0.585   4.583   8.875 -0.9037  0.5348 -1.7296
 2947SOL    HW220478   0.483   4.472   8.907  1.0513  0.6332 -2.5763
 2948SOL     OW20479   1.827   0.334  17.550  0.6371  0.3334  0.2738
 2948SOL    HW120480   1.859   0.349  17.639  3.5107 -0.6839 -0.5700
 2948SOL    HW220481   1.911   0.346  17.506  0.0567  1.2048 -0.5896
 2949SOL     OW20482   1.174   0.052   9.520 -0.0165  0.3106  0.0311
 2949SOL    HW120483   1.265   0.079   9.508  0.9064 -2.7029  0.3339
 2949SOL    HW220484   1.124   0.125   9.556  0.5846  0.5479  0.3645
 2950SOL     OW20485   1.407   2.593   6.261  0.1263  0.2104 -0.4483
 2950SOL    HW120486   1.447   2.599   6.347  1.4100  2.3292 -1.2144
 2950SOL    HW220487   1.347   2.518   6.270 -1.0375  1.2849  0.7102
 2951SOL     OW20488   2.496   1.407   1.878  0.6921  0.3590 -0.2858
 2951SOL    HW120489   2.514   1.498   1.857  0.2818  0.9637  1.9916
 2951SOL    HW220490   2.479   1.415   1.972 -0.6147  0.3105 -0.5218
 2952SOL     OW20491   3.945   3.352   7.003 -0.5671  0.4491  0.1130
 2952SOL    HW120492   3.956   3.401   6.922 -0.3658 -1.2361 -0.8627
 2952SOL    HW220493   3.880   3.285   6.984 -0.9946  1.4355 -1.8998
 2953SOL     OW20494   3.590   3.730   6.417 -0.1215 -0.0832 -0.2758
 2953SOL    HW120495   3.675   3.773   6.414 -0.6068  0.7808 -1.5133
 2953SOL    HW220496   3.549   3.764   6.337 -2.1360  1.4917  1.4234
 2954SOL     OW20497   0.988   0.757   3.959 -0.2571  0.5202 -0.0890
 2954SOL    HW120498   0.914   0.715   3.915 -0.5171  1.9295 -1.0002
 2954SOL    HW220499   1.047   0.682   3.953 -0.0759  0.7350 -1.0069
 2955SOL     OW20500   3.167   2.200  13.080  0.2194  0.6887 -0.0896
 2955SOL    HW120501   3.206   2.240  13.158  0.4087  1.0533 -0.3667
 2955SOL    HW220502   3.080   2.240  13.088 -1.3494 -1.8771 -4.4567
 2956SOL     OW20503   0.385   0.433   9.683 -0.5662  0.3478  0.4024
 2956SOL    HW120504   0.430   0.503   9.730  1.0841  0.1053 -0.8048
 2956SOL    HW220505   0.337   0.384   9.750 -1.4776  0.4467 -0.1884
 2957SOL     OW20506   1.053   3.290  10.617  0.3010 -0.0822 -0.0461
 2957SOL    HW120507   1.103   3.213  10.592 -1.7397 -0.5667 -2.6293
 2957SOL    HW220508   0.966   3.264  10.586  0.0241 -0.0781  0.7194
 2958SOL     OW20509   0.134   0.376   9.456 -0.3772 -0.3974  0.2943
 2958SOL    HW120510   0.182   0.459   9.451 -0.2481 -0.2561  3.6447
 2958SOL    HW220511   0.084   0.397   9.535 -0.5039 -0.3908  0.2113
 2959SOL     OW20512   1.004   4.138   6.124 -0.0905  0.1263 -0.0240
 2959SOL    HW120513   1.069   4.209   6.121 -0.1996  0.3426  2.8702
 2959SOL    HW220514   0.929   4.177   6.079 -0.2958 -0.1761  0.0573
 2960SOL     OW20515   2.087   3.157   5.387 -0.3320 -0.1038  0.1785
 2960SOL    HW120516   2.057   3.215   5.317  2.0901  0.4238 -0.4024
 2960SOL    HW220517   2.180   3.160   5.364 -0.1111  0.1513  1.1066
 2961SOL     OW20518   1.594   1.485   6.894  0.7178 -0.4817  0.4572
 2961SOL    HW120519   1.655   1.437   6.949  0.4532  0.2522  1.3855
 2961SOL    HW220520   1.507   1.454   6.921  0.4484 -1.3793 -1.4364
 2962SOL     OW20521   3.989   2.653   1.950  0.4969 -0.2855 -0.1510
 2962SOL    HW120522   3.920   2.689   1.895  1.2414 -0.0147 -0.8973
 2962SOL    HW220523   4.064   2.713   1.950  1.3105 -1.2941 -0.5942
 2963SOL     OW20524   4.046   4.232   7.458  0.0676  0.5191  0.4425
 2963SOL    HW120525   4.009   4.157   7.411  0.9432  0.6383 -0.4234
 2963SOL    HW220526   4.032   4.201   7.548 -0.3148 -0.7151 -0.0316
 2964SOL     OW20527   3.501   1.327   9.122  0.4535 -0.1650  0.1343
 2964SOL    HW120528   3.498   1.352   9.214  1.5898 -4.6502  1.3897
 2964SOL    HW220529   3.412   1.334   9.088  0.7183  0.3867 -0.4673
 2965SOL     OW20530   4.171   4.685  10.866  0.5949 -0.1466  0.1866
 2965SOL    HW120531   4.117   4.610  10.841  0.9624 -0.2422 -0.3353
 2965SOL    HW220532   4.256   4.667  10.824 -0.2402 -1.7423 -0.8545
 2966SOL     OW20533   2.901   1.856  14.860 -0.5707 -0.3225 -0.1542
 2966SOL    HW120534   2.966   1.830  14.925  0.2464  0.7607 -0.5368
 2966SOL    HW220535   2.878   1.774  14.815 -1.8239 -1.7408  3.0818
 2967SOL     OW20536   1.874   1.100   7.498  1.1099 -0.6346  0.3083
 2967SOL    HW120537   1.847   1.147   7.419  1.5583  0.9991  1.1116
 2967SOL    HW220538   1.948   1.048   7.467  0.8948  0.3937 -1.9240
 2968SOL     OW20539   1.436   3.873   1.164  0.1726  0.2225  0.5714
 2968SOL    HW120540   1.449   3.936   1.093 -2.4992 -0.6248 -0.6768
 2968SOL    HW220541   1.508   3.811   1.151  0.8418  0.6103  2.4667
 2969SOL     OW20542   0.761   3.451   3.634  0.0902  0.3043  0.1514
 2969SOL    HW120543   0.790   3.364   3.660  0.0586  0.7486  1.6744
 2969SOL    HW220544   0.741   3.436   3.541 -1.2552 -2.0949  0.8176
 2970SOL     OW20545   2.984   0.454   6.217 -0.2752 -0.5844  0.3785
 2970SOL    HW120546   2.936   0.526   6.257 -0.5771 -0.9590  0.7026
 2970SOL    HW220547   3.013   0.415   6.299  1.5884  0.4651  0.2106
 2971SOL     OW20548   3.477   4.258   9.849  0.0201 -0.4431 -0.0939
 2971SOL    HW120549   3.418   4.276   9.776  0.3903  0.2705 -0.2181
 2971SOL    HW220550   3.491   4.345   9.888 -0.5768 -1.5123  2.5418
 2972SOL     OW20551   1.293   1.520   0.654  0.1210 -0.0780 -0.6239
 2972SOL    HW120552   1.225   1.464   0.616  2.1018 -1.6176 -1.9380
 2972SOL    HW220553   1.242   1.566   0.720  1.9140 -0.7775  1.2635
 2973SOL     OW20554   4.343   3.542  16.585 -0.3304 -0.6093 -0.7084
 2973SOL    HW120555   4.317   3.515  16.497 -0.7825  0.7125 -0.9755
 2973SOL    HW220556   4.436   3.520  16.583 -0.2951 -0.4307 -1.0226
 2974SOL     OW20557   1.752   1.196  10.990  0.2548 -0.3363  0.8683
 2974SOL    HW120558   1.723   1.197  11.081 -1.4066 -3.4992  0.3936
 2974SOL    HW220559   1.700   1.267  10.953 -1.0518  0.4361  4.1828
 2975SOL     OW20560   0.409   4.718   7.570 -0.5477  0.0433  0.5601
 2975SOL    HW120561   0.413   4.641   7.512  0.5082  0.1561  0.4767
 2975SOL    HW220562   0.363   4.680   7.645 -0.1851 -0.6288  0.4476
 2976SOL     OW20563   0.141   2.068   3.808 -0.7750 -0.4140  0.1083
 2976SOL    HW120564   0.186   2.147   3.778  1.0455 -0.7170  1.9754
 2976SOL    HW220565   0.162   2.002   3.742 -1.3001  1.2345 -1.7030
 2977SOL     OW20566   2.059   4.416   6.326  0.7061  0.0042  0.4261
 2977SOL    HW120567   2.096   4.460   6.403 -0.2385  0.1633  0.8001
 2977SOL    HW220568   2.050   4.323   6.345  1.1055  0.1124  1.1737
 2978SOL     OW20569   2.440   2.782   3.268  0.0608  0.4514  0.2810
 2978SOL    HW120570   2.502   2.729   3.319 -0.6747 -0.5773  0.1110
 2978SOL    HW220571   2.502   2.816   3.204 -1.4631  1.7433 -0.5143
 2979SOL     OW20572   2.205   0.889  10.408 -0.3657  0.2292  0.2116
 2979SOL    HW120573   2.202   0.858  10.498 -0.3674  0.4642  0.2926
 2979SOL    HW220574   2.125   0.849  10.374 -0.8773 -0.5275  2.3145
 2980SOL     OW20575   0.618   1.307   3.613 -0.0889 -0.0314  0.2182
 2980SOL    HW120576   0.570   1.225   3.627 -2.2950  1.0028 -1.2958
 2980SOL    HW220577   0.675   1.296   3.689  3.4039  2.4771 -2.0451
 2981SOL     OW20578   4.442   4.111   4.848 -0.6426  0.0587 -0.2472
 2981SOL    HW120579   4.429   4.061   4.928  0.3280 -0.5396 -0.4668
 2981SOL    HW220580   4.465   4.202   4.870 -1.9501  0.4836 -0.6227
 2982SOL     OW20581   2.830   1.250   1.422  0.1419 -0.2415  0.0864
 2982SOL    HW120582   2.801   1.316   1.359 -0.8323 -1.3213 -0.6010
 2982SOL    HW220583   2.826   1.293   1.507  1.8953 -1.5949  0.8566
 2983SOL     OW20584   1.211   3.716  14.128  0.0213  0.1359 -0.6978
 2983SOL    HW120585   1.144   3.779  14.154 -0.1187 -1.1566  2.0372
 2983SOL    HW220586   1.154   3.665  14.070 -1.8199 -0.5315  1.7192
 2984SOL     OW20587   3.172   1.333   4.414 -0.1122  0.0634  0.6987
 2984SOL    HW120588   3.089   1.319   4.368  0.5103  2.3842 -1.1012
 2984SOL    HW220589   3.213   1.247   4.406 -1.2117 -0.3800 -0.1214
 2985SOL     OW20590   0.947   0.806   4.275  0.5033 -0.2068  0.9422
 2985SOL    HW120591   0.993   0.877   4.231 -0.7616 -0.8762 -1.4072
 2985SOL    HW220592   1.003   0.815   4.352  1.4171 -2.3184  0.5097
 2986SOL     OW20593   0.364   4.053   8.137  0.1830  0.2353 -0.2061
 2986SOL    HW120594   0.341   4.095   8.220  0.5618 -2.9639  1.5145
 2986SOL    HW220595   0.294   4.095   8.087 -1.5235  0.0222  2.0149
 2987SOL     OW20596   0.590   1.304  16.668 -0.0847  0.6023  0.3214
 2987SOL    HW120597   0.539   1.323  16.590 -0.5859  2.9900  1.2170
 2987SOL    HW220598   0.612   1.211  16.662  0.9181  0.7897  1.1171
 2988SOL     OW20599   0.443   1.457   5.586 -0.1904 -0.4235 -0.4346
 2988SOL    HW120600   0.415   1.531   5.532 -0.0861 -1.2553 -1.6208
 2988SOL    HW220601   0.358   1.419   5.608 -0.5853  0.8069  0.1836
 2989SOL     OW20602   1.884   0.210   6.488  0.0056  0.2822 -0.4331
 2989SOL    HW120603   1.958   0.150   6.501 -0.0589  0.8529  2.5805
 2989SOL    HW220604   1.876   0.205   6.392 -0.9221 -0.3631 -0.3224
 2990SOL     OW20605   0.697   2.781   1.897  0.4958  0.3346  0.1244
 2990SOL    HW120606   0.782   2.794   1.855  1.2664 -3.1741  0.5761
 2990SOL    HW220607   0.731   2.790   1.986  1.6106 -0.1155 -0.2545
 2991SOL     OW20608   3.662   3.852   1.306  0.4367 -0.1542 -0.2086
 2991SOL    HW120609   3.689   3.842   1.215 -0.5477 -1.0601 -0.4039
 2991SOL    HW220610   3.652   3.947   1.309  1.8993 -0.0093  0.2643
 2992SOL     OW20611   3.014   3.956   8.944 -0.1990  0.5878  0.2387
 2992SOL    HW120612   2.965   4.002   9.013 -3.0320 -0.8728 -0.7856
 2992SOL    HW220613   3.031   3.875   8.992  1.1413  0.1793 -0.9380
 2993SOL     OW20614   4.013   1.761   6.839  0.3385 -0.3567  0.4217
 2993SOL    HW120615   3.998   1.682   6.891  1.1685 -1.4006 -0.9156
 2993SOL    HW220616   4.080   1.733   6.776  0.6654 -0.2177  0.7052
 2994SOL     OW20617   1.376   3.768   8.294 -0.2931  0.3083  0.0999
 2994SOL    HW120618   1.351   3.699   8.357 -1.9336 -0.3839 -1.3194
 2994SOL    HW220619   1.461   3.782   8.337  0.9002 -1.0717 -1.7997
 2995SOL     OW20620   2.855   0.971  15.529 -0.3013 -0.1955 -0.1051
 2995SOL    HW120621   2.857   1.045  15.468  0.4061 -0.6467 -0.6214
 2995SOL    HW220622   2.765   0.940  15.518  0.0650 -1.5099  0.6710
 2996SOL     OW20623   2.953   2.610  13.141  0.9229 -0.2621  0.5154
 2996SOL    HW120624   2.970   2.585  13.232 -0.6984  3.0282  1.7245
 2996SOL    HW220625   2.969   2.704  13.138  2.4880 -0.5509 -0.4672
 2997SOL     OW20626   4.170   2.090  16.062  0.3531  0.1025  0.6330
 2997SOL    HW120627   4.169   2.133  16.147 -0.5866 -0.1985  0.7693
 2997SOL    HW220628   4.082   2.107  16.027  0.5685  2.9633  1.5238
 2998SOL     OW20629   3.698   1.155   6.631  0.2776  0.3379 -0.0686
 2998SOL    HW120630   3.755   1.213   6.581 -1.5297 -1.6358 -4.3689
 2998SOL    HW220631   3.619   1.210   6.637 -1.1033 -1.5038 -1.4428
 2999SOL     OW20632   1.175   3.409   3.743 -0.2657  0.8268  0.0186
 2999SOL    HW120633   1.117   3.350   3.792 -0.0824  0.3876 -0.2873
 2999SOL    HW220634   1.135   3.419   3.657 -0.9433 -0.2959  0.1989
 3000SOL     OW20635   3.925   2.034   9.475  0.0704  0.4834 -0.0572
 3000SOL    HW120636   3.920   2.031   9.570  1.9217  0.1922  0.0284
 3000SOL    HW220637   3.844   2.072   9.440  0.3081  1.7761  0.7819
 3001SOL     OW20638   3.345   1.084   8.528  0.0870  0.0598 -0.2413
 3001SOL    HW120639   3.300   1.097   8.611  0.9848 -1.4261  0.4572
 3001SOL    HW220640   3.275   1.107   8.466 -1.2759 -1.0071  0.9086
 3002SOL     OW20641   2.520   1.923   9.628 -0.3119  0.0250 -0.4306
 3002SOL    HW120642   2.431   1.957   9.637 -0.2888  0.0769 -0.3926
 3002SOL    HW220643   2.568   2.004   9.649 -0.2176 -0.2242  0.2894
 3003SOL     OW20644   1.115   2.165   1.808 -0.0722 -0.0366  0.0809
 3003SOL    HW120645   1.051   2.170   1.879 -1.3633  1.6386 -1.1942
 3003SOL    HW220646   1.157   2.080   1.818  0.5241  0.3400  0.7575
 3004SOL     OW20647   1.534   0.301   4.486 -0.1357 -0.3482 -0.0791
 3004SOL    HW120648   1.493   0.243   4.423  3.3256 -1.3266 -1.4470
 3004SOL    HW220649   1.565   0.370   4.427  0.2967  0.5888  1.2495
 3005SOL     OW20650   2.827   4.174   4.957  0.5526 -0.5244  0.4838
 3005SOL    HW120651   2.768   4.244   4.932  0.7753 -0.8275 -0.9205
 3005SOL    HW220652   2.884   4.163   4.880  0.8829 -0.2247  0.6861
 3006SOL     OW20653   0.668   1.799   4.827 -0.1984  0.0280 -0.0089
 3006SOL    HW120654   0.604   1.765   4.764  0.3669 -0.9242 -0.0674
 3006SOL    HW220655   0.745   1.766   4.780  1.1724  3.7018 -0.3996
 3007SOL     OW20656   1.400   0.034   3.837  0.4221  0.2155 -0.4108
 3007SOL    HW120657   1.315   0.061   3.801  1.0596 -0.4052 -2.3785
 3007SOL    HW220658   1.400   4.679   3.809 -0.0615  0.2425 -0.5077
 3008SOL     OW20659   2.317   2.826   5.742 -0.1224 -0.0639  0.1345
 3008SOL    HW120660   2.368   2.867   5.811  0.7689 -0.0503 -0.5252
 3008SOL    HW220661   2.255   2.896   5.720  1.5561  0.2147 -3.8747
 3009SOL     OW20662   2.541   2.100  13.658  0.6879  0.7354 -0.2027
 3009SOL    HW120663   2.612   2.061  13.606  0.6673  0.0605  0.2839
 3009SOL    HW220664   2.467   2.054  13.619  0.3085  2.7639 -1.8240
 3010SOL     OW20665   2.708   1.608   8.850  0.7049 -0.7316  0.0462
 3010SOL    HW120666   2.702   1.653   8.934 -1.1414 -1.6271  0.3929
 3010SOL    HW220667   2.685   1.519   8.877  0.4567 -0.6288  0.1700
 3011SOL     OW20668   4.234   2.619   5.831 -0.0480 -1.0841  0.1327
 3011SOL    HW120669   4.214   2.549   5.768  1.7353 -0.6703 -0.9018
 3011SOL    HW220670   4.329   2.612   5.840  0.0694  0.9177  0.4785
 3012SOL     OW20671   1.747   0.553   1.401  0.5216  0.1555 -0.0416
 3012SOL    HW120672   1.810   0.483   1.417 -0.3147 -0.9255 -1.4697
 3012SOL    HW220673   1.717   0.536   1.312 -0.1985  2.9745 -0.3324
 3013SOL     OW20674   4.316   1.463   1.507  0.2890  0.2892 -0.1784
 3013SOL    HW120675   4.379   1.461   1.434  1.0971 -0.9487  0.5650
 3013SOL    HW220676   4.268   1.545   1.493  0.4843  0.3317 -0.6217
 3014SOL     OW20677   3.886   2.432  10.299 -0.3153 -0.6775 -0.4635
 3014SOL    HW120678   3.899   2.513  10.349 -0.5522 -0.2297 -1.1313
 3014SOL    HW220679   3.851   2.381  10.373 -1.0761 -0.9946 -1.0466
 3015SOL     OW20680   0.531   0.603   6.474  0.4550 -0.4900  0.2661
 3015SOL    HW120681   0.467   0.551   6.523 -0.0757  2.2472  2.4892
 3015SOL    HW220682   0.479   0.682   6.460 -1.6836 -1.8995  0.3881
 3016SOL     OW20683   0.000   2.027   4.937  0.0021 -0.4561  0.4663
 3016SOL    HW120684   0.067   2.053   5.002 -1.7050  2.3424  1.1328
 3016SOL    HW220685   4.660   2.018   4.993 -0.9322 -0.8125 -0.8961
 3017SOL     OW20686   3.162   1.786   3.104  0.1966 -0.0681 -0.5544
 3017SOL    HW120687   3.089   1.751   3.155  0.8749  0.3939  0.7403
 3017SOL    HW220688   3.184   1.707   3.055  0.9561 -0.0693 -0.2034
 3018SOL     OW20689   2.136   2.686  10.916  0.3970 -0.4542 -0.1892
 3018SOL    HW120690   2.178   2.769  10.939  1.5859 -0.7640 -1.2337
 3018SOL    HW220691   2.194   2.651  10.848 -1.8772 -0.7090 -1.9697
 3019SOL     OW20692   2.340   2.200   5.089  0.7952  0.2084 -0.2148
 3019SOL    HW120693   2.248   2.194   5.062  0.6842 -1.4212  0.5312
 3019SOL    HW220694   2.331   2.268   5.155 -0.2874  0.5018 -0.6675
 3020SOL     OW20695   3.497   1.112   6.333 -0.2086 -0.5247 -0.0706
 3020SOL    HW120696   3.413   1.070   6.351 -1.5381  1.6031 -1.2645
 3020SOL    HW220697   3.475   1.147   6.247 -0.7253 -0.9202 -0.0978
 3021SOL     OW20698   0.128   3.632   1.706 -0.0729  0.0790 -0.1613
 3021SOL    HW120699   0.179   3.683   1.643 -1.0179 -0.4658 -1.3537
 3021SOL    HW220700   0.153   3.685   1.782 -1.3579  0.9909 -0.3836
 3022SOL     OW20701   4.201   2.364  16.435  0.3362 -0.1913 -0.3388
 3022SOL    HW120702   4.162   2.401  16.355  1.5739 -0.0266 -0.8612
 3022SOL    HW220703   4.260   2.298  16.400 -0.4756 -0.7310 -0.6953
 3023SOL     OW20704   0.040   0.098   9.591  0.2852 -0.0995  0.5377
 3023SOL    HW120705   0.076   0.186   9.588  0.9491 -0.4153 -0.9509
 3023SOL    HW220706   0.120   0.045   9.582 -1.4396 -2.6761  0.1971
 3024SOL     OW20707   1.990   2.067  13.294  0.4053 -0.4158 -0.6717
 3024SOL    HW120708   2.074   2.035  13.261 -0.4513 -1.8064 -1.5156
 3024SOL    HW220709   1.931   2.059  13.219 -0.5422  1.8339 -0.1550
 3025SOL     OW20710   4.165   0.036   0.049 -0.2670  0.2599 -0.2556
 3025SOL    HW120711   4.182   4.704  17.731 -1.3496  0.7404 -1.0749
 3025SOL    HW220712   4.204   4.733   0.126 -1.7186  0.4227  0.5653
 3026SOL     OW20713   2.582   4.726  14.865 -0.5026  0.3764 -0.0086
 3026SOL    HW120714   2.677   4.726  14.881 -0.3493  0.0572 -0.9258
 3026SOL    HW220715   2.555   0.027  14.949  2.3772  1.2110  0.5493
 3027SOL     OW20716   3.214   3.131   8.525  0.1826 -0.1571  0.2627
 3027SOL    HW120717   3.303   3.099   8.515 -1.2587 -3.4529 -2.1710
 3027SOL    HW220718   3.181   3.112   8.437 -1.0276 -1.0115  0.8955
 3028SOL     OW20719   3.935   2.590   6.694  0.5549 -0.6107 -0.5483
 3028SOL    HW120720   3.994   2.592   6.619  1.4549  0.9433  0.1776
 3028SOL    HW220721   3.984   2.531   6.752  1.4099  1.9513  1.3469
 3029SOL     OW20722   2.992   1.738   7.850  0.5058 -0.1749 -0.2414
 3029SOL    HW120723   3.032   1.757   7.765  1.3419 -0.0157  0.1846
 3029SOL    HW220724   3.033   1.814   7.890  0.0612  0.0690 -0.2487
 3030SOL     OW20725   2.330   4.558   7.164 -0.2703  0.3211 -0.4791
 3030SOL    HW120726   2.302   4.641   7.202 -1.4615  0.1576 -0.9869
 3030SOL    HW220727   2.283   4.497   7.221 -0.0358  0.6920  0.1008
 3031SOL     OW20728   3.174   0.016  11.985 -0.7009  0.9101 -0.6820
 3031SOL    HW120729   3.259   0.048  12.014  0.1718 -1.2441 -0.8826
 3031SOL    HW220730   3.154   0.080  11.916 -0.3107  1.2711 -0.4595
 3032SOL     OW20731   4.652   2.094   3.941  0.0598  0.5816  0.1600
 3032SOL    HW120732   4.598   2.020   3.913 -0.1467  0.5217  0.7086
 3032SOL    HW220733   4.733   2.074   3.894  0.4585 -1.4602  1.6759
 3033SOL     OW20734   4.325   2.995   3.250  0.0990 -0.0631  0.6946
 3033SOL    HW120735   4.391   3.060   3.227 -0.6077  0.8850  1.3292
 3033SOL    HW220736   4.383   2.919   3.249 -3.0797 -2.5092  1.1892
 3034SOL     OW20737   1.189   3.578   6.855  0.5153 -0.0094 -0.4091
 3034SOL    HW120738   1.159   3.581   6.946 -0.1767  1.4219 -0.6749
 3034SOL    HW220739   1.138   3.647   6.812  0.0737  0.6836  1.2235
 3035SOL     OW20740   1.866   0.456   4.541 -0.2506 -0.0981  0.6612
 3035SOL    HW120741   1.861   0.487   4.451 -0.0765  0.8427  0.9742
 3035SOL    HW220742   1.893   0.365   4.530  2.0772  0.6906 -0.2338
 3036SOL     OW20743   4.185   0.793   9.230  0.2618 -1.1311 -0.2668
 3036SOL    HW120744   4.228   0.747   9.157  0.9194 -0.3744 -0.3639
 3036SOL    HW220745   4.223   0.754   9.309 -1.1765 -1.8435  0.0704
 3037SOL     OW20746   1.594   0.833   1.320  0.3582  0.1553 -1.0831
 3037SOL    HW120747   1.601   0.901   1.386  1.3577  1.1619 -2.2279
 3037SOL    HW220748   1.677   0.787   1.327  1.5057  2.2668 -1.1248
 3038SOL     OW20749   4.067   4.492   1.559  0.1364  0.0120 -0.0095
 3038SOL    HW120750   4.151   4.527   1.528  0.0058 -0.1751 -0.5594
 3038SOL    HW220751   4.036   4.567   1.609  0.1155 -0.2599  0.3872
 3039SOL     OW20752   2.822   0.420   0.988 -0.2923 -0.1443  0.1519
 3039SOL    HW120753   2.839   0.459   0.902  1.5846  0.8798  1.0021
 3039SOL    HW220754   2.835   0.488   1.053 -2.8984  0.2833  0.2183
 3040SOL     OW20755   0.145   0.143  10.045  0.2427 -0.0165  0.1455
 3040SOL    HW120756   0.106   0.083   9.981  1.3478 -0.4176 -0.1635
 3040SOL    HW220757   0.195   0.083  10.100  0.6629 -0.9086 -1.1977
 3041SOL     OW20758   4.644   4.269  16.468  0.3345  0.1133 -0.6066
 3041SOL    HW120759   4.577   4.221  16.515  0.0916  0.8359 -0.2025
 3041SOL    HW220760   4.680   4.321  16.541 -0.2472 -0.4327  0.0618
 3042SOL     OW20761   3.771   3.288   9.109 -0.4932 -0.2020  0.3033
 3042SOL    HW120762   3.752   3.330   9.193  1.1655 -1.8807  1.5188
 3042SOL    HW220763   3.685   3.273   9.069 -0.3171  1.4324 -0.6947
 3043SOL     OW20764   2.265   2.808   6.115  0.2233 -0.0570 -0.1156
 3043SOL    HW120765   2.206   2.749   6.068 -0.2096  0.9538 -0.8278
 3043SOL    HW220766   2.237   2.895   6.088 -0.2826 -1.2014 -3.2971
 3044SOL     OW20767   4.611   2.034   7.200 -0.7646  0.2556  0.0530
 3044SOL    HW120768   4.615   2.086   7.120 -2.3177  0.4085  0.0717
 3044SOL    HW220769   4.637   2.093   7.272  0.7656 -1.3965  0.8511
 3045SOL     OW20770   1.490   0.073   4.296 -0.1627  0.0700 -0.4175
 3045SOL    HW120771   1.417   0.015   4.271 -1.5899  1.9702 -0.6581
 3045SOL    HW220772   1.530   0.093   4.212 -1.9575  2.5386 -0.6995
 3046SOL     OW20773   4.580   0.288   8.112  0.5872 -0.1038 -0.4845
 3046SOL    HW120774   4.544   0.329   8.033  0.4739 -0.3676 -0.5682
 3046SOL    HW220775   4.527   0.333   8.178 -0.1440 -1.9484  0.1627
 3047SOL     OW20776   1.162   0.995   6.064  0.6017 -0.4553 -0.2880
 3047SOL    HW120777   1.166   0.906   6.100  1.9784 -0.4412 -0.4110
 3047SOL    HW220778   1.082   0.991   6.012  1.6773 -0.2810 -1.9664
 3048SOL     OW20779   2.961   4.100  14.235  0.0770  0.4213 -0.3062
 3048SOL    HW120780   3.039   4.132  14.281 -0.0338  0.2247  0.0187
 3048SOL    HW220781   2.968   4.005  14.235 -0.7840  0.3823  3.6619
 3049SOL     OW20782   4.597   3.219   5.886 -0.3239  0.4476  0.4002
 3049SOL    HW120783   4.532   3.289   5.884 -1.9736 -1.1397 -2.0418
 3049SOL    HW220784   4.538   3.144   5.897 -0.6586  0.5236 -0.8677
 3050SOL     OW20785   2.160   2.708   6.570 -0.0232  0.1657  0.7825
 3050SOL    HW120786   2.154   2.754   6.487 -0.4551 -0.8442  0.2519
 3050SOL    HW220787   2.219   2.638   6.544 -2.2035 -0.0786 -3.5206
 3051SOL     OW20788   1.074   4.530   4.358 -0.1659 -0.2783  0.0497
 3051SOL    HW120789   1.091   4.442   4.325  1.8374  0.8326 -1.9149
 3051SOL    HW220790   0.990   4.518   4.402  0.3445 -0.4508  0.9730
 3052SOL     OW20791   2.074   2.415   6.550 -0.0830  0.2694 -0.2984
 3052SOL    HW120792   1.981   2.431   6.538 -0.6297 -1.1260  2.0268
 3052SOL    HW220793   2.105   2.402   6.461  2.7952 -2.6878  1.1288
 3053SOL     OW20794   4.429   0.244   1.978 -0.7238  0.2845  0.3603
 3053SOL    HW120795   4.376   0.291   2.042  0.9880  2.1893  0.3738
 3053SOL    HW220796   4.378   0.163   1.974 -0.6858  0.4232 -2.6985
 3054SOL     OW20797   1.501   1.331   0.584 -0.1483  0.0212 -0.9343
 3054SOL    HW120798   1.438   1.394   0.618 -1.0113 -1.4086  0.0865
 3054SOL    HW220799   1.508   1.269   0.656  1.8473 -0.5856 -1.6278
 3055SOL     OW20800   0.176   4.430   8.753 -0.2964  0.4514  0.1075
 3055SOL    HW120801   0.192   4.515   8.795 -0.4448  1.8589 -2.7018
 3055SOL    HW220802   0.226   4.385   8.821 -1.2568 -1.8651 -0.6945
 3056SOL     OW20803   2.543   1.952   4.672  0.1014 -0.1090 -0.5982
 3056SOL    HW120804   2.503   1.902   4.602 -2.3504 -1.8423  2.0269
 3056SOL    HW220805   2.474   2.017   4.682  1.2260  1.0357 -0.1340
 3057SOL     OW20806   2.793   2.675   2.383 -0.0010 -0.2125  0.1946
 3057SOL    HW120807   2.846   2.652   2.460 -0.7398 -0.9833  0.4743
 3057SOL    HW220808   2.721   2.723   2.424 -0.8929 -0.2522 -1.3586
 3058SOL     OW20809   3.528   3.425   7.622 -0.5048 -0.1423 -0.0355
 3058SOL    HW120810   3.507   3.514   7.593  0.0276  0.5011  1.5666
 3058SOL    HW220811   3.613   3.416   7.578 -0.3584 -0.0059  0.2183
 3059SOL     OW20812   4.282   2.372   9.165 -0.0858  0.3589 -0.1210
 3059SOL    HW120813   4.351   2.342   9.104 -1.7418 -0.8980 -1.3842
 3059SOL    HW220814   4.293   2.465   9.144  1.2735 -0.3536 -2.6125
 3060SOL     OW20815   1.681   3.075   3.249 -0.6944 -0.5394  0.0266
 3060SOL    HW120816   1.719   2.987   3.240 -2.4870 -1.7760  4.5273
 3060SOL    HW220817   1.732   3.125   3.186 -2.7293 -0.6086 -1.6669
 3061SOL     OW20818   4.149   1.005   7.471 -0.0582 -0.2053  0.4565
 3061SOL    HW120819   4.076   1.032   7.527  0.9251  0.1017  1.5843
 3061SOL    HW220820   4.129   0.911   7.471  0.3593 -0.2882 -0.6868
 3062SOL     OW20821   2.462   4.396  10.854 -0.0792  0.1925  0.5567
 3062SOL    HW120822   2.444   4.476  10.805  2.6940  0.3586 -0.1927
 3062SOL    HW220823   2.445   4.329  10.788 -2.3991  1.4642 -0.1198
 3063SOL     OW20824   0.124   2.307   4.489 -0.4100  0.4128  0.7444
 3063SOL    HW120825   0.037   2.323   4.453  0.0320  2.9241  0.7714
 3063SOL    HW220826   0.104   2.271   4.575 -0.3948 -1.0664  0.1299
 3064SOL     OW20827   2.572   4.237   7.320  0.6401 -0.6210 -1.0451
 3064SOL    HW120828   2.599   4.146   7.305  1.4481 -0.4391 -0.6937
 3064SOL    HW220829   2.523   4.217   7.400  1.3434 -3.1905 -1.2445
 3065SOL     OW20830   1.826   3.184   6.439 -0.4738 -0.0917  0.0974
 3065SOL    HW120831   1.839   3.103   6.391  0.2031  0.7003 -1.0608
 3065SOL    HW220832   1.829   3.251   6.371 -2.3443  1.2669  1.3484
 3066SOL     OW20833   3.275   4.720   4.778 -0.1494 -0.4507  0.0021
 3066SOL    HW120834   3.283   4.627   4.801 -2.7417 -0.7942 -0.4728
 3066SOL    HW220835   3.284   4.722   4.682  1.7709  1.0605  0.2194
 3067SOL     OW20836   4.257   1.997   3.822 -0.0467  0.5646  0.3527
 3067SOL    HW120837   4.285   2.057   3.891  0.2041  0.9690 -0.1034
 3067SOL    HW220838   4.240   2.042   3.740  2.4391 -0.4276 -0.6944
 3068SOL     OW20839   2.523   3.489   8.634  0.4091  0.1762 -0.8403
 3068SOL    HW120840   2.458   3.469   8.702  1.7841 -0.6704  0.2385
 3068SOL    HW220841   2.518   3.415   8.573  1.4511 -0.1812 -0.4997
 3069SOL     OW20842   4.046   3.618  17.524  0.1858 -0.0308 -0.0104
 3069SOL    HW120843   3.998   3.584  17.600  1.4830  1.5401  1.4916
 3069SOL    HW220844   4.033   3.710  17.547  1.5696  0.1728 -0.0514
 3070SOL     OW20845   0.861   2.593   7.812 -0.3709  0.5591 -0.1079
 3070SOL    HW120846   0.823   2.656   7.751 -1.4282 -1.3897 -1.4454
 3070SOL    HW220847   0.943   2.635   7.838  0.1114  0.4855 -1.5377
 3071SOL     OW20848   2.684   1.964   7.946  0.4222  0.0133  0.2848
 3071SOL    HW120849   2.754   2.026   7.965 -0.8733  1.1477  1.2909
 3071SOL    HW220850   2.748   1.894   7.931 -1.3862 -1.6513  0.4243
 3072SOL     OW20851   0.534   0.794  10.208 -0.5903 -0.0384  0.8031
 3072SOL    HW120852   0.459   0.817  10.262 -2.1548  0.8770 -1.7498
 3072SOL    HW220853   0.557   0.702  10.224  0.5156  0.5100  2.3390
 3073SOL     OW20854   1.037   4.415   1.623  0.8442 -0.3762 -0.2362
 3073SOL    HW120855   1.078   4.352   1.563  1.5063 -1.2726  1.1712
 3073SOL    HW220856   1.034   4.491   1.565  2.6134  0.5526  0.8882
 3074SOL     OW20857   0.606   3.461  12.033 -0.2813 -0.0238 -0.0939
 3074SOL    HW120858   0.604   3.372  11.997 -0.7954  0.6141 -1.6254
 3074SOL    HW220859   0.521   3.454  12.077 -0.0582 -0.6396  0.2429
 3075SOL     OW20860   1.848   2.568   9.869  0.4619 -0.3764 -0.1411
 3075SOL    HW120861   1.755   2.564   9.848  0.4533 -1.7639  0.1745
 3075SOL    HW220862   1.889   2.621   9.800 -3.3176 -0.1536 -2.2207
 3076SOL     OW20863   2.597   4.459  16.875 -0.0313 -0.6066  0.0496
 3076SOL    HW120864   2.602   4.428  16.966  1.7361 -0.1223  0.1170
 3076SOL    HW220865   2.670   4.415  16.832 -0.6155 -0.2086 -1.3593
 3077SOL     OW20866   2.364   4.099   4.879 -0.1745 -0.1957 -0.0440
 3077SOL    HW120867   2.399   4.084   4.791  0.2240 -1.4878  0.3445
 3077SOL    HW220868   2.275   4.067   4.864 -0.2314 -0.6220  1.2847
 3078SOL     OW20869   4.663   4.057   2.608 -0.1012 -0.0729 -0.2396
 3078SOL    HW120870   0.000   4.118   2.604 -1.2835  1.0777 -4.6705
 3078SOL    HW220871   4.700   3.971   2.588 -0.2135 -0.4084  1.0421
 3079SOL     OW20872   4.048   3.438   0.725 -0.1924  0.0217  0.2914
 3079SOL    HW120873   4.130   3.426   0.772 -0.1564 -0.7663  0.0179
 3079SOL    HW220874   4.066   3.383   0.649 -0.2417 -1.8122  1.6178
 3080SOL     OW20875   4.693   0.020   6.621  0.0273  0.3253  0.3227
 3080SOL    HW120876   4.672   4.681   6.567 -0.0046  0.3652  0.2796
 3080SOL    HW220877   4.719   0.092   6.563  0.4645  0.1666  0.3213
 3081SOL     OW20878   1.972   3.165  12.083 -0.1782  1.0660 -0.1501
 3081SOL    HW120879   1.901   3.227  12.065 -0.8191  0.8658  1.6614
 3081SOL    HW220880   2.047   3.212  12.047  0.1654  0.8284  0.2467
 3082SOL     OW20881   0.360   3.749  16.841 -0.1336 -0.3544 -0.3076
 3082SOL    HW120882   0.421   3.760  16.914 -2.4708 -1.0740  1.7642
 3082SOL    HW220883   0.319   3.670  16.876  1.3629 -0.2244  1.7653
 3083SOL     OW20884   2.099   3.754   3.738  0.4330  0.0539 -0.0196
 3083SOL    HW120885   2.105   3.675   3.792  0.9826 -0.2589 -0.5435
 3083SOL    HW220886   2.136   3.722   3.656 -1.8553 -3.5143  0.3602
 3084SOL     OW20887   3.308   2.095   3.540 -0.0510  0.4725  0.4269
 3084SOL    HW120888   3.244   2.024   3.542  0.3414  0.1292  1.1866
 3084SOL    HW220889   3.324   2.108   3.447  0.8811 -0.9486  0.3839
 3085SOL     OW20890   1.669   4.257  11.421 -0.6027 -0.6149  0.0263
 3085SOL    HW120891   1.723   4.179  11.432 -0.0471 -0.2674 -0.2250
 3085SOL    HW220892   1.738   4.314  11.386 -0.0234 -1.6742 -0.5405
 3086SOL     OW20893   2.270   2.611  13.660  0.1089  0.0602  0.9960
 3086SOL    HW120894   2.294   2.671  13.730 -1.0529  0.3388  1.1554
 3086SOL    HW220895   2.241   2.679  13.600 -0.8555 -3.0105 -2.0422
 3087SOL     OW20896   3.319   4.092   9.176  0.0491  0.2153 -0.1480
 3087SOL    HW120897   3.318   4.054   9.088  0.9511  1.2099 -0.5819
 3087SOL    HW220898   3.412   4.084   9.200  0.3700  3.3681 -0.3969
 3088SOL     OW20899   1.927   2.022   2.270 -0.4710  0.3955 -0.1584
 3088SOL    HW120900   1.837   2.011   2.299  0.1095 -0.8817  1.2077
 3088SOL    HW220901   1.964   2.036   2.357 -0.0653 -0.6463 -0.1622
 3089SOL     OW20902   3.756   4.406   5.690  0.1829  0.0430 -0.5896
 3089SOL    HW120903   3.661   4.396   5.693 -0.1635  2.7745 -2.7985
 3089SOL    HW220904   3.785   4.380   5.778  0.2186  1.4982 -0.1688
 3090SOL     OW20905   3.421   0.586   6.826 -0.1528 -0.0029  0.6256
 3090SOL    HW120906   3.434   0.670   6.870  1.6639  1.8921 -3.4818
 3090SOL    HW220907   3.510   0.581   6.789 -1.3003  2.0774 -2.4181
 3091SOL     OW20908   0.585   3.544   5.227 -0.8431 -0.3497  0.0105
 3091SOL    HW120909   0.590   3.639   5.236  0.3825 -0.2132 -1.9220
 3091SOL    HW220910   0.662   3.519   5.277  0.0615 -0.3665 -1.3758
 3092SOL     OW20911   4.537   3.017  13.900 -0.4016  0.0547 -0.8723
 3092SOL    HW120912   4.573   2.996  13.987 -0.0221 -0.6274 -1.1897
 3092SOL    HW220913   4.565   2.946  13.842  0.5113 -1.3477  1.2401
 3093SOL     OW20914   0.221   2.406   5.727  0.0238 -0.3110  0.3997
 3093SOL    HW120915   0.303   2.455   5.718  0.0798 -0.6083 -0.7391
 3093SOL    HW220916   0.183   2.410   5.639  1.6010  1.1097 -0.2371
 3094SOL     OW20917   0.743   4.569   3.132  0.3990  0.3562 -0.1601
 3094SOL    HW120918   0.675   4.517   3.089  0.3342 -1.5135  2.1548
 3094SOL    HW220919   0.740   4.652   3.085 -0.8683  0.3383 -0.1307
 3095SOL     OW20920   0.996   3.680   7.661  0.2158 -0.5598 -0.1313
 3095SOL    HW120921   0.944   3.610   7.699  1.5029 -1.5242 -0.1352
 3095SOL    HW220922   0.938   3.702   7.588  1.4634  0.5241 -0.7980
 3096SOL     OW20923   4.230   3.594  15.216 -0.1577  0.2575 -0.5689
 3096SOL    HW120924   4.283   3.671  15.239  1.1396 -1.0181  0.7119
 3096SOL    HW220925   4.145   3.632  15.236  0.0210  0.3440  0.0337
 3097SOL     OW20926   0.260   2.505   9.374  0.2953 -0.1329  0.0838
 3097SOL    HW120927   0.270   2.471   9.286  2.2430  1.7429 -0.4198
 3097SOL    HW220928   0.341   2.493   9.424 -0.5528  0.5445  1.6596
 3098SOL     OW20929   1.597   1.102  17.745  1.1288  0.0835 -0.0096
 3098SOL    HW120930   1.632   1.024   0.043 -0.6246 -0.4949  0.3487
 3098SOL    HW220931   1.571   1.056  17.665 -2.7647  0.8557  0.8366
 3099SOL     OW20932   2.830   2.024   9.063  0.4892  0.6909  0.5593
 3099SOL    HW120933   2.828   1.981   9.148  1.2861  1.8406  1.1530
 3099SOL    HW220934   2.873   1.951   9.019 -0.2575  0.5472  0.0725
 3100SOL     OW20935   3.700   4.230   9.082  0.2267 -0.2543 -0.2589
 3100SOL    HW120936   3.643   4.224   9.005  0.0932 -0.7047 -0.1224
 3100SOL    HW220937   3.759   4.301   9.056  1.0171 -1.7894 -2.6175
 3101SOL     OW20938   4.363   4.256   6.291  0.4843  0.0613 -0.1358
 3101SOL    HW120939   4.370   4.174   6.341  0.9226 -1.0548 -2.0357
 3101SOL    HW220940   4.326   4.222   6.210  1.1713 -1.2174  0.0831
 3102SOL     OW20941   1.852   2.809   6.510  0.1990  0.1177  0.3312
 3102SOL    HW120942   1.879   2.771   6.594  3.4494  0.8888 -0.3626
 3102SOL    HW220943   1.922   2.874   6.512  0.5089 -0.1881 -0.9321
 3103SOL     OW20944   0.284   1.215  13.388  0.0943 -0.1379 -0.4632
 3103SOL    HW120945   0.373   1.220  13.352  0.6562 -0.8007  0.7981
 3103SOL    HW220946   0.238   1.236  13.307 -0.8705  1.9581  0.6401
 3104SOL     OW20947   1.321   4.705  11.319 -0.8235  0.0901  0.1845
 3104SOL    HW120948   1.329   4.675  11.409  1.2917  2.8762  0.9335
 3104SOL    HW220949   1.234   0.007  11.312 -0.6353  0.3879 -0.5351
 3105SOL     OW20950   4.260   1.645   5.820 -0.3102  0.0151  0.4947
 3105SOL    HW120951   4.305   1.642   5.904  0.8782 -0.0602 -0.1423
 3105SOL    HW220952   4.334   1.629   5.761 -2.6887  2.7962 -3.1960
 3106SOL     OW20953   0.370   0.532  11.849  0.1604 -0.2220  0.1171
 3106SOL    HW120954   0.412   0.527  11.763 -0.9723 -0.3391 -0.4316
 3106SOL    HW220955   0.433   0.485  11.903 -0.3683  1.7940  2.4968
 3107SOL     OW20956   0.011   1.067   8.976 -0.1479 -0.6705 -1.0856
 3107SOL    HW120957   0.008   1.154   9.014  0.2084 -0.5229 -1.3978
 3107SOL    HW220958   4.662   1.047   8.939 -0.3922 -2.4510  0.4515
 3108SOL     OW20959   0.046   4.303   8.265  0.1893 -1.0397 -0.0439
 3108SOL    HW120960   4.692   4.335   8.256  0.4492  0.0631  1.3080
 3108SOL    HW220961   0.044   4.269   8.354  1.0581 -0.4919  0.1886
 3109SOL     OW20962   3.310   3.598   7.094  0.1655 -0.1401  0.2604
 3109SOL    HW120963   3.274   3.576   7.180  2.2092 -1.1325  0.8620
 3109SOL    HW220964   3.253   3.670   7.067 -1.3697 -1.5597 -0.2917
 3110SOL     OW20965   2.954   2.997   0.892  0.5196 -0.5270 -0.5961
 3110SOL    HW120966   2.912   2.976   0.809  0.5930  0.0168 -0.7692
 3110SOL    HW220967   2.910   2.941   0.956  0.0404  0.4103 -0.1085
 3111SOL     OW20968   1.555   1.906   0.017  0.0317 -0.1701 -0.1989
 3111SOL    HW120969   1.528   1.871   0.102 -2.8404  1.4507 -0.4503
 3111SOL    HW220970   1.487   1.889  17.698 -1.7882  2.2878  1.0864
 3112SOL     OW20971   2.864   4.243   8.981 -0.4229 -0.1737  0.7223
 3112SOL    HW120972   2.792   4.183   9.004  0.7992 -1.6382  0.6938
 3112SOL    HW220973   2.933   4.203   9.034  0.8670 -1.4795 -1.9943
 3113SOL     OW20974   3.672   1.421   4.342  0.7029  0.5972  0.1462
 3113SOL    HW120975   3.609   1.416   4.414  1.2108 -0.0692  0.5419
 3113SOL    HW220976   3.739   1.360   4.374  0.8082  1.5191  1.6909
 3114SOL     OW20977   1.950   1.784   4.970  0.2874 -0.0764  0.5449
 3114SOL    HW120978   1.922   1.704   4.925 -1.7290  1.3338 -0.6981
 3114SOL    HW220979   1.865   1.829   4.965 -0.9530 -2.2483  1.9225
 3115SOL     OW20980   0.959   2.819  14.702  0.7099 -0.5757  0.5154
 3115SOL    HW120981   0.922   2.744  14.750 -1.1257  0.4073  0.6474
 3115SOL    HW220982   0.950   2.806  14.608 -2.5010  0.9777  0.5935
 3116SOL     OW20983   3.682   3.965  13.750 -0.0087 -0.3159  0.4668
 3116SOL    HW120984   3.702   3.980  13.842 -2.4347  0.1693  0.9153
 3116SOL    HW220985   3.764   3.915  13.746 -0.8156 -1.3295 -3.8831
 3117SOL     OW20986   3.224   4.453   7.501  0.3001  0.0281 -0.4427
 3117SOL    HW120987   3.174   4.502   7.436 -0.8436  0.8149  1.0293
 3117SOL    HW220988   3.167   4.382   7.528  0.1561  0.8333  1.3378
 3118SOL     OW20989   0.011   2.911   4.447  1.0392 -0.4456  0.6418
 3118SOL    HW120990   0.049   2.962   4.517 -0.6087 -0.0273  1.2137
 3118SOL    HW220991   0.049   2.824   4.463  2.0794 -0.3041 -0.9359
 3119SOL     OW20992   4.209   1.711   9.145  0.2027  0.2908 -0.0903
 3119SOL    HW120993   4.225   1.619   9.167 -1.6346  0.0975  0.4053
 3119SOL    HW220994   4.235   1.743   9.231  1.4599 -1.4459  0.1676
 3120SOL     OW20995   0.226   1.164   7.384  0.6652 -0.2691  0.5602
 3120SOL    HW120996   0.197   1.238   7.437  1.8711  1.0887 -0.6682
 3120SOL    HW220997   0.170   1.172   7.307 -2.1930 -0.9619  2.5841
 3121SOL     OW20998   4.008   2.877   5.406  0.3523 -0.2294 -0.0313
 3121SOL    HW120999   4.061   2.955   5.387  0.5890 -0.8622 -1.9702
 3121SOL    HW221000   3.980   2.897   5.495  0.8256  2.0968 -0.4010
 3122SOL     OW21001   1.788   4.073   3.547  0.0206 -0.5066  0.0803
 3122SOL    HW121002   1.788   4.160   3.587  0.5918  0.3200 -1.7376
 3122SOL    HW221003   1.823   4.095   3.461 -0.7812 -0.1472 -0.1519
 3123SOL     OW21004   0.215   0.777  10.721 -0.6132 -0.7673 -0.3704
 3123SOL    HW121005   0.140   0.777  10.662 -1.6839 -0.5849  0.9991
 3123SOL    HW221006   0.181   0.723  10.792 -1.4641 -0.4790 -0.5646
 3124SOL     OW21007   0.431   4.483   3.508 -0.0508  0.5184  0.3920
 3124SOL    HW121008   0.441   4.560   3.564  0.0447 -0.1491  1.2882
 3124SOL    HW221009   0.381   4.526   3.439  2.3872  2.1282 -0.4006
 3125SOL     OW21010   0.240   3.009  13.625 -0.3237  0.4249 -0.3924
 3125SOL    HW121011   0.173   2.943  13.608  2.9833 -3.5526  2.2234
 3125SOL    HW221012   0.277   3.018  13.537  0.0575  0.8338 -0.1872
 3126SOL     OW21013   2.258   1.178  15.319  0.2329 -0.2042  0.2947
 3126SOL    HW121014   2.172   1.169  15.278  0.1819  1.1222  0.1166
 3126SOL    HW221015   2.245   1.246  15.384  1.6028  0.4535 -0.1291
 3127SOL     OW21016   3.073   1.021   7.724  0.2489  0.9505  0.3767
 3127SOL    HW121017   3.161   1.059   7.728  1.3811 -1.6653  0.3372
 3127SOL    HW221018   3.048   1.080   7.653 -0.8060 -0.5336 -0.4677
 3128SOL     OW21019   4.568   4.369  11.306  0.7349  0.1569  0.1933
 3128SOL    HW121020   4.587   4.390  11.397  0.8809  1.2661 -0.0900
 3128SOL    HW221021   4.584   4.455  11.267  0.3888  0.5822  0.9983
 3129SOL     OW21022   0.176   3.073  15.181  0.4053 -0.4117  0.3958
 3129SOL    HW121023   0.127   2.991  15.189 -1.4871  0.5930 -0.9192
 3129SOL    HW221024   0.131   3.128  15.246  0.7959 -1.1156  1.2607
 3130SOL     OW21025   4.483   0.808   5.160 -0.4931 -0.4794  0.0849
 3130SOL    HW121026   4.412   0.843   5.214 -1.0237  1.8467 -2.0974
 3130SOL    HW221027   4.534   0.888   5.147  2.6519 -2.2338  1.5896
 3131SOL     OW21028   3.106   2.143   4.497  0.0712  0.4521 -0.1115
 3131SOL    HW121029   3.040   2.179   4.556  1.4761  1.7497  0.6590
 3131SOL    HW221030   3.176   2.108   4.552  2.0884  2.6835 -1.2134
 3132SOL     OW21031   2.637   2.891   5.137  0.6595 -0.1850  0.8943
 3132SOL    HW121032   2.658   2.985   5.132  0.3690 -0.0709  1.8483
 3132SOL    HW221033   2.589   2.882   5.055  1.6053  0.2927  0.2754
 3133SOL     OW21034   2.579   4.560   1.281  0.1870 -0.6677  0.2519
 3133SOL    HW121035   2.579   4.600   1.368  0.0241  0.4754 -0.2784
 3133SOL    HW221036   2.492   4.588   1.253  0.5883  0.2263 -0.0841
 3134SOL     OW21037   3.023   1.285   9.270  0.2449  0.3739  0.4827
 3134SOL    HW121038   3.079   1.214   9.300  1.1426  0.6982 -0.4094
 3134SOL    HW221039   2.963   1.239   9.211 -0.8142  1.6675  0.5321
 3135SOL     OW21040   0.822   0.302  17.463 -0.0316 -0.3293  0.4601
 3135SOL    HW121041   0.878   0.289  17.540 -0.7346 -3.3142  0.4946
 3135SOL    HW221042   0.740   0.331  17.504  0.4019 -0.6100  1.5262
 3136SOL     OW21043   0.138   1.982   5.151 -0.9855  0.3903  0.0524
 3136SOL    HW121044   0.075   1.914   5.126 -0.5169  0.2312 -0.6857
 3136SOL    HW221045   0.113   2.001   5.242 -0.0244  1.6287  0.0443
 3137SOL     OW21046   0.777   2.775  16.629 -0.2697  0.5013  0.0702
 3137SOL    HW121047   0.833   2.848  16.603 -0.1759  0.0834 -0.9328
 3137SOL    HW221048   0.839   2.712  16.666  0.8307  2.3209  1.3084
 3138SOL     OW21049   3.571   1.731   1.753  0.5230 -0.3866  0.1991
 3138SOL    HW121050   3.649   1.770   1.794  2.1149 -1.9024 -1.3586
 3138SOL    HW221051   3.514   1.807   1.760 -0.6726 -1.2693  0.0794
 3139SOL     OW21052   0.458   2.436   6.492 -0.1089 -0.5508  0.2282
 3139SOL    HW121053   0.539   2.488   6.497  0.3471 -1.1280 -1.2900
 3139SOL    HW221054   0.418   2.434   6.579 -0.8790  0.2309 -0.1122
 3140SOL     OW21055   2.721   4.010   5.466 -0.3817  0.4003  0.9211
 3140SOL    HW121056   2.762   3.998   5.551  1.2750  0.6920  0.1585
 3140SOL    HW221057   2.735   4.104   5.456  1.7549  0.0154  0.4426
 3141SOL     OW21058   2.144   0.632   4.445 -0.0926 -0.4589  0.3140
 3141SOL    HW121059   2.065   0.646   4.394  0.5108  0.7368 -0.2935
 3141SOL    HW221060   2.142   0.704   4.508  1.0966 -0.6820  0.6059
 3142SOL     OW21061   2.886   2.367   6.237  0.6933  0.3944 -0.9649
 3142SOL    HW121062   2.977   2.348   6.211  0.9389 -1.1468  1.0466
 3142SOL    HW221063   2.863   2.295   6.296  0.6578 -0.1080 -1.5896
 3143SOL     OW21064   2.096   1.351   9.574  0.1447  0.0952 -0.1161
 3143SOL    HW121065   2.094   1.407   9.496  2.2531 -0.4116 -0.5361
 3143SOL    HW221066   2.051   1.273   9.543 -1.6541  0.4732  1.5511
 3144SOL     OW21067   1.363   1.048   6.271 -0.0993  0.2474  0.4051
 3144SOL    HW121068   1.407   0.963   6.274 -0.4338  0.1340  2.1363
 3144SOL    HW221069   1.301   1.026   6.202 -0.1368  0.7075  0.2869
 3145SOL     OW21070   1.610   2.879  15.294  0.2071  0.7652  0.0142
 3145SOL    HW121071   1.550   2.922  15.355  1.3663  0.3148  1.4607
 3145SOL    HW221072   1.550   2.858  15.222 -1.5602  1.7058  1.2058
 3146SOL     OW21073   1.227   3.331   5.552 -0.2123 -0.1230 -0.2630
 3146SOL    HW121074   1.253   3.401   5.613  1.0508 -0.9972  0.1904
 3146SOL    HW221075   1.165   3.289   5.611 -1.3983  1.4975 -0.3286
 3147SOL     OW21076   1.956   0.102   3.093  0.2520 -0.0285  0.5721
 3147SOL    HW121077   1.945   0.128   3.002  0.1614 -0.1349  0.5522
 3147SOL    HW221078   1.981   0.189   3.123 -1.0063 -0.2373  2.2265
 3148SOL     OW21079   4.000   0.309   4.340 -0.1135  0.2562 -0.2547
 3148SOL    HW121080   3.999   0.369   4.415  1.9156 -0.0053 -0.0161
 3148SOL    HW221081   3.921   0.333   4.291 -0.0748  0.6392 -0.1335
 3149SOL     OW21082   3.620   0.253  11.572  0.6636 -0.3988 -0.0825
 3149SOL    HW121083   3.690   0.206  11.618  1.1279 -0.0635 -0.4404
 3149SOL    HW221084   3.666   0.263  11.489 -0.2886 -0.6034 -0.6215
 3150SOL     OW21085   3.295   0.538   2.581  0.2401  0.3793  0.1721
 3150SOL    HW121086   3.315   0.445   2.572 -0.4389  0.3082 -0.5639
 3150SOL    HW221087   3.343   0.571   2.506  0.1557  1.9952  0.8201
 3151SOL     OW21088   4.422   0.043   2.520  0.2978 -0.3159 -0.2188
 3151SOL    HW121089   4.471   0.115   2.561 -3.0051  1.1396  1.1193
 3151SOL    HW221090   4.393   0.087   2.440  1.8817  1.6164  0.2577
 3152SOL     OW21091   3.963   0.826   8.250  0.2642  0.1744 -0.1287
 3152SOL    HW121092   3.908   0.903   8.237  0.9684  1.2678  3.3224
 3152SOL    HW221093   3.998   0.838   8.339 -2.8408 -3.2572  1.5294
 3153SOL     OW21094   1.115   1.863   4.432 -0.3533 -0.1537  0.0811
 3153SOL    HW121095   1.030   1.897   4.462 -0.9286  1.0414 -2.8906
 3153SOL    HW221096   1.159   1.846   4.515  0.4713  0.5953 -0.2052
 3154SOL     OW21097   2.420   3.393   4.861  0.3812  0.1511 -0.0846
 3154SOL    HW121098   2.435   3.355   4.774 -1.4277  0.5558 -0.5922
 3154SOL    HW221099   2.355   3.335   4.901 -1.2227  1.9118 -0.0927
 3155SOL     OW21100   1.461   4.638  12.266 -0.2063 -0.3056  0.0901
 3155SOL    HW121101   1.480   4.575  12.335 -0.6418 -0.8618 -0.3009
 3155SOL    HW221102   1.467   4.586  12.186  0.1981  0.8429 -0.6362
 3156SOL     OW21103   1.485   2.150   7.705 -0.2157 -0.3237  0.1363
 3156SOL    HW121104   1.567   2.100   7.699 -1.1796 -1.7506 -1.2103
 3156SOL    HW221105   1.436   2.087   7.758 -0.8672 -0.0600 -0.1605
 3157SOL     OW21106   1.210   1.507   5.343  0.0701  0.4098 -0.0029
 3157SOL    HW121107   1.123   1.547   5.332 -1.7552 -3.4976  0.2756
 3157SOL    HW221108   1.188   1.420   5.309  0.6582  0.0341  0.5828
 3158SOL     OW21109   1.695   4.412   6.231  0.8906  0.1079  0.1611
 3158SOL    HW121110   1.735   4.353   6.295  1.2824 -0.4556 -0.5965
 3158SOL    HW221111   1.690   4.358   6.152 -0.5499  0.7647 -0.2056
 3159SOL     OW21112   3.550   3.745   8.301 -0.1981 -0.0020 -0.5206
 3159SOL    HW121113   3.493   3.794   8.242 -1.3672  0.3308  0.8620
 3159SOL    HW221114   3.556   3.666   8.247  1.2394  0.8758 -1.6310
 3160SOL     OW21115   3.785   2.973   2.707  0.2371 -0.1490  0.1438
 3160SOL    HW121116   3.858   2.933   2.754 -1.8649 -2.0195  1.7915
 3160SOL    HW221117   3.831   3.031   2.645  0.5272  0.1087  0.5966
 3161SOL     OW21118   2.923   2.233  13.369  0.4823  0.0380 -0.5981
 3161SOL    HW121119   3.008   2.269  13.343  1.7592 -1.7059  1.1185
 3161SOL    HW221120   2.890   2.296  13.433  0.9977 -1.4151  1.1001
 3162SOL     OW21121   2.191   4.199   5.132 -0.4357 -0.8335 -0.4488
 3162SOL    HW121122   2.257   4.170   5.069 -0.5786 -1.0154 -0.5142
 3162SOL    HW221123   2.150   4.277   5.094 -3.5958 -2.1899  0.2557
 3163SOL     OW21124   0.169   4.061   3.733 -0.1757 -0.4030  0.3682
 3163SOL    HW121125   0.220   4.020   3.802 -0.3093 -0.6727  0.3059
 3163SOL    HW221126   0.195   4.153   3.738 -1.5008 -0.0370  0.6236
 3164SOL     OW21127   0.656   3.300   4.823 -0.2042  0.6546 -0.0775
 3164SOL    HW121128   0.614   3.298   4.909 -0.4406 -0.6258 -0.2194
 3164SOL    HW221129   0.729   3.356   4.849  1.0879 -1.6675  1.3175
 3165SOL     OW21130   1.438   3.531  16.709  0.3491  0.4896  0.2462
 3165SOL    HW121131   1.473   3.517  16.621 -2.1051 -1.4559 -0.3899
 3165SOL    HW221132   1.476   3.460  16.761  0.3255 -0.6098 -1.2383
 3166SOL     OW21133   0.522   3.797  12.348  0.0085 -1.0029  0.1529
 3166SOL    HW121134   0.616   3.793  12.359  0.2272  0.5687 -1.0119
 3166SOL    HW221135   0.508   3.745  12.268 -1.4548 -1.3886  0.6496
 3167SOL     OW21136   0.408   3.600   3.125  0.3448  0.4825 -0.1459
 3167SOL    HW121137   0.461   3.680   3.122 -0.2216  0.8719  0.3989
 3167SOL    HW221138   0.412   3.594   3.220 -0.0973 -0.0650 -0.1584
 3168SOL     OW21139   0.156   1.962  11.265  0.3799 -0.0230 -0.5581
 3168SOL    HW121140   0.223   1.902  11.232  0.5727 -0.9537  1.5380
 3168SOL    HW221141   0.080   1.909  11.241 -0.5290  0.8294  0.4171
 3169SOL     OW21142   0.139   0.639  11.778  0.0437 -0.0953  0.4111
 3169SOL    HW121143   0.079   0.657  11.851 -0.9181  0.3573 -0.4816
 3169SOL    HW221144   0.217   0.618  11.830 -0.5578 -1.3807  0.8078
 3170SOL     OW21145   0.929   4.370   5.203 -0.1155  0.0365  0.3120
 3170SOL    HW121146   0.991   4.428   5.249  1.3576 -1.2935  0.0257
 3170SOL    HW221147   0.914   4.428   5.129  1.1977  0.8233  0.6549
 3171SOL     OW21148   2.696   0.851   6.186  0.3314 -0.0937 -0.1071
 3171SOL    HW121149   2.740   0.931   6.157  0.1298  0.5892  1.4391
 3171SOL    HW221150   2.604   0.866   6.163  0.1925 -0.0950  0.4370
 3172SOL     OW21151   2.115   0.763  16.172 -0.2442  0.7262  0.2677
 3172SOL    HW121152   2.099   0.693  16.109  2.1973  1.0233 -0.6864
 3172SOL    HW221153   2.141   0.830  16.109  1.3144 -0.1578 -0.0290
 3173SOL     OW21154   2.438   1.057   3.458  0.1473  0.0740  0.0274
 3173SOL    HW121155   2.514   1.043   3.515 -0.6585 -0.3077  1.0122
 3173SOL    HW221156   2.380   1.089   3.527 -0.2582  0.2728 -0.4041
 3174SOL     OW21157   4.670   4.657  15.556 -0.1455  0.1650 -0.3766
 3174SOL    HW121158   4.669   4.583  15.617 -0.4321  0.5310  0.0630
 3174SOL    HW221159   0.025   4.680  15.565 -0.1331  0.9089 -2.3786
 3175SOL     OW21160   2.556   1.760   8.671 -0.2138 -0.1224  0.3663
 3175SOL    HW121161   2.616   1.710   8.727  0.4817 -1.1277 -1.2843
 3175SOL    HW221162   2.505   1.805   8.739  1.4053  1.2171  0.6974
 3176SOL     OW21163   1.251   0.414  10.033 -0.2329 -0.0163 -0.4215
 3176SOL    HW121164   1.205   0.498  10.028  2.2603  1.4365  0.7434
 3176SOL    HW221165   1.177   0.353  10.032 -1.0274  0.9354  0.2557
 3177SOL     OW21166   0.389   4.301   1.563 -0.0363 -0.2682 -0.1077
 3177SOL    HW121167   0.408   4.386   1.523  0.3067 -0.0739  0.4801
 3177SOL    HW221168   0.317   4.268   1.508  0.4066 -0.9844 -0.2546
 3178SOL     OW21169   0.059   2.970   4.161 -0.6537 -0.4746 -0.2569
 3178SOL    HW121170   0.138   3.021   4.144 -0.1558 -0.2617  2.5795
 3178SOL    HW221171   0.062   2.975   4.257  2.2464 -0.4207 -0.3745
 3179SOL     OW21172   1.186   1.549   4.387  0.5955 -0.5220  0.2927
 3179SOL    HW121173   1.144   1.635   4.394 -0.4624 -1.0706  0.5162
 3179SOL    HW221174   1.246   1.569   4.315 -0.6602  0.6742 -0.4262
 3180SOL     OW21175   3.858   2.834   3.244  0.3147 -0.5166 -0.4378
 3180SOL    HW121176   3.827   2.760   3.296 -0.6092 -0.6447 -1.1647
 3180SOL    HW221177   3.799   2.907   3.267  1.2561  0.3782 -0.8584
 3181SOL     OW21178   1.342   1.292   8.133  0.8894 -0.3087  0.1817
 3181SOL    HW121179   1.380   1.379   8.120 -0.8576  0.4041 -0.1821
 3181SOL    HW221180   1.382   1.231   8.071 -0.7379 -2.3138  1.1258
 3182SOL     OW21181   2.041   4.246   4.063 -0.4523  0.1164 -0.6984
 3182SOL    HW121182   2.005   4.242   3.974 -2.9330  0.2391  0.3071
 3182SOL    HW221183   1.977   4.296   4.113  2.1175 -1.6138  4.2559
 3183SOL     OW21184   1.465   3.093   2.061 -0.4682 -0.3111  0.0341
 3183SOL    HW121185   1.374   3.105   2.035 -0.3108 -0.8198 -0.7633
 3183SOL    HW221186   1.507   3.084   1.975 -0.8618 -1.8074  0.0015
 3184SOL     OW21187   0.268   0.846   6.999  0.5750  0.0437 -0.1090
 3184SOL    HW121188   0.334   0.812   7.060 -0.1914  0.5166  0.9617
 3184SOL    HW221189   0.197   0.788   7.025  0.0657  0.5439 -0.3989
 3185SOL     OW21190   4.105   0.675   2.448  0.3248 -0.0599 -0.1391
 3185SOL    HW121191   4.073   0.685   2.537  0.2152 -1.2248 -0.0525
 3185SOL    HW221192   4.110   0.764   2.414  0.2194  1.2081  3.2179
 3186SOL     OW21193   0.513   1.606   3.900 -0.1903  0.2572  0.1015
 3186SOL    HW121194   0.422   1.618   3.873  0.2240  2.0673 -0.4633
 3186SOL    HW221195   0.484   1.594   3.991  0.9900 -1.1500  0.2921
 3187SOL     OW21196   1.066   0.866   3.083  0.5400 -0.2290 -0.0174
 3187SOL    HW121197   0.986   0.896   3.039  0.2812 -0.6410  0.1613
 3187SOL    HW221198   1.088   0.802   3.015  1.2266 -0.1778  0.1601
 3188SOL     OW21199   4.298   3.639   4.643 -0.0761 -1.0033 -0.8698
 3188SOL    HW121200   4.329   3.637   4.552 -2.2761  1.6708 -1.6543
 3188SOL    HW221201   4.353   3.707   4.681 -1.2078  0.3910 -1.7171
 3189SOL     OW21202   2.503   3.269   8.489 -0.5830  0.5545 -0.4681
 3189SOL    HW121203   2.585   3.261   8.441 -1.5982 -1.5302 -1.8479
 3189SOL    HW221204   2.508   3.178   8.520  0.8114  0.3495 -1.3085
 3190SOL     OW21205   2.650   0.790  13.387 -0.5217 -0.1175 -0.2733
 3190SOL    HW121206   2.717   0.766  13.322 -2.0575 -1.9513 -1.1751
 3190SOL    HW221207   2.667   0.879  13.417  1.6301 -0.0155 -1.7634
 3191SOL     OW21208   1.127   3.759   4.617 -0.3410 -0.4136  0.2259
 3191SOL    HW121209   1.121   3.664   4.625  1.5229 -0.6200 -0.9293
 3191SOL    HW221210   1.140   3.762   4.522 -1.9112  2.7704  0.1128
 3192SOL     OW21211   1.307   1.174   5.914  0.6387  0.0769 -0.4188
 3192SOL    HW121212   1.268   1.114   5.978  0.1731  0.6571 -0.1598
 3192SOL    HW221213   1.302   1.120   5.835  1.1015 -0.5109 -0.0467
 3193SOL     OW21214   1.284   0.272   4.111 -0.4916 -0.1615  0.0117
 3193SOL    HW121215   1.200   0.257   4.067  0.0785 -0.3522 -1.0208
 3193SOL    HW221216   1.256   0.282   4.202 -2.9952  0.0946 -0.7905
 3194SOL     OW21217   4.315   3.050   1.593 -0.1714  0.1130 -0.0736
 3194SOL    HW121218   4.398   3.017   1.627 -1.7939 -0.9844  2.7963
 3194SOL    HW221219   4.326   3.142   1.619  0.1583  0.6222 -1.9492
 3195SOL     OW21220   3.726   2.136   6.343 -0.2906 -0.0774  0.3653
 3195SOL    HW121221   3.672   2.107   6.268 -0.1324  0.6368 -0.0208
 3195SOL    HW221222   3.673   2.094   6.411 -2.2776 -0.1041 -1.2113
 3196SOL     OW21223   2.200   2.959   3.993  0.7460  0.4721  0.5800
 3196SOL    HW121224   2.291   2.939   4.015  0.4857 -3.1823 -1.6915
 3196SOL    HW221225   2.154   2.882   4.026 -0.9438  0.0127 -2.9107
 3197SOL     OW21226   1.718   3.591   9.468  0.4158  1.4652  0.2889
 3197SOL    HW121227   1.728   3.535   9.391  0.7222  0.4287  1.0714
 3197SOL    HW221228   1.653   3.656   9.443  0.6460  1.8594  0.6995
 3198SOL     OW21229   4.590   3.816   2.152  0.1269 -0.2182 -0.4032
 3198SOL    HW121230   4.650   3.881   2.186 -1.3972 -0.0743  1.9685
 3198SOL    HW221231   4.614   3.743   2.208 -0.1187  0.7358  0.9263
 3199SOL     OW21232   3.832   1.099   9.355 -0.0851  0.0861  0.4669
 3199SOL    HW121233   3.890   1.064   9.287  1.2323  1.1282  1.0328
 3199SOL    HW221234   3.814   1.024   9.411 -0.9205 -0.6119 -0.7441
 3200SOL     OW21235   2.191   3.474   2.618  0.1194 -0.0985 -0.3689
 3200SOL    HW121236   2.113   3.432   2.656 -0.7324  1.9988  0.1923
 3200SOL    HW221237   2.148   3.510   2.540 -0.9984 -1.7139 -0.5246
 3201SOL     OW21238   1.846   0.620   6.898  0.1364 -0.0510 -0.4157
 3201SOL    HW121239   1.907   0.642   6.969  0.7706 -5.0012  0.5290
 3201SOL    HW221240   1.795   0.700   6.911  0.0974 -0.7251  3.5929
 3202SOL     OW21241   4.518   3.617   6.915 -0.2573  0.3786  0.3971
 3202SOL    HW121242   4.426   3.591   6.914  0.4900 -2.3083  0.0001
 3202SOL    HW221243   4.517   3.667   6.833 -0.1732  1.6783  1.1877
 3203SOL     OW21244   0.774   4.585   7.528  0.7314 -0.2002  0.7303
 3203SOL    HW121245   0.752   4.674   7.501 -0.4384 -0.6818  0.1113
 3203SOL    HW221246   0.865   4.575   7.502  1.4400  2.8463  2.0329
 3204SOL     OW21247   2.786   4.524   3.615 -0.6261 -0.4721 -0.5151
 3204SOL    HW121248   2.825   4.449   3.660 -0.3119 -0.3378 -0.5616
 3204SOL    HW221249   2.793   4.584   3.689 -2.7818 -0.3262 -0.4458
 3205SOL     OW21250   1.571   3.683  13.544  0.9464  0.2741 -0.1900
 3205SOL    HW121251   1.551   3.703  13.635 -2.3865  1.4357 -1.1997
 3205SOL    HW221252   1.489   3.694  13.497  0.2095 -1.6966  0.6653
 3206SOL     OW21253   2.131   3.580   5.087 -0.4661 -0.0162 -0.1547
 3206SOL    HW121254   2.152   3.503   5.035 -0.9110  1.5366 -2.5898
 3206SOL    HW221255   2.056   3.618   5.042  0.8076  2.0153 -0.5543
 3207SOL     OW21256   2.212   2.366   2.876 -0.5113 -0.1238 -0.3243
 3207SOL    HW121257   2.308   2.361   2.877 -0.5912 -0.8269  2.9966
 3207SOL    HW221258   2.212   2.454   2.838 -0.2605 -0.1204 -0.3184
 3208SOL     OW21259   4.398   3.030   5.973 -0.0705  0.2846 -0.1984
 3208SOL    HW121260   4.342   2.975   6.028  0.4935 -0.0548  0.0424
 3208SOL    HW221261   4.476   2.974   5.973  0.9365  1.6856  0.2333
 3209SOL     OW21262   0.254   3.119   4.024 -0.1673 -0.4163 -0.3056
 3209SOL    HW121263   0.340   3.083   4.043  0.0119 -0.1567 -0.6259
 3209SOL    HW221264   0.250   3.118   3.929 -1.4088 -1.0513 -0.2457
 3210SOL     OW21265   1.274   2.182   2.930  0.4377  0.1367 -0.1847
 3210SOL    HW121266   1.198   2.168   2.874  0.3393 -1.0586  0.2322
 3210SOL    HW221267   1.274   2.105   2.988 -0.7225 -0.2433 -0.6844
 3211SOL     OW21268   1.195   2.226   9.465  0.2541  0.0040 -0.1587
 3211SOL    HW121269   1.254   2.285   9.511 -0.4478  0.2724  0.4008
 3211SOL    HW221270   1.235   2.146   9.501  0.8130  1.4305  2.3704
 3212SOL     OW21271   1.918   3.526  12.183  0.1125 -0.2726 -0.1418
 3212SOL    HW121272   1.866   3.466  12.129  3.1218  0.0865 -3.5045
 3212SOL    HW221273   1.898   3.469  12.258  1.8974  0.1685  0.6853
 3213SOL     OW21274   3.150   2.002   2.451 -0.0374  0.6304 -0.0777
 3213SOL    HW121275   3.243   2.016   2.470  0.0527  1.9417 -1.5038
 3213SOL    HW221276   3.149   1.975   2.359 -1.7262  0.5784 -0.0515
 3214SOL     OW21277   1.245   2.116  11.934 -0.0410 -0.0408 -0.5507
 3214SOL    HW121278   1.339   2.131  11.936 -0.1210  0.2514  0.7480
 3214SOL    HW221279   1.219   2.117  11.842  0.1595 -0.5342 -0.6128
 3215SOL     OW21280   1.287   1.960   1.963 -0.4094  0.8409 -0.0057
 3215SOL    HW121281   1.378   1.945   1.987 -0.2800  0.6815 -0.5947
 3215SOL    HW221282   1.250   1.982   2.049 -1.4781  0.0038 -0.2543
 3216SOL     OW21283   1.833   0.593   6.091  0.0302  0.2227  0.0192
 3216SOL    HW121284   1.851   0.588   5.997  0.5043 -1.7145  0.2044
 3216SOL    HW221285   1.896   0.538   6.137  1.8721  0.5115 -2.1501
 3217SOL     OW21286   2.842   0.646   6.330  0.7865 -0.2549 -0.1250
 3217SOL    HW121287   2.775   0.628   6.396  2.4122  0.9294  1.8500
 3217SOL    HW221288   2.800   0.710   6.272  2.6940 -1.3954 -2.7633
 3218SOL     OW21289   1.564   0.101   2.443 -0.2931  0.0643 -0.2272
 3218SOL    HW121290   1.475   0.108   2.478 -0.1843  0.2366  0.0196
 3218SOL    HW221291   1.548   0.122   2.351 -1.4743  0.5815  0.0927
 3219SOL     OW21292   3.215   2.079  17.649  0.6119 -0.5355  0.2896
 3219SOL    HW121293   3.127   2.074  17.612  0.6268 -1.6195  0.4099
 3219SOL    HW221294   3.260   2.138  17.588  0.3425 -0.4969  0.1296
 3220SOL     OW21295   2.803   2.606   5.790  0.3032  0.0020  0.2904
 3220SOL    HW121296   2.898   2.591   5.789  0.6591  2.3677  0.3927
 3220SOL    HW221297   2.795   2.699   5.772 -0.7722  0.3422  2.6193
 3221SOL     OW21298   3.630   0.871   3.319 -0.0220  0.4059  0.4419
 3221SOL    HW121299   3.700   0.806   3.318 -0.9342 -0.5806  1.0112
 3221SOL    HW221300   3.628   0.897   3.411 -1.1317  0.1716  0.4879
 3222SOL     OW21301   1.272   0.383   5.690  0.8724 -0.1848  0.3221
 3222SOL    HW121302   1.356   0.422   5.666 -0.1921  1.6795 -0.3446
 3222SOL    HW221303   1.213   0.457   5.678  0.9059 -0.1870  0.1497
 3223SOL     OW21304   1.999   3.384   0.626 -0.1101 -0.5527  0.1754
 3223SOL    HW121305   1.936   3.320   0.661 -2.0512  1.3454  0.1369
 3223SOL    HW221306   2.027   3.426   0.708 -0.2077  0.7813 -0.4807
 3224SOL     OW21307   1.797   0.758  14.133 -0.2708  0.1458  0.0277
 3224SOL    HW121308   1.767   0.798  14.051  2.1455 -0.5314 -1.1949
 3224SOL    HW221309   1.860   0.697  14.094 -0.6936 -0.4585  0.2956
 3225SOL     OW21310   1.211   3.027  16.278  0.4263 -0.2300  0.2035
 3225SOL    HW121311   1.279   3.095  16.283  1.0083 -0.7091 -1.2540
 3225SOL    HW221312   1.142   3.080  16.317  0.6283  0.3605 -0.2379
 3226SOL     OW21313   3.682   3.341   6.464  0.3287  0.3625  0.2858
 3226SOL    HW121314   3.771   3.371   6.446 -0.1812  1.2651 -0.7638
 3226SOL    HW221315   3.642   3.406   6.523  0.3363 -1.0674  1.8781
 3227SOL     OW21316   1.258   2.540   1.865  0.3529 -0.0275 -0.0686
 3227SOL    HW121317   1.330   2.490   1.902  0.6959  0.3894 -0.1673
 3227SOL    HW221318   1.259   2.502   1.777  0.2117 -1.6538  0.6451
 3228SOL     OW21319   2.640   0.093   4.043  0.0552 -0.3277 -0.0817
 3228SOL    HW121320   2.569   0.101   4.107  0.0632  1.8633 -0.3684
 3228SOL    HW221321   2.629   4.737   4.023 -0.2137 -0.4319  0.5742
 3229SOL     OW21322   3.368   4.598   9.731 -0.4420  0.6001  0.3356
 3229SOL    HW121323   3.307   4.636   9.793  0.7771  1.8443  0.7778
 3229SOL    HW221324   3.396   4.679   9.688 -1.1744  0.7616  0.1752
 3230SOL     OW21325   0.475   0.066   5.170  0.3534 -0.2053  0.0012
 3230SOL    HW121326   0.413   0.034   5.105  0.1895 -0.3336  0.2206
 3230SOL    HW221327   0.427   0.139   5.210 -1.2295  0.1394 -2.5421
 3231SOL     OW21328   4.476   3.542   9.583  0.1561  0.0366  0.2880
 3231SOL    HW121329   4.402   3.499   9.542  0.2559 -2.3697  2.6458
 3231SOL    HW221330   4.513   3.466   9.628  0.2415 -1.7276 -2.8260
 3232SOL     OW21331   1.775   0.737   5.775 -0.0415 -0.2302  0.0729
 3232SOL    HW121332   1.709   0.740   5.706 -0.4789 -1.0977  0.4564
 3232SOL    HW221333   1.849   0.706   5.722 -0.8555 -0.5485 -0.8725
 3233SOL     OW21334   2.944   2.418   4.083 -0.0442  0.6813 -0.1038
 3233SOL    HW121335   2.892   2.351   4.128 -0.4446  1.3894  0.4901
 3233SOL    HW221336   3.032   2.381   4.084  0.9129  2.9618  1.2411
 3234SOL     OW21337   4.381   2.458   5.526  0.4301  0.8227  0.1720
 3234SOL    HW121338   4.349   2.527   5.468  0.7126  0.2412 -0.6801
 3234SOL    HW221339   4.317   2.458   5.597  2.3455 -2.6024  1.8934
 3235SOL     OW21340   1.092   1.912   7.616 -0.4723 -0.1369 -0.2635
 3235SOL    HW121341   1.167   1.853   7.621 -0.8025 -0.2453  2.9809
 3235SOL    HW221342   1.013   1.868   7.646 -0.9817  2.2186  1.8254
 3236SOL     OW21343   3.549   1.346  16.845 -1.3735 -0.1096  0.0712
 3236SOL    HW121344   3.544   1.251  16.851  2.6980 -0.3502 -0.4707
 3236SOL    HW221345   3.581   1.350  16.755  0.6355 -0.2498  0.7818
 3237SOL     OW21346   0.135   1.805   3.683 -0.2287 -0.0047 -0.5515
 3237SOL    HW121347   0.050   1.777   3.649 -0.7311  0.0066  0.6968
 3237SOL    HW221348   0.191   1.754   3.624  1.5553  2.4452 -0.9464
 3238SOL     OW21349   1.520   3.728  15.542  0.4296  0.4060 -0.0396
 3238SOL    HW121350   1.451   3.712  15.607  1.9937  0.5516  1.6748
 3238SOL    HW221351   1.578   3.655  15.564  2.0546  1.8052  0.2858
 3239SOL     OW21352   3.066   2.448   6.840  0.2821 -0.4204 -0.0625
 3239SOL    HW121353   3.097   2.520   6.785 -3.6359  0.0592 -1.6821
 3239SOL    HW221354   3.113   2.472   6.919  0.8380  0.7214 -0.7498
 3240SOL     OW21355   2.381   0.366   9.333 -0.3137  0.0851 -0.2515
 3240SOL    HW121356   2.391   0.275   9.362  0.1308  0.3550  0.4256
 3240SOL    HW221357   2.338   0.400   9.411  1.4434  0.4773  0.5472
 3241SOL     OW21358   2.022   1.916   9.050 -0.0824 -0.1037 -0.5783
 3241SOL    HW121359   2.009   1.835   9.100  1.9192 -0.1730 -0.1892
 3241SOL    HW221360   2.057   1.875   8.971 -1.8617 -0.5698 -1.1442
 3242SOL     OW21361   1.761   0.437   6.365  0.0190 -0.4342  0.1755
 3242SOL    HW121362   1.763   0.403   6.455 -2.1031 -0.5697  0.1666
 3242SOL    HW221363   1.798   0.363   6.316  0.8232 -0.6060  1.0300
 3243SOL     OW21364   1.742   3.951   6.208  0.4353 -0.1782 -0.1137
 3243SOL    HW121365   1.711   3.928   6.296  1.6206  0.7593  0.5425
 3243SOL    HW221366   1.791   3.871   6.185  0.6484 -0.3336  0.8595
 3244SOL     OW21367   0.506   0.071   1.960 -0.0132  0.3190  0.1781
 3244SOL    HW121368   0.599   0.050   1.962 -0.4320 -1.7064 -2.2004
 3244SOL    HW221369   0.481   0.071   2.053  1.0727 -0.5432  0.4651
 3245SOL     OW21370   1.230   4.354   1.813 -0.7920 -0.0657  0.2190
 3245SOL    HW121371   1.297   4.422   1.811 -2.0521  1.2133  2.1497
 3245SOL    HW221372   1.168   4.390   1.749 -0.7752 -2.6533 -1.2531
 3246SOL     OW21373   2.036   0.785   6.054  0.5622  0.2537 -0.0377
 3246SOL    HW121374   2.049   0.805   5.961 -0.7776  1.1575 -0.0353
 3246SOL    HW221375   2.096   0.711   6.065  0.3498  0.2898  1.2614
 3247SOL     OW21376   1.791   2.915  16.340  0.1885  0.3631 -0.4076
 3247SOL    HW121377   1.862   2.954  16.289  1.0492  0.9514  1.2319
 3247SOL    HW221378   1.821   2.935  16.429 -2.0775  1.8885  0.0041
 3248SOL     OW21379   4.713   4.379  14.377  0.6816 -0.1982  0.2454
 3248SOL    HW121380   4.691   4.401  14.468  0.3293 -1.4814  0.4749
 3248SOL    HW221381   0.059   4.332  14.389  0.5630 -0.0350  1.7233
 3249SOL     OW21382   1.803   2.859  17.175 -0.4695  0.1360 -0.0937
 3249SOL    HW121383   1.860   2.860  17.098 -0.9823 -1.1598 -0.4800
 3249SOL    HW221384   1.730   2.914  17.146  0.0102  2.0561  2.2749
 3250SOL     OW21385   2.355   2.093   4.848 -0.0997  0.1450  0.0175
 3250SOL    HW121386   2.280   2.034   4.849  0.2644 -0.3306 -0.5929
 3250SOL    HW221387   2.364   2.121   4.939  0.5690  1.5391 -0.4693
 3251SOL     OW21388   1.375   1.730   5.358  0.4208  0.0822 -0.3890
 3251SOL    HW121389   1.337   1.644   5.340 -1.1777  0.1776  2.5528
 3251SOL    HW221390   1.379   1.723   5.454  1.2162 -0.1542 -0.4329
 3252SOL     OW21391   1.668   1.104  15.511  0.0917 -0.1774  0.1714
 3252SOL    HW121392   1.724   1.050  15.455 -0.3781 -1.5830  1.0686
 3252SOL    HW221393   1.658   1.179  15.451  1.0368  0.3736  0.7127
 3253SOL     OW21394   3.528   0.270   3.949 -0.5547 -0.3747  0.3228
 3253SOL    HW121395   3.486   0.314   3.876 -1.2746 -2.0258 -0.2573
 3253SOL    HW221396   3.481   0.187   3.940 -2.3401  0.6885 -0.0363
 3254SOL     OW21397   0.070   1.445   1.994  0.5120  0.0148  0.0205
 3254SOL    HW121398   0.058   1.351   2.010 -0.6351  0.2141  0.3409
 3254SOL    HW221399   0.148   1.463   2.046 -0.3177 -0.2245  1.3470
 3255SOL     OW21400   4.288   0.636   9.023 -0.6482  0.2693  0.7753
 3255SOL    HW121401   4.269   0.567   8.959 -0.1952  0.0987  0.8228
 3255SOL    HW221402   4.357   0.678   8.972 -1.1388  0.4115  0.2334
 3256SOL     OW21403   3.085   0.881  17.684 -0.3420  0.6403 -0.1620
 3256SOL    HW121404   3.143   0.805  17.678 -1.9698 -0.3928 -2.8359
 3256SOL    HW221405   3.017   0.864  17.619  0.7392 -2.3273 -0.5466
 3257SOL     OW21406   0.347   2.925   6.817  0.3080  0.3649 -0.0687
 3257SOL    HW121407   0.349   2.866   6.892  0.4405  0.0315 -0.3353
 3257SOL    HW221408   0.440   2.944   6.808  0.4152  0.0856  0.4929
 3258SOL     OW21409   4.559   3.747   3.183  0.2547 -0.5762 -0.6092
 3258SOL    HW121410   4.473   3.723   3.149  0.1601  1.2999 -1.6775
 3258SOL    HW221411   4.571   3.714   3.272 -0.5944 -0.8987 -0.6111
 3259SOL     OW21412   1.567   4.641   3.286 -0.0671  0.2281  0.0595
 3259SOL    HW121413   1.543   4.548   3.285  0.4896  0.0890 -1.2029
 3259SOL    HW221414   1.527   4.670   3.204 -0.1346 -0.6317 -0.2177
 3260SOL     OW21415   3.728   0.162   5.009 -0.5307  0.3603  0.2782
 3260SOL    HW121416   3.783   0.118   5.073  2.0830 -0.2992 -2.4642
 3260SOL    HW221417   3.673   0.088   4.983  1.8591 -0.9596 -0.9491
 3261SOL     OW21418   1.576   0.923   6.477 -0.0220  0.1271  0.1478
 3261SOL    HW121419   1.615   0.858   6.536 -0.9521 -1.5384 -1.0947
 3261SOL    HW221420   1.535   0.866   6.413  1.4452 -0.0195 -0.6700
 3262SOL     OW21421   3.361   4.276  11.765  0.1520  0.2477  0.5009
 3262SOL    HW121422   3.431   4.265  11.702 -1.0323 -0.2799 -0.7261
 3262SOL    HW221423   3.406   4.326  11.833  0.9339 -0.3174  0.3965
 3263SOL     OW21424   0.841   1.685   4.665 -0.4106 -0.1688 -0.0319
 3263SOL    HW121425   0.841   1.590   4.655  0.3068 -0.1928  0.1849
 3263SOL    HW221426   0.935   1.702   4.675 -0.5918  1.2643 -0.7493
 3264SOL     OW21427   0.216   2.010   9.866  0.7092  0.0007 -0.4775
 3264SOL    HW121428   0.309   1.988   9.866  0.9569  1.0205 -2.0774
 3264SOL    HW221429   0.174   1.969   9.942 -0.3201  2.1369  0.0922
 3265SOL     OW21430   0.406   4.303   8.885  0.0195 -0.2516  1.8143
 3265SOL    HW121431   0.411   4.218   8.840  0.9679  0.3171  0.8591
 3265SOL    HW221432   0.424   4.269   8.973  1.7762  0.0558  1.5720
 3266SOL     OW21433   4.041   2.894   3.447  0.0408  0.0029 -0.2426
 3266SOL    HW121434   4.096   2.822   3.479  1.9221  1.5861  0.0708
 3266SOL    HW221435   3.977   2.851   3.390  1.1718 -4.8877  2.1505
 3267SOL     OW21436   2.347   4.397  14.936 -0.2756  1.0386  0.0314
 3267SOL    HW121437   2.310   4.314  14.968 -1.8757  1.3664 -0.9500
 3267SOL    HW221438   2.369   4.422  15.026 -1.5352 -0.1213  0.6695
 3268SOL     OW21439   3.338   3.428   4.589 -0.3211 -0.2117  0.5265
 3268SOL    HW121440   3.405   3.425   4.657  1.6932 -1.5754 -1.5591
 3268SOL    HW221441   3.295   3.510   4.617 -1.8599 -0.0552 -2.3295
 3269SOL     OW21442   4.026   0.651  11.884 -0.0583  0.4699 -0.1077
 3269SOL    HW121443   3.934   0.628  11.876  0.7015 -2.2091 -1.0413
 3269SOL    HW221444   4.015   0.746  11.879  0.6432  0.4591 -1.7027
 3270SOL     OW21445   4.080   0.447   9.579  0.0671 -0.3062  0.4441
 3270SOL    HW121446   3.993   0.452   9.539 -0.4422 -2.1172  1.3121
 3270SOL    HW221447   4.061   0.398   9.659 -1.7229 -0.9671 -0.3769
 3271SOL     OW21448   4.331   3.292   1.712 -0.1521  0.0803 -0.4676
 3271SOL    HW121449   4.243   3.329   1.704 -0.3038 -0.2485 -0.3276
 3271SOL    HW221450   4.343   3.284   1.806  1.5640 -0.6302 -0.7364
 3272SOL     OW21451   0.173   4.118   9.215  0.6102  0.2290 -0.5102
 3272SOL    HW121452   0.150   4.211   9.215 -0.4534 -0.0391  1.0539
 3272SOL    HW221453   0.155   4.095   9.306 -0.8690 -1.6331 -1.2687
 3273SOL     OW21454   3.197   2.130  12.637 -0.3368  0.1813 -0.1286
 3273SOL    HW121455   3.250   2.073  12.581  0.1156 -1.4170  1.9274
 3273SOL    HW221456   3.115   2.082  12.643  0.5031 -1.2323  0.1547
 3274SOL     OW21457   2.319   1.488   7.815  0.4021  0.2283  0.5740
 3274SOL    HW121458   2.361   1.552   7.758  0.9785 -1.0561 -0.4321
 3274SOL    HW221459   2.332   1.406   7.768  1.6070  0.7210  0.0672
 3275SOL     OW21460   4.297   4.348   9.845 -0.7399  0.3747 -0.2111
 3275SOL    HW121461   4.225   4.409   9.834  0.7360  2.1607 -0.0530
 3275SOL    HW221462   4.367   4.401   9.806  0.2905 -1.5021 -0.9212
 3276SOL     OW21463   4.656   0.826   1.553 -0.1144  0.3336  0.5132
 3276SOL    HW121464   4.598   0.764   1.599 -0.3585 -1.3602 -2.0875
 3276SOL    HW221465   4.627   0.910   1.588  0.8229  0.1668  1.7070
 3277SOL     OW21466   1.074   4.655   1.496 -0.1112  0.9000  0.2552
 3277SOL    HW121467   1.096   0.010   1.513  1.9007  0.7397 -1.4760
 3277SOL    HW221468   1.011   4.662   1.424  0.2065 -2.1956 -0.3262
 3278SOL     OW21469   4.212   1.380   3.589  0.0984  0.1693  0.1269
 3278SOL    HW121470   4.250   1.294   3.570 -1.9285 -0.1407 -2.4945
 3278SOL    HW221471   4.130   1.357   3.633  0.0859 -1.6920 -0.8459
 3279SOL     OW21472   1.706   3.437   9.921 -0.0482  0.3856 -0.0261
 3279SOL    HW121473   1.649   3.370   9.883 -0.7382  1.1944 -0.4345
 3279SOL    HW221474   1.666   3.453  10.006 -0.5242  0.9012 -0.3449
 3280SOL     OW21475   0.600   3.791   3.106 -0.2976  0.1518 -0.7768
 3280SOL    HW121476   0.689   3.795   3.142 -0.5401  1.0207 -0.2553
 3280SOL    HW221477   0.613   3.856   3.036 -4.4320 -1.6468 -3.2002
 3281SOL     OW21478   2.514   4.649  14.438  0.1827 -0.0213 -0.6360
 3281SOL    HW121479   2.426   4.679  14.463  0.2107  2.4416 -3.5013
 3281SOL    HW221480   2.539   4.622  14.526  1.4100 -2.4126 -1.7234
 3282SOL     OW21481   3.948   2.966  13.114 -0.1372  0.7421  0.2639
 3282SOL    HW121482   3.993   2.883  13.097  0.4861  1.2459 -0.5457
 3282SOL    HW221483   3.956   2.982  13.207  1.4805  0.7993  0.1085
 3283SOL     OW21484   0.038   2.399  13.759 -0.2868  0.2515 -0.5216
 3283SOL    HW121485   0.114   2.446  13.723  1.8101 -0.2162  3.2392
 3283SOL    HW221486   4.700   2.450  13.729 -1.9084 -1.5936  0.4425
 3284SOL     OW21487   1.902   4.076   2.612 -0.1283 -0.0867 -0.2603
 3284SOL    HW121488   1.974   4.054   2.670  2.4092  0.7432 -3.0820
 3284SOL    HW221489   1.954   4.119   2.544  0.7476  0.9885  1.1130
 3285SOL     OW21490   1.283   4.310   7.062  0.6815  0.0341 -0.0718
 3285SOL    HW121491   1.274   4.258   7.142 -0.1865  0.3061  0.0117
 3285SOL    HW221492   1.243   4.250   6.999 -3.2442  1.5960  0.8975
 3286SOL     OW21493   0.569   1.024   5.724 -0.1031 -0.0810 -0.3823
 3286SOL    HW121494   0.476   1.016   5.744 -0.1285 -2.0714 -1.2254
 3286SOL    HW221495   0.588   1.114   5.751  1.9622  0.0128 -2.0789
 3287SOL     OW21496   1.825   3.836   7.014  0.9512 -0.4879 -0.4285
 3287SOL    HW121497   1.853   3.837   6.922  0.5653  1.0021 -0.5313
 3287SOL    HW221498   1.732   3.821   7.001  0.6080  1.4253 -0.2599
 3288SOL     OW21499   2.665   0.660   5.029  0.0074 -0.1810  0.1952
 3288SOL    HW121500   2.638   0.595   4.964 -3.0550  2.2658 -0.9809
 3288SOL    HW221501   2.634   0.629   5.114 -1.1564  0.2668 -0.0606
 3289SOL     OW21502   3.616   3.415  12.924 -0.7378 -0.1493 -0.4842
 3289SOL    HW121503   3.656   3.480  12.980 -2.4780  2.2465 -2.0258
 3289SOL    HW221504   3.577   3.472  12.858 -3.0205  2.6564  3.2944
 3290SOL     OW21505   4.603   2.627   7.864 -0.3029  0.3282 -0.4452
 3290SOL    HW121506   4.622   2.661   7.951  0.1845  0.8498 -0.7501
 3290SOL    HW221507   4.555   2.699   7.823  1.2904  0.6439 -1.7978
 3291SOL     OW21508   3.127   1.894   7.381 -0.1491 -0.6635 -0.4422
 3291SOL    HW121509   3.174   1.837   7.321  1.3272  0.2988 -0.2012
 3291SOL    HW221510   3.134   1.967   7.320 -3.8124  0.9068  0.9933
 3292SOL     OW21511   4.133   0.922   2.381  0.2890 -0.0618  0.1297
 3292SOL    HW121512   4.207   0.909   2.440  0.0765 -2.9265 -0.1952
 3292SOL    HW221513   4.175   0.959   2.304 -0.5257  1.4634  0.4297
 3293SOL     OW21514   1.975   0.156   2.816 -0.0086 -0.4068  0.4903
 3293SOL    HW121515   1.908   0.163   2.748  3.1004  2.3822 -2.3268
 3293SOL    HW221516   2.052   0.152   2.759 -0.5100  2.6201 -0.4489
 3294SOL     OW21517   2.164   2.828  13.535 -0.5794  0.2924  0.0242
 3294SOL    HW121518   2.178   2.921  13.552  0.3947  0.3822 -1.2155
 3294SOL    HW221519   2.142   2.839  13.443  2.5011 -0.8793 -0.8659
 3295SOL     OW21520   1.416   1.826   6.227  0.6704 -0.3373  0.4086
 3295SOL    HW121521   1.478   1.861   6.291  1.6489 -0.6859 -0.3580
 3295SOL    HW221522   1.444   1.734   6.234 -0.5892 -0.8064 -0.8327
 3296SOL     OW21523   0.982   0.512   4.257 -0.4183  0.5562 -0.2185
 3296SOL    HW121524   1.014   0.506   4.167 -1.1198 -0.6611 -0.3769
 3296SOL    HW221525   0.977   0.606   4.274  1.5779  0.4289  1.0681
 3297SOL     OW21526   3.351   0.888   0.924 -0.0713 -0.3410 -0.6175
 3297SOL    HW121527   3.371   0.828   0.853 -0.6393 -0.8838 -0.3199
 3297SOL    HW221528   3.431   0.882   0.978  2.7163 -0.8294 -4.8213
 3298SOL     OW21529   1.161   4.319   3.325  0.4073 -0.9068 -0.2463
 3298SOL    HW121530   1.176   4.240   3.273 -0.3443  0.3279 -2.3360
 3298SOL    HW221531   1.205   4.378   3.264  0.8378  0.6412  1.5589
 3299SOL     OW21532   0.094   4.695   9.174  0.5078 -0.3662 -0.1349
 3299SOL    HW121533   0.109   0.048   9.200 -2.3153 -0.2243  0.9367
 3299SOL    HW221534   0.007   4.675   9.207 -0.4070  1.6559 -1.3892
 3300SOL     OW21535   1.342   0.429   1.889 -0.6854 -0.1792  0.1843
 3300SOL    HW121536   1.417   0.478   1.923 -0.4975 -0.3712  0.0446
 3300SOL    HW221537   1.367   0.389   1.805  1.0144 -1.3954  1.2641
 3301SOL     OW21538   4.320   3.640   3.616  0.1207 -0.2737  0.0627
 3301SOL    HW121539   4.256   3.698   3.576  0.0476  0.9171  1.9165
 3301SOL    HW221540   4.375   3.703   3.662  0.1378  0.0487 -0.4030
 3302SOL     OW21541   4.465   4.072   1.413  0.0855 -0.3248  0.6184
 3302SOL    HW121542   4.530   4.001   1.413  0.4009 -0.0379  1.7743
 3302SOL    HW221543   4.407   4.057   1.487  1.4814  0.4566  1.8658
 3303SOL     OW21544   2.893   3.147   2.852 -0.3228 -0.0657 -0.3959
 3303SOL    HW121545   2.979   3.170   2.818 -0.7735  1.5558 -0.4091
 3303SOL    HW221546   2.876   3.069   2.799 -1.9763 -1.1262  1.6796
 3304SOL     OW21547   1.087   1.586   8.134 -0.5034 -0.1129  0.1902
 3304SOL    HW121548   1.026   1.555   8.201  1.1605 -0.0838  1.6984
 3304SOL    HW221549   1.060   1.536   8.056 -1.2035  2.2905 -1.1185
 3305SOL     OW21550   3.755   3.993  15.200  0.0504  0.7115 -0.1964
 3305SOL    HW121551   3.814   4.052  15.153  0.9515  0.7913  1.0446
 3305SOL    HW221552   3.822   3.925  15.206  1.0488  1.6615 -0.5666
 3306SOL     OW21553   3.161   1.950  14.672 -0.0613  0.3034  0.0313
 3306SOL    HW121554   3.140   1.946  14.765 -2.6991  1.0744 -0.5156
 3306SOL    HW221555   3.200   1.863  14.663  1.3228  1.1926 -2.5621
 3307SOL     OW21556   0.950   2.980   3.830  0.4181 -0.5326 -0.1124
 3307SOL    HW121557   0.968   2.913   3.764  2.6831  1.0126 -1.0966
 3307SOL    HW221558   0.901   2.928   3.893 -0.8820  0.2931 -0.4463
 3308SOL     OW21559   1.856   1.268  17.627  0.0483 -0.4038  0.3206
 3308SOL    HW121560   1.792   1.209  17.588  2.9564 -2.1343 -1.7556
 3308SOL    HW221561   1.809   1.350  17.645  1.0927  0.1764  0.4316
 3309SOL     OW21562   0.450   1.774   9.318  0.4477 -0.1953  0.2472
 3309SOL    HW121563   0.515   1.777   9.388  1.1468  0.8358 -0.4482
 3309SOL    HW221564   0.368   1.790   9.364  0.4976 -0.7123  0.5180
 3310SOL     OW21565   2.858   0.313  10.409 -0.3667 -0.2242 -0.1357
 3310SOL    HW121566   2.951   0.296  10.393 -0.4135 -1.4646  0.8565
 3310SOL    HW221567   2.832   0.232  10.453  1.0223  0.2714  1.6160
 3311SOL     OW21568   2.065   1.934   6.864 -0.0032 -0.1929  0.1952
 3311SOL    HW121569   2.133   2.002   6.862 -1.1375  0.9022 -0.3416
 3311SOL    HW221570   2.083   1.901   6.952 -0.1344 -1.5856 -0.3042
 3312SOL     OW21571   4.021   0.047   4.411 -0.2775  0.3894 -0.2551
 3312SOL    HW121572   4.101   0.084   4.449 -0.9780  1.8652 -0.2496
 3312SOL    HW221573   3.977   0.125   4.378 -2.3688  0.3168  2.4295
 3313SOL     OW21574   3.282   1.267   3.630 -0.1534 -0.2651  0.4419
 3313SOL    HW121575   3.236   1.313   3.700  1.4039 -0.3873  1.5538
 3313SOL    HW221576   3.286   1.177   3.665 -0.2629 -0.6439 -0.5260
 3314SOL     OW21577   3.697   1.566   5.889  0.2369  0.4453 -0.3876
 3314SOL    HW121578   3.759   1.606   5.950  0.4255  1.2673 -1.1267
 3314SOL    HW221579   3.758   1.524   5.829  0.8859 -2.3589  2.2335
 3315SOL     OW21580   4.717   1.549   8.989  0.0849  0.2495  0.4385
 3315SOL    HW121581   0.068   1.584   8.999  0.6832 -0.6981 -1.4878
 3315SOL    HW221582   4.658   1.611   9.031  0.0062 -0.6702  1.7061
 3316SOL     OW21583   4.482   3.287   3.637  0.1180 -0.0757 -0.9537
 3316SOL    HW121584   4.404   3.237   3.663  0.5074 -0.2166 -0.0678
 3316SOL    HW221585   4.457   3.313   3.548  0.0718 -0.3428 -1.0182
 3317SOL     OW21586   1.282   4.397  12.724  0.1717  0.6429  0.2577
 3317SOL    HW121587   1.368   4.434  12.746  0.2115 -0.8465  2.6119
 3317SOL    HW221588   1.276   4.449  12.644  2.3789  1.4130  0.5725
 3318SOL     OW21589   1.134   4.435   9.633  0.0238 -0.3676  0.0194
 3318SOL    HW121590   1.129   4.351   9.588  0.5331 -1.0175  1.1942
 3318SOL    HW221591   1.212   4.433   9.688  0.2053 -1.3199 -0.2716
 3319SOL     OW21592   2.809   2.058   5.523  0.6545  0.2785 -0.4286
 3319SOL    HW121593   2.783   2.069   5.615  1.0482  1.4488 -0.4520
 3319SOL    HW221594   2.725   2.036   5.483  1.0039  0.0320 -1.0225
 3320SOL     OW21595   0.367   3.099   2.194 -0.3419 -0.1286 -0.5165
 3320SOL    HW121596   0.451   3.099   2.149  0.5880  1.8074  1.2212
 3320SOL    HW221597   0.386   3.149   2.274  0.1940 -1.3827  0.1378
 3321SOL     OW21598   4.253   1.309  16.493 -0.6317 -0.8588 -0.0865
 3321SOL    HW121599   4.268   1.331  16.401 -4.8116  3.1133  0.1898
 3321SOL    HW221600   4.159   1.319  16.506 -0.8718 -2.9255 -0.2521
 3322SOL     OW21601   2.326   2.839   8.745 -0.3312  0.5992 -0.1569
 3322SOL    HW121602   2.333   2.801   8.657 -1.4951 -0.9238  0.4147
 3322SOL    HW221603   2.408   2.800   8.776 -1.8319  1.2248  4.5914
 3323SOL     OW21604   4.333   2.192   4.001 -0.2092  0.2600 -0.2571
 3323SOL    HW121605   4.281   2.240   4.066  3.2887  0.1883  2.6647
 3323SOL    HW221606   4.409   2.249   3.986 -0.2544 -0.1255 -1.8902
 3324SOL     OW21607   1.367   4.530   3.656  0.0164 -0.1699 -0.1425
 3324SOL    HW121608   1.304   4.512   3.726 -0.5773  0.9330 -0.4020
 3324SOL    HW221609   1.358   4.451   3.603 -0.7642  0.4552 -0.9333
 3325SOL     OW21610   1.009   3.554  17.226 -0.2293  0.2366 -0.1426
 3325SOL    HW121611   1.000   3.583  17.317  2.0595  0.1067  0.1421
 3325SOL    HW221612   1.104   3.540  17.230 -0.4296 -0.0232  3.0957
 3326SOL     OW21613   2.894   2.853  15.417 -0.1490 -0.2050 -0.4642
 3326SOL    HW121614   2.846   2.779  15.380 -2.0480 -0.1603  1.8813
 3326SOL    HW221615   2.825   2.917  15.437 -0.2716 -0.7026  0.7227
 3327SOL     OW21616   3.040   4.199   6.702 -0.1952 -0.1435 -0.0858
 3327SOL    HW121617   3.071   4.109   6.708 -0.0200 -0.1434 -0.9411
 3327SOL    HW221618   3.055   4.229   6.791  0.3966 -0.4073 -0.0982
 3328SOL     OW21619   0.871   4.124   3.971  0.2006 -0.2596 -0.1262
 3328SOL    HW121620   0.816   4.083   3.904 -0.1006  0.6027 -0.4019
 3328SOL    HW221621   0.803   4.168   4.022 -1.6500 -3.1736 -0.0545
 3329SOL     OW21622   3.120   1.867   3.616 -0.2397 -0.3036  0.9051
 3329SOL    HW121623   3.187   1.862   3.684  1.0453  0.1851 -0.3199
 3329SOL    HW221624   3.039   1.867   3.667 -0.3632 -0.6064  0.7103
 3330SOL     OW21625   1.755   4.223   6.514 -0.3063 -0.2852  0.4084
 3330SOL    HW121626   1.779   4.151   6.572 -0.9507  0.2185  1.2913
 3330SOL    HW221627   1.838   4.218   6.466 -0.3525 -1.1183  0.4107
 3331SOL     OW21628   1.555   0.365   8.341  0.1695  0.4537 -0.7812
 3331SOL    HW121629   1.542   0.436   8.405 -2.9450 -2.3215  1.6633
 3331SOL    HW221630   1.465   0.331   8.334  0.5012 -1.1772  2.8517
 3332SOL     OW21631   1.679   2.073   4.061 -0.1658 -0.2933 -0.4524
 3332SOL    HW121632   1.621   2.143   4.092 -0.9737 -0.0132 -2.6174
 3332SOL    HW221633   1.643   2.064   3.973  0.1489 -1.0447 -0.5003
 3333SOL     OW21634   2.608   2.566   4.275 -0.4216 -0.1676 -0.6649
 3333SOL    HW121635   2.681   2.626   4.263 -1.2764  0.7072 -1.5302
 3333SOL    HW221636   2.602   2.549   4.369  1.2073  1.6507 -0.2446
 3334SOL     OW21637   2.546   0.201   9.785  0.1655  0.1488 -0.0907
 3334SOL    HW121638   2.539   0.295   9.771  0.4658 -0.0491 -1.5490
 3334SOL    HW221639   2.618   0.179   9.726  0.2768  1.4484 -0.4509
 3335SOL     OW21640   2.950   0.092   4.496  0.0814  0.0691 -0.1631
 3335SOL    HW121641   2.973   0.102   4.403 -0.8693 -0.7299 -0.4789
 3335SOL    HW221642   2.855   0.084   4.481  0.5708 -0.0885 -3.2763
 3336SOL     OW21643   4.273   2.198  11.250  0.3119  0.6571 -0.2686
 3336SOL    HW121644   4.234   2.244  11.324  1.8173  0.7063  0.5152
 3336SOL    HW221645   4.219   2.119  11.243  2.0313 -0.5017 -0.6010
 3337SOL     OW21646   1.590   1.224   4.926  0.6076 -0.3059 -0.1908
 3337SOL    HW121647   1.514   1.254   4.876  0.1658 -1.0276  0.0450
 3337SOL    HW221648   1.614   1.307   4.969  0.8977  0.1064 -1.1510
 3338SOL     OW21649   1.209   0.922   9.122 -0.6541 -0.1015 -0.0621
 3338SOL    HW121650   1.207   0.974   9.041  2.5071  0.2377  0.0969
 3338SOL    HW221651   1.169   0.841   9.091  0.6148 -0.4791 -0.6786
 3339SOL     OW21652   1.221   3.357   1.967 -0.5280  0.6982 -0.4888
 3339SOL    HW121653   1.128   3.377   1.978 -0.8630 -0.8646 -0.4920
 3339SOL    HW221654   1.212   3.262   1.973 -0.8673  0.8644  1.3248
 3340SOL     OW21655   0.583   3.274  11.843 -0.1202  0.1212  0.0107
 3340SOL    HW121656   0.562   3.186  11.811  0.4000 -0.1544  0.4317
 3340SOL    HW221657   0.500   3.313  11.816  0.4683  2.1389  1.1099
 3341SOL     OW21658   1.964   1.061   4.785 -0.2943  0.2427 -0.3085
 3341SOL    HW121659   1.886   1.028   4.829  0.4029  1.9128  2.1831
 3341SOL    HW221660   1.997   1.125   4.848 -0.0125  0.1663 -0.3772
 3342SOL     OW21661   3.875   2.028   8.944 -1.1679  0.1059 -0.3612
 3342SOL    HW121662   3.913   2.090   9.005 -0.0422 -1.6630  0.7399
 3342SOL    HW221663   3.889   1.945   8.989 -0.0066  0.4374 -0.1146
 3343SOL     OW21664   2.145   3.348   4.893 -0.0295 -0.2076 -0.0589
 3343SOL    HW121665   2.114   3.258   4.904 -0.5618  0.2877  2.4914
 3343SOL    HW221666   2.076   3.377   4.833 -0.6082  0.1999  0.7954
 3344SOL     OW21667   0.562   1.103   4.771 -0.2395  0.5145 -0.5786
 3344SOL    HW121668   0.626   1.125   4.839 -0.0142 -1.4000 -0.1700
 3344SOL    HW221669   0.489   1.146   4.815  1.9524 -0.1425  3.7198
 3345SOL     OW21670   1.882   0.129  15.971 -0.4353 -0.3927  0.7716
 3345SOL    HW121671   1.857   0.094  16.057 -1.1126 -1.4560  0.1393
 3345SOL    HW221672   1.894   0.043  15.931 -2.3060 -0.4803  0.3667
 3346SOL     OW21673   3.357   0.144   9.906 -0.0883  0.6250 -0.4312
 3346SOL    HW121674   3.313   0.225   9.933  0.2139  0.7913 -0.4388
 3346SOL    HW221675   3.438   0.147   9.957 -0.3703  0.3034  0.0394
 3347SOL     OW21676   2.619   2.921   2.083 -0.5704 -0.1302  0.0433
 3347SOL    HW121677   2.670   2.971   2.020 -0.5330  2.3390  2.0380
 3347SOL    HW221678   2.593   2.844   2.032 -1.8863 -0.8308  1.7664
 3348SOL     OW21679   1.923   2.306  17.716 -0.8927  0.0910  0.3344
 3348SOL    HW121680   1.876   2.376  17.671  0.3101  0.4365 -0.3904
 3348SOL    HW221681   1.888   2.236  17.661 -0.0286 -0.2821  0.2537
 3349SOL     OW21682   3.265   0.043   6.671  0.1433 -0.1085  0.2220
 3349SOL    HW121683   3.318   0.042   6.751 -1.3089  2.1946  1.2078
 3349SOL    HW221684   3.334   0.063   6.607  1.2877  0.0667  1.5113
 3350SOL     OW21685   0.769   3.943  13.009  0.1414  0.7442 -0.5995
 3350SOL    HW121686   0.859   3.974  13.017  0.7494 -1.3552  0.4684
 3350SOL    HW221687   0.775   3.851  12.984  0.3606  0.4477  0.5517
 3351SOL     OW21688   4.598   4.202  14.186  0.3322 -0.5084 -0.4531
 3351SOL    HW121689   4.627   4.263  14.254  2.8825  0.1470 -2.1597
 3351SOL    HW221690   4.576   4.125  14.238 -0.4949  1.8852  2.7670
 3352SOL     OW21691   0.244   2.978   9.634 -0.2770 -0.5459 -0.2708
 3352SOL    HW121692   0.275   2.915   9.569  1.1118 -0.5642  0.4126
 3352SOL    HW221693   0.196   2.930   9.702  0.2909  0.6612  0.9879
 3353SOL     OW21694   2.185   2.680   5.228  0.3447  0.1233 -0.1808
 3353SOL    HW121695   2.167   2.709   5.318 -1.3255  1.1937 -0.8637
 3353SOL    HW221696   2.193   2.761   5.179  1.3843  0.8982  1.2831
 3354SOL     OW21697   0.748   0.526   8.259  0.0244  0.2474 -0.3100
 3354SOL    HW121698   0.697   0.467   8.315  0.3802  2.5343  2.3590
 3354SOL    HW221699   0.827   0.530   8.312 -2.0876 -0.5661  2.9291
 3355SOL     OW21700   0.101   0.111   1.670 -0.5141 -0.0295  0.4938
 3355SOL    HW121701   0.122   0.034   1.722 -0.0676 -0.3888 -0.2292
 3355SOL    HW221702   0.033   0.152   1.724  1.9529  2.7980  1.4400
 3356SOL     OW21703   3.694   1.741   7.029 -0.5119  0.3704 -0.5759
 3356SOL    HW121704   3.729   1.823   6.995 -1.8924  1.6634  1.1955
 3356SOL    HW221705   3.676   1.683   6.954  1.2141  0.2139 -0.8745
 3357SOL     OW21706   4.105   1.474  11.346  0.1380  1.0122  0.0548
 3357SOL    HW121707   4.100   1.562  11.385 -0.7548  1.3249 -0.7692
 3357SOL    HW221708   4.015   1.444  11.333  0.6599  0.2200 -1.7381
 3358SOL     OW21709   1.935   4.617  15.886 -0.4221 -0.1797 -0.3350
 3358SOL    HW121710   2.020   4.646  15.918  0.0145 -1.1532 -0.5988
 3358SOL    HW221711   1.962   4.584  15.800 -1.1271 -0.3527 -0.4914
 3359SOL     OW21712   4.454   4.718  12.995  0.4693 -0.1966 -0.0158
 3359SOL    HW121713   4.501   4.726  13.078  0.3678  3.2787 -0.3147
 3359SOL    HW221714   4.463   4.625  12.972 -1.7384  0.1911 -2.4522
 3360SOL     OW21715   0.454   3.038   5.830 -0.0466 -0.2156 -0.3478
 3360SOL    HW121716   0.536   2.988   5.827 -0.4852 -0.9043 -0.6983
 3360SOL    HW221717   0.397   2.968   5.798  0.8332  0.3492 -3.1713
 3361SOL     OW21718   1.734   0.759  14.504  0.5247  0.1399 -0.3718
 3361SOL    HW121719   1.654   0.809  14.518 -0.2006 -1.1447  0.0895
 3361SOL    HW221720   1.723   0.728  14.414 -0.2795  1.1669 -0.6289
 3362SOL     OW21721   0.002   3.899   8.766  0.1265 -0.1170  0.4178
 3362SOL    HW121722   0.076   3.926   8.820 -0.2116 -0.3395  0.9855
 3362SOL    HW221723   4.668   3.932   8.821 -0.4375  0.6701 -0.7673
 3363SOL     OW21724   3.582   3.306   7.903 -0.2015  0.3505 -0.1973
 3363SOL    HW121725   3.561   3.354   7.823 -0.2979  1.3763  0.4411
 3363SOL    HW221726   3.494   3.298   7.940 -0.1339  0.3834 -0.0299
 3364SOL     OW21727   0.056   0.826  12.822  0.4394  0.0223 -0.3853
 3364SOL    HW121728   0.028   0.861  12.906  0.5907  1.1879 -0.8136
 3364SOL    HW221729   0.055   0.732  12.841  0.6120  0.7848  3.3508
 3365SOL     OW21730   0.735   1.935   7.823  0.1109  0.9829  0.1147
 3365SOL    HW121731   0.650   1.954   7.862  0.1469  0.0951  0.6332
 3365SOL    HW221732   0.747   1.847   7.860  1.3409  0.6821 -0.9892
 3366SOL     OW21733   4.016   4.595   4.964  0.1148 -0.1771  0.3580
 3366SOL    HW121734   3.964   4.587   4.884 -0.9207 -2.7570  1.2676
 3366SOL    HW221735   4.077   4.521   4.959 -0.0896 -0.3931  1.1410
 3367SOL     OW21736   4.165   3.465   3.946  0.0444 -0.1538 -0.0604
 3367SOL    HW121737   4.245   3.411   3.949  0.2371 -0.0359 -2.9651
 3367SOL    HW221738   4.164   3.484   3.852 -1.6210  2.5246  0.5375
 3368SOL     OW21739   0.181   4.674   8.907 -0.2275  0.0693 -0.1787
 3368SOL    HW121740   0.128   4.671   8.986  1.4656 -0.8185  0.9171
 3368SOL    HW221741   0.132   4.735   8.851 -0.2062 -0.0090 -0.2823
 3369SOL     OW21742   1.057   0.999   4.915 -0.4052  0.0958 -0.1066
 3369SOL    HW121743   1.047   0.905   4.895  1.0816 -0.1836  0.4868
 3369SOL    HW221744   1.134   1.002   4.972 -0.4438  3.3638 -0.2696
 3370SOL     OW21745   1.706   3.700   5.071 -0.5276 -0.3205  0.2216
 3370SOL    HW121746   1.616   3.706   5.042 -0.7072 -1.7285  0.4797
 3370SOL    HW221747   1.746   3.627   5.023  0.8987  2.2481 -2.4846
 3371SOL     OW21748   3.305   1.568   5.579 -0.2269 -0.1884  0.8903
 3371SOL    HW121749   3.260   1.652   5.576  1.1349  0.4494 -1.5993
 3371SOL    HW221750   3.286   1.539   5.668 -1.7884  0.1462  0.6645
 3372SOL     OW21751   3.228   2.898  14.299  0.3098 -0.4550  0.3770
 3372SOL    HW121752   3.312   2.853  14.308  0.1001 -0.7452  0.8488
 3372SOL    HW221753   3.199   2.861  14.215  1.1909 -1.9614  0.7423
 3373SOL     OW21754   2.563   0.273  14.104 -0.4953  0.3975  0.0631
 3373SOL    HW121755   2.631   0.208  14.086  0.1202  1.2432 -0.6588
 3373SOL    HW221756   2.560   0.332  14.029 -0.8538 -4.3108 -3.5682
 3374SOL     OW21757   2.278   1.899   6.589  0.4076 -0.3267  0.2761
 3374SOL    HW121758   2.208   1.941   6.638  0.3117  0.3726 -0.4600
 3374SOL    HW221759   2.304   1.962   6.522  0.7452  0.7130  1.3901
 3375SOL     OW21760   0.087   4.375   1.040 -0.0880 -0.4342  0.3446
 3375SOL    HW121761   4.732   4.383   1.014 -0.9009 -1.0648  3.0532
 3375SOL    HW221762   0.091   4.287   1.076  1.0296  0.8611  3.3601
 3376SOL     OW21763   0.099   4.460   3.968 -0.3433  0.4655 -0.2012
 3376SOL    HW121764   0.101   4.439   3.874  0.1501  1.5717 -0.4378
 3376SOL    HW221765   0.126   4.552   3.973  1.4028  0.0752 -2.4090
 3377SOL     OW21766   1.087   4.703   5.528  0.3221 -0.1503 -0.0477
 3377SOL    HW121767   1.104   4.664   5.442  2.6082 -0.9019  0.7278
 3377SOL    HW221768   1.136   0.048   5.525  0.3698 -0.1460  0.8631
 3378SOL     OW21769   1.248   4.563   9.339  0.8232  0.2399 -0.4181
 3378SOL    HW121770   1.312   4.526   9.399  0.2835  0.1858  0.1134
 3378SOL    HW221771   1.239   4.655   9.365 -2.9848  0.4192 -2.3817
 3379SOL     OW21772   2.699   2.087   2.297 -0.3623 -0.3357 -0.3625
 3379SOL    HW121773   2.612   2.093   2.258  0.7643  0.8857 -2.6641
 3379SOL    HW221774   2.698   1.992   2.306 -1.4796 -0.0591  2.6723
 3380SOL     OW21775   4.718   3.191   7.468 -0.3973 -0.7457  0.1756
 3380SOL    HW121776   4.691   3.100   7.459  0.4904 -0.8737 -1.2107
 3380SOL    HW221777   0.029   3.188   7.551 -0.3712  1.0620  0.2191
 3381SOL     OW21778   0.130   4.296  13.827  0.4464 -0.1473 -0.2368
 3381SOL    HW121779   0.157   4.218  13.875 -2.3799 -0.4579  0.8357
 3381SOL    HW221780   0.106   4.253  13.745 -1.3731  0.1179  0.1614
 3382SOL     OW21781   3.210   1.678  16.677  0.2214  0.6602  0.1590
 3382SOL    HW121782   3.224   1.768  16.708 -0.2155  0.2652  1.4826
 3382SOL    HW221783   3.204   1.618  16.751  0.9364 -0.9961 -1.1339
 3383SOL     OW21784   3.816   2.450  11.326 -0.2605  0.0933 -0.0876
 3383SOL    HW121785   3.874   2.525  11.325  0.6294 -0.5800  1.1161
 3383SOL    HW221786   3.856   2.405  11.400  1.8305  1.9355 -0.1375
 3384SOL     OW21787   2.789   3.495   9.719  1.1507  0.4907  0.3548
 3384SOL    HW121788   2.720   3.519   9.782  1.2805  1.2742  0.1959
 3384SOL    HW221789   2.765   3.551   9.645  1.8470  1.2819  0.7400
 3385SOL     OW21790   3.574   0.228  10.508  0.5056  0.3083  0.6492
 3385SOL    HW121791   3.547   0.268  10.426  0.1595 -2.4613 -0.5818
 3385SOL    HW221792   3.511   0.156  10.504  0.3894  0.4588 -0.2465
 3386SOL     OW21793   4.455   2.397   4.207  0.0764  0.3376  0.6624
 3386SOL    HW121794   4.400   2.475   4.216 -1.2121 -0.2121 -2.2193
 3386SOL    HW221795   4.510   2.432   4.137 -0.0629 -1.8420 -0.5339
 3387SOL     OW21796   2.899   2.867   4.797 -0.0318  0.1980  0.5316
 3387SOL    HW121797   2.814   2.822   4.798  0.4420 -0.7007 -0.5665
 3387SOL    HW221798   2.920   2.882   4.889 -0.9890 -0.4113  0.8514
 3388SOL     OW21799   1.384   1.833   0.762 -0.3823 -0.2582  0.1230
 3388SOL    HW121800   1.406   1.921   0.732 -0.6672 -0.3033 -0.2220
 3388SOL    HW221801   1.468   1.802   0.798 -1.2764 -2.5964  0.2470
 3389SOL     OW21802   3.720   1.442   6.319 -0.4026 -0.5342  0.0731
 3389SOL    HW121803   3.810   1.433   6.348  0.2469  0.5814 -1.5752
 3389SOL    HW221804   3.679   1.500   6.384  0.3756 -0.8470  0.8365
 3390SOL     OW21805   1.979   1.160   2.262 -0.2188  0.2388 -0.3607
 3390SOL    HW121806   1.946   1.162   2.172 -1.7095 -0.2891  0.1873
 3390SOL    HW221807   1.965   1.071   2.292  0.4037  0.1111 -0.4471
 3391SOL     OW21808   1.515   1.345   1.137  0.2232 -0.2349 -0.4372
 3391SOL    HW121809   1.588   1.284   1.150 -1.2969 -1.9429  0.0792
 3391SOL    HW221810   1.448   1.279   1.153  0.3346 -0.1793  0.2659
 3392SOL     OW21811   2.191   1.821   8.819 -0.5201 -0.4108  0.1582
 3392SOL    HW121812   2.281   1.854   8.816 -0.7313  0.1851  0.4677
 3392SOL    HW221813   2.210   1.735   8.858 -0.3827  0.0545  1.1338
 3393SOL     OW21814   4.036   0.856   8.520 -0.0689  0.0522  0.4289
 3393SOL    HW121815   4.039   0.821   8.609  1.3637  0.3222  0.4835
 3393SOL    HW221816   4.125   0.889   8.511  1.6005 -3.9292  2.4679
 3394SOL     OW21817   4.361   2.704   4.993  0.3595  0.0836 -0.0447
 3394SOL    HW121818   4.326   2.731   4.909  2.7170 -2.1415 -1.7283
 3394SOL    HW221819   4.453   2.710   4.970  0.9866  0.4740  2.5416
 3395SOL     OW21820   1.073   2.140   2.099  0.4894 -0.2047 -0.2730
 3395SOL    HW121821   1.008   2.193   2.143 -0.2119  0.6339 -2.2951
 3395SOL    HW221822   1.145   2.203   2.098 -1.4701  2.0123 -0.9703
 3396SOL     OW21823   1.293   2.555  12.044  0.2361 -0.3269  0.2502
 3396SOL    HW121824   1.259   2.630  11.994 -2.7917 -1.4169  0.6667
 3396SOL    HW221825   1.280   2.589  12.132  3.5766  1.3405  0.0723
 3397SOL     OW21826   1.752   2.687   5.132  0.0195 -0.2736 -0.0865
 3397SOL    HW121827   1.736   2.699   5.226  0.3606  0.3225 -0.1080
 3397SOL    HW221828   1.666   2.703   5.093 -0.7331  0.0630  1.7137
 3398SOL     OW21829   0.721   2.965   8.320  0.0309 -0.0695 -0.3654
 3398SOL    HW121830   0.634   2.935   8.292 -1.4420  3.5295  0.3393
 3398SOL    HW221831   0.742   3.030   8.254  0.9119  0.6882  0.6551
 3399SOL     OW21832   1.036   0.023  11.339  0.1233 -0.2732 -0.7980
 3399SOL    HW121833   0.961   4.723  11.386  1.6346  0.5246  2.2089
 3399SOL    HW221834   1.064   0.096  11.392 -0.3552  0.3081 -1.3458
 3400SOL     OW21835   2.226   1.007   6.836  0.1847 -0.2873  0.2564
 3400SOL    HW121836   2.270   0.970   6.759 -0.1334  0.1388 -0.1283
 3400SOL    HW221837   2.141   1.019   6.793  0.4851 -1.5745 -0.6911
 3401SOL     OW21838   3.061   3.229   8.707  0.3915  0.3352  0.1802
 3401SOL    HW121839   3.082   3.168   8.778  0.9402 -1.2342 -1.3369
 3401SOL    HW221840   3.109   3.190   8.634 -0.8185  0.7597 -0.8407
 3402SOL     OW21841   2.303   1.194   3.648  0.1997  0.3537  0.7259
 3402SOL    HW121842   2.228   1.248   3.676 -1.9070 -1.7475 -0.8631
 3402SOL    HW221843   2.366   1.244   3.701  2.0953 -2.6466  1.2835
 3403SOL     OW21844   0.202   3.123   6.734 -0.5023 -0.2255 -0.0071
 3403SOL    HW121845   0.254   3.052   6.770  0.8077  0.7086 -0.0566
 3403SOL    HW221846   0.185   3.092   6.645 -2.3092  1.3471 -0.2089
 3404SOL     OW21847   3.658   3.365  16.110  0.0571 -0.1698 -0.4189
 3404SOL    HW121848   3.660   3.455  16.077  0.7477  0.1489  0.4753
 3404SOL    HW221849   3.685   3.378  16.201  0.9424 -1.3183 -0.5172
 3405SOL     OW21850   0.890   1.665   6.772  0.0603 -0.6452  0.0671
 3405SOL    HW121851   0.932   1.667   6.686 -0.7960 -1.6711 -0.3800
 3405SOL    HW221852   0.907   1.574   6.796  0.3715 -0.9247 -1.1630
 3406SOL     OW21853   0.361   4.502   8.497  0.2494 -0.2333 -0.4540
 3406SOL    HW121854   0.301   4.523   8.568  1.0987 -3.4396  1.2241
 3406SOL    HW221855   0.438   4.471   8.545 -0.5959 -0.1318  0.9674
 3407SOL     OW21856   1.390   1.970   8.764 -0.1191 -0.0099  0.9933
 3407SOL    HW121857   1.421   1.980   8.854  1.3950  2.6148  0.1852
 3407SOL    HW221858   1.319   1.910   8.783 -1.6535  1.0751 -1.3548
 3408SOL     OW21859   2.977   1.352  12.895 -0.5421  0.5852  0.5969
 3408SOL    HW121860   3.072   1.354  12.883 -0.5729 -1.8704 -0.0709
 3408SOL    HW221861   2.944   1.363  12.807 -0.8088  2.9298  1.0023
 3409SOL     OW21862   4.087   0.182  17.545 -0.0085 -0.3835  0.1001
 3409SOL    HW121863   4.027   0.108  17.531  0.2090 -0.7927  1.3956
 3409SOL    HW221864   4.135   0.142  17.617 -0.8436 -1.7650 -0.1071
 3410SOL     OW21865   1.393   0.974   2.563  0.2855  0.4276 -0.4724
 3410SOL    HW121866   1.467   0.991   2.506 -1.1174  1.8808 -1.8439
 3410SOL    HW221867   1.382   1.059   2.604 -2.0635 -0.7227  1.3027
 3411SOL     OW21868   3.930   2.147   8.235 -0.1940 -0.1068  0.4941
 3411SOL    HW121869   3.852   2.097   8.259 -0.3194 -0.5832 -0.9159
 3411SOL    HW221870   3.951   2.209   8.305 -1.5964  1.0747 -0.1494
 3412SOL     OW21871   1.887   1.679   7.921  0.1951  0.4170  0.1905
 3412SOL    HW121872   1.900   1.585   7.914 -0.4163  0.2898  0.7308
 3412SOL    HW221873   1.853   1.697   7.834  0.3949 -1.0710 -0.1849
 3413SOL     OW21874   4.692   4.221  15.876  0.1660  0.2872  0.0368
 3413SOL    HW121875   0.002   4.160  15.933 -0.6396 -1.3693 -1.0715
 3413SOL    HW221876   4.605   4.212  15.914  1.0351 -1.0091  1.6886
 3414SOL     OW21877   2.774   1.637   8.071  0.6069  0.6353 -0.4054
 3414SOL    HW121878   2.818   1.600   7.995 -1.5530  1.5082 -2.0986
 3414SOL    HW221879   2.840   1.699   8.103  2.1335 -0.9949 -0.4662
 3415SOL     OW21880   4.535   3.795   2.739 -0.5009  0.1298  0.4015
 3415SOL    HW121881   4.473   3.810   2.667 -2.3458 -1.3234  1.6945
 3415SOL    HW221882   4.480   3.737   2.792  1.0991 -1.9027 -0.1796
 3416SOL     OW21883   2.441   3.566   3.849 -0.1638 -0.1852 -0.0304
 3416SOL    HW121884   2.508   3.520   3.899  1.2299 -0.0904 -1.7804
 3416SOL    HW221885   2.460   3.654   3.880  0.9173 -0.6687  0.6874
 3417SOL     OW21886   2.740   2.595   6.249  0.3583 -0.0749 -0.2695
 3417SOL    HW121887   2.655   2.596   6.205 -0.2633 -0.7624  0.9083
 3417SOL    HW221888   2.783   2.514   6.220 -0.8469 -0.5868 -0.6055
 3418SOL     OW21889   1.808   2.331   4.232  0.1645  0.2915 -0.1275
 3418SOL    HW121890   1.799   2.418   4.271  0.9341 -0.5275  1.8946
 3418SOL    HW221891   1.788   2.358   4.143 -1.5227 -0.0664  0.1267
 3419SOL     OW21892   0.648   4.090   8.731  0.1852 -0.0789  0.3149
 3419SOL    HW121893   0.674   4.006   8.769 -0.9468 -0.2939  0.6324
 3419SOL    HW221894   0.646   4.147   8.808 -1.8155  0.1942  0.0787
 3420SOL     OW21895   0.097   3.786  16.299 -0.5304  0.1543  0.0023
 3420SOL    HW121896   0.067   3.873  16.327 -0.9271  0.0390 -0.0592
 3420SOL    HW221897   0.186   3.799  16.331 -0.0300 -2.4372 -0.3444
 3421SOL     OW21898   1.675   3.400   6.591  0.0008  0.5197  0.2327
 3421SOL    HW121899   1.700   3.329   6.531 -2.2958  0.5478 -0.7796
 3421SOL    HW221900   1.601   3.442   6.547  0.0920  1.5299  1.0547
 3422SOL     OW21901   0.479   2.912   2.490  0.2867 -0.0004  0.3918
 3422SOL    HW121902   0.450   2.837   2.542  1.3576 -2.6837 -2.8515
 3422SOL    HW221903   0.509   2.871   2.408 -1.8836 -1.0314  0.1126
 3423SOL     OW21904   3.197   1.442  17.128 -0.1173 -0.4321 -0.1305
 3423SOL    HW121905   3.214   1.447  17.034  0.7734 -1.7769 -0.0400
 3423SOL    HW221906   3.205   1.349  17.150 -0.0843 -0.9134 -2.2482
 3424SOL     OW21907   1.706   3.095   5.043  0.1405 -0.3563 -0.4142
 3424SOL    HW121908   1.708   3.108   4.948 -1.5947  0.3817 -0.3597
 3424SOL    HW221909   1.664   3.009   5.054  0.4368 -0.5764 -0.9885
 3425SOL     OW21910   3.348   1.578  10.877 -0.0952 -0.5874  0.5772
 3425SOL    HW121911   3.298   1.646  10.833  2.0021 -0.2406 -1.2880
 3425SOL    HW221912   3.355   1.515  10.805  0.1798  0.4084 -0.2607
 3426SOL     OW21913   3.610   1.727   6.672 -0.3244  0.1969 -0.2417
 3426SOL    HW121914   3.695   1.689   6.652 -0.2803  0.3716 -0.3897
 3426SOL    HW221915   3.583   1.779   6.596 -0.5917  1.1386  0.5027
 3427SOL     OW21916   2.740   0.137   9.618 -0.4127 -0.3736 -0.9169
 3427SOL    HW121917   2.780   0.224   9.615 -2.9170  0.8157  0.9963
 3427SOL    HW221918   2.822   0.087   9.612 -0.3556 -0.3661 -0.1941
 3428SOL     OW21919   0.506   1.035   2.440 -0.5739  0.0625 -0.5100
 3428SOL    HW121920   0.494   0.941   2.426  0.9376 -0.0405 -1.1430
 3428SOL    HW221921   0.547   1.053   2.356  1.4283 -0.0895  0.4140
 3429SOL     OW21922   2.800   3.162   2.370  0.2750 -0.2096 -0.2867
 3429SOL    HW121923   2.830   3.091   2.313  1.5363  0.3103 -0.2839
 3429SOL    HW221924   2.720   3.131   2.411 -0.8316  0.6584 -1.7732
 3430SOL     OW21925   1.206   4.212   7.684  0.0708  0.1770 -0.0064
 3430SOL    HW121926   1.281   4.257   7.647 -1.6761  1.9480 -1.4117
 3430SOL    HW221927   1.144   4.271   7.641  0.3397  0.3737 -0.1170
 3431SOL     OW21928   0.846   3.484   2.760  0.1868 -0.1153 -0.2899
 3431SOL    HW121929   0.768   3.445   2.798 -0.4706  1.1860 -0.3118
 3431SOL    HW221930   0.807   3.517   2.679  1.7517  1.6670 -0.3131
 3432SOL     OW21931   0.655   4.046   4.722  0.7372  0.2736 -0.9753
 3432SOL    HW121932   0.660   4.044   4.817 -2.4377 -1.1595 -0.8332
 3432SOL    HW221933   0.660   3.952   4.707  1.1790 -0.1953  2.1878
 3433SOL     OW21934   0.138   1.618   4.877 -0.1380 -0.6052  0.3342
 3433SOL    HW121935   0.176   1.696   4.837 -2.7547  0.1826 -0.6330
 3433SOL    HW221936   0.207   1.552   4.871  0.5166  0.3513 -2.8472
 3434SOL     OW21937   3.197   0.871  15.863  0.2196  0.4853  0.5071
 3434SOL    HW121938   3.184   0.797  15.923 -0.1193 -0.6054 -0.9277
 3434SOL    HW221939   3.272   0.838  15.814  1.1912  2.3542  0.7143
 3435SOL     OW21940   2.654   3.865  16.032  0.2407 -0.9983  0.0615
 3435SOL    HW121941   2.622   3.837  15.946  0.3687  0.2503 -0.3924
 3435SOL    HW221942   2.744   3.832  16.031 -0.7562 -3.6948 -1.9542
 3436SOL     OW21943   3.002   3.912   8.654  0.2668 -0.1171  0.1012
 3436SOL    HW121944   2.949   3.835   8.677  0.0088  0.3966  1.2480
 3436SOL    HW221945   2.996   3.953   8.741  0.9283 -2.1980  1.1390
 3437SOL     OW21946   4.092   4.257   4.735  0.1836  0.4136  0.0243
 3437SOL    HW121947   4.143   4.292   4.808  0.5117 -0.0005 -0.0102
 3437SOL    HW221948   4.013   4.308   4.755  1.0109  1.3736  0.8583
 3438SOL     OW21949   0.524   2.048   3.608  0.1860  0.0086  0.6179
 3438SOL    HW121950   0.506   1.954   3.602  0.3049 -0.0427  1.0308
 3438SOL    HW221951   0.592   2.046   3.676  0.0290  0.4414  0.7866
 3439SOL     OW21952   0.714   0.766   8.144 -0.0999  0.3929 -0.2858
 3439SOL    HW121953   0.723   0.685   8.194 -1.8654  0.2022 -0.2761
 3439SOL    HW221954   0.779   0.816   8.194 -2.7177 -0.2036  3.7405
 3440SOL     OW21955   3.845   0.438   3.137  0.2322  0.7755  0.4161
 3440SOL    HW121956   3.878   0.497   3.068 -0.7605  2.0182  1.0007
 3440SOL    HW221957   3.899   0.361   3.120 -1.4928 -1.0038  3.2706
 3441SOL     OW21958   3.922   2.619   5.301 -0.3271 -0.5581 -0.0839
 3441SOL    HW121959   3.832   2.650   5.295 -0.2388 -0.4828 -0.9589
 3441SOL    HW221960   3.956   2.689   5.357 -1.1253 -1.1310  1.1289
 3442SOL     OW21961   2.348   4.223   7.086 -0.0107 -0.4674 -0.1314
 3442SOL    HW121962   2.444   4.220   7.081  0.0500  1.3624 -0.1862
 3442SOL    HW221963   2.316   4.194   7.000  0.3592  1.3445 -0.8851
 3443SOL     OW21964   1.915   0.037   7.943  0.3530  0.2220  0.1361
 3443SOL    HW121965   1.846   0.102   7.956  1.0866  1.1848 -0.7647
 3443SOL    HW221966   1.991   0.090   7.966 -1.3821  2.0342  1.7105
 3444SOL     OW21967   2.596   4.735   3.341 -0.8398  0.0230  0.1110
 3444SOL    HW121968   2.560   0.021   3.255 -0.7608 -1.2142 -0.2567
 3444SOL    HW221969   2.588   0.079   3.392  1.8070 -1.7570  3.2926
 3445SOL     OW21970   3.153   1.662   7.228 -0.0432  0.2604  0.2309
 3445SOL    HW121971   3.086   1.715   7.185 -0.1186  0.1475  0.2104
 3445SOL    HW221972   3.185   1.607   7.156  0.2175  0.2626  0.3453
 3446SOL     OW21973   0.951   2.766   4.698 -0.2306  0.9360  0.2007
 3446SOL    HW121974   0.997   2.823   4.758  1.8212  0.4170 -0.8929
 3446SOL    HW221975   0.864   2.768   4.739 -0.5470  1.6737 -0.4867
 3447SOL     OW21976   4.158   2.272   2.087  0.4019 -0.1960  0.6582
 3447SOL    HW121977   4.186   2.239   2.002 -3.6710 -1.0666 -0.3259
 3447SOL    HW221978   4.063   2.261   2.088  0.0853  2.5112  0.9606
 3448SOL     OW21979   4.651   2.230  15.858  0.2694 -0.1586 -0.1905
 3448SOL    HW121980   4.556   2.245  15.854  0.2034 -0.5451 -0.0461
 3448SOL    HW221981   4.678   2.236  15.766 -2.4654 -0.1900 -1.0054
 3449SOL     OW21982   1.383   3.809  17.156  0.0938 -0.2230 -0.5184
 3449SOL    HW121983   1.423   3.762  17.084 -2.6996 -1.6833 -1.1020
 3449SOL    HW221984   1.443   3.884  17.153 -0.7841  0.5022 -0.0547
 3450SOL     OW21985   2.086   1.444   7.504 -0.3246 -0.0748 -0.8583
 3450SOL    HW121986   2.138   1.521   7.478  0.3152  0.0092  0.6794
 3450SOL    HW221987   2.023   1.468   7.437 -1.8539  0.6622  0.8558
 3451SOL     OW21988   2.654   2.176   4.057 -0.8506 -0.4530 -0.0949
 3451SOL    HW121989   2.745   2.149   4.059 -0.2040  1.8208  1.4346
 3451SOL    HW221990   2.607   2.101   4.093 -0.1857 -0.4157  0.8549
 3452SOL     OW21991   0.618   4.195   4.065  0.0994  0.5170  0.3959
 3452SOL    HW121992   0.607   4.101   4.079 -1.6724  0.6283 -0.2617
 3452SOL    HW221993   0.524   4.216   4.059  0.4219  1.3015 -1.7184
 3453SOL     OW21994   0.658   1.467   8.453 -0.3146  0.4600 -0.2044
 3453SOL    HW121995   0.579   1.441   8.501  1.5152 -2.7189  1.0816
 3453SOL    HW221996   0.632   1.531   8.387  1.6391  2.1900  0.7341
 3454SOL     OW21997   4.266   0.992   5.790  0.1898  0.0887  0.1644
 3454SOL    HW121998   4.183   1.039   5.780  0.3628  0.0217 -1.5716
 3454SOL    HW221999   4.230   0.908   5.762  3.3980 -1.0914 -0.4022
 3455SOL     OW22000   1.758   1.343   4.613 -1.1024  0.0266 -0.5174
 3455SOL    HW122001   1.804   1.386   4.541  1.4227 -2.3354 -0.3219
 3455SOL    HW222002   1.685   1.403   4.632 -1.8444 -0.8507 -0.6390
 3456SOL     OW22003   1.019   1.400   3.876 -0.3807 -0.0504 -0.2081
 3456SOL    HW122004   0.926   1.424   3.883 -0.2116  0.9448 -1.4488
 3456SOL    HW222005   1.012   1.334   3.807  1.7922  0.5237 -0.9579
 3457SOL     OW22006   4.732   2.545   5.853 -0.4847 -0.5990 -0.1221
 3457SOL    HW122007   0.060   2.486   5.815 -1.3431 -2.7386  1.7822
 3457SOL    HW222008   0.031   2.632   5.835  1.3102 -1.1626  0.7757
 3458SOL     OW22009   1.923   0.743   7.990 -0.0685 -0.3802 -0.6260
 3458SOL    HW122010   1.953   0.833   8.004  1.0831 -0.9090  0.2350
 3458SOL    HW222011   1.991   0.700   7.937  0.6834 -1.5323  1.2959
 3459SOL     OW22012   4.191   3.053  12.928 -0.6261 -0.2070  0.1478
 3459SOL    HW122013   4.117   3.114  12.934 -0.2834 -0.0852  3.1396
 3459SOL    HW222014   4.214   3.053  13.021 -1.6662 -2.1713  0.4039
 3460SOL     OW22015   1.497   4.717   4.641 -0.2394 -0.1559  0.0455
 3460SOL    HW122016   1.448   4.732   4.560 -1.8687  2.3689  1.5101
 3460SOL    HW222017   1.496   4.621   4.631 -1.0777 -0.2552  1.1127
 3461SOL     OW22018   3.389   1.263  13.237 -0.5736  0.0075  0.1009
 3461SOL    HW122019   3.387   1.200  13.165 -1.1120  2.3227 -1.8761
 3461SOL    HW222020   3.368   1.345  13.193 -1.3605 -0.3627 -0.2189
 3462SOL     OW22021   2.065   4.076   6.891  0.2097  0.5028  0.6871
 3462SOL    HW122022   2.067   4.004   6.828 -1.0330 -1.2856  2.7254
 3462SOL    HW222023   2.122   4.041   6.959  1.8219 -1.2344 -1.5593
 3463SOL     OW22024   0.964   2.344   5.691  0.4968 -0.4103  0.2123
 3463SOL    HW122025   1.049   2.319   5.656 -0.1297  0.8553 -2.1864
 3463SOL    HW222026   0.959   2.429   5.649  0.0456 -0.6317 -0.1884
 3464SOL     OW22027   1.312   3.385   4.882 -0.3741  0.3582 -0.2101
 3464SOL    HW122028   1.286   3.389   4.790 -0.7386  1.8370 -0.0471
 3464SOL    HW222029   1.230   3.361   4.925  0.7227 -0.9743  1.1425
 3465SOL     OW22030   1.290   3.321   8.243 -0.5906  0.1648 -0.0126
 3465SOL    HW122031   1.289   3.407   8.200 -1.8000  0.5870  0.8563
 3465SOL    HW222032   1.198   3.302   8.262 -0.8036  0.7546 -0.4619
 3466SOL     OW22033   0.571   4.184  16.586  0.0832 -0.3876  0.3034
 3466SOL    HW122034   0.587   4.125  16.660 -2.0876  1.3660  2.1975
 3466SOL    HW222035   0.479   4.206  16.604 -0.3306 -2.9249  1.4233
 3467SOL     OW22036   2.395   0.947   4.433  0.4575 -0.4672 -0.1063
 3467SOL    HW122037   2.378   0.894   4.355 -1.2466 -1.4055  0.8904
 3467SOL    HW222038   2.436   1.026   4.398  0.1345  0.3643  1.3775
 3468SOL     OW22039   3.385   3.499  17.062 -0.0317 -0.3328  0.2497
 3468SOL    HW122040   3.351   3.588  17.054  1.2540  0.2711  1.4313
 3468SOL    HW222041   3.449   3.507  17.133 -0.9970  2.7431  0.7846
 3469SOL     OW22042   3.428   3.727   5.790  0.2784 -0.1160 -0.1565
 3469SOL    HW122043   3.393   3.698   5.706 -1.0055 -0.0499  0.3630
 3469SOL    HW222044   3.513   3.683   5.793  0.3534 -0.0297 -1.1455
 3470SOL     OW22045   3.828   2.063   5.115  0.1373  0.0676  0.8284
 3470SOL    HW122046   3.828   1.974   5.081  1.1766 -0.1620  1.4586
 3470SOL    HW222047   3.843   2.114   5.035  0.4662 -2.2145 -0.5508
 3471SOL     OW22048   3.157   0.420   0.951 -0.3022  0.7307 -0.1317
 3471SOL    HW122049   3.089   0.488   0.949  0.6630  1.6566 -2.0235
 3471SOL    HW222050   3.214   0.456   1.019 -0.7979 -0.2889  0.8113
 3472SOL     OW22051   4.265   0.502  16.328  0.0492  0.1128 -0.0958
 3472SOL    HW122052   4.268   0.407  16.317 -0.0569  0.0093  0.7841
 3472SOL    HW222053   4.357   0.516  16.303  0.6553 -1.8540  1.0179
 3473SOL     OW22054   0.633   3.707   9.569 -0.3725  0.7229  0.3862
 3473SOL    HW122055   0.712   3.742   9.530 -0.1099  0.2811  0.5204
 3473SOL    HW222056   0.576   3.707   9.492  0.0341 -0.6566  0.0900
 3474SOL     OW22057   3.650   3.549   5.738  0.2733 -0.1732  0.1160
 3474SOL    HW122058   3.734   3.508   5.718  0.8067  1.7669 -1.6134
 3474SOL    HW222059   3.591   3.485   5.698 -0.5114  0.5901  0.0401
 3475SOL     OW22060   0.088   2.864  10.380  0.4400  0.3202  0.3012
 3475SOL    HW122061   0.078   2.891  10.472  0.6936 -1.8756  0.9642
 3475SOL    HW222062   0.064   2.947  10.339 -1.1522  0.3925  1.3519
 3476SOL     OW22063   2.147   0.117   8.389 -0.2760 -0.3636  0.7529
 3476SOL    HW122064   2.161   0.169   8.310 -1.7109 -0.6998  0.2835
 3476SOL    HW222065   2.058   0.082   8.390 -0.9878  1.3507 -1.6262
 3477SOL     OW22066   4.377   2.159   5.405 -0.3585 -0.0895 -0.1386
 3477SOL    HW122067   4.373   2.246   5.364  2.1543 -0.3260 -0.8960
 3477SOL    HW222068   4.308   2.162   5.471  1.2369  0.4259  1.5331
 3478SOL     OW22069   1.413   3.995   5.818  0.0895 -0.3114 -0.3489
 3478SOL    HW122070   1.462   4.075   5.837  0.6696 -1.0202  1.1055
 3478SOL    HW222071   1.374   3.982   5.904 -0.6150  0.9890 -0.4571
 3479SOL     OW22072   1.974   1.015   8.022  0.4485 -0.2984 -0.5133
 3479SOL    HW122073   1.999   1.057   8.105  1.0318 -0.1142 -0.7833
 3479SOL    HW222074   2.045   1.051   7.969  0.2290 -1.1780 -1.3850
 3480SOL     OW22075   4.426   3.394   3.378 -0.4172 -0.0762  0.7682
 3480SOL    HW122076   4.517   3.410   3.353 -0.6491 -1.9514 -1.2456
 3480SOL    HW222077   4.386   3.476   3.348  0.5966 -0.7910 -2.4643
 3481SOL     OW22078   3.977   1.390   5.357  0.6331  0.3372  0.4665
 3481SOL    HW122079   3.938   1.362   5.275  1.7581 -0.1566  0.0913
 3481SOL    HW222080   3.905   1.382   5.419  0.1882  1.2135  0.0702
 3482SOL     OW22081   0.380   3.324  10.360  0.0996 -0.2566  0.7437
 3482SOL    HW122082   0.395   3.318  10.266 -0.8302 -1.0170  0.6495
 3482SOL    HW222083   0.293   3.363  10.371 -0.2786 -0.2783 -2.2322
 3483SOL     OW22084   2.486   4.649   9.729  0.0515  0.1930  0.0285
 3483SOL    HW122085   2.545   4.723   9.741  0.6534 -0.1534 -0.7440
 3483SOL    HW222086   2.489   4.606   9.815 -0.4928 -0.6776 -0.3876
 3484SOL     OW22087   4.198   2.119   3.593  0.6678  0.0249 -0.1762
 3484SOL    HW122088   4.105   2.131   3.574  0.5422 -1.0598 -0.2228
 3484SOL    HW222089   4.233   2.207   3.579 -0.0537  0.3780  0.2352
 3485SOL     OW22090   3.265   4.582  12.935  0.0917 -0.7626  0.5061
 3485SOL    HW122091   3.280   4.668  12.975  2.5167  0.7139 -3.5879
 3485SOL    HW222092   3.351   4.555  12.903  0.2702 -0.1954  0.5097
 3486SOL     OW22093   3.563   1.006   7.242 -0.7387 -0.4805 -0.3169
 3486SOL    HW122094   3.568   1.071   7.312 -0.3517 -1.9395  1.0397
 3486SOL    HW222095   3.653   0.972   7.239  0.2152  1.8620  1.4603
 3487SOL     OW22096   2.687   3.575   5.440 -0.2299  0.0872 -0.0415
 3487SOL    HW122097   2.622   3.563   5.510 -0.2217 -1.0890 -0.2365
 3487SOL    HW222098   2.643   3.649   5.397 -0.7334  1.0293  2.0843
 3488SOL     OW22099   3.917   1.041   8.802  0.1106 -0.3076 -0.7578
 3488SOL    HW122100   3.872   1.054   8.719 -1.0845  0.5040  0.0017
 3488SOL    HW222101   4.007   1.052   8.772  1.7742 -1.9683  3.6356
 3489SOL     OW22102   4.046   3.253   5.595  0.0959  0.1861  0.6477
 3489SOL    HW122103   4.084   3.192   5.658 -0.0386 -0.3915  0.1729
 3489SOL    HW222104   4.126   3.264   5.543 -0.2665  0.7873  0.2247
 3490SOL     OW22105   4.737   0.117   8.800  0.1247  0.1938  0.1107
 3490SOL    HW122106   4.661   0.171   8.777  0.4736  1.2556  1.4901
 3490SOL    HW222107   0.076   0.157   8.758 -0.2672  0.7043 -0.1120
 3491SOL     OW22108   1.536   0.479   5.652 -1.0965  0.3716 -0.1142
 3491SOL    HW122109   1.557   0.567   5.619  2.7102 -1.0624 -1.5909
 3491SOL    HW222110   1.583   0.423   5.591  1.0924  0.7530  1.1849
 3492SOL     OW22111   3.816   4.593   3.805  0.0906  0.5862 -0.3704
 3492SOL    HW122112   3.812   4.504   3.841 -0.3941  0.0323 -1.7790
 3492SOL    HW222113   3.733   4.617   3.845  0.2342 -0.6846  0.6834
 3493SOL     OW22114   3.666   2.847   7.320 -0.0120  0.4955  0.3035
 3493SOL    HW122115   3.636   2.763   7.353  1.0559 -0.8340 -2.0878
 3493SOL    HW222116   3.663   2.840   7.224  1.4626 -1.6446  0.4161
 3494SOL     OW22117   4.286   0.902   3.162 -0.6095 -0.2167  0.1797
 3494SOL    HW122118   4.201   0.940   3.183 -1.2148 -2.1193  1.1878
 3494SOL    HW222119   4.327   0.907   3.248 -1.3442 -0.4084  0.5395
 3495SOL     OW22120   1.541   4.458  16.371  1.0610  0.9196  0.2233
 3495SOL    HW122121   1.496   4.530  16.414  0.7369  0.2714  0.9553
 3495SOL    HW222122   1.540   4.491  16.281  0.0107  1.2108  0.3473
 3496SOL     OW22123   3.238   1.423  12.634  0.0814 -0.2155 -0.0625
 3496SOL    HW122124   3.242   1.382  12.720 -0.5049 -1.1923 -0.5006
 3496SOL    HW222125   3.208   1.510  12.658  1.0968  0.3677 -0.9242
 3497SOL     OW22126   2.434   4.680   3.705 -0.4262 -0.2693 -0.0244
 3497SOL    HW122127   2.481   4.619   3.762 -0.8724 -0.1009  0.5161
 3497SOL    HW222128   2.412   4.615   3.637 -2.6419  1.4124 -0.9076
 3498SOL     OW22129   1.963   1.785   8.143 -0.0382 -0.2465 -0.2303
 3498SOL    HW122130   1.952   1.770   8.049 -0.7681 -0.6317 -0.0752
 3498SOL    HW222131   2.018   1.709   8.162 -0.7693 -0.9037 -0.7518
 3499SOL     OW22132   0.119   3.629   4.870 -0.5590 -0.0545  0.2091
 3499SOL    HW122133   0.028   3.634   4.843  0.1193 -0.5418 -2.1088
 3499SOL    HW222134   0.151   3.552   4.825  0.3233 -0.1109  0.9305
 3500SOL     OW22135   3.574   1.724  12.876  0.5797  0.8124  0.3904
 3500SOL    HW122136   3.546   1.745  12.965  0.6309  0.1952  0.5529
 3500SOL    HW222137   3.669   1.724  12.883  0.5769  3.1029  0.5878
 3501SOL     OW22138   0.087   3.565  11.412  0.0743  0.3600  0.1964
 3501SOL    HW122139   0.003   3.567  11.368 -0.4962 -0.4730  1.2437
 3501SOL    HW222140   0.063   3.579  11.504  0.7812  0.2297  0.4071
 3502SOL     OW22141   3.191   1.191   3.982  0.0838 -0.0928  0.2054
 3502SOL    HW122142   3.117   1.174   4.040  0.9357  0.7118  1.5174
 3502SOL    HW222143   3.184   1.125   3.913 -0.6638 -0.9271  1.0813
 3503SOL     OW22144   4.712   1.410   4.259  0.7266 -0.4962 -0.3434
 3503SOL    HW122145   0.063   1.448   4.251 -0.8357  2.8999 -1.0716
 3503SOL    HW222146   4.667   1.455   4.188 -0.2620 -1.4532 -0.3247
 3504SOL     OW22147   4.116   3.117   6.821 -0.1888 -0.2014  0.4963
 3504SOL    HW122148   4.104   3.090   6.730  2.1469  2.7557 -0.6732
 3504SOL    HW222149   4.059   3.194   6.817 -2.1007 -1.7059 -1.4817
 3505SOL     OW22150   3.558   1.961   2.137 -0.4523  0.0155 -0.2885
 3505SOL    HW122151   3.518   1.961   2.050 -2.2128 -1.7617  0.5231
 3505SOL    HW222152   3.601   1.875   2.133  2.9515  1.5443  3.8923
 3506SOL     OW22153   1.296   3.047   0.046 -0.5875 -0.2527  0.3173
 3506SOL    HW122154   1.241   2.977   0.009  1.1982 -0.9796 -0.9578
 3506SOL    HW222155   1.299   3.045   0.142  2.3092 -0.6034  0.2000
 3507SOL     OW22156   1.234   0.951   3.708 -0.0475 -0.0657 -0.1807
 3507SOL    HW122157   1.308   0.985   3.659  0.1208 -0.0754  0.0659
 3507SOL    HW222158   1.278   0.933   3.791 -0.5498 -0.3833  0.0164
 3508SOL     OW22159   1.892   2.190  13.522  0.3934 -0.8059  0.1782
 3508SOL    HW122160   1.880   2.279  13.489 -0.8034 -0.5929  1.2000
 3508SOL    HW222161   1.949   2.148  13.458 -0.9033 -3.0229  0.4869
 3509SOL     OW22162   0.695   4.211   9.715 -0.3794 -0.9231  0.0969
 3509SOL    HW122163   0.729   4.256   9.638 -1.3086  1.4688  1.0854
 3509SOL    HW222164   0.640   4.145   9.674  1.6551 -2.5346 -0.0437
 3510SOL     OW22165   3.196   1.109  10.056 -0.1754  0.2131  0.4662
 3510SOL    HW122166   3.251   1.182  10.081  0.6626 -0.3545  0.2818
 3510SOL    HW222167   3.229   1.040  10.114 -1.2139  0.6206  1.5233
 3511SOL     OW22168   4.351   2.432   2.701  0.1451 -0.0878  0.5591
 3511SOL    HW122169   4.328   2.340   2.694 -0.9105  0.2522 -0.4626
 3511SOL    HW222170   4.419   2.434   2.634 -1.0757  0.0773 -0.6886
 3512SOL     OW22171   1.340   1.449   5.971  0.1755 -0.2724 -0.5902
 3512SOL    HW122172   1.342   1.366   5.924  2.2016 -0.3936 -0.3142
 3512SOL    HW222173   1.247   1.457   5.991 -0.1163 -1.0786 -1.6547
 3513SOL     OW22174   0.474   3.825   5.204 -0.0721 -0.6655  1.2798
 3513SOL    HW122175   0.517   3.878   5.137 -0.8657 -3.5304 -1.4988
 3513SOL    HW222176   0.491   3.873   5.285  1.0625  0.6776  0.2494
 3514SOL     OW22177   3.980   0.679   2.739  0.0924 -0.6564 -0.3670
 3514SOL    HW122178   3.989   0.586   2.758  0.9213 -0.3232  0.8720
 3514SOL    HW222179   3.899   0.701   2.785 -0.3304  0.8447 -1.8391
 3515SOL     OW22180   1.174   0.623   5.576 -0.3822 -0.1107  0.0103
 3515SOL    HW122181   1.195   0.602   5.485  2.4584 -0.8132  0.8220
 3515SOL    HW222182   1.250   0.672   5.607 -0.0554 -1.0039  0.6077
 3516SOL     OW22183   4.243   3.874   9.431 -0.1718  0.0111 -0.0519
 3516SOL    HW122184   4.293   3.949   9.399 -0.6854 -0.9688 -3.1636
 3516SOL    HW222185   4.164   3.916   9.466  0.2046  0.3993  0.3282
 3517SOL     OW22186   4.095   1.825   7.296 -0.2634  0.1442  0.1025
 3517SOL    HW122187   4.056   1.902   7.338 -1.2802 -1.5234  2.2429
 3517SOL    HW222188   4.139   1.861   7.219  0.2752 -1.1618 -0.2031
 3518SOL     OW22189   4.124   1.955   2.935  0.1512 -0.2456 -0.7861
 3518SOL    HW122190   4.200   1.932   2.881 -0.8029 -2.1172 -1.3481
 3518SOL    HW222191   4.060   1.998   2.879 -1.8080  2.1643  3.3037
 3519SOL     OW22192   3.811   1.475   6.864 -0.1369  0.2419  0.2794
 3519SOL    HW122193   3.823   1.447   6.774 -2.1138  0.0712  0.0688
 3519SOL    HW222194   3.900   1.501   6.891  0.0701 -0.4402  0.2393
 3520SOL     OW22195   4.015   0.901   2.968  0.1027 -0.0073 -0.1077
 3520SOL    HW122196   4.106   0.924   2.952  0.5354 -2.0953 -0.6629
 3520SOL    HW222197   4.006   0.941   3.055 -1.8853 -0.1175 -0.2602
 3521SOL     OW22198   0.418   0.963   0.135  0.1457 -0.0357  0.1888
 3521SOL    HW122199   0.433   1.056   0.150  1.2264 -0.5162  1.9942
 3521SOL    HW222200   0.424   0.955   0.040  2.7811  0.1365  0.3572
 3522SOL     OW22201   1.287   0.798  17.426 -0.1470  0.5947  0.6014
 3522SOL    HW122202   1.235   0.782  17.504  0.0464 -2.7154  0.0323
 3522SOL    HW222203   1.304   0.711  17.391  1.0073  0.7887  0.6690
 3523SOL     OW22204   0.814   2.473   2.022 -0.5310 -0.2009 -0.1287
 3523SOL    HW122205   0.844   2.408   1.959  0.5454 -0.8259  1.0323
 3523SOL    HW222206   0.720   2.465   2.008 -0.7318  0.5004  0.8124
 3524SOL     OW22207   2.139   0.113   9.068 -0.0611  0.1281 -0.0208
 3524SOL    HW122208   2.210   0.174   9.085  0.9270 -0.9581 -0.2726
 3524SOL    HW222209   2.069   0.154   9.119  1.4341  0.5384  1.6763
 3525SOL     OW22210   3.801   3.927  17.653  0.2527 -0.3219 -0.3991
 3525SOL    HW122211   3.877   3.960  17.605 -0.6256  0.0776 -1.5051
 3525SOL    HW222212   3.815   3.974  17.736 -1.7721 -0.9176  0.2788
 3526SOL     OW22213   1.679   1.697   5.149  0.4979  0.1089  0.8079
 3526SOL    HW122214   1.606   1.730   5.201  1.7112  0.4788  2.2613
 3526SOL    HW222215   1.751   1.739   5.196  0.2156 -0.8243  2.0622
 3527SOL     OW22216   2.083   3.035   0.729  0.4301 -0.5853 -0.2567
 3527SOL    HW122217   2.068   3.104   0.664  1.7556 -2.0496 -2.0631
 3527SOL    HW222218   2.168   3.058   0.765  0.5456 -2.6272  0.7878
 3528SOL     OW22219   0.815   2.177   6.568 -0.9346 -0.5614 -1.3988
 3528SOL    HW122220   0.793   2.241   6.636 -0.3819 -1.4673 -0.3689
 3528SOL    HW222221   0.823   2.233   6.491  1.3943  1.3825  0.2592
 3529SOL     OW22222   2.648   2.142   9.702  0.0338 -0.9260 -0.1429
 3529SOL    HW122223   2.624   2.235   9.704  1.8736 -0.4365 -1.1024
 3529SOL    HW222224   2.714   2.130   9.634 -0.2888  1.0551 -0.7967
 3530SOL     OW22225   2.365   0.239   4.914  1.0478 -0.3813  0.1409
 3530SOL    HW122226   2.309   0.314   4.895  1.1429  0.2901  2.5750
 3530SOL    HW222227   2.332   0.167   4.860 -0.0006 -0.0256  0.3106
 3531SOL     OW22228   2.715   1.081  12.189 -0.2293  0.3725  0.0072
 3531SOL    HW122229   2.635   1.109  12.233  0.7509 -0.2788  2.1818
 3531SOL    HW222230   2.674   0.999  12.159  0.7417 -0.1581  0.1177
 3532SOL     OW22231   2.983   1.031   9.864 -0.5513  0.6701  0.1703
 3532SOL    HW122232   3.056   1.057   9.920 -2.6558  2.7140  1.9418
 3532SOL    HW222233   2.914   1.083   9.905 -0.8375 -1.1925  2.0787
 3533SOL     OW22234   3.388   1.202   9.514  0.7957  0.1431 -0.7271
 3533SOL    HW122235   3.450   1.132   9.497  0.8310 -0.1413  0.5345
 3533SOL    HW222236   3.340   1.175   9.593  0.1635  0.0017 -1.1647
 3534SOL     OW22237   3.372   3.302   2.238  0.3502 -0.1755  0.3521
 3534SOL    HW122238   3.292   3.335   2.280 -0.4712 -0.6737 -0.8323
 3534SOL    HW222239   3.430   3.289   2.313 -1.8175 -1.0499  1.8813
 3535SOL     OW22240   2.392   1.909   5.848 -0.5226  0.1040  0.2351
 3535SOL    HW122241   2.381   1.958   5.930  1.5827  2.0746 -0.6317
 3535SOL    HW222242   2.453   1.840   5.873  0.9428  0.8821 -1.1177
 3536SOL     OW22243   0.916   2.465  17.713  0.4765 -0.5173  0.2069
 3536SOL    HW122244   0.891   2.506   0.050  0.3382  0.8251 -0.5110
 3536SOL    HW222245   0.953   2.380  17.738 -2.0602 -1.0246  2.2445
 3537SOL     OW22246   1.236   3.321   3.235  0.0872  0.2438  0.5471
 3537SOL    HW122247   1.233   3.331   3.140  2.7798 -0.6160  0.3611
 3537SOL    HW222248   1.331   3.305   3.238  0.4563  1.6975 -3.0740
 3538SOL     OW22249   0.091   4.439   3.694 -0.0646  0.3044 -0.4574
 3538SOL    HW122250   0.046   4.510   3.648  1.2647  0.0601 -2.1146
 3538SOL    HW222251   0.118   4.387   3.619  2.3331  1.6891 -0.5494
 3539SOL     OW22252   2.926   3.636  14.117  0.1151 -0.1709  0.9215
 3539SOL    HW122253   2.991   3.585  14.068 -0.7512  0.0677 -0.4658
 3539SOL    HW222254   2.969   3.721  14.125 -1.4265  0.7962 -1.3582
 3540SOL     OW22255   2.530   1.287   3.755 -0.0648  0.2953  0.2028
 3540SOL    HW122256   2.607   1.245   3.793 -0.1390  0.4118  0.4883
 3540SOL    HW222257   2.548   1.378   3.777  1.2606  0.4736 -1.6862
 3541SOL     OW22258   1.438   0.768   3.104 -0.2086 -0.1711  0.1486
 3541SOL    HW122259   1.451   0.707   3.032  2.2385 -0.7301  1.0785
 3541SOL    HW222260   1.482   0.723   3.175 -0.0718  0.6595  0.5970
 3542SOL     OW22261   2.638   1.021   7.613 -0.3174 -0.3388 -0.1278
 3542SOL    HW122262   2.634   0.980   7.526  0.0687 -0.2800 -0.1720
 3542SOL    HW222263   2.725   1.058   7.603 -1.1632  1.8693  0.7915
 3543SOL     OW22264   2.824   0.463   3.693  0.2892 -0.1197 -0.1335
 3543SOL    HW122265   2.797   0.376   3.724  0.2046  1.0615  3.0502
 3543SOL    HW222266   2.745   0.515   3.678 -0.8755 -1.8252  0.0261
 3544SOL     OW22267   4.121   1.502   4.744  0.0732  0.8829  0.0578
 3544SOL    HW122268   4.159   1.580   4.704  0.9533 -0.1221 -1.0465
 3544SOL    HW222269   4.074   1.461   4.671  0.2564 -0.8259  0.9056
 3545SOL     OW22270   3.256   1.658  13.060  0.7964  0.1188  0.0056
 3545SOL    HW122271   3.234   1.747  13.034  0.2048 -0.0682 -0.1316
 3545SOL    HW222272   3.178   1.639  13.112  0.5728  3.0526  0.7448
 3546SOL     OW22273   2.948   2.565   0.096 -0.2357  0.2022 -0.4574
 3546SOL    HW122274   2.864   2.606   0.078  0.2036  1.3704  0.1126
 3546SOL    HW222275   2.935   2.478   0.059  1.2209  0.0162 -0.5622
 3547SOL     OW22276   3.028   1.646  15.971 -0.5518  0.3704 -0.2911
 3547SOL    HW122277   2.948   1.653  15.920 -0.9308  1.2399  0.4209
 3547SOL    HW222278   3.102   1.676  15.917  0.2522  1.1458  1.2366
 3548SOL     OW22279   0.382   4.043   6.022  0.0628 -0.4667  0.2761
 3548SOL    HW122280   0.401   4.121   5.969  0.9756 -0.8964 -0.0254
 3548SOL    HW222281   0.370   3.977   5.954  1.5819  0.2385 -0.6871
 3549SOL     OW22282   2.341   4.346  17.687 -0.5527 -0.4585  0.6903
 3549SOL    HW122283   2.292   4.310  17.613 -2.3407  1.2701  1.0595
 3549SOL    HW222284   2.421   4.373  17.640 -1.0273 -0.5322 -0.1568
 3550SOL     OW22285   2.770   0.327   6.068  0.2781 -0.7078  0.3019
 3550SOL    HW122286   2.802   0.369   6.147  1.7900 -0.2701 -0.5477
 3550SOL    HW222287   2.742   0.243   6.104  0.6334 -0.6001  0.8268
 3551SOL     OW22288   3.914   3.779  11.198  0.1233 -0.2250 -0.1836
 3551SOL    HW122289   3.851   3.727  11.248  2.4352 -2.1292  0.7446
 3551SOL    HW222290   3.918   3.851  11.260 -1.4900 -0.7798  0.5700
 3552SOL     OW22291   0.328   1.178   2.079  0.4032 -0.5814  0.2012
 3552SOL    HW122292   0.234   1.166   2.064  0.2781 -1.8112  1.8862
 3552SOL    HW222293   0.330   1.273   2.092 -0.0387 -0.6099  0.4756
 3553SOL     OW22294   3.755   3.543  11.164  0.2996 -0.1194 -0.1454
 3553SOL    HW122295   3.849   3.555  11.155  0.1939  0.3108 -0.7368
 3553SOL    HW222296   3.717   3.569  11.080  0.1156 -1.4694 -0.4804
 3554SOL     OW22297   0.546   1.387   7.625 -0.0813 -0.2336 -0.0521
 3554SOL    HW122298   0.528   1.293   7.619  1.9366 -0.6486  0.5667
 3554SOL    HW222299   0.556   1.403   7.718 -0.1603 -0.6745  0.0354
 3555SOL     OW22300   1.332   3.259   7.633  0.1370 -0.0381 -0.0296
 3555SOL    HW122301   1.306   3.295   7.548 -2.2449 -0.1997  0.6204
 3555SOL    HW222302   1.247   3.220   7.655  0.9506 -1.0236  1.3673
 3556SOL     OW22303   1.797   2.113  12.652  0.1398 -0.0757  0.1027
 3556SOL    HW122304   1.780   2.204  12.631 -2.4417 -0.5166  0.3182
 3556SOL    HW222305   1.887   2.102  12.621  0.7582  0.9981  1.5187
 3557SOL     OW22306   2.309   2.368   6.695 -0.5195 -0.0309  0.7953
 3557SOL    HW122307   2.224   2.394   6.658 -1.0413 -0.3709  1.7639
 3557SOL    HW222308   2.369   2.389   6.624 -1.2605 -1.6378 -0.2981
 3558SOL     OW22309   4.233   0.272   1.464 -0.2018 -0.0946 -0.2099
 3558SOL    HW122310   4.214   0.365   1.459  1.8805  0.4582  2.4677
 3558SOL    HW222311   4.141   0.244   1.464 -0.3988  0.5599 -1.0093
 3559SOL     OW22312   1.221   1.306   5.601 -0.0380 -0.3043  0.1592
 3559SOL    HW122313   1.191   1.368   5.535  0.2090 -0.1337  0.2099
 3559SOL    HW222314   1.316   1.318   5.599  0.2300 -2.0231  2.6243
 3560SOL     OW22315   1.977   1.255   3.460  0.5101 -0.4214 -0.4287
 3560SOL    HW122316   2.058   1.277   3.413 -0.1869  1.6267 -0.6349
 3560SOL    HW222317   1.938   1.342   3.460  0.9456 -0.2164 -3.3758
 3561SOL     OW22318   2.925   2.812  11.248 -0.5773  0.6222 -0.1005
 3561SOL    HW122319   2.853   2.817  11.310  0.5211  0.8108  1.1542
 3561SOL    HW222320   2.900   2.873  11.179  0.2845  0.1786 -0.8079
 3562SOL     OW22321   2.434   4.102   8.184 -0.0577 -0.1147  0.2603
 3562SOL    HW122322   2.461   4.098   8.276  1.1836 -1.3400 -0.1549
 3562SOL    HW222323   2.347   4.141   8.189 -0.6135 -1.7828  3.5747
 3563SOL     OW22324   4.295   1.512  15.469  0.0600 -0.5464  0.3758
 3563SOL    HW122325   4.295   1.417  15.486 -0.6174 -0.9798 -2.0099
 3563SOL    HW222326   4.376   1.541  15.512 -1.1265  1.1551  1.4226
 3564SOL     OW22327   4.616   0.787   7.917 -0.3660  0.0258  0.3251
 3564SOL    HW122328   4.643   0.701   7.885 -1.6367 -0.8626  1.6788
 3564SOL    HW222329   4.585   0.837   7.841 -0.3620 -2.8920 -1.5843
 3565SOL     OW22330   3.917   1.690   5.519 -0.6025  0.1541 -0.1056
 3565SOL    HW122331   3.943   1.683   5.427  1.7917  0.1435  0.5731
 3565SOL    HW222332   3.822   1.700   5.520 -0.8574 -2.1666 -1.9082
 3566SOL     OW22333   0.774   3.198   5.512 -0.2123 -0.0777  0.2370
 3566SOL    HW122334   0.835   3.246   5.569  0.8501 -0.4356 -0.5881
 3566SOL    HW222335   0.689   3.232   5.538  0.1186  1.3469 -0.5517
 3567SOL     OW22336   2.611   0.561   8.743 -0.1431 -0.2359 -0.4914
 3567SOL    HW122337   2.685   0.510   8.708  1.4827  0.3081  2.1384
 3567SOL    HW222338   2.572   0.512   8.814 -0.1009  0.1703 -0.1869
 3568SOL     OW22339   1.587   0.153   3.644 -0.4649 -0.1035  0.2602
 3568SOL    HW122340   1.548   0.137   3.729 -0.4199 -0.5806  0.1865
 3568SOL    HW222341   1.595   0.061   3.619  0.6768  0.4021 -1.2545
 3569SOL     OW22342   2.568   1.686   1.857  0.0714 -0.6076  0.4684
 3569SOL    HW122343   2.653   1.678   1.813  0.7206  2.7682  1.0822
 3569SOL    HW222344   2.599   1.710   1.945 -0.3505 -0.9248  0.7026
 3570SOL     OW22345   1.553   1.164   9.324 -0.5083 -0.2219  0.7999
 3570SOL    HW122346   1.551   1.097   9.255  1.8968  1.0714 -0.5355
 3570SOL    HW222347   1.630   1.128   9.369  0.7997  0.3179 -0.9867
 3571SOL     OW22348   4.725   0.016   9.846  0.0266  0.9237  0.3706
 3571SOL    HW122349   4.711   0.032   9.752 -2.2922 -0.5660  0.4448
 3571SOL    HW222350   4.633   0.010   9.873  0.1120 -3.4026 -0.3042
 3572SOL     OW22351   2.595   3.709   6.283 -1.0106  0.1343 -0.0698
 3572SOL    HW122352   2.537   3.679   6.354 -0.5060 -0.7842 -0.0409
 3572SOL    HW222353   2.623   3.624   6.249  0.5452  1.2159 -1.4596
 3573SOL     OW22354   3.914   1.937   1.121 -0.6705 -0.2882  0.3524
 3573SOL    HW122355   3.977   2.004   1.092 -1.0158 -0.2267 -0.2525
 3573SOL    HW222356   3.838   1.994   1.128  0.1391  0.7308  0.9510
 3574SOL     OW22357   4.369   2.705   2.726 -0.0485  0.7250  0.0306
 3574SOL    HW122358   4.354   2.611   2.721 -3.4769  1.2880 -0.0684
 3574SOL    HW222359   4.422   2.701   2.805  0.4054  0.6852 -0.2748
 3575SOL     OW22360   2.882   2.845   6.890 -0.2853  0.6520  0.5679
 3575SOL    HW122361   2.972   2.825   6.915 -0.2753 -0.1645 -0.1034
 3575SOL    HW222362   2.862   2.772   6.832 -0.1911  1.4677 -0.4785
 3576SOL     OW22363   0.786   2.184   2.159  0.5462  0.3559 -0.1178
 3576SOL    HW122364   0.740   2.118   2.211  0.3077  1.9932  1.7564
 3576SOL    HW222365   0.805   2.248   2.228 -1.0231  1.6809 -0.9092
 3577SOL     OW22366   3.300   1.710  15.237  0.5641 -0.0335 -0.1907
 3577SOL    HW122367   3.321   1.616  15.232 -0.9475 -0.2401 -2.5980
 3577SOL    HW222368   3.358   1.746  15.170  1.0560 -2.0629 -0.8654
 3578SOL     OW22369   3.195   1.866  14.127 -0.0187 -0.2360 -0.2808
 3578SOL    HW122370   3.236   1.953  14.133 -0.8285  0.2546 -1.8057
 3578SOL    HW222371   3.104   1.897  14.121  0.5087  1.8678  2.4789
 3579SOL     OW22372   0.372   4.572   4.747 -0.4302  0.6356 -0.4563
 3579SOL    HW122373   0.312   4.615   4.686 -1.1825 -0.6933 -0.6497
 3579SOL    HW222374   0.435   4.643   4.761 -0.7166  0.2604  2.8929
 3580SOL     OW22375   4.373   2.351  13.037 -0.4309 -0.1913  0.0361
 3580SOL    HW122376   4.384   2.318  12.948  0.5266  1.4500 -0.4530
 3580SOL    HW222377   4.279   2.360  13.049 -0.5639 -0.0244 -1.1685
 3581SOL     OW22378   1.153   2.209  11.219  0.0201  0.6264  0.2104
 3581SOL    HW122379   1.162   2.148  11.293 -1.8683  1.1030  0.8060
 3581SOL    HW222380   1.194   2.280  11.269  1.8085 -1.0627  1.1832
 3582SOL     OW22381   1.004   0.054   5.116  0.0241 -0.0111 -0.4517
 3582SOL    HW122382   1.002   0.144   5.085  0.6621 -0.2696 -1.2258
 3582SOL    HW222383   0.957   0.017   5.041  0.1600 -0.4323 -0.3293
 3583SOL     OW22384   1.235   4.187   3.067  0.1001  0.5577 -0.0186
 3583SOL    HW122385   1.176   4.153   2.999  0.7620 -1.0273  0.1963
 3583SOL    HW222386   1.304   4.122   3.050 -1.2039 -0.4304 -1.5174
 3584SOL     OW22387   3.803   0.568   6.868 -0.3475 -0.0735 -0.3402
 3584SOL    HW122388   3.730   0.592   6.811  0.0556  1.7186 -0.1030
 3584SOL    HW222389   3.791   0.630   6.940  1.4880 -0.0460 -0.0684
 3585SOL     OW22390   2.680   4.538   4.383  0.1438  0.1100 -0.0927
 3585SOL    HW122391   2.687   4.621   4.337 -0.0066  0.0615 -0.2036
 3585SOL    HW222392   2.667   4.578   4.469 -0.4994 -0.3336  0.0147
 3586SOL     OW22393   0.699   1.405   7.983  0.4217  0.7179  0.4898
 3586SOL    HW122394   0.671   1.494   7.962 -1.1027  0.2034  0.3360
 3586SOL    HW222395   0.620   1.357   7.959 -0.5692  1.7607  1.5902
 3587SOL     OW22396   2.955   0.090   4.225 -0.0189  0.0056  0.0664
 3587SOL    HW122397   2.923   0.002   4.205  2.2934 -1.0956  1.2198
 3587SOL    HW222398   2.900   0.149   4.172  0.0730  0.4497  0.4654
 3588SOL     OW22399   2.466   1.007   7.805  0.0378  0.0802  0.2318
 3588SOL    HW122400   2.523   1.014   7.728 -0.5456  1.6406 -0.0485
 3588SOL    HW222401   2.532   0.965   7.860  0.4387 -2.5658 -2.2172
 3589SOL     OW22402   1.497   2.192   5.646 -0.1040 -0.4342 -0.0633
 3589SOL    HW122403   1.470   2.104   5.620 -0.5549 -0.0857 -0.7848
 3589SOL    HW222404   1.439   2.204   5.721 -1.3622 -0.2949 -1.0574
 3590SOL     OW22405   4.258   3.663  14.940 -0.4201 -0.6166 -0.0299
 3590SOL    HW122406   4.267   3.640  15.032 -0.5505 -0.7505 -0.0506
 3590SOL    HW222407   4.275   3.579  14.897  1.8629 -0.3450  0.3378
 3591SOL     OW22408   1.435   1.664  14.516 -0.2860 -0.1731 -0.0202
 3591SOL    HW122409   1.477   1.658  14.431 -0.0681 -1.2058  0.1608
 3591SOL    HW222410   1.349   1.702  14.499 -1.1584 -1.5315  1.3487
 3592SOL     OW22411   3.328   4.719   8.876  0.1691  0.2859 -0.3500
 3592SOL    HW122412   3.415   4.709   8.837  0.3132 -2.7693  0.7393
 3592SOL    HW222413   3.278   4.652   8.830 -0.3389  0.2749  0.2225
 3593SOL     OW22414   2.609   0.496   1.704 -0.3360 -0.0626  0.0129
 3593SOL    HW122415   2.651   0.411   1.691  2.4569  1.4680 -1.0671
 3593SOL    HW222416   2.670   0.536   1.642 -0.2946  1.6799  1.1801
 3594SOL     OW22417   2.056   0.616   1.259 -0.2586 -0.7909 -0.6295
 3594SOL    HW122418   2.142   0.588   1.289  0.0133 -0.6380 -1.2803
 3594SOL    HW222419   1.997   0.578   1.325 -1.1917  2.0999  0.2001
 3595SOL     OW22420   2.972   2.105  15.149  1.3328 -0.4403  0.0897
 3595SOL    HW122421   3.048   2.066  15.105 -0.2316 -1.5966 -1.5553
 3595SOL    HW222422   3.012   2.190  15.170 -0.0264 -0.0408  1.0095
 3596SOL     OW22423   3.490   3.433   3.713  0.2457  0.2148  0.2544
 3596SOL    HW122424   3.415   3.406   3.661 -0.0082  2.3330 -0.4750
 3596SOL    HW222425   3.511   3.349   3.752  0.1161 -0.4624 -1.1364
 3597SOL     OW22426   3.692   2.159   3.120  0.3735  0.1740 -0.5169
 3597SOL    HW122427   3.703   2.068   3.147  1.7902  0.0499 -1.4877
 3597SOL    HW222428   3.760   2.177   3.055  1.8589 -2.9003  0.1712
 3598SOL     OW22429   3.909   4.040   4.298  0.9993  0.5996 -0.0957
 3598SOL    HW122430   3.911   4.099   4.373 -2.0604  0.8413 -0.1977
 3598SOL    HW222431   3.829   3.991   4.320  0.6200  2.0629  1.8183
 3599SOL     OW22432   3.371   4.005   5.737 -0.3412 -0.2317 -0.3365
 3599SOL    HW122433   3.400   3.916   5.756 -1.8947 -0.8233 -0.7193
 3599SOL    HW222434   3.300   4.010   5.801 -0.8629  1.7263 -1.0689
 3600SOL     OW22435   1.500   3.456   7.294  0.0545 -0.6747 -0.1970
 3600SOL    HW122436   1.559   3.397   7.247 -0.2448 -0.8401 -0.3679
 3600SOL    HW222437   1.558   3.530   7.313 -3.1444  1.7443  0.1002
 3601SOL     OW22438   1.977   0.681   2.053 -0.0768 -0.1466  0.1524
 3601SOL    HW122439   1.975   0.586   2.045 -0.0322 -0.0402 -1.1258
 3601SOL    HW222440   2.070   0.689   2.075 -0.1358  0.9959 -0.0164
 3602SOL     OW22441   1.493   3.155  16.566 -0.4280 -0.2121 -0.4159
 3602SOL    HW122442   1.531   3.099  16.634  1.8633  0.5514 -1.0717
 3602SOL    HW222443   1.522   3.108  16.489  0.6284  1.5214 -1.0572
 3603SOL     OW22444   3.698   0.658   4.076  0.6271 -0.2239  0.0224
 3603SOL    HW122445   3.725   0.748   4.058  1.5705 -0.4367  0.3583
 3603SOL    HW222446   3.658   0.676   4.161  0.3572  0.9044 -0.3381
 3604SOL     OW22447   3.929   3.918   8.445  0.1478 -0.5313 -0.3812
 3604SOL    HW122448   3.873   3.940   8.519 -1.6972 -1.7857 -1.3915
 3604SOL    HW222449   3.915   3.825   8.430  0.9311 -0.6195 -0.5289
 3605SOL     OW22450   3.144   3.004  15.397  0.5011  0.4414  0.1366
 3605SOL    HW122451   3.225   2.967  15.431 -0.1525 -1.0696  0.0473
 3605SOL    HW222452   3.080   2.933  15.407  0.7711  0.1766 -0.0106
 3606SOL     OW22453   3.148   0.524   1.924  0.0559  0.7838 -0.2473
 3606SOL    HW122454   3.162   0.530   1.829 -3.5658 -0.5015 -0.8570
 3606SOL    HW222455   3.225   0.571   1.956  0.6365  0.7055 -1.4923
 3607SOL     OW22456   0.815   1.685   1.654  0.3022  0.4262 -0.5237
 3607SOL    HW122457   0.720   1.673   1.646  0.2854  1.6696 -2.2084
 3607SOL    HW222458   0.829   1.632   1.732 -1.6645 -0.2500 -0.6324
 3608SOL     OW22459   1.115   3.621   6.457 -0.2666 -0.2182 -0.1226
 3608SOL    HW122460   1.055   3.579   6.518  0.7505 -3.0720 -1.1117
 3608SOL    HW222461   1.191   3.606   6.512  0.0774  1.4903 -0.1426
 3609SOL     OW22462   1.252   0.083  10.700  0.6873 -0.7757 -0.2618
 3609SOL    HW122463   1.254   0.160  10.757  1.4693 -1.8496  1.1771
 3609SOL    HW222464   1.193   0.105  10.628  0.6549  1.5397  0.4652
 3610SOL     OW22465   0.239   1.639   9.679 -0.1810 -0.0747 -0.2947
 3610SOL    HW122466   0.252   1.699   9.606 -0.4076 -0.1422 -0.3883
 3610SOL    HW222467   0.210   1.703   9.745  0.9975 -0.1107  0.2674
 3611SOL     OW22468   0.245   4.015   2.759 -0.3614 -0.1014  0.0466
 3611SOL    HW122469   0.223   4.108   2.757  1.0846  0.2697  1.0845
 3611SOL    HW222470   0.164   3.968   2.777 -1.4678  1.0998 -1.8024
 3612SOL     OW22471   3.635   2.997   4.548 -0.3723 -0.3614  0.4199
 3612SOL    HW122472   3.584   2.991   4.467  0.5307  1.3717 -0.2690
 3612SOL    HW222473   3.626   3.091   4.556 -0.5034 -0.1408 -2.3249
 3613SOL     OW22474   1.649   1.142  11.773  0.0512 -0.2699 -0.0307
 3613SOL    HW122475   1.660   1.152  11.679 -1.1538 -0.6506 -0.2199
 3613SOL    HW222476   1.683   1.216  11.823 -0.1644  0.2659 -0.6687
 3614SOL     OW22477   2.773   2.789   8.907  0.2110  0.0824  0.9513
 3614SOL    HW122478   2.851   2.818   8.860  0.9921 -0.3393  1.9800
 3614SOL    HW222479   2.751   2.863   8.964  0.2908 -0.1455  1.2824
 3615SOL     OW22480   4.290   0.403   2.725 -0.3360 -0.7477 -0.0749
 3615SOL    HW122481   4.273   0.420   2.632 -1.2326  0.4665  0.3086
 3615SOL    HW222482   4.374   0.447   2.742 -2.3985  2.7372  1.0672
 3616SOL     OW22483   4.566   3.784   7.133 -0.4787  0.2213 -0.4667
 3616SOL    HW122484   4.559   3.738   7.050 -0.7289 -0.3772 -0.1117
 3616SOL    HW222485   4.527   3.869   7.112  2.0495  1.1595 -1.3463
 3617SOL     OW22486   0.620   2.030   4.195 -0.1193 -0.3333  0.3936
 3617SOL    HW122487   0.586   2.005   4.109 -0.8821 -2.4211  1.2922
 3617SOL    HW222488   0.706   1.988   4.201  0.6921  1.1448 -1.0712
 3618SOL     OW22489   3.050   2.577   8.527  0.5533 -0.4337 -0.8046
 3618SOL    HW122490   3.112   2.528   8.473  4.2208  2.8462  0.4051
 3618SOL    HW222491   3.100   2.589   8.608 -1.0382  0.8069  0.0111
 3619SOL     OW22492   4.018   2.714   8.510  0.3343 -0.0153  0.3522
 3619SOL    HW122493   4.072   2.640   8.539  1.8781  0.8850 -0.2363
 3619SOL    HW222494   4.033   2.783   8.575  1.7220 -1.6581  1.7745
 3620SOL     OW22495   0.724   0.415   8.010  0.0009 -0.5098 -0.1642
 3620SOL    HW122496   0.732   0.444   8.101  1.4364 -0.5175 -0.2751
 3620SOL    HW222497   0.734   0.494   7.956  1.3940 -1.1999 -0.9392
 3621SOL     OW22498   4.467   2.086   0.118 -0.9515 -0.7335 -0.1333
 3621SOL    HW122499   4.542   2.055   0.066 -0.4816 -0.5773  0.4471
 3621SOL    HW222500   4.488   2.178   0.137 -1.4188 -0.3635 -1.4207
 3622SOL     OW22501   0.887   2.764   3.964  0.0728 -0.0012  0.5431
 3622SOL    HW122502   0.851   2.675   3.959 -0.9281  0.2411  3.4715
 3622SOL    HW222503   0.874   2.776   4.058 -0.2590 -0.1674  0.5192
 3623SOL     OW22504   4.510   2.469  13.237 -0.1749  0.5194 -0.6951
 3623SOL    HW122505   4.466   2.425  13.164  0.0152  0.0400 -0.5175
 3623SOL    HW222506   4.578   2.404  13.252 -0.3589  0.5963  0.4133
 3624SOL     OW22507   1.442   2.309   8.525  0.3771  0.3741 -0.2492
 3624SOL    HW122508   1.443   2.328   8.431 -0.1949 -0.9066 -0.5143
 3624SOL    HW222509   1.535   2.297   8.547  0.2138 -0.0581  0.1967
 3625SOL     OW22510   2.718   4.662  12.473 -0.7079 -0.2204 -0.5730
 3625SOL    HW122511   2.770   4.708  12.539 -2.5108  0.1177  0.6024
 3625SOL    HW222512   2.716   4.729  12.405  0.2930  0.6219  0.2226
 3626SOL     OW22513   3.693   4.416   2.968  0.3160 -0.6191  0.4659
 3626SOL    HW122514   3.748   4.351   3.012  3.2336 -0.2551 -2.6243
 3626SOL    HW222515   3.613   4.370   2.944 -0.6898  0.4417  1.7847
 3627SOL     OW22516   0.065   3.705  14.748 -0.1331 -0.2316  0.0161
 3627SOL    HW122517   0.077   3.712  14.842  1.1689  0.9961 -0.2305
 3627SOL    HW222518   0.046   3.793  14.715 -2.5744 -1.1130 -0.8963
 3628SOL     OW22519   4.665   3.163   6.351 -0.6040  0.2240  0.5204
 3628SOL    HW122520   4.688   3.104   6.423  2.5246 -0.6642 -1.2397
 3628SOL    HW222521   4.676   3.249   6.391 -0.0597  0.8613 -1.0132
 3629SOL     OW22522   0.479   1.840  11.216 -0.3702  0.2722  0.5626
 3629SOL    HW122523   0.483   1.936  11.213 -0.6314  0.2823  0.5069
 3629SOL    HW222524   0.543   1.817  11.149  1.2328  2.5355  1.2913
 3630SOL     OW22525   0.704   3.238   6.317 -0.0422  0.6044 -0.2900
 3630SOL    HW122526   0.648   3.310   6.348 -2.0492 -1.2305  0.2912
 3630SOL    HW222527   0.752   3.283   6.247 -0.2712  1.0429 -0.1681
 3631SOL     OW22528   0.035   2.277   6.749 -0.8694  0.2674  0.0497
 3631SOL    HW122529   0.051   2.275   6.654  0.0261 -0.6330  0.2160
 3631SOL    HW222530   0.069   2.194   6.780 -1.0782 -0.5904 -1.9655
 3632SOL     OW22531   2.659   1.404   2.925 -0.7940 -0.5363 -0.1342
 3632SOL    HW122532   2.608   1.416   2.845 -1.5354 -0.8599  0.2930
 3632SOL    HW222533   2.645   1.315   2.957  0.5906 -0.6523  0.1370
 3633SOL     OW22534   4.442   0.571   2.248  0.2345 -0.1036  0.2092
 3633SOL    HW122535   4.517   0.619   2.282  1.9861 -1.2973 -1.9915
 3633SOL    HW222536   4.445   0.598   2.156  1.3527 -0.5918  0.1048
 3634SOL     OW22537   3.157   0.942   5.443  1.1401 -0.3557 -0.3094
 3634SOL    HW122538   3.169   0.859   5.398  1.9081 -0.2620 -0.2686
 3634SOL    HW222539   3.147   0.898   5.527  0.4319  3.7265  1.7463
 3635SOL     OW22540   2.374   3.151  13.115 -0.3480  0.4124 -0.6314
 3635SOL    HW122541   2.387   3.197  13.198  2.3053 -1.4361 -0.0288
 3635SOL    HW222542   2.453   3.098  13.123 -1.0516 -0.8683 -2.1955
 3636SOL     OW22543   3.424   4.280  12.174  0.1858  0.0116 -0.3150
 3636SOL    HW122544   3.342   4.300  12.129 -1.1244  1.9613  2.9359
 3636SOL    HW222545   3.485   4.279  12.100  0.0222 -1.8123 -0.4239
 3637SOL     OW22546   3.195   0.678  17.201 -0.1784  0.2506 -0.1350
 3637SOL    HW122547   3.230   0.731  17.273 -1.7124 -0.0854  0.8628
 3637SOL    HW222548   3.101   0.695  17.195  0.2908  1.5586 -3.6070
 3638SOL     OW22549   1.768   0.764  17.571  0.2050 -0.0679 -0.1522
 3638SOL    HW122550   1.767   0.749  17.477 -0.8046 -2.0896  0.1718
 3638SOL    HW222551   1.686   0.723  17.599 -1.0066  1.6213 -1.2327
 3639SOL     OW22552   4.581   2.712   8.348 -0.4453 -0.0224 -0.2419
 3639SOL    HW122553   4.656   2.667   8.387 -1.0172  0.1201  1.0253
 3639SOL    HW222554   4.538   2.748   8.425 -0.5112 -1.9866  0.6307
 3640SOL     OW22555   0.091   4.399  16.624 -0.4750 -0.4483  0.6616
 3640SOL    HW122556   0.022   4.444  16.672 -0.6620 -0.0937  0.0593
 3640SOL    HW222557   0.161   4.453  16.662  0.4159 -2.1687  1.4530
 3641SOL     OW22558   3.644   3.147  15.443 -0.3157  0.2357  0.5116
 3641SOL    HW122559   3.624   3.057  15.420  0.8378 -0.3246  1.6461
 3641SOL    HW222560   3.555   3.180  15.458 -0.9293 -1.3659  0.4331
 3642SOL     OW22561   2.081   3.635   2.925  0.3424 -0.1572 -0.1429
 3642SOL    HW122562   2.040   3.672   3.003 -2.4480 -1.7196 -0.8622
 3642SOL    HW222563   2.171   3.623   2.956  0.4200 -0.0667 -0.3316
 3643SOL     OW22564   0.474   4.502   6.782  0.8499 -0.3100 -0.1919
 3643SOL    HW122565   0.537   4.441   6.822  1.0254 -0.4336 -0.6605
 3643SOL    HW222566   0.478   4.477   6.690  0.2866 -1.7630  0.1759
 3644SOL     OW22567   0.005   2.279   1.949 -0.3613 -0.3917  0.1645
 3644SOL    HW122568   0.082   2.326   1.982 -0.1563 -1.6939  1.4961
 3644SOL    HW222569   4.731   2.330   1.868  0.6686  0.8213  0.7934
 3645SOL     OW22570   0.578   2.627   6.768  0.6016  0.6491 -0.1966
 3645SOL    HW122571   0.548   2.704   6.817 -1.7276 -0.6863  0.4759
 3645SOL    HW222572   0.505   2.566   6.778 -0.9036  2.6214  0.8409
 3646SOL     OW22573   2.739   0.687   9.474 -0.5869 -0.0269 -0.1043
 3646SOL    HW122574   2.659   0.686   9.527 -1.5144 -0.1917 -1.4803
 3646SOL    HW222575   2.780   0.768   9.505 -0.2950  0.4478 -1.7233
 3647SOL     OW22576   0.681   1.040   3.779  0.7037 -0.7926  0.1241
 3647SOL    HW122577   0.590   1.029   3.805  0.6443  0.0796  0.2643
 3647SOL    HW222578   0.722   0.954   3.793  0.6185 -0.6510  1.2266
 3648SOL     OW22579   3.330   4.196   8.159 -0.3092  0.2378 -0.0845
 3648SOL    HW122580   3.238   4.197   8.130 -0.2407 -3.3524 -0.4322
 3648SOL    HW222581   3.362   4.259   8.095 -1.4681  1.1132  0.2018
 3649SOL     OW22582   3.426   3.095   0.160 -0.1534 -0.2133 -0.2156
 3649SOL    HW122583   3.498   3.075   0.221 -0.6841  1.9913  1.1587
 3649SOL    HW222584   3.445   3.023   0.101  0.8815  1.0489 -1.4256
 3650SOL     OW22585   3.650   1.960   4.292 -0.0012 -0.1728  0.1355
 3650SOL    HW122586   3.684   1.872   4.273 -0.4130  0.2833 -2.6794
 3650SOL    HW222587   3.583   1.933   4.354  0.1874  2.1971  1.3598
 3651SOL     OW22588   4.553   3.777   7.418 -0.5287  0.3673 -0.6236
 3651SOL    HW122589   4.634   3.756   7.465 -0.8405  0.4555 -0.0495
 3651SOL    HW222590   4.570   3.753   7.327 -1.3966 -0.7461 -0.4882
 3652SOL     OW22591   2.763   1.434  17.557  0.0830 -0.2016 -0.3315
 3652SOL    HW122592   2.765   1.499  17.487  0.5027 -1.2842 -1.3174
 3652SOL    HW222593   2.845   1.391  17.532  0.3923 -0.4951  1.1643
 3653SOL     OW22594   2.252   0.131   7.740 -0.4806 -0.3308 -0.4524
 3653SOL    HW122595   2.342   0.161   7.759  0.5287 -2.6879 -1.5572
 3653SOL    HW222596   2.265   0.055   7.684  0.2645 -0.8730  0.4519
 3654SOL     OW22597   2.168   4.639   3.394  0.2946 -0.1137  0.2984
 3654SOL    HW122598   2.242   4.596   3.436 -0.9369  0.2799  2.8635
 3654SOL    HW222599   2.126   4.677   3.472 -0.4138  0.9822 -0.6198
 3655SOL     OW22600   0.267   3.633   2.889  0.4047 -0.1099 -0.0680
 3655SOL    HW122601   0.202   3.703   2.879 -0.8293 -1.3877 -1.0882
 3655SOL    HW222602   0.276   3.635   2.984  0.8282 -1.0275 -0.0874
 3656SOL     OW22603   0.499   2.479   9.070 -0.4017  0.0727  0.3187
 3656SOL    HW122604   0.568   2.523   9.021 -0.9546 -0.2652 -0.7589
 3656SOL    HW222605   0.549   2.397   9.076  0.1130  0.3999  0.5273
 3657SOL     OW22606   2.466   3.322   6.896 -0.1118 -0.0423 -0.4012
 3657SOL    HW122607   2.432   3.380   6.964 -2.8241 -0.6254 -1.2851
 3657SOL    HW222608   2.397   3.256   6.899 -2.0627  2.0870  1.9406
 3658SOL     OW22609   1.960   1.675  14.358 -0.6867 -0.0454 -0.1156
 3658SOL    HW122610   1.867   1.655  14.349  0.0137 -3.9008  0.8267
 3658SOL    HW222611   1.987   1.586  14.381  0.3577 -0.8443 -4.2953
 3659SOL     OW22612   0.263   0.247   4.670  0.3025  0.2847 -0.2317
 3659SOL    HW122613   0.222   0.332   4.680 -0.2688 -0.0756  0.4982
 3659SOL    HW222614   0.306   0.234   4.755 -1.0864 -1.3199  0.2324
 3660SOL     OW22615   3.677   2.057  17.189 -0.0200 -0.2981  0.1909
 3660SOL    HW122616   3.609   2.114  17.225  0.2306  0.5412 -0.6516
 3660SOL    HW222617   3.634   1.977  17.219  0.1273 -0.2125  0.6293
 3661SOL     OW22618   2.911   2.057   7.714 -0.0508  0.1239 -0.3443
 3661SOL    HW122619   2.994   2.027   7.750 -0.2149  0.2527  0.1310
 3661SOL    HW222620   2.938   2.148   7.701  0.5735  0.1268  1.0002
 3662SOL     OW22621   1.552   2.163   3.134 -0.0888  0.7958 -0.3869
 3662SOL    HW122622   1.513   2.176   3.221  0.4636 -1.7015  0.2090
 3662SOL    HW222623   1.514   2.076   3.121  1.7194 -0.2354  1.2393
 3663SOL     OW22624   4.142   2.972  16.975 -0.0865  0.8987  0.5145
 3663SOL    HW122625   4.094   3.054  16.989 -0.0810  1.0134 -0.1529
 3663SOL    HW222626   4.076   2.921  16.928  1.8261 -0.9558 -0.1644
 3664SOL     OW22627   0.810   4.710   9.194  0.1103  0.3992 -0.1298
 3664SOL    HW122628   0.866   0.042   9.229  0.8997 -0.3698  0.1078
 3664SOL    HW222629   0.746   0.031   9.152 -1.3100 -1.4255 -0.5189
 3665SOL     OW22630   0.374   3.597   6.021  0.2204  0.2971  0.6096
 3665SOL    HW122631   0.419   3.679   6.037  1.3003 -0.0258 -0.7311
 3665SOL    HW222632   0.339   3.614   5.934  1.9067 -2.6058 -0.6559
 3666SOL     OW22633   2.687   3.099   4.145 -0.2634 -0.2515 -0.1246
 3666SOL    HW122634   2.732   3.101   4.061  0.0816 -0.0502  0.0686
 3666SOL    HW222635   2.607   3.148   4.127 -0.4823 -0.3690  0.4954
 3667SOL     OW22636   2.900   4.306   6.490 -0.6224 -0.2657  0.1967
 3667SOL    HW122637   2.825   4.251   6.512 -1.1366 -0.0796 -1.1196
 3667SOL    HW222638   2.963   4.280   6.557 -0.5770 -0.1875  0.1851
 3668SOL     OW22639   0.685   4.088   3.028 -0.1155 -0.6019  0.1421
 3668SOL    HW122640   0.742   4.032   2.975  2.4474  1.4528  0.7230
 3668SOL    HW222641   0.723   4.173   3.005  0.0998 -1.3601 -2.3170
 3669SOL     OW22642   3.081   3.485   8.631 -0.2447  0.0229 -0.1841
 3669SOL    HW122643   3.109   3.524   8.714  0.5952  2.7487 -1.7278
 3669SOL    HW222644   3.093   3.392   8.651  3.1905  0.1486 -1.6418
 3670SOL     OW22645   4.080   3.430   1.654  0.5543  0.6943  0.6865
 3670SOL    HW122646   4.064   3.524   1.645  0.0814  0.6515  1.0563
 3670SOL    HW222647   4.020   3.393   1.590 -0.0407  0.5141  1.3382
 3671SOL     OW22648   2.201   1.534   8.985 -0.0433 -0.3116 -0.2869
 3671SOL    HW122649   2.259   1.458   8.986  1.1455  0.5979  0.4112
 3671SOL    HW222650   2.249   1.601   9.035  0.8476  0.7193 -2.5153
 3672SOL     OW22651   3.913   3.916  11.448  0.0100  0.3303 -0.4325
 3672SOL    HW122652   3.819   3.923  11.467  0.5187 -0.8192  2.6008
 3672SOL    HW222653   3.948   3.937  11.534  1.9540 -3.1571 -0.3469
 3673SOL     OW22654   3.612   1.060   2.618  0.1753  0.6115 -0.9499
 3673SOL    HW122655   3.695   1.082   2.660  1.4459 -4.0013 -1.0273
 3673SOL    HW222656   3.651   1.042   2.533 -1.2445 -1.6459 -1.1330
 3674SOL     OW22657   1.514   1.784  15.599  0.6739 -0.2997 -0.3387
 3674SOL    HW122658   1.573   1.766  15.672 -1.0469 -0.4826  1.0173
 3674SOL    HW222659   1.459   1.706  15.594  0.9643 -0.6067  1.3559
 3675SOL     OW22660   2.339   1.346   4.529  0.2110  0.9032 -0.4286
 3675SOL    HW122661   2.348   1.424   4.584 -0.7445 -0.3311  1.4386
 3675SOL    HW222662   2.271   1.376   4.468  0.4702 -0.4303 -1.3760
 3676SOL     OW22663   4.392   4.156   6.894 -0.5526  0.1492  1.1033
 3676SOL    HW122664   4.355   4.170   6.981  1.3470 -0.3665  1.9986
 3676SOL    HW222665   4.459   4.091   6.914  0.3185  0.7495  0.1768
 3677SOL     OW22666   0.800   0.213   6.676 -0.2471  0.7058 -0.4494
 3677SOL    HW122667   0.858   0.138   6.664 -1.5667 -0.3536 -0.0278
 3677SOL    HW222668   0.723   0.159   6.691  1.2617 -1.0019  1.1435
 3678SOL     OW22669   3.638   1.446  14.502 -0.5127  0.0392 -0.5861
 3678SOL    HW122670   3.641   1.541  14.515 -1.0887 -0.0291  0.0407
 3678SOL    HW222671   3.699   1.433  14.429  0.5857  1.2453  0.0901
 3679SOL     OW22672   3.127   4.083   3.636  0.4108 -0.1576 -0.5028
 3679SOL    HW122673   3.140   4.051   3.546 -0.0529 -2.1549  0.1468
 3679SOL    HW222674   3.152   4.004   3.685 -1.6737 -0.7717 -0.4243
 3680SOL     OW22675   3.709   4.602   2.570  0.6469 -0.5378 -0.0080
 3680SOL    HW122676   3.723   4.646   2.654  2.0967  0.8048 -0.9581
 3680SOL    HW222677   3.660   4.671   2.524 -1.5313 -1.7224  0.5566
 3681SOL     OW22678   3.312   1.949   6.740  0.4497 -0.2869  0.5115
 3681SOL    HW122679   3.236   2.007   6.739  1.2646  0.7494 -1.2030
 3681SOL    HW222680   3.370   2.004   6.793 -0.9665 -0.0662  1.8391
 3682SOL     OW22681   4.508   4.560  15.863  0.3914 -0.1194  0.4760
 3682SOL    HW122682   4.597   4.552  15.830  0.3300  0.9377  0.0584
 3682SOL    HW222683   4.532   4.576  15.954  1.4239 -1.7552  0.4870
 3683SOL     OW22684   0.571   0.894   5.396 -0.2190 -0.3543 -0.8369
 3683SOL    HW122685   0.623   0.842   5.335 -0.1676  0.3952 -1.4324
 3683SOL    HW222686   0.588   0.855   5.481  0.3135  2.3515  0.2842
 3684SOL     OW22687   4.426   0.504   5.311 -0.5734  0.2137  0.0313
 3684SOL    HW122688   4.387   0.506   5.223  0.3238  0.1959 -0.3680
 3684SOL    HW222689   4.387   0.426   5.352  0.3014 -1.5956 -2.5504
 3685SOL     OW22690   3.331   2.648   7.787 -0.7103  0.5278  0.5278
 3685SOL    HW122691   3.374   2.564   7.775 -1.9410 -0.0485  0.1198
 3685SOL    HW222692   3.254   2.628   7.734  0.6264 -1.4943 -0.6254
 3686SOL     OW22693   4.309   3.574  12.180 -0.1255  0.4144  0.4737
 3686SOL    HW122694   4.222   3.535  12.181  0.7291 -1.5147 -0.8071
 3686SOL    HW222695   4.287   3.660  12.144 -2.0161 -0.2541  0.0472
 3687SOL     OW22696   4.120   4.038   5.725 -0.2408 -0.2645  0.1149
 3687SOL    HW122697   4.035   4.069   5.695  0.8013  0.1424 -2.3572
 3687SOL    HW222698   4.131   3.958   5.673 -2.0099  0.8457 -1.9132
 3688SOL     OW22699   4.111   3.828   4.135 -0.0456 -0.1668  0.6004
 3688SOL    HW122700   4.155   3.859   4.056  0.8079 -2.0698  0.3215
 3688SOL    HW222701   4.155   3.878   4.203 -1.0251  0.6021  0.6665
 3689SOL     OW22702   3.181   2.502   9.169  0.2197 -0.0365 -0.3362
 3689SOL    HW122703   3.189   2.467   9.080  0.1884 -0.1325 -0.3011
 3689SOL    HW222704   3.257   2.455   9.206 -1.4084 -0.2231  2.7394
 3690SOL     OW22705   4.244   2.512  15.534 -0.3911 -0.0620  0.2673
 3690SOL    HW122706   4.294   2.542  15.457  0.2457  0.4554  0.8835
 3690SOL    HW222707   4.162   2.498  15.487 -0.2589  0.2423 -0.0552
 3691SOL     OW22708   0.047   0.097   7.958  0.3878 -0.0465  0.9768
 3691SOL    HW122709   0.022   0.005   7.966  1.3682 -0.5639 -1.7125
 3691SOL    HW222710   0.001   0.140   8.030 -1.0722  1.5436 -0.9036
 3692SOL     OW22711   0.437   3.274   6.811 -0.6136  0.3641 -0.1876
 3692SOL    HW122712   0.354   3.227   6.798  0.5405 -1.2420 -1.7598
 3692SOL    HW222713   0.415   3.302   6.899 -2.1799 -0.3915 -0.3361
 3693SOL     OW22714   3.994   0.538   4.903  0.2805 -0.3057  0.4216
 3693SOL    HW122715   3.933   0.471   4.874  0.6708 -0.6427  0.3750
 3693SOL    HW222716   4.074   0.522   4.853  0.4817 -0.0014  0.6390
 3694SOL     OW22717   1.777   3.766   0.862  0.2937 -0.3411  0.0418
 3694SOL    HW122718   1.723   3.842   0.887 -0.0236 -0.0813 -1.4371
 3694SOL    HW222719   1.867   3.791   0.886  0.8932 -0.0551 -2.5467
 3695SOL     OW22720   1.022   2.925   8.672 -0.3802  0.1524 -0.7386
 3695SOL    HW122721   0.977   2.927   8.756 -0.4744 -3.3330 -0.7223
 3695SOL    HW222722   1.097   2.868   8.690 -3.3959 -3.3468  0.8855
 3696SOL     OW22723   3.844   2.534   2.813 -0.1317 -0.4744  0.3559
 3696SOL    HW122724   3.794   2.548   2.733  0.9865  1.9077  0.0759
 3696SOL    HW222725   3.925   2.581   2.797 -0.6120  1.1683  2.6643
 3697SOL     OW22726   2.859   1.820   3.148  0.7378  1.1680 -0.0329
 3697SOL    HW122727   2.874   1.874   3.070  1.5705  0.4978 -0.3376
 3697SOL    HW222728   2.815   1.886   3.202 -1.6774 -1.0621  0.7162
 3698SOL     OW22729   3.124   4.146   4.064 -0.3302 -0.1591 -0.4811
 3698SOL    HW122730   3.131   4.076   3.999  2.1875  0.1448 -0.5497
 3698SOL    HW222731   3.069   4.211   4.021 -2.9780 -1.7992  0.4285
 3699SOL     OW22732   4.554   1.175  16.215  0.2037  0.0316 -0.4970
 3699SOL    HW122733   4.469   1.218  16.221 -0.8764 -2.1636  0.0760
 3699SOL    HW222734   4.610   1.238  16.261 -1.3495  1.2071 -0.2169
 3700SOL     OW22735   2.748   2.273   5.017  0.1613  0.2735  0.2127
 3700SOL    HW122736   2.692   2.331   5.069  1.3169  1.3456  0.2611
 3700SOL    HW222737   2.825   2.260   5.073  0.8646  1.6915 -0.4284
 3701SOL     OW22738   4.107   0.829   6.431 -0.5326 -0.0794  0.8181
 3701SOL    HW122739   4.051   0.751   6.424 -0.3087 -0.2095  0.4699
 3701SOL    HW222740   4.168   0.809   6.502 -0.3751  3.2262  1.6204
 3702SOL     OW22741   3.007   4.576   2.679 -0.1865  0.6205 -0.4286
 3702SOL    HW122742   2.963   4.660   2.692 -1.5180 -0.2549  0.6343
 3702SOL    HW222743   3.043   4.591   2.592 -0.8614 -0.6288 -0.9135
 3703SOL     OW22744   4.639   2.921   3.718 -0.1695  0.0220  0.1025
 3703SOL    HW122745   4.639   2.910   3.623 -0.1873  1.4140 -0.0668
 3703SOL    HW222746   4.685   2.839   3.734 -1.4121 -0.6402  0.3393
 3704SOL     OW22747   3.321   0.012   8.262  0.2015 -0.0938  0.6134
 3704SOL    HW122748   3.410   0.025   8.231  0.4611  1.0053  1.8209
 3704SOL    HW222749   3.302   4.655   8.260 -0.2439 -0.0012  0.3633
 3705SOL     OW22750   4.624   4.698   6.881  0.5002 -0.0875  0.1223
 3705SOL    HW122751   4.626   4.714   6.787  0.3207  0.4859  0.2152
 3705SOL    HW222752   4.612   4.604   6.871 -3.2020  0.3996 -0.1769
 3706SOL     OW22753   2.298   4.547  16.850 -0.1823  0.6244 -0.3082
 3706SOL    HW122754   2.345   4.596  16.782  0.3957  2.4030  1.3501
 3706SOL    HW222755   2.357   4.471  16.849 -1.5984 -0.4617  0.2535
 3707SOL     OW22756   0.579   2.458   2.719  0.2494  0.5182 -0.3303
 3707SOL    HW122757   0.585   2.496   2.631  1.4337  1.8644  0.3204
 3707SOL    HW222758   0.646   2.503   2.771 -0.9289  1.5040  0.3175
 3708SOL     OW22759   0.534   0.966   8.865  0.1270  0.4235  0.3162
 3708SOL    HW122760   0.540   0.875   8.892 -0.9754  1.0697  2.7962
 3708SOL    HW222761   0.444   0.995   8.878  1.3612  3.3075  2.4963
 3709SOL     OW22762   0.994   4.542  13.706  0.2889  0.0150 -0.0671
 3709SOL    HW122763   1.050   4.511  13.777 -0.8311  0.8153  1.1792
 3709SOL    HW222764   0.927   4.475  13.692  0.5681  0.2133 -2.4289
 3710SOL     OW22765   3.741   1.819  16.980 -0.0155  0.1358 -0.0792
 3710SOL    HW122766   3.807   1.886  16.997  1.5042 -1.5165  0.5544
 3710SOL    HW222767   3.767   1.753  17.043 -1.5107 -1.0860 -0.7172
 3711SOL     OW22768   2.509   0.593   3.530 -0.4873  0.0918 -0.0840
 3711SOL    HW122769   2.445   0.591   3.459 -0.3677  1.2938 -0.2277
 3711SOL    HW222770   2.580   0.648   3.498  1.4078 -2.2488  0.0692
 3712SOL     OW22771   0.932   2.606   0.261  0.5671 -0.3072 -0.1330
 3712SOL    HW122772   0.879   2.666   0.210  0.7070  0.5902  0.7694
 3712SOL    HW222773   1.020   2.609   0.225  0.5327  0.0448 -0.1808
 3713SOL     OW22774   0.006   0.709  12.017  0.0384  0.2828  0.3420
 3713SOL    HW122775   4.692   0.628  12.026  0.1928  0.2344  0.7844
 3713SOL    HW222776   0.061   0.709  12.095 -0.6350 -1.9283  0.8175
 3714SOL     OW22777   1.858   4.387   9.225 -0.1932 -0.0075 -0.1274
 3714SOL    HW122778   1.916   4.449   9.180  4.7210 -2.8471  2.3397
 3714SOL    HW222779   1.913   4.363   9.300  3.1653 -3.0276 -3.5644
 3715SOL     OW22780   3.432   4.383   7.958 -0.3535 -0.2885 -0.0969
 3715SOL    HW122781   3.382   4.451   8.003  0.3866  0.5677 -0.5721
 3715SOL    HW222782   3.409   4.409   7.868  0.6718 -1.0797 -0.5894
 3716SOL     OW22783   3.479   4.681   9.400  0.1201 -0.1492 -0.0896
 3716SOL    HW122784   3.566   4.721   9.399 -0.1672  0.4648 -1.5914
 3716SOL    HW222785   3.485   4.626   9.322  0.6823  0.2630 -0.3333
 3717SOL     OW22786   3.707   2.165  11.677 -0.4652  0.2539 -0.7175
 3717SOL    HW122787   3.738   2.185  11.765 -2.1141 -2.4465  0.4890
 3717SOL    HW222788   3.709   2.069  11.679 -1.9901  0.2328  0.2261
 3718SOL     OW22789   0.893   3.270   5.933 -0.4185  0.0656  0.2564
 3718SOL    HW122790   0.932   3.306   6.013 -0.8482  1.7103 -0.2579
 3718SOL    HW222791   0.903   3.183   5.970  3.6630 -0.2663 -1.6207
 3719SOL     OW22792   3.873   1.552   9.157 -0.3480 -0.0992 -0.0611
 3719SOL    HW122793   3.836   1.474   9.198  0.9501 -1.2612 -1.0951
 3719SOL    HW222794   3.910   1.588   9.237 -2.5495 -1.4607  1.5614
 3720SOL     OW22795   0.802   3.519  13.255 -0.0164  0.0952 -0.1619
 3720SOL    HW122796   0.759   3.579  13.195 -3.6683 -1.3119  1.0041
 3720SOL    HW222797   0.766   3.540  13.342 -0.0787 -1.0012  0.0817
 3721SOL     OW22798   2.162   1.441   4.360 -0.3763 -0.1270  0.5184
 3721SOL    HW122799   2.109   1.377   4.313 -0.6443  0.1479  0.4459
 3721SOL    HW222800   2.136   1.523   4.319 -2.8757 -1.4770 -0.5923
 3722SOL     OW22801   0.256   2.472   6.304  0.3085 -0.4694  0.2123
 3722SOL    HW122802   0.329   2.450   6.361  1.1715  2.8526  0.4115
 3722SOL    HW222803   0.227   2.560   6.329  1.4056 -0.2186  0.6138
 3723SOL     OW22804   1.082   3.295   9.244  0.2792  0.3636 -0.1790
 3723SOL    HW122805   1.003   3.248   9.271  0.0122  1.9064  1.7235
 3723SOL    HW222806   1.134   3.296   9.325 -1.6886  2.8111  1.0513
 3724SOL     OW22807   2.643   1.454   6.997 -0.5528 -0.5387 -0.0739
 3724SOL    HW122808   2.622   1.531   6.944 -1.4230 -2.3542 -2.3370
 3724SOL    HW222809   2.553   1.439   7.027 -1.0594 -1.0458 -1.8627
 3725SOL     OW22810   2.801   3.918   7.125 -0.2428  0.3898 -0.0964
 3725SOL    HW122811   2.753   3.902   7.044  0.4369 -1.0669 -0.2052
 3725SOL    HW222812   2.731   3.930   7.189 -1.1151 -2.0340 -0.6010
 3726SOL     OW22813   2.012   3.072   1.815  0.4165 -0.2385  0.1551
 3726SOL    HW122814   2.101   3.083   1.782  1.2325  1.0369  2.7862
 3726SOL    HW222815   2.019   3.057   1.909  0.6945  1.5772  0.4134
 3727SOL     OW22816   1.911   1.944   3.126  0.2886 -0.6790  0.4744
 3727SOL    HW122817   1.894   2.025   3.174  0.0318 -1.0732  1.0494
 3727SOL    HW222818   2.003   1.926   3.143  0.9866  2.1601 -0.3714
 3728SOL     OW22819   3.039   4.009   7.227  0.2872  0.0939 -0.1139
 3728SOL    HW122820   3.015   4.001   7.319 -1.6982  1.6362 -0.5024
 3728SOL    HW222821   2.959   3.973   7.189  0.3541  1.2819 -1.3621
 3729SOL     OW22822   3.992   1.323   3.736  0.4037 -0.3423  0.7943
 3729SOL    HW122823   3.910   1.281   3.764 -0.0322  0.6800  1.0368
 3729SOL    HW222824   4.004   1.386   3.806 -1.4027  0.6410  0.2359
 3730SOL     OW22825   3.866   4.362   4.808 -0.5208 -0.5103 -0.0487
 3730SOL    HW122826   3.818   4.301   4.862 -0.4883 -0.3392  0.1731
 3730SOL    HW222827   3.794   4.391   4.752  0.7405  2.0813 -0.3528
 3731SOL     OW22828   3.462   1.800  15.040  0.0305  0.2658 -0.0925
 3731SOL    HW122829   3.506   1.881  15.063  0.7125  0.1662 -1.0367
 3731SOL    HW222830   3.455   1.808  14.945  1.5609 -2.5114 -0.4572
 3732SOL     OW22831   3.799   3.791   6.641  0.0540  0.2616 -0.2332
 3732SOL    HW122832   3.849   3.838   6.574  2.8592  0.5101  2.0618
 3732SOL    HW222833   3.721   3.847   6.645 -0.0394  0.1806 -0.8819
 3733SOL     OW22834   4.629   0.639  14.386  0.4062  0.0858  0.0716
 3733SOL    HW122835   4.697   0.580  14.354  0.2743  0.2123 -0.4390
 3733SOL    HW222836   4.586   0.663  14.304 -0.3141 -0.1997  0.3657
 3734SOL     OW22837   2.933   0.061   7.740  0.0510  0.4767  0.1403
 3734SOL    HW122838   2.921   0.121   7.813  1.3276  1.2087 -0.2590
 3734SOL    HW222839   2.902   4.719   7.785  2.6479 -1.2906 -1.1435
 3735SOL     OW22840   0.552   3.147   7.549 -0.2197 -0.0484  0.5830
 3735SOL    HW122841   0.586   3.058   7.542 -0.1637  0.1103 -1.0252
 3735SOL    HW222842   0.607   3.196   7.489 -0.5429 -2.2095 -1.4820
 3736SOL     OW22843   0.530   2.568   1.919  0.0806 -0.2521 -0.0789
 3736SOL    HW122844   0.495   2.560   2.008  1.1978 -0.8342  0.3097
 3736SOL    HW222845   0.535   2.664   1.924  0.3187 -0.1733 -1.7122
 3737SOL     OW22846   0.953   0.301   5.027 -0.8395  0.3260 -0.1223
 3737SOL    HW122847   0.999   0.368   4.976 -0.6269  0.8442  0.7524
 3737SOL    HW222848   0.890   0.347   5.083 -2.4107  0.5602 -2.0902
 3738SOL     OW22849   2.684   1.186   2.385 -0.0858 -0.1011 -0.7100
 3738SOL    HW122850   2.778   1.181   2.406 -0.4755  1.6104  1.3809
 3738SOL    HW222851   2.683   1.146   2.298  1.8865 -2.2895  0.2634
 3739SOL     OW22852   0.963   3.223   3.127  0.1115 -0.4814 -0.1255
 3739SOL    HW122853   1.051   3.238   3.092  0.8705  1.8378  2.8126
 3739SOL    HW222854   0.946   3.139   3.085  2.6180 -1.4850  0.8271
 3740SOL     OW22855   1.729   0.736   1.606 -0.5821  0.2781 -0.1330
 3740SOL    HW122856   1.733   0.667   1.539 -0.2493  0.5864 -0.4245
 3740SOL    HW222857   1.813   0.771   1.578 -0.6575 -0.0147 -0.7214
 3741SOL     OW22858   2.494   2.396   8.381 -0.3289  0.1841 -0.4187
 3741SOL    HW122859   2.527   2.403   8.292  0.6486  3.0595  0.1654
 3741SOL    HW222860   2.514   2.305   8.401 -0.6876  0.0624 -0.6227
 3742SOL     OW22861   3.372   2.063  16.542 -0.0598 -0.1483  0.7861
 3742SOL    HW122862   3.352   2.030  16.630 -0.3073 -0.5423  0.5823
 3742SOL    HW222863   3.419   2.141  16.569  4.5547 -2.6361 -0.1899
 3743SOL     OW22864   0.969   3.012   7.921  0.3919 -0.0186 -0.4451
 3743SOL    HW122865   0.889   3.019   7.973 -0.5550  0.7345 -2.0095
 3743SOL    HW222866   1.033   3.027   7.990  0.7278 -1.9080 -0.3394
 3744SOL     OW22867   3.757   1.001  10.646  0.3673  0.2405 -0.2356
 3744SOL    HW122868   3.733   1.090  10.621  1.0635  0.3442 -0.5238
 3744SOL    HW222869   3.762   1.022  10.739 -0.6869 -2.0188  0.3381
 3745SOL     OW22870   0.883   0.145   6.012 -0.8164 -0.7556  0.5089
 3745SOL    HW122871   0.945   0.148   5.939  0.4847  1.9085  1.7160
 3745SOL    HW222872   0.905   0.229   6.052  0.2313 -0.3900 -0.8205
 3746SOL     OW22873   1.051   0.570   2.323  0.1388  0.6971  0.2586
 3746SOL    HW122874   0.994   0.493   2.313  0.3171  0.4820  0.9392
 3746SOL    HW222875   1.128   0.528   2.361 -0.7679 -0.6952  0.5471
 3747SOL     OW22876   2.034   1.248   0.946  0.6334  0.4695  0.1100
 3747SOL    HW122877   2.119   1.207   0.932  0.3164 -0.0011 -0.4442
 3747SOL    HW222878   2.052   1.300   1.024 -0.6252  0.3398  0.4868
 3748SOL     OW22879   0.172   4.111  13.181 -0.5065  0.2841 -0.4558
 3748SOL    HW122880   0.089   4.126  13.226  0.0692 -1.7824  1.2939
 3748SOL    HW222881   0.152   4.040  13.120 -0.7796 -2.2913  2.6264
 3749SOL     OW22882   1.877   3.000   5.318 -0.4711 -0.3383  0.3900
 3749SOL    HW122883   1.802   3.057   5.301  1.0540  0.8821 -2.2738
 3749SOL    HW222884   1.939   3.058   5.363  0.8671 -1.0218 -0.5802
 3750SOL     OW22885   3.865   0.347   7.546 -0.2694  0.6006 -0.2147
 3750SOL    HW122886   3.933   0.284   7.522 -0.6498  0.2637 -0.4199
 3750SOL    HW222887   3.798   0.340   7.478  0.4654  0.0644 -0.8928
 3751SOL     OW22888   1.093   4.467  16.108 -0.4554 -0.5543 -0.2018
 3751SOL    HW122889   1.079   4.374  16.091 -1.0813 -0.8048  1.6277
 3751SOL    HW222890   1.002   4.493  16.105 -0.2886  0.1618  0.9945
 3752SOL     OW22891   3.645   3.484   4.308 -0.5264 -0.1072  0.1341
 3752SOL    HW122892   3.735   3.456   4.326 -0.1885  0.4342 -0.6664
 3752SOL    HW222893   3.591   3.406   4.305  1.4184 -1.4295 -0.5377
 3753SOL     OW22894   2.353   1.204   5.788  0.1064 -0.3964 -0.1270
 3753SOL    HW122895   2.365   1.292   5.823 -1.5433 -0.3615  0.3774
 3753SOL    HW222896   2.273   1.171   5.828 -1.4397 -0.0675 -2.9202
 3754SOL     OW22897   1.728   0.844  13.883  0.0345  0.2886 -0.1667
 3754SOL    HW122898   1.804   0.902  13.893 -0.3845  0.8571 -0.2593
 3754SOL    HW222899   1.661   0.907  13.854  0.6473  1.9111  1.8981
 3755SOL     OW22900   3.434   1.375   8.432  0.0906 -0.3871 -0.3490
 3755SOL    HW122901   3.417   1.287   8.398  0.1432 -0.8878  0.9426
 3755SOL    HW222902   3.526   1.358   8.453 -0.2267  0.9771  2.1149
 3756SOL     OW22903   1.037   2.130   6.046  0.0028 -0.2214  0.0622
 3756SOL    HW122904   1.113   2.132   6.105  1.1836 -2.2562 -1.3649
 3756SOL    HW222905   1.002   2.052   6.088 -1.2713 -0.3951 -1.3190
 3757SOL     OW22906   0.112   1.339   2.546  0.0895  0.1184 -0.5119
 3757SOL    HW122907   0.048   1.281   2.504 -1.5795  1.0841  0.7158
 3757SOL    HW222908   0.101   1.312   2.637  0.2804 -0.5891 -0.6988
 3758SOL     OW22909   3.252   1.817   8.471  0.1369  0.0232 -0.1424
 3758SOL    HW122910   3.166   1.779   8.491 -0.1583  1.7645  1.8867
 3758SOL    HW222911   3.286   1.743   8.420 -0.1108 -0.8023  0.8715
 3759SOL     OW22912   4.024   2.438  12.021  0.4345 -0.5570 -0.1589
 3759SOL    HW122913   4.100   2.448  11.963  0.0964 -1.6561 -0.7940
 3759SOL    HW222914   4.081   2.468  12.091 -0.3182  1.4319 -0.3759
 3760SOL     OW22915   2.465   0.228   1.140  0.2662 -0.1628 -0.6176
 3760SOL    HW122916   2.514   0.181   1.073  0.0772 -1.8768  0.4374
 3760SOL    HW222917   2.472   0.314   1.100 -1.5507 -0.2965 -1.2600
 3761SOL     OW22918   0.597   3.488   7.542  0.6604  0.1759 -0.0780
 3761SOL    HW122919   0.656   3.551   7.501  2.6942 -0.3015  2.0915
 3761SOL    HW222920   0.603   3.513   7.634 -0.7843  1.1967 -0.2743
 3762SOL     OW22921   1.777   0.049   0.777 -0.0121  0.0444 -0.0847
 3762SOL    HW122922   1.684   0.054   0.754  0.1304 -3.8619 -1.5588
 3762SOL    HW222923   1.807   0.025   0.689  0.6221  1.3128 -0.2149
 3763SOL     OW22924   4.532   3.332  10.438  0.4775 -0.2606 -0.0204
 3763SOL    HW122925   4.546   3.416  10.482  1.0154 -0.6140  0.4912
 3763SOL    HW222926   4.601   3.276  10.474 -0.5949 -0.5123  1.6854
 3764SOL     OW22927   1.556   1.299   9.014 -0.5417 -0.1301 -0.0441
 3764SOL    HW122928   1.506   1.369   8.970  0.2687 -0.2326 -1.1306
 3764SOL    HW222929   1.484   1.257   9.061  0.5904  1.6292  3.3210
 3765SOL     OW22930   1.562   3.758  16.627 -0.0943 -0.3836  0.1137
 3765SOL    HW122931   1.480   3.782  16.583  0.7891  1.7353 -0.3501
 3765SOL    HW222932   1.523   3.691  16.684 -1.8853 -0.5317 -1.2742
 3766SOL     OW22933   3.791   2.265   3.928  0.5432 -0.2325 -0.0834
 3766SOL    HW122934   3.845   2.344   3.916 -0.9582  0.3738 -2.8145
 3766SOL    HW222935   3.831   2.218   3.854 -0.1930 -4.7375  2.3964
 3767SOL     OW22936   1.791   3.648   5.817 -0.2242 -0.4790  0.2252
 3767SOL    HW122937   1.708   3.693   5.800 -1.5033 -2.7842  0.3115
 3767SOL    HW222938   1.852   3.705   5.771  1.0202 -1.0847  1.1261
 3768SOL     OW22939   4.268   4.577   5.429  0.6569  0.0860 -0.4850
 3768SOL    HW122940   4.218   4.558   5.509  1.1857  0.0020 -0.1722
 3768SOL    HW222941   4.357   4.575   5.465  0.6773 -0.5656 -0.5708
 3769SOL     OW22942   2.707   3.693   9.044  0.1966  0.0523 -0.5371
 3769SOL    HW122943   2.683   3.614   8.996  2.0358 -1.7703  1.5122
 3769SOL    HW222944   2.646   3.683   9.117  1.1624 -0.2443  0.2445
 3770SOL     OW22945   1.173   1.006   5.635  0.3491  0.3363  0.5783
 3770SOL    HW122946   1.159   1.075   5.700  0.0540  0.6840  0.1427
 3770SOL    HW222947   1.084   0.971   5.637 -0.2141  1.7141 -0.0925
 3771SOL     OW22948   1.884   0.964   8.404 -0.1199 -0.3683  0.1944
 3771SOL    HW122949   1.865   1.007   8.488 -0.1109  1.3555 -0.6895
 3771SOL    HW222950   1.915   1.042   8.359 -2.1365 -0.0545 -0.6384
 3772SOL     OW22951   2.068   4.696  12.103 -0.1249 -0.0783 -0.1870
 3772SOL    HW122952   2.060   4.607  12.069 -0.0117 -0.0457 -0.2976
 3772SOL    HW222953   2.122   4.683  12.181  0.1243  1.1090 -0.1556
 3773SOL     OW22954   2.935   2.531  10.960  0.2526  0.6065  0.0976
 3773SOL    HW122955   2.936   2.472  10.885  0.3478 -1.9828  2.1354
 3773SOL    HW222956   2.846   2.511  10.989 -0.7469  1.1263 -2.6175
 3774SOL     OW22957   3.539   2.252   4.803 -1.0541 -0.0804  0.0332
 3774SOL    HW122958   3.582   2.271   4.887  2.6523  1.6028 -2.2702
 3774SOL    HW222959   3.588   2.174   4.777 -0.7473  0.0266  0.2833
 3775SOL     OW22960   3.321   1.878   9.037 -0.5220 -0.0430  0.5312
 3775SOL    HW122961   3.255   1.903   8.973 -2.2460 -2.1811  1.4605
 3775SOL    HW222962   3.377   1.956   9.034 -1.2613  0.4852  0.6931
 3776SOL     OW22963   2.537   0.022   7.417 -0.0844 -0.7757  0.6091
 3776SOL    HW122964   2.558   4.672   7.383 -0.5521 -0.3739 -0.7137
 3776SOL    HW222965   2.622   0.041   7.456  1.5288 -1.8091 -2.4177
 3777SOL     OW22966   3.692   0.639   5.169 -0.0640 -0.4741 -0.0909
 3777SOL    HW122967   3.688   0.555   5.124  0.2350  0.5686 -2.0801
 3777SOL    HW222968   3.733   0.695   5.103 -1.0662 -1.0966 -1.2394
 3778SOL     OW22969   4.101   4.536  14.377  0.1922 -0.2089  0.3621
 3778SOL    HW122970   4.043   4.519  14.451 -2.1804 -0.8918 -1.6476
 3778SOL    HW222971   4.036   4.554  14.309 -1.5910  2.0694  2.6436
 3779SOL     OW22972   0.918   4.006   2.079 -0.0055 -0.1631 -0.0490
 3779SOL    HW122973   0.964   4.085   2.108 -0.0445 -0.6014  1.2198
 3779SOL    HW222974   0.987   3.973   2.022  2.1534  1.3073  1.6674
 3780SOL     OW22975   1.355   0.186   0.655  1.0212  0.4992 -0.2977
 3780SOL    HW122976   1.319   0.155   0.738 -0.4103 -1.2332 -1.5646
 3780SOL    HW222977   1.280   0.196   0.596  0.9346 -0.1125 -0.2875
 3781SOL     OW22978   0.621   3.389   4.076  0.1801 -0.4060  0.1883
 3781SOL    HW122979   0.558   3.450   4.116  0.3051  0.8786 -1.6051
 3781SOL    HW222980   0.613   3.315   4.137 -2.7019 -0.1358  0.1174
 3782SOL     OW22981   2.634   1.548   6.558 -0.3349  0.0669 -0.4418
 3782SOL    HW122982   2.650   1.547   6.652  2.3396  0.7933 -0.8828
 3782SOL    HW222983   2.701   1.610   6.529 -0.5387  0.6394  0.3257
 3783SOL     OW22984   0.742   4.390   8.411 -0.2346 -0.2981  0.7050
 3783SOL    HW122985   0.751   4.372   8.318  2.6292  1.7472  0.5841
 3783SOL    HW222986   0.776   4.312   8.454 -0.3396 -1.0971 -0.6632
 3784SOL     OW22987   0.664   4.527   7.791  0.7392  0.5655  0.0768
 3784SOL    HW122988   0.661   4.608   7.841  2.6305  1.9919 -2.1088
 3784SOL    HW222989   0.707   4.556   7.710  3.6040 -0.3124  1.3074
 3785SOL     OW22990   0.316   0.132   4.174  0.6164 -0.1222  0.0891
 3785SOL    HW122991   0.244   0.165   4.227  1.1867  3.7116 -1.5573
 3785SOL    HW222992   0.273   0.105   4.092  0.0295  1.2204 -0.0366
 3786SOL     OW22993   2.274   1.695   5.695  0.0754 -0.4300  0.0237
 3786SOL    HW122994   2.278   1.775   5.747  0.7016 -0.1511 -0.4534
 3786SOL    HW222995   2.363   1.684   5.661  1.5190  1.4885  3.1813
 3787SOL     OW22996   1.097   0.557   7.853 -0.0920 -0.1319 -0.2502
 3787SOL    HW122997   1.181   0.518   7.828 -0.2550  0.0074 -0.9942
 3787SOL    HW222998   1.091   0.512   7.938 -0.7202  0.4526  0.0133
 3788SOL     OW22999   0.145   0.249   6.313 -0.4577 -0.2427  0.1219
 3788SOL    HW123000   0.210   0.277   6.378 -1.0491  2.0964 -0.3125
 3788SOL    HW223001   0.179   0.281   6.230 -0.6435 -0.1920  0.0661
 3789SOL     OW23002   1.595   0.747   3.988  0.5817  0.7126  0.2023
 3789SOL    HW123003   1.651   0.677   3.957  0.1931  0.5651 -0.1590
 3789SOL    HW223004   1.525   0.691   4.021 -0.2834  1.2899 -0.6607
 3790SOL     OW23005   0.158   1.227   2.791 -0.1084 -0.0155  0.1359
 3790SOL    HW123006   0.136   1.134   2.801 -1.6911  0.3793  0.2768
 3790SOL    HW223007   0.252   1.216   2.778 -0.3593 -0.3565 -1.4037
 3791SOL     OW23008   3.947   1.146   4.124 -0.3985 -0.1761 -0.2051
 3791SOL    HW123009   3.897   1.189   4.055 -0.7328 -1.3350 -0.6882
 3791SOL    HW223010   3.962   1.054   4.100 -1.2619  0.2383 -2.3004
 3792SOL     OW23011   2.162   2.971  13.304  0.1309 -0.4550 -0.0318
 3792SOL    HW123012   2.246   2.999  13.341 -0.1561  2.1953 -1.3593
 3792SOL    HW223013   2.171   3.000  13.213  0.6632 -2.7332 -0.7237
 3793SOL     OW23014   4.448   0.686   8.453  0.4408  0.4689  0.6280
 3793SOL    HW123015   4.496   0.662   8.374  1.8620  0.6281  1.4214
 3793SOL    HW223016   4.463   0.604   8.500  2.0612  0.6536  0.4308
 3794SOL     OW23017   0.456   3.795   6.362 -0.5146 -0.3013  0.3542
 3794SOL    HW123018   0.499   3.849   6.295 -0.5553 -3.7722 -2.4926
 3794SOL    HW223019   0.530   3.772   6.418  0.1634 -0.9171 -0.7922
 3795SOL     OW23020   0.662   1.587   4.351 -0.3093 -0.8358 -0.3441
 3795SOL    HW123021   0.632   1.516   4.408 -0.5049 -0.0635  0.5176
 3795SOL    HW223022   0.758   1.583   4.350 -0.2930 -0.5783  0.4773
 3796SOL     OW23023   0.592   0.128   1.494 -0.1933  0.8143  0.0336
 3796SOL    HW123024   0.525   0.192   1.470 -1.0389 -0.0318  0.1395
 3796SOL    HW223025   0.570   0.054   1.437  0.8491  0.8463 -0.4085
 3797SOL     OW23026   2.003   1.922   8.639  0.1235 -0.0984  0.2550
 3797SOL    HW123027   1.954   1.975   8.700  0.1464  0.7067 -0.4243
 3797SOL    HW223028   2.057   1.864   8.693  2.3002  1.1084 -0.6071
 3798SOL     OW23029   3.664   0.777   6.206 -0.4208 -0.5244  0.6040
 3798SOL    HW123030   3.708   0.763   6.123 -1.1718 -0.0970  0.1358
 3798SOL    HW223031   3.583   0.816   6.175  0.6204 -0.3516 -1.8822
 3799SOL     OW23032   1.518   1.471   5.064 -0.1576  0.0955  0.4641
 3799SOL    HW123033   1.572   1.548   5.083  2.1220 -1.0802 -1.1858
 3799SOL    HW223034   1.444   1.521   5.031  0.3680 -0.3893 -1.4707
 3800SOL     OW23035   0.428   1.926   5.110 -0.3071 -0.1982 -0.1469
 3800SOL    HW123036   0.428   1.923   5.015 -1.8612 -0.7436 -0.1255
 3800SOL    HW223037   0.337   1.949   5.131 -0.7877 -1.0624 -1.2798
 3801SOL     OW23038   1.452   3.136   2.937 -0.3237  0.2613 -0.4312
 3801SOL    HW123039   1.518   3.074   2.965  1.1139  1.0128 -2.2247
 3801SOL    HW223040   1.512   3.186   2.882  0.8452  0.2843  0.8651
 3802SOL     OW23041   4.370   3.624   2.840  0.4292  0.1651  0.5395
 3802SOL    HW123042   4.317   3.592   2.767 -0.8093  1.7579  0.7362
 3802SOL    HW223043   4.315   3.613   2.917  0.9855 -0.0001  0.9147
 3803SOL     OW23044   0.464   4.650   2.208 -0.0179 -0.1961  0.3467
 3803SOL    HW123045   0.545   4.640   2.258  1.9067  1.7916 -2.3838
 3803SOL    HW223046   0.431   4.561   2.203  2.7308 -1.1660 -0.2805
 3804SOL     OW23047   0.053   0.611  15.829 -0.3746 -0.2069 -0.2034
 3804SOL    HW123048   0.032   0.685  15.771 -0.0957  1.5571  1.9171
 3804SOL    HW223049   0.122   0.564  15.783 -2.2261 -1.1212 -2.0638
 3805SOL     OW23050   3.569   3.484   8.176  0.5799 -0.3638 -0.1052
 3805SOL    HW123051   3.483   3.445   8.161  0.4316  0.3502 -1.1430
 3805SOL    HW223052   3.614   3.409   8.213  0.9250 -0.7330 -1.2643
 3806SOL     OW23053   4.242   4.712   8.288 -0.6449  0.0357 -0.2405
 3806SOL    HW123054   4.334   4.717   8.312 -0.6377  4.2925 -1.0618
 3806SOL    HW223055   4.240   4.652   8.213  1.0123  0.9099 -0.9622
 3807SOL     OW23056   1.819   0.502   8.857 -0.6098 -0.2808 -0.4513
 3807SOL    HW123057   1.773   0.582   8.833  0.1191 -0.3790 -2.1363
 3807SOL    HW223058   1.798   0.440   8.787  0.1875 -0.7755 -0.2518
 3808SOL     OW23059   1.275   0.214   8.932 -0.3590 -0.1686 -0.4704
 3808SOL    HW123060   1.185   0.236   8.954 -0.2455 -0.4820  0.2894
 3808SOL    HW223061   1.317   0.218   9.018 -1.2187 -2.7133  0.0778
 3809SOL     OW23062   0.506   4.454   0.502  0.2492  0.0439  0.4428
 3809SOL    HW123063   0.418   4.432   0.534 -0.1411 -2.3277 -2.1905
 3809SOL    HW223064   0.498   4.549   0.489  0.7617 -0.1283 -1.1986
 3810SOL     OW23065   0.518   2.108   7.231 -0.1335  0.4635 -0.1007
 3810SOL    HW123066   0.547   2.156   7.154  1.9113 -2.1935 -0.9882
 3810SOL    HW223067   0.590   2.136   7.287  3.0628 -2.5155 -2.7554
 3811SOL     OW23068   0.590   1.670   7.946  0.3441  0.2071 -0.5935
 3811SOL    HW123069   0.576   1.733   8.017 -2.5830  0.0628 -1.0308
 3811SOL    HW223070   0.503   1.684   7.908  0.4300  1.7835 -0.2057
 3812SOL     OW23071   0.429   2.565  11.888  0.1901  0.5908 -0.0712
 3812SOL    HW123072   0.363   2.631  11.866  0.7613  0.3674 -2.3958
 3812SOL    HW223073   0.487   2.589  11.816 -0.4490  0.6865 -0.5549
 3813SOL     OW23074   2.175   2.285  14.994  0.8349 -0.2127 -0.0796
 3813SOL    HW123075   2.121   2.295  15.072 -0.4226 -0.5204 -0.9136
 3813SOL    HW223076   2.247   2.236  15.033  0.1943 -1.4289 -0.4455
 3814SOL     OW23077   2.882   3.141   3.133 -0.3594  0.0695  0.7442
 3814SOL    HW123078   2.858   3.154   3.041  2.6899  0.4481  0.0214
 3814SOL    HW223079   2.935   3.062   3.124  1.0361  0.9875  0.8822
 3815SOL     OW23080   0.004   1.859  13.144  0.2618 -0.1447  0.0284
 3815SOL    HW123081   0.028   1.919  13.074  1.8712 -2.0751 -1.0682
 3815SOL    HW223082   0.087   1.836  13.186  0.4776  2.7708  1.2026
 3816SOL     OW23083   2.569   2.426   4.021  0.2147 -0.2940  0.0199
 3816SOL    HW123084   2.578   2.473   4.103 -1.7817  0.5541 -0.2323
 3816SOL    HW223085   2.608   2.342   4.043  0.1230 -0.8265 -1.8207
 3817SOL     OW23086   1.205   4.647   7.616 -0.1420 -1.0912 -0.8415
 3817SOL    HW123087   1.171   4.737   7.618  0.3832 -0.9617  1.8486
 3817SOL    HW223088   1.255   4.663   7.535 -0.0429  0.1678 -0.5347
 3818SOL     OW23089   0.064   0.493   4.656  0.2446 -0.3536  0.6254
 3818SOL    HW123090   4.721   0.517   4.610  0.4964 -0.3759  0.1720
 3818SOL    HW223091   0.028   0.473   4.742 -0.4110 -0.2150  0.3833
 3819SOL     OW23092   1.956   3.816   4.236  0.5058  0.8209  0.4543
 3819SOL    HW123093   1.876   3.765   4.242  0.7376  0.3346 -0.5469
 3819SOL    HW223094   1.992   3.811   4.325  2.2152 -3.1333 -0.4434
 3820SOL     OW23095   0.126   0.831   7.594  0.0371  0.3689  0.4688
 3820SOL    HW123096   0.143   0.773   7.520 -2.1487 -0.7273  0.8103
 3820SOL    HW223097   0.216   0.855   7.617  0.1949  0.7837 -0.6112
 3821SOL     OW23098   3.080   0.631  11.536 -0.0177 -0.3007 -0.3434
 3821SOL    HW123099   3.172   0.658  11.534 -0.0552 -0.0606  0.6888
 3821SOL    HW223100   3.083   0.617  11.631  0.7278  0.3050 -0.2715
 3822SOL     OW23101   2.016   2.342   3.232 -0.0168  0.4053  0.1454
 3822SOL    HW123102   1.929   2.305   3.248  0.4859 -0.2310  1.4142
 3822SOL    HW223103   2.063   2.351   3.315  1.4964 -1.1169 -0.5423
 3823SOL     OW23104   0.412   3.464   3.589  0.4472  0.1827  0.0901
 3823SOL    HW123105   0.394   3.443   3.680 -0.7476  0.6912 -0.0276
 3823SOL    HW223106   0.460   3.386   3.563  0.8161  0.2367  0.6039
 3824SOL     OW23107   4.238   4.468   0.609  0.1474 -0.2294 -0.8198
 3824SOL    HW123108   4.294   4.539   0.577  0.0982  0.5285  0.7655
 3824SOL    HW223109   4.146   4.494   0.612  0.3768  0.3867  0.9111
 3825SOL     OW23110   0.180   0.395  12.024  0.3742  0.1941  0.0005
 3825SOL    HW123111   0.255   0.423  12.076  0.7634 -0.0910 -0.4080
 3825SOL    HW223112   0.201   0.411  11.932 -0.7524  0.7251 -0.1655
 3826SOL     OW23113   0.906   0.534   3.504 -0.0266  0.5098 -0.1116
 3826SOL    HW123114   0.987   0.530   3.556 -0.1127 -0.4550 -0.0608
 3826SOL    HW223115   0.952   0.531   3.420  2.0956  2.1621  0.9854
 3827SOL     OW23116   0.941   3.834   7.902 -0.0609 -0.0623  0.2366
 3827SOL    HW123117   0.981   3.761   7.950 -0.1804 -0.8417 -0.8246
 3827SOL    HW223118   0.985   3.823   7.817  0.8224 -0.5049  0.7576
 3828SOL     OW23119   3.852   3.313   7.977 -0.0826 -0.1607 -0.5020
 3828SOL    HW123120   3.860   3.409   7.978 -0.1169 -0.1599  1.2430
 3828SOL    HW223121   3.770   3.300   7.931 -1.2082 -1.8105  1.9757
 3829SOL     OW23122   2.108   2.746  14.016  0.4091  0.5206  0.4771
 3829SOL    HW123123   2.103   2.824  14.072  0.9876 -1.0583  2.7322
 3829SOL    HW223124   2.181   2.769  13.959 -0.3107  1.8046  0.0901
 3830SOL     OW23125   3.260   3.237   5.305  0.1387 -0.0613  0.3231
 3830SOL    HW123126   3.354   3.255   5.301 -0.3098  2.3521  0.5228
 3830SOL    HW223127   3.232   3.318   5.262 -0.2911 -0.2129  0.3158
 3831SOL     OW23128   1.501   2.018   3.553  0.2678 -0.4815 -0.3434
 3831SOL    HW123129   1.457   1.935   3.535 -0.8296  0.3444 -1.4276
 3831SOL    HW223130   1.594   1.997   3.538 -0.1723 -1.7101 -1.3470
 3832SOL     OW23131   4.296   1.393  16.243 -0.2604  0.6848  0.1181
 3832SOL    HW123132   4.294   1.488  16.230  0.8398  0.6443 -0.3762
 3832SOL    HW223133   4.300   1.353  16.155 -0.8521  2.8087 -0.8709
 3833SOL     OW23134   4.208   4.232   4.487  0.0912  0.1490 -0.1687
 3833SOL    HW123135   4.302   4.252   4.483  0.1382  0.3804  1.6952
 3833SOL    HW223136   4.185   4.244   4.580  2.0480  0.6567  0.2554
 3834SOL     OW23137   0.997   1.659  16.494 -0.6499  0.2507  0.2597
 3834SOL    HW123138   1.011   1.667  16.588 -1.5112 -0.5437  0.4430
 3834SOL    HW223139   0.954   1.743  16.474 -0.9429 -0.6700 -3.0110
 3835SOL     OW23140   3.867   3.106   9.682 -0.2501  0.2264 -0.4078
 3835SOL    HW123141   3.827   3.191   9.702 -0.9438 -0.5515  1.4679
 3835SOL    HW223142   3.932   3.101   9.752 -0.6582  0.0147 -0.0436
 3836SOL     OW23143   1.253   3.691   9.058  0.5342  0.1301 -0.5871
 3836SOL    HW123144   1.300   3.607   9.057 -0.4767 -0.4694  1.7602
 3836SOL    HW223145   1.169   3.665   9.095  0.5947 -1.3410 -1.4897
 3837SOL     OW23146   0.058   2.464   3.871  0.2730 -0.1184  0.0369
 3837SOL    HW123147   0.100   2.405   3.934  1.6091 -0.5068 -1.2479
 3837SOL    HW223148   0.092   2.546   3.905 -1.1259  0.3519  0.3171
 3838SOL     OW23149   0.830   3.255   3.352  0.2900 -0.0723  0.3794
 3838SOL    HW123150   0.884   3.188   3.393 -0.2410  0.0820  1.3435
 3838SOL    HW223151   0.874   3.244   3.268 -0.2180  1.0149 -0.0382
 3839SOL     OW23152   1.676   0.463   3.928  0.1414 -0.3321  0.1547
 3839SOL    HW123153   1.620   0.407   3.981 -1.5465  0.1776 -1.0801
 3839SOL    HW223154   1.629   0.459   3.844 -1.3800  0.3311  0.9823
 3840SOL     OW23155   1.736   2.459   6.033  0.2651 -0.5998  0.2207
 3840SOL    HW123156   1.797   2.522   5.996 -1.1641  0.8639  0.3551
 3840SOL    HW223157   1.736   2.478   6.127  0.6665  0.2742  0.0425
 3841SOL     OW23158   4.325   4.541  15.618 -0.1828  0.4023  0.9229
 3841SOL    HW123159   4.259   4.595  15.663  0.2101  0.6077  1.2459
 3841SOL    HW223160   4.391   4.553  15.685 -0.0453  2.0999  0.5044
 3842SOL     OW23161   4.130   3.424   9.122 -0.2479  0.2446  0.1740
 3842SOL    HW123162   4.113   3.401   9.213 -0.0161 -2.7818 -0.5406
 3842SOL    HW223163   4.220   3.393   9.114  0.2747  1.3450  1.8984
 3843SOL     OW23164   3.898   3.563  17.720 -0.4284  0.7983  0.0580
 3843SOL    HW123165   3.819   3.615  17.705  0.4607  2.5541  1.4049
 3843SOL    HW223166   3.856   3.488   0.017  0.1628  0.0046 -0.7587
 3844SOL     OW23167   1.429   0.952   5.670 -0.0531 -0.3380  0.2537
 3844SOL    HW123168   1.339   0.963   5.641 -0.3090 -0.1321  1.1334
 3844SOL    HW223169   1.455   1.044   5.672 -2.8895  0.4588 -0.3758
 3845SOL     OW23170   1.563   0.957   1.655  0.2292 -0.1788 -0.2566
 3845SOL    HW123171   1.625   0.885   1.639 -1.4497 -1.6126 -0.3425
 3845SOL    HW223172   1.618   1.036   1.653  1.1795 -0.8355 -0.2031
 3846SOL     OW23173   2.527   0.487   1.061  0.3345  0.2763  0.6217
 3846SOL    HW123174   2.490   0.485   0.973  0.2672  0.8001  0.6371
 3846SOL    HW223175   2.603   0.545   1.052  1.8936 -2.3014 -2.7476
 3847SOL     OW23176   3.567   1.345   0.144 -0.1699  0.0392  0.0952
 3847SOL    HW123177   3.633   1.343   0.074 -0.8034 -1.8881 -0.4576
 3847SOL    HW223178   3.627   1.336   0.218 -1.3200 -1.1481  0.8838
 3848SOL     OW23179   2.671   0.001   2.805 -0.1063  0.3232  0.0364
 3848SOL    HW123180   2.684   4.652   2.845  1.8576 -1.1231 -3.7473
 3848SOL    HW223181   2.701   0.061   2.874  0.5097 -0.5262  0.5133
 3849SOL     OW23182   3.790   2.244   8.729 -0.1163  0.3433 -0.4035
 3849SOL    HW123183   3.811   2.237   8.822 -2.4641 -2.2584 -0.0359
 3849SOL    HW223184   3.694   2.243   8.728 -0.0816 -0.1991 -3.1144
 3850SOL     OW23185   4.533   2.090  13.893  0.3575  0.1673 -0.0491
 3850SOL    HW123186   4.503   1.999  13.901  0.8417 -0.0651 -0.9427
 3850SOL    HW223187   4.590   2.090  13.816  0.4387  1.6989  0.0024
 3851SOL     OW23188   1.148   0.120   7.326 -1.0543  0.6323 -0.0478
 3851SOL    HW123189   1.141   0.185   7.256  0.8470 -0.3285 -1.1283
 3851SOL    HW223190   1.089   0.130   7.401 -1.0726 -0.6458  0.1063
 3852SOL     OW23191   4.435   2.487  16.216 -0.2546 -0.1658 -0.9762
 3852SOL    HW123192   4.467   2.495  16.305  1.7868  0.0322 -1.7289
 3852SOL    HW223193   4.392   2.572  16.205 -1.0713 -0.5442 -0.7116
 3853SOL     OW23194   4.192   4.251  14.651  0.2997 -0.0322  0.0360
 3853SOL    HW123195   4.105   4.288  14.636  0.2165  0.6732  2.2218
 3853SOL    HW223196   4.228   4.247  14.562 -0.2234  4.6328 -0.3864
 3854SOL     OW23197   2.307   1.259  13.240 -0.0240 -0.8217  0.0811
 3854SOL    HW123198   2.216   1.249  13.210  0.8708 -2.0716 -2.2484
 3854SOL    HW223199   2.355   1.244  13.158  0.1039 -0.6175  0.1201
 3855SOL     OW23200   1.008   2.193  17.737 -0.3314 -0.1479 -0.0056
 3855SOL    HW123201   0.936   2.146  17.694 -1.6190  1.1008  0.7565
 3855SOL    HW223202   1.083   2.165  17.686 -0.1977  0.0447  0.0878
 3856SOL     OW23203   0.151   2.207   6.185 -0.6317  0.5608 -0.4472
 3856SOL    HW123204   0.213   2.278   6.204 -0.3055  0.3190 -0.6196
 3856SOL    HW223205   0.073   2.261   6.198  0.7596  2.4027  0.2567
 3857SOL     OW23206   3.111   0.628   2.770 -0.3777 -0.0894 -0.1138
 3857SOL    HW123207   3.189   0.618   2.715 -0.2076 -1.2635  0.3332
 3857SOL    HW223208   3.131   0.708   2.818 -1.7847  1.1398 -1.5745
 3858SOL     OW23209   2.449   0.412   8.908 -0.5611  0.7871 -0.0679
 3858SOL    HW123210   2.468   0.323   8.877  0.0894  0.7480  0.4178
 3858SOL    HW223211   2.370   0.386   8.956 -0.4193 -1.4863 -1.0541
 3859SOL     OW23212   1.178   1.061   8.884 -0.3517 -0.3309  0.1173
 3859SOL    HW123213   1.244   1.087   8.820  2.4881 -1.4580  2.5745
 3859SOL    HW223214   1.095   1.051   8.838 -1.4764  0.2246  2.0410
 3860SOL     OW23215   1.339   0.868   8.089  0.1104 -0.5455  0.5765
 3860SOL    HW123216   1.368   0.806   8.023 -2.5719 -0.0355 -1.0904
 3860SOL    HW223217   1.348   0.819   8.172  0.5709 -1.7854 -0.2022
 3861SOL     OW23218   1.558   3.091   7.681  0.1162  0.4179  0.0783
 3861SOL    HW123219   1.624   3.120   7.619 -0.6678  1.6531 -0.1785
 3861SOL    HW223220   1.485   3.151   7.662 -0.2913  0.0935  0.6009
 3862SOL     OW23221   2.125   3.286   7.706 -0.3321  0.2189  0.4125
 3862SOL    HW123222   2.062   3.230   7.750 -1.4482  0.6101 -0.6680
 3862SOL    HW223223   2.079   3.370   7.698 -0.4902 -0.1973 -2.9292
 3863SOL     OW23224   0.392   0.517   4.207 -0.2647 -0.3268 -0.1157
 3863SOL    HW123225   0.405   0.432   4.248 -0.5853 -0.6475 -0.6794
 3863SOL    HW223226   0.314   0.545   4.254 -1.0427 -1.3726 -0.7844
 3864SOL     OW23227   1.766   1.253   7.953  0.3426  0.0273 -0.3537
 3864SOL    HW123228   1.735   1.175   7.907  0.1439  0.4767 -0.9781
 3864SOL    HW223229   1.804   1.206   8.028  0.4886  0.6875 -0.0178
 3865SOL     OW23230   3.229   1.118   5.188  0.0533 -0.2121 -0.1057
 3865SOL    HW123231   3.150   1.067   5.204  1.0874 -1.7501  0.0483
 3865SOL    HW223232   3.196   1.208   5.179 -1.0226 -0.7288 -1.2299
 3866SOL     OW23233   1.886   1.112   1.372  0.0747 -0.0519  0.3169
 3866SOL    HW123234   1.898   1.036   1.315  1.0495 -0.5499  1.1935
 3866SOL    HW223235   1.952   1.098   1.440 -1.2193 -0.5009  1.4643
 3867SOL     OW23236   3.973   4.706   0.432  0.0523 -0.4133 -0.2293
 3867SOL    HW123237   3.879   4.707   0.449  0.0893  2.1782 -0.2139
 3867SOL    HW223238   4.004   0.058   0.451 -1.0834 -0.1502  0.3944
 3868SOL     OW23239   0.852   2.413   7.016 -0.0187 -0.3657  0.3807
 3868SOL    HW123240   0.944   2.392   7.000 -0.3131  0.5428 -2.6215
 3868SOL    HW223241   0.858   2.461   7.098  0.8960 -0.3650  0.3104
 3869SOL     OW23242   3.764   0.562  11.812 -0.5671 -0.2079  0.0688
 3869SOL    HW123243   3.729   0.622  11.878  0.5105 -0.0914  0.5321
 3869SOL    HW223244   3.727   0.479  11.842 -0.7601 -0.0472  0.2791
 3870SOL     OW23245   3.961   0.426   5.224  0.6996 -0.0315  0.1098
 3870SOL    HW123246   3.987   0.429   5.132 -0.2239 -0.6961 -0.1749
 3870SOL    HW223247   4.016   0.491   5.267  0.7110  1.3266 -1.9330
 3871SOL     OW23248   4.304   2.440   8.342  0.5402 -0.2095  0.3304
 3871SOL    HW123249   4.253   2.399   8.272  1.8744 -1.3169  0.0077
 3871SOL    HW223250   4.346   2.363   8.381  1.5666  2.2354  4.0370
 3872SOL     OW23251   1.837   0.818   2.297 -0.2098 -0.3783  0.2745
 3872SOL    HW123252   1.929   0.831   2.319 -0.0830 -0.9915  0.1037
 3872SOL    HW223253   1.843   0.766   2.217 -2.1156 -0.7796  0.4084
 3873SOL     OW23254   3.365   3.362  16.290 -0.4521  0.8700  0.4076
 3873SOL    HW123255   3.455   3.332  16.277 -0.7221  0.9499 -1.6014
 3873SOL    HW223256   3.363   3.421  16.214 -1.9369 -0.3021 -0.4390
 3874SOL     OW23257   2.905   2.187   7.362  0.8512 -0.0157  0.1371
 3874SOL    HW123258   2.904   2.253   7.431 -0.3816  0.1295 -0.0258
 3874SOL    HW223259   2.984   2.139   7.388  1.1433 -0.2711 -1.2133
 3875SOL     OW23260   3.805   3.136   5.584  0.1492  0.8542  0.4324
 3875SOL    HW123261   3.830   3.050   5.618  0.7126  0.1218 -1.8240
 3875SOL    HW223262   3.893   3.173   5.572 -0.3673  1.6975 -0.8038
 3876SOL     OW23263   4.494   4.063   3.942 -0.1435 -1.0567 -0.4408
 3876SOL    HW123264   4.531   4.127   3.881 -1.9703 -1.2092 -1.7016
 3876SOL    HW223265   4.569   4.055   4.001 -0.1886  0.8087 -0.1205
 3877SOL     OW23266   1.073   4.438  12.083  0.1612 -0.3960 -0.1178
 3877SOL    HW123267   1.076   4.442  11.987  2.2571  0.5242 -0.0166
 3877SOL    HW223268   1.000   4.497  12.101 -0.2760 -0.4041 -1.8044
 3878SOL     OW23269   4.499   1.300   2.866  0.5641  0.0605  0.2906
 3878SOL    HW123270   4.587   1.331   2.846  1.4029 -1.8876  0.9445
 3878SOL    HW223271   4.494   1.229   2.802 -0.8568 -0.0536  0.5344
 3879SOL     OW23272   4.288   3.308   4.466  0.4448  0.0134 -0.0237
 3879SOL    HW123273   4.236   3.342   4.539  0.5379 -0.4883  0.2758
 3879SOL    HW223274   4.309   3.387   4.416  1.8339  0.4720  1.2671
 3880SOL     OW23275   0.675   4.353   0.700  0.1493  0.0259  0.1796
 3880SOL    HW123276   0.760   4.359   0.657 -0.1477  0.4321 -0.3472
 3880SOL    HW223277   0.625   4.380   0.623  2.2372 -2.1941 -1.9305
 3881SOL     OW23278   3.521   3.277   6.793  0.1890  0.3304 -0.1421
 3881SOL    HW123279   3.569   3.356   6.769  0.3340  0.2795 -0.0177
 3881SOL    HW223280   3.460   3.303   6.862 -1.1410  0.8575 -1.5089
 3882SOL     OW23281   0.464   4.482   7.221 -0.1997 -0.4569  0.2651
 3882SOL    HW123282   0.380   4.518   7.193  0.9585  1.4921 -0.7164
 3882SOL    HW223283   0.522   4.552   7.191  0.5848 -1.1702  0.1147
 3883SOL     OW23284   4.676   0.050  15.172 -0.1682  0.5333 -0.5309
 3883SOL    HW123285   4.717   0.017  15.092  1.1110  1.3257 -0.2084
 3883SOL    HW223286   4.645   0.131  15.131 -0.9389  0.3671 -0.2821
 3884SOL     OW23287   3.374   1.886   5.644  0.2078 -0.4092  0.2734
 3884SOL    HW123288   3.394   1.850   5.558 -1.0265  0.8522 -0.5358
 3884SOL    HW223289   3.339   1.968   5.609 -0.0199 -0.6582 -0.0842
 3885SOL     OW23290   1.328   1.647   3.089 -1.0228  0.1363 -0.0452
 3885SOL    HW123291   1.265   1.675   3.023  1.5949  0.7288 -2.3260
 3885SOL    HW223292   1.280   1.591   3.150 -1.5649 -0.8538 -1.3637
 3886SOL     OW23293   1.406   3.717   9.706 -0.5682 -0.2061  0.1731
 3886SOL    HW123294   1.405   3.789   9.643 -0.2782  0.3390  0.7928
 3886SOL    HW223295   1.499   3.698   9.720 -0.2921 -0.5297 -2.1575
 3887SOL     OW23296   0.912   2.290   9.150  0.5355 -0.0581 -0.3960
 3887SOL    HW123297   0.966   2.329   9.081  1.5212  1.0648  1.0231
 3887SOL    HW223298   0.861   2.229   9.097  0.3134  0.9529 -1.3612
 3888SOL     OW23299   2.537   1.263  10.478 -0.4779 -0.1110 -0.1513
 3888SOL    HW123300   2.501   1.301  10.397 -0.7980 -1.4400 -0.6275
 3888SOL    HW223301   2.627   1.235  10.464 -0.0520  0.8331  0.7370
 3889SOL     OW23302   3.673   1.106   9.118  0.6255 -0.4414 -0.6249
 3889SOL    HW123303   3.716   1.120   9.202 -0.4451 -0.3257 -0.0931
 3889SOL    HW223304   3.612   1.178   9.105  0.1915 -0.5566  0.8554
 3890SOL     OW23305   1.615   3.912   2.266 -0.0799  0.0837 -0.1597
 3890SOL    HW123306   1.691   3.891   2.320  0.7888  0.1477 -1.3578
 3890SOL    HW223307   1.647   3.901   2.176 -0.3438  2.0680 -0.4997
 3891SOL     OW23308   3.418   4.664   3.090  0.0492 -0.2783  0.0785
 3891SOL    HW123309   3.431   4.724   3.016  0.4441 -0.1292  0.2675
 3891SOL    HW223310   3.323   4.669   3.100  0.1981  1.9711  0.4367
 3892SOL     OW23311   2.249   1.783   4.069 -0.1414  0.0686 -0.4699
 3892SOL    HW123312   2.267   1.749   4.156  1.5215  1.5821 -0.2165
 3892SOL    HW223313   2.166   1.743   4.044  1.6263 -2.1728 -2.7630
 3893SOL     OW23314   3.726   0.145   6.756  0.3653  0.1438 -0.2627
 3893SOL    HW123315   3.759   0.165   6.844  1.3053  0.3185 -0.6537
 3893SOL    HW223316   3.640   0.108   6.776  0.8805 -0.0626  1.5963
 3894SOL     OW23317   1.064   2.747   6.279  0.2431  0.0554 -0.4869
 3894SOL    HW123318   1.122   2.753   6.204 -0.7783  0.5266 -1.2397
 3894SOL    HW223319   1.123   2.783   6.344 -1.2784 -0.0783  0.9676
 3895SOL     OW23320   4.423   0.609   1.968 -0.2979 -0.5908 -0.1037
 3895SOL    HW123321   4.509   0.569   1.978 -1.0705 -1.8711  1.4360
 3895SOL    HW223322   4.419   0.599   1.873  0.9563 -1.3339 -0.0830
 3896SOL     OW23323   1.102   3.163  16.709 -0.0879  0.3273  0.5296
 3896SOL    HW123324   1.176   3.220  16.729 -0.5268  1.3443 -0.7465
 3896SOL    HW223325   1.140   3.085  16.668  1.1645  1.3416 -0.2583
 3897SOL     OW23326   4.031   3.295   0.479 -0.4184 -1.1029  0.0746
 3897SOL    HW123327   4.079   3.235   0.536  1.3139  0.0218 -0.1827
 3897SOL    HW223328   4.064   3.277   0.391 -1.6052 -1.6804 -0.2592
 3898SOL     OW23329   4.582   1.869   1.972 -0.1834  0.8036 -0.0563
 3898SOL    HW123330   4.498   1.838   2.005  0.9298 -1.6567  0.5007
 3898SOL    HW223331   4.615   1.799   1.915 -1.7772 -0.0587  0.0740
 3899SOL     OW23332   0.139   3.834  15.292 -0.1558 -0.1369 -0.4497
 3899SOL    HW123333   0.060   3.863  15.338  0.8237 -1.8768  2.2980
 3899SOL    HW223334   0.213   3.882  15.329 -1.1543  1.0367  0.0118
 3900SOL     OW23335   4.509   0.036   8.320  0.0539  0.2604 -0.0083
 3900SOL    HW123336   4.576   0.103   8.307  0.7972 -0.7010 -1.1291
 3900SOL    HW223337   4.558   4.696   8.290 -0.3060  0.0388 -0.0298
 3901SOL     OW23338   1.774   2.303  13.170  0.5559  0.2947 -0.3520
 3901SOL    HW123339   1.753   2.330  13.080 -0.5875 -0.7637 -0.3866
 3901SOL    HW223340   1.738   2.215  13.176 -0.0429  0.6398  0.9868
 3902SOL     OW23341   2.953   1.570   5.283 -0.1668  0.1828 -0.2660
 3902SOL    HW123342   2.904   1.495   5.316 -0.9897  1.0210  0.4001
 3902SOL    HW223343   2.951   1.547   5.190  0.2606  2.0643 -0.7557
 3903SOL     OW23344   0.508   3.154   9.967  0.2863  0.6757 -0.7835
 3903SOL    HW123345   0.601   3.128   9.971  0.7626  2.2252 -1.8492
 3903SOL    HW223346   0.504   3.143   9.872  0.2702 -2.5880 -0.4246
 3904SOL     OW23347   2.298   1.077   4.902  0.0031  0.5310  0.3917
 3904SOL    HW123348   2.297   1.074   4.807  2.1987  1.2949  0.3466
 3904SOL    HW223349   2.383   1.121   4.913 -0.6998  1.8797  0.5104
 3905SOL     OW23350   3.422   0.490   2.331  0.0711  0.1078  0.0592
 3905SOL    HW123351   3.515   0.478   2.348  0.3783 -1.3668 -2.7189
 3905SOL    HW223352   3.415   0.408   2.282  1.2800 -0.1344  0.2992
 3906SOL     OW23353   1.474   3.607   4.915  0.3077 -0.6436 -0.2935
 3906SOL    HW123354   1.400   3.546   4.909 -0.4546  0.3874 -1.2323
 3906SOL    HW223355   1.497   3.600   4.823 -0.7003 -1.6219 -0.4802
 3907SOL     OW23356   4.671   2.168  16.692 -0.7469 -0.0216  0.3896
 3907SOL    HW123357   4.731   2.241  16.675  0.7229 -1.0955  0.9292
 3907SOL    HW223358   4.587   2.198  16.657  0.7043  0.3682 -2.8196
 3908SOL     OW23359   0.081   1.888   9.234  0.5280  0.2241 -0.2336
 3908SOL    HW123360   0.150   1.878   9.169 -0.7536 -0.7000 -1.4397
 3908SOL    HW223361   0.134   1.882   9.313 -1.9328 -0.7338  1.3523
 3909SOL     OW23362   3.013   1.554  16.453  0.4930  0.3625  0.2973
 3909SOL    HW123363   2.987   1.581  16.541  0.2607 -0.5574  0.5147
 3909SOL    HW223364   3.096   1.512  16.475  0.7840  1.8624  2.0534
 3910SOL     OW23365   0.709   2.056   2.380 -0.7875 -0.4402 -0.0986
 3910SOL    HW123366   0.701   2.112   2.457  2.0794  1.0986 -0.9314
 3910SOL    HW223367   0.778   1.997   2.409  0.6625  1.4871  0.4243
 3911SOL     OW23368   2.148   3.586   7.339 -0.0347 -0.2744 -0.5077
 3911SOL    HW123369   2.233   3.588   7.295  0.1285  0.0935 -0.1711
 3911SOL    HW223370   2.117   3.502   7.305 -0.6490  0.1517 -0.9989
 3912SOL     OW23371   4.001   4.568   4.089  0.0758  0.1372 -0.5698
 3912SOL    HW123372   3.946   4.502   4.132 -0.0995  0.8128  0.2462
 3912SOL    HW223373   3.998   4.641   4.151  3.5769 -0.5034  0.3492
 3913SOL     OW23374   0.198   1.732   6.185 -0.1546 -0.1078 -0.3162
 3913SOL    HW123375   0.182   1.817   6.144 -0.6596 -0.3901 -0.7028
 3913SOL    HW223376   0.278   1.702   6.141  1.0238  1.2898  0.8525
 3914SOL     OW23377   3.076   4.247   0.268  0.5668 -0.0210 -0.5894
 3914SOL    HW123378   3.047   4.325   0.315  1.1644  0.4003 -0.9113
 3914SOL    HW223379   3.008   4.180   0.276  0.3547  0.2928  0.1455
 3915SOL     OW23380   2.781   1.402   2.009  0.2177 -0.1424  0.4707
 3915SOL    HW123381   2.781   1.313   1.973  2.8818  0.4228 -0.9728
 3915SOL    HW223382   2.694   1.403   2.050  0.2113  1.2269  0.4089
 3916SOL     OW23383   3.475   0.112   7.531  0.0773 -0.2809 -0.4324
 3916SOL    HW123384   3.408   0.065   7.581  2.3462 -0.6638  2.2370
 3916SOL    HW223385   3.423   0.164   7.469  0.4115  1.4534  0.7490
 3917SOL     OW23386   2.334   1.252   1.029  0.2275  0.2218  0.8563
 3917SOL    HW123387   2.315   1.240   1.122  1.4484 -0.0534  1.0766
 3917SOL    HW223388   2.422   1.215   1.037  0.9397  1.2458 -1.9730
 3918SOL     OW23389   3.305   3.728  10.981 -0.0839  0.2146 -0.1348
 3918SOL    HW123390   3.224   3.758  11.023 -0.2435  0.6339 -0.7505
 3918SOL    HW223391   3.275   3.701  10.894 -1.5745 -0.2869  0.5213
 3919SOL     OW23392   4.114   3.316   6.125  0.0359 -0.5671 -0.1308
 3919SOL    HW123393   4.175   3.388   6.139  0.8899 -1.5414  1.0530
 3919SOL    HW223394   4.120   3.265   6.205 -1.8769 -0.7801 -0.1256
 3920SOL     OW23395   2.599   1.774   7.463 -0.1449  0.3693 -0.0057
 3920SOL    HW123396   2.574   1.831   7.390 -0.2212  0.8891  0.4278
 3920SOL    HW223397   2.689   1.803   7.475  0.5470 -2.3631  1.4716
 3921SOL     OW23398   3.026   2.413   4.805  0.0275 -0.2798  0.1794
 3921SOL    HW123399   3.045   2.496   4.760 -1.0334 -1.0693 -1.7409
 3921SOL    HW223400   3.110   2.370   4.792  0.1891  0.5198 -1.4301
 3922SOL     OW23401   2.203   2.296   6.027  0.5892 -0.0918  0.0166
 3922SOL    HW123402   2.190   2.306   5.932  0.5304 -0.1555  0.0178
 3922SOL    HW223403   2.112   2.271   6.043  0.0050  2.0824  0.0555
 3923SOL     OW23404   3.478   1.260   4.050  1.2393 -0.3557  0.3303
 3923SOL    HW123405   3.478   1.204   3.973 -0.9521 -1.3571  1.0587
 3923SOL    HW223406   3.388   1.289   4.063  1.3602 -0.7521  1.9914
 3924SOL     OW23407   1.478   2.234   3.382  0.4544  0.0926  0.3454
 3924SOL    HW123408   1.487   2.206   3.473 -0.2590  1.6655  0.8871
 3924SOL    HW223409   1.482   2.329   3.391  0.7882  0.0224  0.9380
 3925SOL     OW23410   0.105   2.725   3.301 -0.4398  0.2406  0.9751
 3925SOL    HW123411   0.086   2.725   3.207 -1.3839  1.0697  1.1663
 3925SOL    HW223412   0.114   2.632   3.321 -0.7596  0.1142  0.5270
 3926SOL     OW23413   1.964   3.153   8.336 -0.1948 -0.5611 -0.2752
 3926SOL    HW123414   1.903   3.097   8.383 -1.2847 -1.2579 -2.4997
 3926SOL    HW223415   1.959   3.128   8.243 -1.2011 -0.2542 -0.3036
 3927SOL     OW23416   3.283   0.374  10.170 -0.1453 -0.0467  0.1093
 3927SOL    HW123417   3.261   0.443  10.108  0.4436  0.9800  1.0488
 3927SOL    HW223418   3.230   0.399  10.246  0.5120 -1.1977  0.9617
 3928SOL     OW23419   1.424   0.978  14.990  0.3777 -0.4053  0.2937
 3928SOL    HW123420   1.479   0.905  14.962  1.0186  1.1730 -2.5138
 3928SOL    HW223421   1.376   0.981  14.907  2.3484 -2.5720 -0.9238
 3929SOL     OW23422   0.655   0.152   9.094 -0.4633  0.2220  0.5056
 3929SOL    HW123423   0.562   0.136   9.113 -0.4191  0.7332  1.1606
 3929SOL    HW223424   0.645   0.190   9.007 -0.5511 -0.9378  0.0139
 3930SOL     OW23425   3.250   1.543   2.981  0.5085  0.2653 -1.0451
 3930SOL    HW123426   3.159   1.516   2.978  0.2330  0.7631  3.1048
 3930SOL    HW223427   3.291   1.461   3.008 -0.0546 -0.0794 -1.2411
 3931SOL     OW23428   0.873   0.402  10.374 -0.1688  0.9480  0.0702
 3931SOL    HW123429   0.802   0.345  10.405  0.7210 -0.4759 -0.5116
 3931SOL    HW223430   0.936   0.386  10.443  0.4910 -0.8893 -0.9372
 3932SOL     OW23431   0.615   2.332   9.510 -0.0666  0.3545  0.0034
 3932SOL    HW123432   0.576   2.390   9.445 -0.2041 -0.3807 -0.5824
 3932SOL    HW223433   0.707   2.359   9.510 -0.8063  2.8487 -0.8983
 3933SOL     OW23434   0.287   2.873   0.717  0.7169 -0.6967 -0.0558
 3933SOL    HW123435   0.206   2.916   0.689 -0.1229 -1.4226  1.1945
 3933SOL    HW223436   0.324   2.942   0.772 -0.1250 -0.2629 -0.0266
 3934SOL     OW23437   3.143   3.056   8.969 -0.0225  0.1893  0.1865
 3934SOL    HW123438   3.238   3.046   8.976 -0.0702  0.8561  1.6031
 3934SOL    HW223439   3.110   3.093   9.050  0.4734 -1.5980  1.2060
 3935SOL     OW23440   3.981   0.578   8.954  0.3476 -0.2809 -0.6740
 3935SOL    HW123441   3.897   0.532   8.952 -0.7539  1.5862  2.9569
 3935SOL    HW223442   3.956   0.667   8.980 -1.0294 -0.1063 -2.6141
 3936SOL     OW23443   2.450   1.310   5.196  0.1086 -0.4077 -0.0367
 3936SOL    HW123444   2.455   1.301   5.291 -2.1797  1.8049  0.2923
 3936SOL    HW223445   2.361   1.347   5.192  0.4319  0.1715 -1.8088
 3937SOL     OW23446   4.605   0.059   7.576  0.0611  0.5019  0.0526
 3937SOL    HW123447   4.657   0.132   7.610 -2.6472  2.4826 -0.0543
 3937SOL    HW223448   4.651   4.720   7.611 -0.2536  0.3019  0.0340
 3938SOL     OW23449   4.094   3.962  14.540  0.0721  0.2210 -0.4140
 3938SOL    HW123450   4.132   3.897  14.599  0.4882 -1.4964 -2.5563
 3938SOL    HW223451   4.000   3.955  14.558  0.3284 -1.8650  0.0836
 3939SOL     OW23452   2.982   0.869   6.053  0.1121 -0.0409  0.1262
 3939SOL    HW123453   2.995   0.963   6.040 -0.2988  0.0753  0.5646
 3939SOL    HW223454   2.887   0.871   6.062  0.0777  0.7860 -0.3142
 3940SOL     OW23455   2.213   4.252   8.136 -0.3797  0.4119 -0.2123
 3940SOL    HW123456   2.179   4.323   8.190  0.6484  0.5932  0.1975
 3940SOL    HW223457   2.130   4.227   8.095 -0.0532  0.0822 -0.6832
 3941SOL     OW23458   0.973   2.891  15.556 -0.2253 -0.1962  0.1445
 3941SOL    HW123459   0.888   2.935  15.549 -0.6284 -0.8962  0.6650
 3941SOL    HW223460   1.011   2.897  15.468  1.3285  2.5049  0.9807
 3942SOL     OW23461   3.527   1.415  16.022  0.1358  0.3008 -0.0221
 3942SOL    HW123462   3.482   1.476  16.081  0.0441  0.1569  0.0547
 3942SOL    HW223463   3.592   1.475  15.984  1.0842  0.4828  1.8987
 3943SOL     OW23464   0.499   4.719   0.479 -0.0728  0.1131  0.2326
 3943SOL    HW123465   0.567   0.039   0.516 -0.6651  1.7803 -1.2522
 3943SOL    HW223466   0.424   0.041   0.478 -0.1542 -0.0004 -0.1090
 3944SOL     OW23467   1.512   1.288   2.779  0.2178 -0.4955 -0.2368
 3944SOL    HW123468   1.569   1.277   2.855 -1.1070 -0.9110  0.6960
 3944SOL    HW223469   1.575   1.273   2.708  0.6219 -0.4140  0.1074
 3945SOL     OW23470   3.836   4.399  11.050  0.0886  0.3311 -0.4756
 3945SOL    HW123471   3.786   4.348  10.986  1.9164 -0.0549 -1.5966
 3945SOL    HW223472   3.921   4.404  11.006  0.2854 -0.2124 -0.1596
 3946SOL     OW23473   2.513   1.302  11.587 -0.1695  0.0161  0.2478
 3946SOL    HW123474   2.546   1.288  11.498  1.5154 -0.4450  0.9355
 3946SOL    HW223475   2.600   1.312  11.627  0.6268 -0.7925 -1.3003
 3947SOL     OW23476   0.503   2.155   6.697 -0.1594  0.1235  0.5496
 3947SOL    HW123477   0.442   2.081   6.693  0.5618 -0.4620  0.4347
 3947SOL    HW223478   0.588   2.119   6.723  1.0697  1.0419 -2.2325
 3948SOL     OW23479   3.962   2.042   3.757  0.1500 -0.2467  0.2572
 3948SOL    HW123480   4.041   2.020   3.808  0.2712  0.1670  0.2459
 3948SOL    HW223481   3.895   1.995   3.807  0.9411 -1.6418  0.0061
 3949SOL     OW23482   1.279   2.151   6.511  0.3836  0.0442  0.4510
 3949SOL    HW123483   1.288   2.102   6.429 -1.7980 -1.5009  1.1439
 3949SOL    HW223484   1.207   2.208   6.483  1.7690  1.8990  0.6704
 3950SOL     OW23485   4.423   1.403   6.630  0.5051  0.7989  0.4402
 3950SOL    HW123486   4.377   1.329   6.669 -0.1489  0.0484 -1.7286
 3950SOL    HW223487   4.506   1.357   6.615  0.0575  0.0425  0.2650
 3951SOL     OW23488   0.935   1.461  15.245 -0.5058 -0.1545 -0.3463
 3951SOL    HW123489   0.913   1.380  15.199  3.4633 -1.3206 -0.1601
 3951SOL    HW223490   0.947   1.521  15.171 -0.9332  0.5757  0.1811
 3952SOL     OW23491   3.729   1.892  11.609 -1.1764  0.6462 -0.0202
 3952SOL    HW123492   3.762   1.822  11.665  0.0585  1.1015 -0.1830
 3952SOL    HW223493   3.655   1.841  11.575  0.6534 -2.1598  0.2107
 3953SOL     OW23494   0.659   3.601   3.832  0.4282 -0.3876  0.2282
 3953SOL    HW123495   0.738   3.586   3.885  0.5647 -2.6040 -0.5795
 3953SOL    HW223496   0.687   3.556   3.752 -0.0146  1.4689 -0.9659
 3954SOL     OW23497   1.246   3.000   4.006  0.3267 -0.1170 -0.2077
 3954SOL    HW123498   1.282   2.990   3.918  1.6511 -0.5100  0.3886
 3954SOL    HW223499   1.316   3.054   4.042  0.0807 -0.5776  0.9745
 3955SOL     OW23500   4.064   3.048   1.484 -0.2640 -0.0446 -0.3212
 3955SOL    HW123501   4.020   3.042   1.570  0.3203 -1.0561 -0.0952
 3955SOL    HW223502   4.153   3.035   1.515  0.2099  1.0436 -1.2452
 3956SOL     OW23503   0.603   4.134   1.522 -0.0649 -0.0401 -0.2474
 3956SOL    HW123504   0.519   4.180   1.529 -0.1148 -0.0847 -0.5540
 3956SOL    HW223505   0.581   4.049   1.482  0.5282  0.2974 -1.2886
 3957SOL     OW23506   0.630   4.167   3.441 -0.1383 -0.1429  0.2822
 3957SOL    HW123507   0.682   4.231   3.392 -0.3455 -1.1473 -1.2190
 3957SOL    HW223508   0.628   4.214   3.525 -0.4629 -0.0857  0.2399
 3958SOL     OW23509   2.286   4.731   8.609 -0.0402 -0.2704  0.2219
 3958SOL    HW123510   2.212   0.013   8.667 -0.7511 -0.1319 -0.7307
 3958SOL    HW223511   2.257   0.035   8.527  1.1821 -1.6482 -0.8796
 3959SOL     OW23512   3.823   3.313  15.322  0.7622  0.0225  0.1453
 3959SOL    HW123513   3.756   3.252  15.352  0.3645  0.8444  0.9179
 3959SOL    HW223514   3.883   3.253  15.278  2.6294  0.1563  2.5691
 3960SOL     OW23515   2.383   1.334   9.017 -0.2328  0.0934 -0.1232
 3960SOL    HW123516   2.477   1.327   9.002 -0.1500 -2.7639  1.6654
 3960SOL    HW223517   2.377   1.264   9.082  0.3818 -1.3899 -1.6783
 3961SOL     OW23518   2.418   2.364   6.957 -0.3687 -0.1766 -0.1453
 3961SOL    HW123519   2.392   2.367   6.865 -0.2044 -1.2296 -0.2218
 3961SOL    HW223520   2.467   2.282   6.961 -0.9965 -0.3395  4.8223
 3962SOL     OW23521   3.415   2.299   8.188 -0.0149 -0.3738 -0.7493
 3962SOL    HW123522   3.463   2.227   8.147  2.9030  1.3943 -0.4502
 3962SOL    HW223523   3.438   2.380   8.142  1.6727  0.6961  1.9808
 3963SOL     OW23524   1.141   1.760  14.499  0.4485 -0.2115  0.1765
 3963SOL    HW123525   1.107   1.849  14.512  1.0883 -0.5521  4.0253
 3963SOL    HW223526   1.134   1.741  14.406 -0.4050 -1.9897  0.6116
 3964SOL     OW23527   2.159   3.326   3.884 -0.6247 -0.2005 -0.0383
 3964SOL    HW123528   2.254   3.314   3.884 -0.6548 -0.4665  0.4249
 3964SOL    HW223529   2.124   3.259   3.944  2.6430 -1.9999 -0.1658
 3965SOL     OW23530   3.189   4.699   2.885 -0.5554  0.0658 -0.3901
 3965SOL    HW123531   3.125   4.679   2.953 -0.2808  1.4723  0.2719
 3965SOL    HW223532   3.120   4.719   2.821 -2.1489 -0.3007  1.2325
 3966SOL     OW23533   0.342   2.706   2.664  0.0750  0.5902 -0.0961
 3966SOL    HW123534   0.319   2.614   2.674  3.2741  0.0372  2.4403
 3966SOL    HW223535   0.265   2.743   2.621  0.2905 -0.6860 -1.5851
 3967SOL     OW23536   1.972   4.400   5.318 -0.6075 -0.3340  0.3918
 3967SOL    HW123537   2.028   4.381   5.243 -0.2313 -0.0654  0.6056
 3967SOL    HW223538   1.951   4.314   5.355  2.5827 -1.9622 -1.6412
 3968SOL     OW23539   2.278   3.057   0.309  0.1916 -0.0451  0.0007
 3968SOL    HW123540   2.209   3.003   0.349 -0.1547  1.9095  2.1001
 3968SOL    HW223541   2.244   3.144   0.330  0.6906  0.1934 -0.1822
 3969SOL     OW23542   3.822   2.232   7.387 -0.0423  0.2050 -0.2182
 3969SOL    HW123543   3.790   2.205   7.473  0.4601 -1.6754 -0.6003
 3969SOL    HW223544   3.909   2.192   7.386 -0.3272 -0.4276  0.0528
 3970SOL     OW23545   4.377   3.414   8.031 -0.1429 -0.3664  0.3970
 3970SOL    HW123546   4.352   3.393   8.121  0.7640 -0.3777  0.6503
 3970SOL    HW223547   4.305   3.365   7.992 -0.0464 -2.2002  2.4957
 3971SOL     OW23548   4.564   4.483   9.819  0.4290  0.0317 -0.0542
 3971SOL    HW123549   4.604   4.399   9.840  0.3053 -0.0640 -0.2043
 3971SOL    HW223550   4.617   4.531   9.883  0.2733 -0.7659  0.6713
 3972SOL     OW23551   3.929   3.012  17.335 -0.0655 -0.0184  0.7070
 3972SOL    HW123552   3.880   2.949  17.283 -2.0982  1.5676  0.7331
 3972SOL    HW223553   3.969   3.080  17.280  0.2055 -0.5805  0.2070
 3973SOL     OW23554   0.796   3.896   6.682 -0.0717  0.3049  0.1003
 3973SOL    HW123555   0.858   3.967   6.663 -1.8491  1.4245 -1.4338
 3973SOL    HW223556   0.718   3.947   6.701 -0.8178 -0.4084 -1.0748
 3974SOL     OW23557   0.089   2.237   4.755 -0.2965 -0.5833 -0.3517
 3974SOL    HW123558   0.092   2.299   4.828 -2.2735  0.0505 -0.8232
 3974SOL    HW223559   0.050   2.160   4.796 -2.3551  0.3466 -0.5969
 3975SOL     OW23560   2.019   3.052   2.093  0.6633  0.6698  0.2489
 3975SOL    HW123561   1.999   3.135   2.137 -2.7352 -0.5384  1.0234
 3975SOL    HW223562   2.018   2.984   2.160 -3.2045  2.8251  2.3544
 3976SOL     OW23563   1.982   3.068  16.214  0.6827  0.3111 -0.0008
 3976SOL    HW123564   1.995   3.161  16.232 -0.2996  0.4982 -0.2736
 3976SOL    HW223565   2.048   3.047  16.148  0.9594  1.0445  0.0403
 3977SOL     OW23566   2.868   4.614   7.309  0.6840 -0.1611  0.1900
 3977SOL    HW123567   2.848   4.605   7.215 -2.2638 -0.2839  0.8124
 3977SOL    HW223568   2.786   4.586   7.349 -0.4158 -0.4375 -2.2406
 3978SOL     OW23569   2.628   2.444   2.857 -0.3138  0.5253  0.3371
 3978SOL    HW123570   2.673   2.441   2.941  0.0519  2.6672  0.2352
 3978SOL    HW223571   2.544   2.482   2.881 -0.5446  0.3935 -0.2580
 3979SOL     OW23572   1.464   2.930  10.540  0.0118 -0.2958 -0.4209
 3979SOL    HW123573   1.410   3.002  10.571  2.5697  1.6996 -0.7001
 3979SOL    HW223574   1.417   2.853  10.572 -0.7255  1.6619  3.1060
 3980SOL     OW23575   3.882   0.367  13.325 -0.3566 -0.0557  0.2714
 3980SOL    HW123576   3.826   0.426  13.376 -0.2603 -0.0356  0.3524
 3980SOL    HW223577   3.827   0.289  13.321 -0.1815 -0.1976  0.7286
 3981SOL     OW23578   2.210   3.313   8.571  0.7249  0.7570  0.5711
 3981SOL    HW123579   2.159   3.233   8.587  0.6142  0.6309 -0.4562
 3981SOL    HW223580   2.228   3.352   8.657 -2.1584  1.1240  1.0074
 3982SOL     OW23581   0.281   3.993   8.850 -0.6450 -0.5942 -0.1053
 3982SOL    HW123582   0.353   3.998   8.912 -0.7234  1.1665 -0.1607
 3982SOL    HW223583   0.324   3.943   8.781 -2.2660  0.4882 -1.9267
 3983SOL     OW23584   0.622   4.230   5.074  0.4864 -0.2429 -0.4314
 3983SOL    HW123585   0.531   4.244   5.048 -0.1137  0.7889  2.1849
 3983SOL    HW223586   0.653   4.320   5.071  0.6284 -0.2913 -0.4173
 3984SOL     OW23587   0.995   3.543   4.718 -0.4059  0.0516  0.0344
 3984SOL    HW123588   1.058   3.566   4.786 -1.7114  0.7322  1.0016
 3984SOL    HW223589   0.922   3.596   4.749 -1.6957 -1.9356  0.4046
 3985SOL     OW23590   4.085   4.415  10.941  0.6120  0.1096 -0.4755
 3985SOL    HW123591   4.125   4.329  10.929 -0.6377 -0.2624 -1.8820
 3985SOL    HW223592   4.156   4.448  10.997 -0.6299 -0.2819  1.3330
 3986SOL     OW23593   0.269   3.599   9.454 -0.3471 -0.3144 -0.0731
 3986SOL    HW123594   0.252   3.672   9.513  1.0313  1.6112 -2.0590
 3986SOL    HW223595   0.205   3.537   9.488  1.2256 -1.1462  1.3972
 3987SOL     OW23596   0.812   0.837   9.760  0.2217  0.1588  0.3562
 3987SOL    HW123597   0.849   0.919   9.792 -0.2466 -0.9572  3.8176
 3987SOL    HW223598   0.787   0.854   9.669  0.7666  0.9758  0.3609
 3988SOL     OW23599   1.212   1.264   5.194 -0.2225 -0.3947  0.2564
 3988SOL    HW123600   1.233   1.176   5.160 -0.5248 -0.3305 -0.0976
 3988SOL    HW223601   1.139   1.234   5.249 -2.5168 -1.1511 -3.1920
 3989SOL     OW23602   2.466   3.629   6.539 -0.3907  0.2755  0.2544
 3989SOL    HW123603   2.521   3.583   6.602 -0.2369 -0.1537 -0.1929
 3989SOL    HW223604   2.380   3.590   6.553  0.4421 -1.3029  0.9392
 3990SOL     OW23605   0.180   3.761   6.371 -0.0723 -0.7225 -0.4699
 3990SOL    HW123606   0.275   3.772   6.368 -0.5128  3.5452  1.9400
 3990SOL    HW223607   0.155   3.838   6.321 -0.6161 -1.0663 -0.7217
 3991SOL     OW23608   1.398   0.670   5.857 -0.1165 -0.3903  0.0393
 3991SOL    HW123609   1.470   0.607   5.844 -0.6541 -1.0015  0.0168
 3991SOL    HW223610   1.425   0.740   5.915 -3.1160  0.2180  0.6512
 3992SOL     OW23611   1.533   2.439   5.568 -0.0428  0.0060  0.0005
 3992SOL    HW123612   1.491   2.461   5.652 -0.0784  2.5945 -0.7059
 3992SOL    HW223613   1.528   2.345   5.584 -2.6200  0.1763  0.2341
 3993SOL     OW23614   0.979   0.176   2.461  0.1616  0.4733  0.5870
 3993SOL    HW123615   1.047   0.155   2.397 -0.8707  0.5719 -0.5530
 3993SOL    HW223616   0.996   0.097   2.513 -0.5050  0.5236  0.8854
 3994SOL     OW23617   3.302   3.805   9.234 -0.2877  0.0896 -0.0221
 3994SOL    HW123618   3.319   3.893   9.203 -0.2754  1.2701  3.3217
 3994SOL    HW223619   3.384   3.768   9.267 -0.5698 -0.2298  0.3340
 3995SOL     OW23620   3.251   2.221   6.983  0.7606 -0.1136 -0.1289
 3995SOL    HW123621   3.289   2.309   6.983  2.0252 -0.6563  0.4837
 3995SOL    HW223622   3.320   2.178   6.933  0.2580 -1.0874  0.0221
 3996SOL     OW23623   2.894   3.348  16.116  0.3881 -0.3155  0.4383
 3996SOL    HW123624   2.827   3.378  16.176 -0.5478 -0.0535 -0.7363
 3996SOL    HW223625   2.930   3.421  16.065  0.3487  0.1234  1.0407
 3997SOL     OW23626   0.057   3.763  15.042  0.3325 -0.2888  0.1850
 3997SOL    HW123627   4.729   3.833  15.037 -0.4573 -1.0455 -0.3316
 3997SOL    HW223628   0.103   3.785  15.123 -0.2240 -0.0396  0.4360
 3998SOL     OW23629   2.875   3.375   5.557  0.2464 -0.2085  0.1309
 3998SOL    HW123630   2.819   3.414   5.490  0.3633  1.3702  0.9534
 3998SOL    HW223631   2.804   3.348   5.615 -1.4233  2.1790 -0.8147
 3999SOL     OW23632   2.672   2.261  17.541 -0.1293 -0.1632  0.1524
 3999SOL    HW123633   2.638   2.179  17.578  0.8288 -1.5283 -2.0220
 3999SOL    HW223634   2.628   2.323  17.600  0.6752 -2.0483  2.7324
 4000SOL     OW23635   2.398   2.587   5.429  0.2737  0.8922  0.4971
 4000SOL    HW123636   2.457   2.592   5.505 -1.5188 -1.7712  2.0621
 4000SOL    HW223637   2.335   2.526   5.468 -1.1598  1.0996 -1.5205
 4001SOL     OW23638   3.135   3.435  14.036 -0.3322  0.1532  0.5270
 4001SOL    HW123639   3.174   3.424  13.949  0.3931  0.6242  0.7901
 4001SOL    HW223640   3.186   3.366  14.078 -1.2470 -1.2201 -0.6230
 4002SOL     OW23641   3.676   3.740   8.734 -0.4417  0.3715  0.5594
 4002SOL    HW123642   3.654   3.714   8.823 -2.1076  0.6952  0.2520
 4002SOL    HW223643   3.641   3.671   8.678  2.1468 -0.1423 -0.4125
 4003SOL     OW23644   4.515   4.359  15.465  0.5533  0.5612  0.3594
 4003SOL    HW123645   4.440   4.299  15.468  0.7077  0.2334 -1.8684
 4003SOL    HW223646   4.474   4.428  15.515 -2.0468 -2.1424  1.9581
 4004SOL     OW23647   2.426   1.127   0.211  0.1385  0.4521  0.4512
 4004SOL    HW123648   2.448   1.218   0.235  4.2072 -0.2757 -0.5000
 4004SOL    HW223649   2.367   1.099   0.281 -0.0292 -0.5812 -0.1122
 4005SOL     OW23650   0.689   3.194   9.539  1.0409  0.2370  0.3632
 4005SOL    HW123651   0.688   3.277   9.587  0.1369  1.1917 -1.2983
 4005SOL    HW223652   0.625   3.148   9.593 -0.9315  0.3622 -1.8894
 4006SOL     OW23653   0.757   0.479   9.625  0.4179  0.6096 -0.1815
 4006SOL    HW123654   0.824   0.506   9.687  0.8022  0.3288 -0.4743
 4006SOL    HW223655   0.695   0.424   9.672  0.1583  0.5356 -0.6098
 4007SOL     OW23656   3.701   0.046   5.301 -0.1759  0.2054 -0.5059
 4007SOL    HW123657   3.639   4.711   5.318 -1.2510  0.9983 -1.0851
 4007SOL    HW223658   3.772   0.003   5.254  1.6219  0.2447  2.1777
 4008SOL     OW23659   4.565   0.424  15.587 -0.3366  0.3612  0.2265
 4008SOL    HW123660   4.487   0.382  15.623  2.2921 -2.2488  2.9663
 4008SOL    HW223661   4.626   0.356  15.617 -1.0533 -0.1384  0.5456
 4009SOL     OW23662   4.628   4.301  17.659 -0.3049 -0.0812 -0.4032
 4009SOL    HW123663   4.682   4.305  17.738  0.4739  0.4162 -0.9635
 4009SOL    HW223664   4.643   4.211  17.631  0.4539 -0.0652 -0.0381
 4010SOL     OW23665   4.693   4.236  14.835  0.8766 -0.6064 -0.0835
 4010SOL    HW123666   4.730   4.312  14.790 -0.1255  1.2035  2.1660
 4010SOL    HW223667   4.603   4.234  14.804  0.4937 -0.8117  1.0578
 4011SOL     OW23668   4.677   3.574   5.577  0.3209  0.6680  0.0416
 4011SOL    HW123669   4.727   3.525   5.643 -2.8420  0.1533  2.0476
 4011SOL    HW223670   4.723   3.658   5.586  0.1305  0.7684  0.0832
 4012SOL     OW23671   2.808   0.734  11.541  0.3857  0.0767 -0.2041
 4012SOL    HW123672   2.881   0.677  11.517 -0.8555 -1.4466 -0.3622
 4012SOL    HW223673   2.855   0.814  11.564  0.1123 -0.2223  1.4285
 4013SOL     OW23674   2.574   2.053   5.160  0.6674 -0.2768  0.1127
 4013SOL    HW123675   2.491   2.095   5.137 -0.0699 -0.7149  1.9638
 4013SOL    HW223676   2.634   2.127   5.154 -0.3954  0.4051 -2.1636
 4014SOL     OW23677   4.632   3.335   1.566  0.3147 -0.2521 -0.5160
 4014SOL    HW123678   4.550   3.326   1.614 -0.6390  1.3848 -1.8071
 4014SOL    HW223679   4.691   3.379   1.627 -0.7411  0.7457 -0.1980
 4015SOL     OW23680   0.496   3.679  15.708 -0.3304  0.5216 -0.2476
 4015SOL    HW123681   0.505   3.762  15.754 -0.4963  0.3986  0.0102
 4015SOL    HW223682   0.413   3.677  15.662  0.1194 -1.6702 -0.9630
 4016SOL     OW23683   3.239   3.639   6.051 -0.2443 -0.4050  0.1508
 4016SOL    HW123684   3.177   3.711   6.044  0.3835  0.2621  1.4080
 4016SOL    HW223685   3.283   3.659   5.968  1.7987 -0.4609  1.2209
 4017SOL     OW23686   2.161   2.372  13.706 -0.4939 -0.1685  0.1795
 4017SOL    HW123687   2.158   2.358  13.612 -1.8203  1.1893  0.0169
 4017SOL    HW223688   2.210   2.454  13.712 -1.1478  0.1836  0.6798
 4018SOL     OW23689   3.149   1.763  14.992 -0.5942  0.1303  0.0963
 4018SOL    HW123690   3.180   1.679  14.956  2.0906  0.1837  2.3133
 4018SOL    HW223691   3.091   1.731  15.061 -0.5746 -1.4118 -0.5854
 4019SOL     OW23692   3.594   0.203   9.628 -0.2571 -0.1789 -0.3713
 4019SOL    HW123693   3.512   0.251   9.636  1.8199  2.9793  1.9386
 4019SOL    HW223694   3.616   0.207   9.535  1.5411 -1.6561 -0.0063
 4020SOL     OW23695   0.119   3.051   6.160  0.4140  0.2957  0.8502
 4020SOL    HW123696   0.200   3.018   6.200 -0.2565  1.2117  2.9386
 4020SOL    HW223697   0.055   3.072   6.228 -1.4896  1.1250 -1.1953
 4021SOL     OW23698   0.522   2.300   3.472  0.6695 -0.6549  0.3195
 4021SOL    HW123699   0.506   2.207   3.491 -2.5817  0.0162  0.8893
 4021SOL    HW223700   0.437   2.345   3.474  1.1237  0.2173 -0.0768
 4022SOL     OW23701   1.524   0.561  14.923 -0.0695  0.0689 -0.0615
 4022SOL    HW123702   1.602   0.588  14.875 -0.9656  0.1745 -1.4407
 4022SOL    HW223703   1.529   0.466  14.928 -0.1526  0.0334 -0.6298
 4023SOL     OW23704   3.284   2.147  14.155  0.4315 -0.0684 -0.1722
 4023SOL    HW123705   3.251   2.186  14.074 -2.0782 -2.9601 -0.5268
 4023SOL    HW223706   3.375   2.177  14.162  0.1545  0.5834  0.5711
 4024SOL     OW23707   3.051   3.408   3.858  0.8056  0.0906  0.0177
 4024SOL    HW123708   3.021   3.399   3.768 -1.2031  0.8983  0.6026
 4024SOL    HW223709   3.120   3.341   3.859  2.4581  1.8171  0.1886
 4025SOL     OW23710   4.220   1.593   2.988 -0.1376 -0.8486  0.9400
 4025SOL    HW123711   4.202   1.638   3.070 -0.2600  2.1438 -0.7432
 4025SOL    HW223712   4.137   1.546   2.981 -1.3694  1.4280  0.4118
 4026SOL     OW23713   0.565   4.033  16.362  0.4601  0.1274  0.1548
 4026SOL    HW123714   0.538   4.089  16.435  1.6618  1.1573 -0.1705
 4026SOL    HW223715   0.652   4.001  16.386 -0.5336 -1.9974  0.8531
 4027SOL     OW23716   4.500   1.224   7.218  0.0951  0.3158 -0.8328
 4027SOL    HW123717   4.458   1.138   7.206  0.8612 -0.1764  0.0495
 4027SOL    HW223718   4.510   1.232   7.313  3.1987 -1.3525 -1.0095
 4028SOL     OW23719   4.552   3.573   0.745  0.1977 -0.5193  0.1137
 4028SOL    HW123720   4.462   3.544   0.760 -0.3540  1.8685  1.6047
 4028SOL    HW223721   4.541   3.641   0.678  1.8997 -1.7788 -1.4142
 4029SOL     OW23722   1.980   3.742   9.508 -0.4570  0.1085  0.6280
 4029SOL    HW123723   1.915   3.708   9.447  1.3418  0.0366 -1.2664
 4029SOL    HW223724   2.059   3.710   9.465 -1.1578  0.9819 -1.3054
 4030SOL     OW23725   2.126   0.394   2.988 -0.1312  0.0809 -0.5557
 4030SOL    HW123726   2.061   0.353   2.931  1.1636 -1.0234 -1.2361
 4030SOL    HW223727   2.095   0.484   2.981 -0.4271  0.1257  1.4685
 4031SOL     OW23728   3.288   0.449   8.124  0.2038  0.0182  0.1946
 4031SOL    HW123729   3.300   0.487   8.211  1.5727 -1.2250  0.5480
 4031SOL    HW223730   3.207   0.401   8.142  0.5876 -0.2736  1.1708
 4032SOL     OW23731   2.939   2.102  17.605  0.2006 -0.8712  0.4941
 4032SOL    HW123732   2.872   2.061  17.659 -1.8906  0.8191 -0.8162
 4032SOL    HW223733   2.891   2.115  17.523  1.2768 -0.1193 -0.0183
 4033SOL     OW23734   2.928   0.652  17.167  0.1011  0.2179 -0.3464
 4033SOL    HW123735   2.869   0.705  17.220  1.5890  2.0092 -0.5098
 4033SOL    HW223736   2.902   0.564  17.194 -0.7622  0.3675 -0.6830
 4034SOL     OW23737   2.348   1.330   7.594  0.1868  0.7348  0.5786
 4034SOL    HW123738   2.282   1.350   7.528 -0.7341 -1.8788  0.7244
 4034SOL    HW223739   2.428   1.325   7.541 -2.8793 -1.6214 -3.9007
 4035SOL     OW23740   2.895   2.803   3.725  0.4257  0.5579 -0.9203
 4035SOL    HW123741   2.964   2.790   3.790 -0.0355  2.0520 -0.1393
 4035SOL    HW223742   2.866   2.713   3.733 -0.6348  1.1332  1.4860
 4036SOL     OW23743   1.907   2.002   1.989 -0.1968  0.0228  0.0748
 4036SOL    HW123744   1.892   2.012   2.083 -1.0816  2.3960 -0.3059
 4036SOL    HW223745   1.827   2.042   1.955 -0.3296 -1.6772 -1.6236
 4037SOL     OW23746   1.675   4.355   7.105  0.2401  0.2276 -0.2209
 4037SOL    HW123747   1.677   4.266   7.140  1.8392 -0.3639 -1.8227
 4037SOL    HW223748   1.770   4.360   7.097  0.0565  0.8887 -1.9114
 4038SOL     OW23749   3.314   2.540   8.436 -0.0631 -0.0956  0.2673
 4038SOL    HW123750   3.345   2.538   8.345  0.1358 -0.2196  0.3371
 4038SOL    HW223751   3.329   2.633   8.453  1.2553 -0.2525 -0.0545
 4039SOL     OW23752   3.721   3.058   6.427  0.3678 -0.2561  0.4536
 4039SOL    HW123753   3.692   3.149   6.433 -0.0056 -0.5415  2.8516
 4039SOL    HW223754   3.691   3.036   6.338  2.4754  1.5237 -0.6949
 4040SOL     OW23755   4.457   3.835   8.439  0.2290  0.1709 -0.3555
 4040SOL    HW123756   4.500   3.868   8.360 -0.0085 -1.4000 -1.1507
 4040SOL    HW223757   4.467   3.911   8.496  0.7303  0.1937 -0.4746
 4041SOL     OW23758   2.975   2.751   7.703  0.0577  0.1011 -0.9078
 4041SOL    HW123759   3.024   2.714   7.629  0.9291 -2.3404  0.8873
 4041SOL    HW223760   2.886   2.736   7.671 -0.5120 -1.7953  1.6097
 4042SOL     OW23761   2.642   0.609   1.994  0.1869  0.3621  0.0615
 4042SOL    HW123762   2.596   0.564   1.924 -0.1156  0.5290  0.1533
 4042SOL    HW223763   2.730   0.611   1.956  0.4617 -0.4299  0.6527
 4043SOL     OW23764   4.619   1.532   4.485 -0.0131  0.6624  0.0811
 4043SOL    HW123765   4.661   1.490   4.410  0.8156  1.4218  0.1136
 4043SOL    HW223766   4.679   1.607   4.486  2.5867 -1.4370  1.8426
 4044SOL     OW23767   1.879   3.953   5.094  0.0464  0.2000 -0.7122
 4044SOL    HW123768   1.858   3.860   5.084  1.9392 -0.6083  2.6909
 4044SOL    HW223769   1.793   3.991   5.077  0.1279 -0.2214 -2.0211
 4045SOL     OW23770   2.491   0.766   5.380 -0.3980  0.3191  0.0167
 4045SOL    HW123771   2.445   0.694   5.338  0.1591 -0.1500  0.2177
 4045SOL    HW223772   2.578   0.738   5.406 -0.6697 -1.1710 -0.6847
 4046SOL     OW23773   1.147   2.775  16.179  0.3596  0.3089 -0.0392
 4046SOL    HW123774   1.064   2.763  16.225 -0.2414  0.3272 -1.1214
 4046SOL    HW223775   1.172   2.864  16.205 -0.0537  0.1898  0.7448
 4047SOL     OW23776   4.663   1.488   3.140 -0.8947  0.2588  0.2578
 4047SOL    HW123777   4.571   1.512   3.133 -0.4413  2.5128  1.6513
 4047SOL    HW223778   4.672   1.464   3.048  0.3169  2.8461 -0.3222
 4048SOL     OW23779   3.808   2.179   4.183 -0.4910  0.2031 -0.1679
 4048SOL    HW123780   3.732   2.126   4.208 -0.5358  0.9515  1.2392
 4048SOL    HW223781   3.791   2.179   4.088 -0.2515 -1.0259 -0.2097
 4049SOL     OW23782   1.741   2.637   8.044 -0.5698  0.2818  0.4684
 4049SOL    HW123783   1.775   2.548   8.033 -0.6201  0.2875  0.2670
 4049SOL    HW223784   1.683   2.639   7.968  1.0788 -0.6141 -0.8325
 4050SOL     OW23785   1.851   3.055   1.526 -0.0963 -0.0017  0.0916
 4050SOL    HW123786   1.933   3.054   1.575  2.0422  0.1941 -3.4886
 4050SOL    HW223787   1.835   3.150   1.532  1.6338  0.4528 -2.3691
 4051SOL     OW23788   2.243   3.610   5.480 -0.2050  0.4119  0.1825
 4051SOL    HW123789   2.314   3.604   5.415 -0.4548  0.7347 -0.1245
 4051SOL    HW223790   2.196   3.688   5.448  1.5152  0.8563 -1.3147
 4052SOL     OW23791   3.396   3.100  13.243  0.0156  0.2311 -0.1111
 4052SOL    HW123792   3.302   3.117  13.232 -0.2426  1.0629  3.3990
 4052SOL    HW223793   3.417   3.037  13.175  0.7156  0.6265 -0.2670
 4053SOL     OW23794   4.681   4.343   5.322 -0.1826  0.2081  0.1921
 4053SOL    HW123795   4.735   4.265   5.340 -0.7803  0.2139  1.9747
 4053SOL    HW223796   4.621   4.294   5.265 -0.1182 -0.5728  0.7997
 4054SOL     OW23797   1.386   4.229   9.382 -0.3352  0.1261 -0.1869
 4054SOL    HW123798   1.442   4.298   9.417  0.0927 -0.7693  0.9270
 4054SOL    HW223799   1.301   4.255   9.418 -0.8602 -1.8365  0.0504
 4055SOL     OW23800   0.018   0.709   8.924  0.0576 -0.6867 -0.1326
 4055SOL    HW123801   0.014   0.621   8.887  2.1726 -0.5783 -0.6116
 4055SOL    HW223802   4.679   0.745   8.878 -0.9487  2.0397  3.6167
 4056SOL     OW23803   0.919   1.896   8.753 -0.2358 -0.0671 -0.1543
 4056SOL    HW123804   0.882   1.838   8.686 -0.8701 -0.3500  0.4356
 4056SOL    HW223805   1.010   1.868   8.768  0.3595  1.8426 -0.2625
 4057SOL     OW23806   3.164   1.856  16.463 -0.3513 -0.2344  0.6001
 4057SOL    HW123807   3.242   1.903  16.493  0.1525  0.8591 -2.4726
 4057SOL    HW223808   3.158   1.785  16.528  0.4768 -0.1435  0.7727
 4058SOL     OW23809   1.168   2.133   8.015  0.2949  0.3997 -0.0103
 4058SOL    HW123810   1.117   2.057   8.044  1.2187  0.0439  0.6801
 4058SOL    HW223811   1.103   2.169   7.954  1.2933  2.0601 -0.0967
 4059SOL     OW23812   0.191   2.497   7.232 -0.2892 -0.5777 -0.2800
 4059SOL    HW123813   0.262   2.524   7.174  0.7652 -1.7227  0.4535
 4059SOL    HW223814   0.207   2.564   7.299 -0.9729  0.6137 -1.3144
 4060SOL     OW23815   1.952   2.095   4.146  0.3796  0.4017 -0.6989
 4060SOL    HW123816   1.881   2.042   4.110  0.5011 -0.1173 -0.1851
 4060SOL    HW223817   1.908   2.180   4.152 -1.2298 -0.6222  2.1556
 4061SOL     OW23818   1.263   3.624   8.517  0.1069  0.2269  0.0378
 4061SOL    HW123819   1.263   3.665   8.604  1.8199 -1.2474  0.7266
 4061SOL    HW223820   1.225   3.540   8.540  3.3832 -1.2512  0.1129
 4062SOL     OW23821   3.294   2.140   1.677  0.2569 -0.6332 -0.4237
 4062SOL    HW123822   3.333   2.226   1.690 -0.1902 -0.4029 -0.6161
 4062SOL    HW223823   3.205   2.162   1.648  0.0202  2.2788  2.4691
 4063SOL     OW23824   2.662   1.259   7.202 -0.1748  0.1080  0.1309
 4063SOL    HW123825   2.679   1.311   7.124  1.4546 -0.3018  0.2144
 4063SOL    HW223826   2.646   1.173   7.163  0.2702  0.7355 -1.4138
 4064SOL     OW23827   1.162   3.725   3.202 -0.2652  0.7649 -0.1991
 4064SOL    HW123828   1.241   3.673   3.219  1.9199  4.3317  0.4893
 4064SOL    HW223829   1.158   3.782   3.279 -0.2429  0.4976  0.0003
 4065SOL     OW23830   1.773   1.315   1.013 -0.0366  0.6219  0.2679
 4065SOL    HW123831   1.824   1.245   0.973  0.2909  1.4684 -0.7978
 4065SOL    HW223832   1.818   1.314   1.097  1.5587  1.7997 -0.5734
 4066SOL     OW23833   2.016   1.267   7.686  0.0009 -0.4326  0.1625
 4066SOL    HW123834   1.959   1.220   7.626  0.4139  0.0278 -0.5966
 4066SOL    HW223835   2.060   1.327   7.626 -0.3698 -0.1174  0.2002
 4067SOL     OW23836   2.472   3.180  14.553  0.2722 -0.0275  0.2169
 4067SOL    HW123837   2.425   3.186  14.470  0.0656  1.9519  0.4763
 4067SOL    HW223838   2.565   3.183  14.530  0.0123 -1.7985 -1.0462
 4068SOL     OW23839   1.279   1.728   2.658 -0.5988  0.0657  0.6143
 4068SOL    HW123840   1.345   1.680   2.708  0.6100  0.6342 -0.4233
 4068SOL    HW223841   1.334   1.765   2.588  0.9842  0.0004  1.8244
 4069SOL     OW23842   3.175   2.543   7.567  0.2040 -0.3897 -0.3543
 4069SOL    HW123843   3.123   2.594   7.504 -0.7769 -1.6772 -0.5921
 4069SOL    HW223844   3.259   2.562   7.526  0.2055 -0.9279 -0.5951
 4070SOL     OW23845   3.543   1.950   1.446 -0.0914  0.2981  0.2489
 4070SOL    HW123846   3.464   1.919   1.401 -0.8966  0.2249  1.7141
 4070SOL    HW223847   3.512   2.036   1.477  1.2698  1.2358 -0.9832
 4071SOL     OW23848   4.001   3.170  15.215 -0.1309 -0.3866  0.1031
 4071SOL    HW123849   4.072   3.215  15.170 -0.1013  1.9188  2.4288
 4071SOL    HW223850   4.048   3.094  15.249  2.7299  1.2235 -0.3094
 4072SOL     OW23851   3.257   1.461   7.054 -0.1137 -0.2857 -0.5393
 4072SOL    HW123852   3.306   1.504   6.983 -0.1929  0.1686 -0.3200
 4072SOL    HW223853   3.291   1.373   7.039  2.1300  0.3541  0.8182
 4073SOL     OW23854   0.075   1.429   8.238  0.0716 -0.1158 -0.3267
 4073SOL    HW123855   0.064   1.373   8.161 -1.8349  2.3237 -1.8679
 4073SOL    HW223856   4.731   1.479   8.223  0.2565 -0.3569 -2.1691
 4074SOL     OW23857   0.219   0.140   3.667  0.3289 -0.2493  0.8625
 4074SOL    HW123858   0.194   0.217   3.717  0.0666  0.1133  0.1729
 4074SOL    HW223859   0.139   0.119   3.618 -1.8599 -0.2331  4.3950
 4075SOL     OW23860   2.561   1.290   9.536  0.8970  0.0932 -0.3587
 4075SOL    HW123861   2.612   1.209   9.535  0.4639 -0.1799  0.3966
 4075SOL    HW223862   2.493   1.255   9.594  0.8958  1.5913  0.5344
 4076SOL     OW23863   0.121   1.946   3.331  0.3513  0.2698  0.2125
 4076SOL    HW123864   0.181   1.872   3.323  0.3675  0.4100 -0.9972
 4076SOL    HW223865   0.177   2.022   3.345 -2.2677  1.8623  2.0503
 4077SOL     OW23866   4.633   3.168   1.930 -0.5356 -0.1431  0.0664
 4077SOL    HW123867   4.723   3.155   1.961  0.2370  0.6573 -1.7761
 4077SOL    HW223868   4.621   3.263   1.938 -2.1927 -0.3162 -0.3975
 4078SOL     OW23869   1.239   2.879  12.173 -0.4541  0.0394 -0.1249
 4078SOL    HW123870   1.220   2.868  12.080 -0.9095 -0.4336  0.0254
 4078SOL    HW223871   1.195   2.798  12.196 -0.4033  0.0515  0.0160
 4079SOL     OW23872   2.289   0.064   7.288  0.4897 -0.3424  0.2900
 4079SOL    HW123873   2.231   0.126   7.333  1.2523  1.3589 -1.0740
 4079SOL    HW223874   2.355   0.049   7.356 -0.4058 -0.5674  1.1124
 4080SOL     OW23875   2.848   4.384   2.822  0.1604  0.0546 -0.2857
 4080SOL    HW123876   2.898   4.461   2.792 -0.2646  1.0372  1.5257
 4080SOL    HW223877   2.923   4.336   2.857 -2.3056 -1.4593  2.8325
 4081SOL     OW23878   0.352   0.706   0.205  0.3426  0.4968  0.2357
 4081SOL    HW123879   0.351   0.796   0.174  1.8323  0.0839 -0.9956
 4081SOL    HW223880   0.405   0.712   0.284  0.4156  0.6300  0.1751
 4082SOL     OW23881   2.781   1.461   1.243 -0.0989 -0.2533 -0.0916
 4082SOL    HW123882   2.746   1.526   1.304 -1.6970 -1.9333  0.7740
 4082SOL    HW223883   2.708   1.447   1.184 -1.9248  2.1153  1.5861
 4083SOL     OW23884   2.836   2.878   1.130 -0.4667 -0.3285  0.1924
 4083SOL    HW123885   2.740   2.883   1.128 -0.4367 -0.6197 -2.2570
 4083SOL    HW223886   2.857   2.788   1.106 -0.5917 -0.4984  0.7210
 4084SOL     OW23887   3.232   3.958   5.117  0.4295  0.0217 -0.1391
 4084SOL    HW123888   3.194   3.900   5.182  0.4561 -2.0899 -1.9823
 4084SOL    HW223889   3.198   4.045   5.136 -0.6166 -0.5395  0.5440
 4085SOL     OW23890   2.388   2.535   1.416  0.0391 -0.4514 -0.0715
 4085SOL    HW123891   2.362   2.448   1.385 -0.6804 -1.0974  2.3844
 4085SOL    HW223892   2.408   2.510   1.506  0.8543  2.0393  0.4579
 4086SOL     OW23893   0.985   4.059   5.241  0.3316 -0.4070 -0.2932
 4086SOL    HW123894   0.935   4.134   5.208 -0.3035 -0.1308  1.3084
 4086SOL    HW223895   1.063   4.065   5.186  0.6460  0.0323  0.2046
 4087SOL     OW23896   4.552   2.865   2.884  0.1780 -0.1573 -0.2682
 4087SOL    HW123897   4.571   2.925   2.956 -2.9039  0.5289 -0.0457
 4087SOL    HW223898   4.469   2.902   2.855 -0.8263 -1.6589  0.6785
 4088SOL     OW23899   2.026   1.205   3.864 -0.3390 -0.3719  0.2546
 4088SOL    HW123900   2.098   1.259   3.896  1.4698 -2.0208 -0.9873
 4088SOL    HW223901   2.028   1.134   3.928  0.9567 -0.6685 -0.1160
 4089SOL     OW23902   1.051   4.184  16.335  0.1260 -0.6331 -0.2919
 4089SOL    HW123903   0.962   4.215  16.352  0.8483  2.0379 -1.3608
 4089SOL    HW223904   1.056   4.183  16.240 -1.4359 -0.3823 -0.3789
 4090SOL     OW23905   4.667   0.252   6.486  0.4251 -0.3087 -0.0609
 4090SOL    HW123906   4.577   0.263   6.455 -0.1679  0.1427  1.8256
 4090SOL    HW223907   4.722   0.273   6.410  1.1062  1.0668  0.8168
 4091SOL     OW23908   1.456   2.654   0.132  0.4770  0.0742  0.2767
 4091SOL    HW123909   1.492   2.732   0.090 -0.4709  2.1269  3.2593
 4091SOL    HW223910   1.446   2.692   0.219 -0.9772 -0.3929  0.3125
 4092SOL     OW23911   1.450   3.471   2.843 -0.0350  0.0822 -0.9167
 4092SOL    HW123912   1.389   3.437   2.778  0.1974  0.7290 -1.4694
 4092SOL    HW223913   1.523   3.410   2.832  0.6098  0.9137 -1.2244
 4093SOL     OW23914   1.277   1.721   7.617  0.1944 -0.0029  0.0087
 4093SOL    HW123915   1.322   1.666   7.554 -0.6058 -0.5927 -0.0505
 4093SOL    HW223916   1.274   1.661   7.691  0.8158 -0.3136 -0.2247
 4094SOL     OW23917   3.831   0.411   4.147 -0.6875 -0.5360 -0.2530
 4094SOL    HW123918   3.759   0.473   4.133  0.0005  0.6390  1.4209
 4094SOL    HW223919   3.871   0.431   4.062  1.4128  1.0355  1.0908
 4095SOL     OW23920   3.506   1.853  17.242  0.1434 -0.2818  0.2367
 4095SOL    HW123921   3.471   1.764  17.231  1.1135 -0.4504 -1.3930
 4095SOL    HW223922   3.472   1.872  17.330 -1.4314  0.7613 -0.6158
 4096SOL     OW23923   4.384   2.933  12.289 -0.3459  0.0792 -0.0956
 4096SOL    HW123924   4.393   2.839  12.300  0.2560  0.1090 -0.3218
 4096SOL    HW223925   4.472   2.970  12.294 -0.6602  0.9465 -0.9265
 4097SOL     OW23926   0.550   1.711  11.477 -0.2084 -0.6644 -0.4647
 4097SOL    HW123927   0.510   1.747  11.398 -1.8836 -1.3857  0.0573
 4097SOL    HW223928   0.639   1.690  11.448 -0.6142 -1.8568 -0.8450
 4098SOL     OW23929   2.377   2.587   2.902 -0.0234  0.2867  0.1209
 4098SOL    HW123930   2.412   2.676   2.899 -1.2710  0.7605 -0.5449
 4098SOL    HW223931   2.309   2.598   2.968  0.0982 -1.2041  0.5013
 4099SOL     OW23932   0.096   4.256   2.620 -0.2478  0.0580  0.4481
 4099SOL    HW123933   0.087   4.271   2.526  0.6153  0.1649  0.3853
 4099SOL    HW223934   0.049   4.332   2.656  0.2547  0.2252  0.7561
 4100SOL     OW23935   3.789   3.863   5.540 -0.0908  0.0516 -0.2853
 4100SOL    HW123936   3.812   3.803   5.612 -0.2978 -1.0116 -1.1032
 4100SOL    HW223937   3.814   3.949   5.574 -1.9277  1.7064 -3.1150
 4101SOL     OW23938   3.411   2.627   2.285  0.2073  0.7958 -0.4318
 4101SOL    HW123939   3.478   2.567   2.317  0.6647  1.8738  0.6302
 4101SOL    HW223940   3.464   2.703   2.260 -0.0452  1.4753  1.0899
 4102SOL     OW23941   3.877   3.061   8.760  0.1597 -0.1925 -0.0353
 4102SOL    HW123942   3.800   3.117   8.770  0.3922  0.0944  0.1204
 4102SOL    HW223943   3.890   3.025   8.848  0.6870 -1.5301 -0.6542
 4103SOL     OW23944   2.270   3.533  11.625 -0.4879  0.5701 -0.2309
 4103SOL    HW123945   2.196   3.485  11.588  0.5389 -0.7901 -0.4934
 4103SOL    HW223946   2.298   3.580  11.547  0.3001  1.2152  0.4450
 4104SOL     OW23947   1.509   2.744  13.526 -0.5158  0.1728 -0.2229
 4104SOL    HW123948   1.425   2.708  13.497 -0.4972  1.5243 -1.9664
 4104SOL    HW223949   1.564   2.667  13.536  0.1156  0.6909  0.2772
 4105SOL     OW23950   3.578   2.041   9.036 -0.2463  0.4183 -0.0713
 4105SOL    HW123951   3.525   2.109   9.077 -0.5848 -0.8768  1.6542
 4105SOL    HW223952   3.652   2.092   9.002 -0.8433 -0.0062 -1.9954
 4106SOL     OW23953   1.038   3.090   4.662  0.5329 -0.5557  0.0511
 4106SOL    HW123954   0.943   3.105   4.665  0.9809  2.5301 -1.2521
 4106SOL    HW223955   1.040   3.037   4.741  1.2885 -2.0756 -0.9877
 4107SOL     OW23956   2.596   3.474   5.861  0.0151 -0.1398  0.0021
 4107SOL    HW123957   2.676   3.510   5.900  0.2218  0.4639 -0.9555
 4107SOL    HW223958   2.578   3.399   5.917 -0.6280 -1.0278 -1.4037
 4108SOL     OW23959   4.720   0.125  15.953 -0.4981  0.2343 -1.2506
 4108SOL    HW123960   0.070   0.090  15.932 -0.5843 -0.3674 -0.6053
 4108SOL    HW223961   4.686   0.044  15.990 -0.0422  0.0140 -1.3093
 4109SOL     OW23962   3.635   2.166   5.611 -0.0080 -0.4215  0.2955
 4109SOL    HW123963   3.560   2.112   5.633 -1.1189  0.6049 -0.9480
 4109SOL    HW223964   3.664   2.137   5.524 -1.5485  0.2449 -0.4414
 4110SOL     OW23965   1.584   2.822   2.941 -0.5717  0.3287 -0.2633
 4110SOL    HW123966   1.505   2.771   2.922 -1.2388  0.7537  1.4284
 4110SOL    HW223967   1.565   2.871   3.021  1.5840  1.1486 -0.2470
 4111SOL     OW23968   3.059   3.099   6.598  0.1810 -0.3977  0.4583
 4111SOL    HW123969   3.083   3.161   6.668  0.0815  0.0751  0.0775
 4111SOL    HW223970   3.105   3.020   6.627  0.5846  0.0219  0.9661
 4112SOL     OW23971   4.240   4.170   6.672  0.5011  0.3191  0.0111
 4112SOL    HW123972   4.263   4.242   6.613 -1.9620  1.7621  0.8454
 4112SOL    HW223973   4.303   4.175   6.744 -0.1304  1.7928  0.4578
 4113SOL     OW23974   2.078   2.295   6.312  0.3468  0.0672  0.3027
 4113SOL    HW123975   1.990   2.277   6.278  0.0297  1.3214  0.4586
 4113SOL    HW223976   2.125   2.223   6.272 -0.9530 -0.7658  0.2720
 4114SOL     OW23977   0.798   0.989   5.009 -0.1985 -0.2138  0.1311
 4114SOL    HW123978   0.888   1.019   4.990  0.2431 -1.5336  0.1819
 4114SOL    HW223979   0.822   0.901   5.037 -0.4176 -0.7354 -1.3340
 4115SOL     OW23980   1.605   4.109  14.461  0.3404  0.4463  0.5190
 4115SOL    HW123981   1.519   4.066  14.457  0.6540 -0.0634 -0.7999
 4115SOL    HW223982   1.631   4.118  14.369  0.1010 -0.0046  0.4077
 4116SOL     OW23983   4.713   2.762   2.687  0.0853 -0.1034  0.0378
 4116SOL    HW123984   4.641   2.787   2.745  0.9904 -0.3120  1.2715
 4116SOL    HW223985   4.721   2.669   2.711 -1.5969 -0.1098  0.5199
 4117SOL     OW23986   0.594   2.296   3.809 -0.1686 -0.0845 -0.4883
 4117SOL    HW123987   0.655   2.223   3.801  1.2131  0.6273  3.5685
 4117SOL    HW223988   0.643   2.373   3.839  0.2721 -0.1611 -1.0184
 4118SOL     OW23989   0.760   2.983  14.421 -0.0413  0.0096  0.1938
 4118SOL    HW123990   0.788   3.036  14.346 -1.0270 -0.0706 -0.2302
 4118SOL    HW223991   0.695   2.928  14.376 -0.3682 -0.0075  0.6893
 4119SOL     OW23992   1.841   2.035  12.940  0.3087  0.0118 -0.2227
 4119SOL    HW123993   1.912   2.097  12.918  2.2401 -1.8158  0.8384
 4119SOL    HW223994   1.821   2.024  12.847 -1.4085  0.9183  0.0445
 4120SOL     OW23995   0.565   4.116  16.115 -0.2673  0.0233 -0.4102
 4120SOL    HW123996   0.471   4.130  16.099 -0.1204  0.4808 -0.8650
 4120SOL    HW223997   0.558   4.093  16.208 -0.8727 -0.5941 -0.6086
 4121SOL     OW23998   2.082   0.904   3.442  0.0978  0.1568  0.2971
 4121SOL    HW123999   2.065   0.964   3.515  2.9537  1.4318 -0.1017
 4121SOL    HW224000   2.065   0.954   3.362  0.3398  1.8847  1.3379
 4122SOL     OW24001   2.525   1.641   4.801 -0.3298 -0.4524 -0.1545
 4122SOL    HW124002   2.500   1.707   4.866 -1.7210 -1.7613  0.6206
 4122SOL    HW224003   2.503   1.562   4.850  1.9376 -0.5976  0.6445
 4123SOL     OW24004   1.531   4.459   8.290  0.1042  0.3269  0.1676
 4123SOL    HW124005   1.475   4.408   8.349 -1.8970  1.8815 -0.3908
 4123SOL    HW224006   1.518   4.550   8.317 -2.5217  0.1338 -0.4381
 4124SOL     OW24007   4.377   4.502   2.478 -0.3020  0.7275 -0.1793
 4124SOL    HW124008   4.465   4.472   2.502 -0.5287 -0.0326 -0.3007
 4124SOL    HW224009   4.373   4.587   2.522 -0.0440 -0.7133  2.6434
 4125SOL     OW24010   3.517   1.646   8.781 -0.2239  0.3859  0.2337
 4125SOL    HW124011   3.497   1.559   8.748 -1.0602  0.4821  0.4769
 4125SOL    HW224012   3.525   1.635   8.876 -0.8036 -2.5860 -0.0471
 4126SOL     OW24013   2.758   3.592   7.192  0.6423  0.3182  0.4655
 4126SOL    HW124014   2.664   3.585   7.179  0.6530  0.7380  0.1587
 4126SOL    HW224015   2.772   3.657   7.123  1.0159  1.2015  1.3737
 4127SOL     OW24016   4.408   1.838   4.825  0.5603 -0.1115 -0.1535
 4127SOL    HW124017   4.486   1.782   4.819  1.2308  0.8117  0.0620
 4127SOL    HW224018   4.381   1.824   4.916 -0.8656  0.7709 -0.4372
 4128SOL     OW24019   3.200   0.806  16.400 -0.7181 -0.1351 -0.5297
 4128SOL    HW124020   3.269   0.756  16.356 -1.7118 -2.6307  0.7552
 4128SOL    HW224021   3.127   0.745  16.391 -0.1256 -1.0319  0.8226
 4129SOL     OW24022   4.630   0.319   2.214  0.0798  0.5642  0.6053
 4129SOL    HW124023   4.542   0.290   2.191  0.4703 -0.7144  0.7442
 4129SOL    HW224024   4.623   0.333   2.309 -0.3725  0.1957  0.6250
 4130SOL     OW24025   2.184   3.896   4.682 -0.1970  0.3718 -0.1932
 4130SOL    HW124026   2.239   3.824   4.713 -1.6395 -0.6543  0.0380
 4130SOL    HW224027   2.243   3.922   4.612 -0.4958 -2.5524 -1.5292
 4131SOL     OW24028   2.985   2.901   5.063 -0.1846 -0.2302  0.0482
 4131SOL    HW124029   2.947   2.845   5.131  0.9465 -2.0018 -0.7950
 4131SOL    HW224030   3.076   2.916   5.088 -0.2301 -1.0464  0.7107
 4132SOL     OW24031   1.852   2.364   2.610 -0.4270  0.7813  0.2194
 4132SOL    HW124032   1.892   2.399   2.531  0.7173  0.1148  0.5064
 4132SOL    HW224033   1.826   2.446   2.652 -1.1868  1.7735 -2.1883
 4133SOL     OW24034   1.240   3.542  14.346 -0.0936 -0.3308 -0.2281
 4133SOL    HW124035   1.297   3.605  14.391 -3.0049  1.0368  1.5652
 4133SOL    HW224036   1.199   3.594  14.277  0.8469  1.0270  0.2299
 4134SOL     OW24037   4.400   4.306   5.620  0.1012  0.0635  0.5061
 4134SOL    HW124038   4.417   4.358   5.542  0.5391 -0.0569  0.5183
 4134SOL    HW224039   4.486   4.263   5.625 -0.2442 -0.5209  1.4647
 4135SOL     OW24040   2.063   0.185  15.082 -0.0786  0.2260  0.3602
 4135SOL    HW124041   2.079   0.094  15.057  0.4653  0.1977  0.8305
 4135SOL    HW224042   2.082   0.234  15.002  2.2599  0.3342  0.9854
 4136SOL     OW24043   4.504   2.715   2.253 -0.3515 -0.8598 -0.0890
 4136SOL    HW124044   4.563   2.766   2.198 -1.6749  1.5676  0.7373
 4136SOL    HW224045   4.507   2.638   2.197  4.8169  0.0442 -1.0200
 4137SOL     OW24046   2.211   0.747   2.134  0.0054 -0.5671 -0.0899
 4137SOL    HW124047   2.272   0.674   2.130 -0.1688 -0.6833 -0.7572
 4137SOL    HW224048   2.246   0.807   2.199  0.6388 -3.0223  1.7929
 4138SOL     OW24049   4.576   2.896   5.143 -0.3689 -0.5642 -0.5290
 4138SOL    HW124050   4.486   2.902   5.113 -0.5353  0.0576  0.1012
 4138SOL    HW224051   4.566   2.860   5.231  0.3624  1.7560  0.4957
 4139SOL     OW24052   0.944   3.077  12.236  0.1440  0.1753  0.4795
 4139SOL    HW124053   0.962   3.038  12.150  1.3661  0.6162  0.5272
 4139SOL    HW224054   0.951   2.994  12.282 -0.5213  0.5244  1.2061
 4140SOL     OW24055   2.424   2.890   4.374  0.6212  0.2407 -0.1005
 4140SOL    HW124056   2.517   2.913   4.371  1.2334 -2.4143 -1.0714
 4140SOL    HW224057   2.375   2.972   4.363 -1.3092 -0.7525  1.1251
 4141SOL     OW24058   3.402   3.375   8.638 -0.6534  0.5192  0.0478
 4141SOL    HW124059   3.394   3.450   8.579  0.1509  1.2443  0.8594
 4141SOL    HW224060   3.386   3.302   8.578  2.2775  0.7550 -1.0209
 4142SOL     OW24061   0.091   1.961   2.117 -0.3952 -0.3211 -0.2497
 4142SOL    HW124062   0.009   1.952   2.068 -1.0222  1.2274  0.5001
 4142SOL    HW224063   0.155   1.973   2.047  0.8027 -1.6534  0.6198
 4143SOL     OW24064   0.916   0.775   1.110  0.5039  0.2695 -0.3637
 4143SOL    HW124065   1.011   0.779   1.100  0.6083  0.9768  0.9877
 4143SOL    HW224066   0.907   0.855   1.160  0.2557  0.0927 -0.1277
 4144SOL     OW24067   1.631   2.483   5.330 -0.0381 -0.2743  0.2155
 4144SOL    HW124068   1.603   2.460   5.418 -1.3169 -0.4872 -0.2443
 4144SOL    HW224069   1.675   2.403   5.300 -0.4211 -0.4008 -0.0096
 4145SOL     OW24070   2.256   3.634  16.656  0.0268  0.0610  0.0099
 4145SOL    HW124071   2.231   3.719  16.620 -1.5672  0.2571  1.5739
 4145SOL    HW224072   2.309   3.663  16.730 -1.9385  1.0881  1.0281
 4146SOL     OW24073   2.727   1.262  13.335  0.6880 -0.1435 -0.4402
 4146SOL    HW124074   2.731   1.340  13.390 -3.5746  0.3149 -0.8286
 4146SOL    HW224075   2.764   1.310  13.260  1.4779 -1.6203 -1.0019
 4147SOL     OW24076   4.415   1.553   4.653 -0.8782  0.5612 -0.4526
 4147SOL    HW124077   4.355   1.620   4.621  0.6288  2.1837  0.1154
 4147SOL    HW224078   4.488   1.551   4.591 -0.0002  0.9334  0.5646
 4148SOL     OW24079   3.544   0.709   2.656 -0.0569 -0.7275 -0.5251
 4148SOL    HW124080   3.453   0.681   2.665  0.3821 -1.7375  0.6603
 4148SOL    HW224081   3.540   0.784   2.715 -1.3796  0.8633 -2.6137
 4149SOL     OW24082   0.020   1.816   9.573 -0.1703 -0.0620 -0.8518
 4149SOL    HW124083   0.006   1.751   9.505  0.3060  2.6407 -3.5234
 4149SOL    HW224084   4.688   1.877   9.545 -0.3517  0.9025  1.6496
 4150SOL     OW24085   3.941   4.420   9.202 -0.0418 -0.4884  0.8700
 4150SOL    HW124086   3.901   4.506   9.222  1.5225  0.0178  1.8058
 4150SOL    HW224087   3.937   4.418   9.106 -0.2545  1.0478  0.8410
 4151SOL     OW24088   1.232   0.573   6.343 -0.3374  0.1720  0.4221
 4151SOL    HW124089   1.174   0.531   6.407 -1.1745  0.6505 -0.0263
 4151SOL    HW224090   1.242   0.501   6.280 -2.3047 -0.3344  0.6908
 4152SOL     OW24091   2.237   2.130  12.904  0.0715  0.2333 -0.3256
 4152SOL    HW124092   2.149   2.163  12.923  0.3376  1.5576 -1.3750
 4152SOL    HW224093   2.249   2.074  12.981  1.8691  1.5729  0.3827
 4153SOL     OW24094   0.897   1.148   8.007  0.2131  0.1194 -0.0811
 4153SOL    HW124095   0.932   1.187   8.087 -1.5525 -0.3256  0.9163
 4153SOL    HW224096   0.930   1.058   8.015  2.2455  0.8718 -0.2603
 4154SOL     OW24097   3.415   4.200  14.375 -0.1182 -0.2081  0.7683
 4154SOL    HW124098   3.327   4.169  14.398  0.1659 -1.7656 -0.2062
 4154SOL    HW224099   3.410   4.176  14.283  0.4842  0.2073  0.6304
 4155SOL     OW24100   1.864   0.123  15.246  0.0566  0.1795  0.1247
 4155SOL    HW124101   1.906   0.127  15.332 -2.5559  3.5410  1.2333
 4155SOL    HW224102   1.940   0.144  15.191  0.8110 -0.0135  1.1067
 4156SOL     OW24103   3.711   3.350   9.362  0.3850 -0.2896 -0.1932
 4156SOL    HW124104   3.795   3.329   9.404  0.2875 -0.0110  0.1403
 4156SOL    HW224105   3.659   3.356   9.443 -0.0975  0.7578 -0.5749
 4157SOL     OW24106   2.435   1.616   2.511 -0.0840 -0.5347  0.1305
 4157SOL    HW124107   2.473   1.691   2.557  0.9430 -1.6733  1.1562
 4157SOL    HW224108   2.385   1.659   2.443 -1.4080 -1.7438  0.3336
 4158SOL     OW24109   0.367   1.867  16.357  0.5830 -0.4537 -0.5404
 4158SOL    HW124110   0.346   1.901  16.270  2.5957  0.4204 -0.6960
 4158SOL    HW224111   0.365   1.946  16.412 -0.8228 -2.1360  1.8106
 4159SOL     OW24112   1.181   2.609   0.148 -0.3036 -0.6081  0.5179
 4159SOL    HW124113   1.211   2.673   0.212 -0.8007  0.0399  0.1008
 4159SOL    HW224114   1.259   2.596   0.094 -0.5167  1.5902 -0.3135
 4160SOL     OW24115   2.585   1.006   4.009 -0.0414 -0.3001  0.3085
 4160SOL    HW124116   2.672   1.025   3.975 -0.9239  2.0278 -0.6432
 4160SOL    HW224117   2.590   0.913   4.033  0.0349 -0.5078 -0.5045
 4161SOL     OW24118   4.370   0.534  14.307  0.1848 -0.2949 -0.1713
 4161SOL    HW124119   4.400   0.608  14.360  2.7209  0.6672 -2.9791
 4161SOL    HW224120   4.286   0.511  14.349  0.0594 -0.5045 -0.5336
 4162SOL     OW24121   3.028   4.153   9.175 -0.8008  0.1269  0.1287
 4162SOL    HW124122   3.119   4.134   9.194 -0.3683 -1.0954 -3.0793
 4162SOL    HW224123   2.987   4.155   9.261 -0.1773  0.9749  0.4026
 4163SOL     OW24124   2.254   2.067   8.595  0.4631  0.0207 -0.2379
 4163SOL    HW124125   2.276   1.978   8.568 -0.4335  0.0938 -1.2303
 4163SOL    HW224126   2.159   2.062   8.609  0.5771  1.7725  1.3316
 4164SOL     OW24127   1.353   0.716   1.238 -0.1544  0.2468  0.4749
 4164SOL    HW124128   1.436   0.723   1.286  0.5917 -2.4217 -0.4469
 4164SOL    HW224129   1.333   0.622   1.240 -0.0299  0.2182  0.3530
 4165SOL     OW24130   1.914   3.800  15.103 -0.0073  0.1180  0.3539
 4165SOL    HW124131   1.850   3.766  15.041 -1.3224  1.2420  1.1090
 4165SOL    HW224132   1.982   3.733  15.105  0.4541  0.5770  0.0763
 4166SOL     OW24133   0.735   4.326  12.516  0.3301  1.0848 -0.1711
 4166SOL    HW124134   0.656   4.352  12.563  0.0052 -0.7379  0.3027
 4166SOL    HW224135   0.785   4.407  12.506  0.3585  1.0016 -0.6892
 4167SOL     OW24136   0.907   2.253   4.114  0.1602  0.6263  0.1762
 4167SOL    HW124137   0.826   2.297   4.143  0.0337  1.2446 -1.1444
 4167SOL    HW224138   0.961   2.277   4.190  1.4749  0.3654 -0.6920
 4168SOL     OW24139   3.113   2.045   3.072  0.0707  0.1114 -0.0595
 4168SOL    HW124140   3.135   1.952   3.081  0.7915  0.5038  2.1566
 4168SOL    HW224141   3.110   2.034   2.977 -1.0836  0.0151 -0.0038
 4169SOL     OW24142   4.496   0.325  14.184 -0.2255  0.1801 -0.1674
 4169SOL    HW124143   4.565   0.298  14.245 -0.2193 -0.9757 -0.6898
 4169SOL    HW224144   4.458   0.402  14.227  0.9963  1.0433 -0.6477
 4170SOL     OW24145   1.071   0.224   8.517  0.0646  0.4974  0.1253
 4170SOL    HW124146   1.148   0.168   8.529  0.6939  1.8491  2.5232
 4170SOL    HW224147   1.039   0.231   8.607 -0.0449 -1.8505  0.2643
 4171SOL     OW24148   1.640   1.817   5.749  0.5571 -0.2456  0.0129
 4171SOL    HW124149   1.583   1.801   5.824 -2.0062 -1.5019 -2.2000
 4171SOL    HW224150   1.690   1.890   5.786 -0.3761 -0.0173  0.8426
 4172SOL     OW24151   2.908   1.282  13.639  0.7131 -0.4496 -0.3367
 4172SOL    HW124152   2.997   1.253  13.659  1.2955  0.9557 -0.8425
 4172SOL    HW224153   2.896   1.347  13.709  0.1401 -2.2198  1.1934
 4173SOL     OW24154   0.717   0.112  16.029 -0.1433  0.0153  0.3564
 4173SOL    HW124155   0.782   0.125  16.098 -0.1881  0.2371  0.3562
 4173SOL    HW224156   0.723   0.017  16.017 -1.7129  0.0239 -0.4936
 4174SOL     OW24157   0.933   0.844   0.585 -0.0753 -0.3013 -0.4055
 4174SOL    HW124158   0.950   0.851   0.679 -1.0275  0.1653 -0.2757
 4174SOL    HW224159   0.848   0.802   0.581 -0.3484  0.3597 -1.6406
 4175SOL     OW24160   3.167   0.689   6.146  0.4172  0.3620 -0.0150
 4175SOL    HW124161   3.090   0.745   6.135 -0.7205 -0.9175  1.4022
 4175SOL    HW224162   3.134   0.601   6.129 -0.4998  0.7317 -0.1477
 4176SOL     OW24163   2.129   0.261   6.870  0.1022  0.2474  0.2228
 4176SOL    HW124164   2.179   0.305   6.801  1.2451 -0.4678  0.5888
 4176SOL    HW224165   2.138   0.325   6.941 -1.7957 -1.0480  1.6226
 4177SOL     OW24166   0.258   2.762  15.182 -0.5736  0.3450 -0.3826
 4177SOL    HW124167   0.201   2.686  15.187 -0.7586  0.3447 -2.7226
 4177SOL    HW224168   0.297   2.755  15.095 -0.5515 -0.7602 -0.2905
 4178SOL     OW24169   3.863   1.005   2.396 -0.0122 -0.1899  0.0857
 4178SOL    HW124170   3.853   0.969   2.308 -1.4754  0.0066  0.1682
 4178SOL    HW224171   3.957   0.987   2.399  0.4245  2.1255  0.1805
 4179SOL     OW24172   0.796   1.039   4.627 -0.2366  0.3499  0.0936
 4179SOL    HW124173   0.705   1.046   4.656 -0.1662 -2.0208  0.9429
 4179SOL    HW224174   0.799   0.943   4.623 -0.5806  0.3408  0.0168
 4180SOL     OW24175   2.940   2.869   4.491  0.3107  0.3737  0.1115
 4180SOL    HW124176   2.859   2.871   4.440  1.5343 -0.3172 -1.8814
 4180SOL    HW224177   2.908   2.879   4.580  0.7213  0.3470  0.2596
 4181SOL     OW24178   4.045   1.691   4.263 -1.0472  0.1641  0.3665
 4181SOL    HW124179   4.047   1.774   4.311  0.0952  1.2597 -1.5870
 4181SOL    HW224180   4.023   1.713   4.173  0.6793 -1.8878 -0.5491
 4182SOL     OW24181   2.063   0.527   9.017  0.3858  0.2807  0.7192
 4182SOL    HW124182   1.981   0.527   8.969  0.7491 -1.8599  0.0863
 4182SOL    HW224183   2.117   0.576   8.955  0.5800 -0.8663 -0.0238
 4183SOL     OW24184   2.009   3.092   4.989  0.9158 -0.4798 -0.0689
 4183SOL    HW124185   2.073   3.032   5.025 -0.4868 -0.9122  1.7282
 4183SOL    HW224186   1.936   3.062   5.044  1.3098 -0.9959  0.1587
 4184SOL     OW24187   4.201   2.501   2.286  0.2408  0.5364 -0.7848
 4184SOL    HW124188   4.159   2.480   2.203 -0.4044 -0.2766 -0.2516
 4184SOL    HW224189   4.276   2.442   2.285 -1.2962 -1.4396  1.0747
 4185SOL     OW24190   0.842   3.466   6.977 -0.3338  0.4714 -0.3355
 4185SOL    HW124191   0.828   3.531   6.908 -0.5895  1.6367  0.8186
 4185SOL    HW224192   0.761   3.452   7.027 -0.2860 -2.4099 -1.0883
 4186SOL     OW24193   2.324   0.970   5.700  0.2461 -0.5796  0.0328
 4186SOL    HW124194   2.306   0.983   5.607  1.3003 -1.5712 -0.3162
 4186SOL    HW224195   2.341   1.058   5.732  0.9393 -1.0072  0.8461
 4187SOL     OW24196   0.505   4.370   2.490  0.2135 -0.1751  0.2705
 4187SOL    HW124197   0.535   4.283   2.515  0.6088 -0.2219 -0.3737
 4187SOL    HW224198   0.566   4.395   2.421 -0.5978  3.5708  0.8625
 4188SOL     OW24199   4.384   3.160   9.539  0.0724  0.1059  0.1204
 4188SOL    HW124200   4.336   3.228   9.492  0.3520 -0.0441 -0.3888
 4188SOL    HW224201   4.443   3.211   9.594 -0.0392  0.6291 -0.2522
 4189SOL     OW24202   2.264   1.318   2.944  0.3028 -0.0842  0.1535
 4189SOL    HW124203   2.270   1.222   2.947 -3.0968 -0.2675  0.8060
 4189SOL    HW224204   2.318   1.346   2.870 -2.4141 -0.5704 -2.0392
 4190SOL     OW24205   3.595   0.295   3.151 -0.0675  0.2591  0.5726
 4190SOL    HW124206   3.590   0.294   3.056  1.1369  1.7856  0.4807
 4190SOL    HW224207   3.676   0.346   3.161  0.1709  0.1347 -0.7877
 4191SOL     OW24208   4.463   4.132  14.449  0.4186 -0.3340  0.3258
 4191SOL    HW124209   4.424   4.213  14.416 -1.5654 -0.9277  1.2401
 4191SOL    HW224210   4.395   4.077  14.409 -1.1056  1.0686  1.0159
 4192SOL     OW24211   0.090   3.101   5.884 -0.2605 -0.5915  0.6202
 4192SOL    HW124212   0.110   3.100   5.977 -1.5122  0.4919  0.9061
 4192SOL    HW224213   0.019   3.166   5.889 -1.0483 -1.3952 -0.0752
 4193SOL     OW24214   1.367   3.106   2.596 -0.1976  0.5421  0.9229
 4193SOL    HW124215   1.300   3.094   2.529  0.9495 -1.8422  0.1871
 4193SOL    HW224216   1.373   3.200   2.610  1.8987  0.4699  0.5684
 4194SOL     OW24217   2.769   3.027   3.607 -0.2002 -0.0263 -0.1334
 4194SOL    HW124218   2.782   3.040   3.513 -0.8152  1.1833 -0.0549
 4194SOL    HW224219   2.793   2.935   3.622 -2.1962 -0.3327  1.1500
 4195SOL     OW24220   3.576   3.685   4.983  0.3953  0.1031  0.3199
 4195SOL    HW124221   3.491   3.715   4.952  0.6862  0.3063 -0.2773
 4195SOL    HW224222   3.623   3.681   4.899 -0.5254 -1.2238 -0.1266
 4196SOL     OW24223   0.478   2.862   9.273  0.3696  0.0174 -0.4360
 4196SOL    HW124224   0.465   2.952   9.243  0.3577  0.0690 -0.2782
 4196SOL    HW224225   0.386   2.839   9.287  0.6845 -0.5202  0.7267
 4197SOL     OW24226   3.133   0.842  12.037 -0.0436  0.2956 -0.2297
 4197SOL    HW124227   3.122   0.919  11.982  0.2811  0.1970 -0.4370
 4197SOL    HW224228   3.153   0.769  11.978  1.9450 -0.2529  1.0905
 4198SOL     OW24229   2.933   2.289  12.689  0.0089  0.8432 -0.4135
 4198SOL    HW124230   3.017   2.257  12.722 -0.6586  0.6542  1.0810
 4198SOL    HW224231   2.872   2.238  12.742  2.8424 -0.2327  1.8215
 4199SOL     OW24232   2.004   4.199   3.754  0.1644  0.1043 -0.3111
 4199SOL    HW124233   1.934   4.257   3.726 -0.5204 -0.9300 -0.7508
 4199SOL    HW224234   2.064   4.221   3.683  0.4463 -1.1928 -0.4753
 4200SOL     OW24235   1.357   1.772   1.635  0.3078  0.8707 -0.1960
 4200SOL    HW124236   1.304   1.839   1.677  0.4400  1.6474 -1.2675
 4200SOL    HW224237   1.336   1.780   1.542 -0.6333 -1.1061 -0.1692
 4201SOL     OW24238   3.986   0.716   7.195 -0.1634  0.1061 -0.3055
 4201SOL    HW124239   4.013   0.732   7.285  0.4775 -1.9192 -0.1487
 4201SOL    HW224240   3.979   0.621   7.194 -0.5397  0.1370 -0.6729
 4202SOL     OW24241   4.314   3.486   1.512  0.0447 -0.0719  0.5221
 4202SOL    HW124242   4.219   3.482   1.514  0.1549 -1.6951  2.4867
 4202SOL    HW224243   4.347   3.428   1.581  2.1804 -2.5869 -2.6002
 4203SOL     OW24244   1.363   2.456   3.545  0.3357  0.3658 -0.4967
 4203SOL    HW124245   1.354   2.499   3.630 -1.4766  0.6007 -0.8048
 4203SOL    HW224246   1.296   2.388   3.551  0.1620  0.5170 -0.6954
 4204SOL     OW24247   1.044   0.904   8.026  0.9638  0.1065 -0.1608
 4204SOL    HW124248   1.055   0.825   8.079 -0.2472 -0.3884 -0.6717
 4204SOL    HW224249   1.136   0.931   8.037  0.7974  0.6685 -0.1228
 4205SOL     OW24250   3.789   4.591  16.743  0.1462 -0.5352  0.0886
 4205SOL    HW124251   3.729   4.536  16.693 -0.5706 -0.5611  0.9867
 4205SOL    HW224252   3.775   4.683  16.720  2.3751 -0.0478  0.6775
 4206SOL     OW24253   0.275   0.096   7.835  0.1348 -1.0973 -0.0277
 4206SOL    HW124254   0.191   0.102   7.882  0.9424 -0.5031  1.3386
 4206SOL    HW224255   0.344   0.091   7.901  0.6901  0.3428 -0.4906
 4207SOL     OW24256   3.662   4.691   8.943  0.3685 -0.4689  0.0146
 4207SOL    HW124257   3.646   4.635   9.019  1.3917 -1.0766 -0.2126
 4207SOL    HW224258   3.743   4.732   8.975  0.2196 -0.4267  0.3411
 4208SOL     OW24259   1.896   0.651   2.665  0.2957 -0.8944  0.0210
 4208SOL    HW124260   1.963   0.649   2.733  0.7227 -1.3417 -0.4171
 4208SOL    HW224261   1.833   0.580   2.680 -2.2729  1.2536 -0.6645
 4209SOL     OW24262   3.932   1.480   4.950 -0.6312  0.0871 -0.9917
 4209SOL    HW124263   4.006   1.486   4.891  1.2706  0.8749  1.4675
 4209SOL    HW224264   3.867   1.529   4.900 -0.6369 -0.5224 -1.5771
 4210SOL     OW24265   0.773   2.264  13.418  0.3297 -0.0265  0.0431
 4210SOL    HW124266   0.686   2.287  13.449  0.2192  1.5212 -1.4331
 4210SOL    HW224267   0.776   2.291  13.326  1.7282  1.9156  0.6635
 4211SOL     OW24268   3.769   0.120  16.639 -0.6433 -0.0319 -0.1962
 4211SOL    HW124269   3.690   0.157  16.679 -0.9770 -1.4565  0.4784
 4211SOL    HW224270   3.826   0.195  16.624  0.3251 -1.0638 -1.6860
 4212SOL     OW24271   0.786   0.886   1.365  0.1392 -0.2242 -0.0006
 4212SOL    HW124272   0.773   0.818   1.431  2.1098  0.2254  0.8674
 4212SOL    HW224273   0.715   0.853   1.310  0.7042 -1.1111 -0.2118
 4213SOL     OW24274   2.583   1.871  12.611  0.6039 -0.3094  0.4467
 4213SOL    HW124275   2.626   1.858  12.695  1.2676  0.1826  0.1817
 4213SOL    HW224276   2.498   1.896  12.645  0.6500  2.2267 -1.3627
 4214SOL     OW24277   0.161   3.778  17.057 -0.0268 -0.4476  0.4192
 4214SOL    HW124278   0.198   3.700  17.098  1.0417 -0.3921 -0.4370
 4214SOL    HW224279   0.246   3.821  17.046  0.3981 -0.9666  1.6298
 4215SOL     OW24280   3.743   0.434   3.768  0.0194  0.2888  0.2651
 4215SOL    HW124281   3.674   0.383   3.809  2.2499 -2.7598  0.2533
 4215SOL    HW224282   3.694   0.469   3.693 -1.0587 -1.0808  0.3286
 4216SOL     OW24283   3.273   2.227   5.845 -0.2390  0.2072  0.4620
 4216SOL    HW124284   3.290   2.187   5.759 -2.2831 -0.0061  0.1650
 4216SOL    HW224285   3.354   2.213   5.894  0.0643 -2.1861 -0.6850
 4217SOL     OW24286   4.348   2.886   6.576 -0.0948  0.4023  0.2416
 4217SOL    HW124287   4.320   2.812   6.522  1.5034  1.1044 -1.5364
 4217SOL    HW224288   4.419   2.853   6.631 -0.9350 -0.5303  0.7783
 4218SOL     OW24289   1.197   4.470   4.805 -0.2300 -0.3819  0.7073
 4218SOL    HW124290   1.267   4.533   4.822 -0.9501  0.7463 -0.5241
 4218SOL    HW224291   1.248   4.417   4.743  0.9454  0.5356  0.8773
 4219SOL     OW24292   4.133   1.848   8.216  0.2983 -0.3708 -0.0745
 4219SOL    HW124293   4.134   1.874   8.308  0.3297  0.0407 -0.1915
 4219SOL    HW224294   4.050   1.886   8.187  0.2760  0.7511  1.4925
 4220SOL     OW24295   2.667   2.862   0.799 -0.2488 -0.4897  0.4614
 4220SOL    HW124296   2.635   2.856   0.889  0.0550 -0.7530  0.5526
 4220SOL    HW224297   2.604   2.921   0.757  0.0154 -0.7351 -0.2755
 4221SOL     OW24298   2.530   1.991  12.895 -0.0415  0.1079  0.3963
 4221SOL    HW124299   2.457   1.974  12.836  0.1070 -0.3356  0.3420
 4221SOL    HW224300   2.568   1.905  12.911  0.1963  0.5389  2.2440
 4222SOL     OW24301   2.278   2.763   3.677  0.7569 -0.2372 -0.1996
 4222SOL    HW124302   2.312   2.802   3.597  0.7352 -0.8139 -0.4864
 4222SOL    HW224303   2.358   2.735   3.722  1.1638  0.6088 -0.3987
 4223SOL     OW24304   1.990   1.158  16.243  0.6232  0.1579 -0.7035
 4223SOL    HW124305   2.061   1.213  16.276  1.9060 -2.6028  1.2075
 4223SOL    HW224306   2.005   1.163  16.149 -0.9479  1.0220 -0.9128
 4224SOL     OW24307   0.426   2.586   5.784  0.2781 -0.3214 -0.3310
 4224SOL    HW124308   0.400   2.542   5.864 -2.8098  0.6799 -0.7732
 4224SOL    HW224309   0.507   2.626   5.816  0.2310 -0.3739 -0.1471
 4225SOL     OW24310   3.371   0.556   7.724  0.2005  0.4969 -0.5628
 4225SOL    HW124311   3.421   0.554   7.643 -0.2600  1.0000 -0.8581
 4225SOL    HW224312   3.439   0.575   7.789 -1.2257  1.0503  0.7615
 4226SOL     OW24313   0.217   2.111  11.584 -0.2943 -0.1737 -0.2234
 4226SOL    HW124314   0.207   2.191  11.636  1.3992  0.2835 -0.6189
 4226SOL    HW224315   0.300   2.078  11.618 -0.2437  1.7982  1.5529
 4227SOL     OW24316   3.752   0.818   1.230 -0.5224 -0.5499 -0.0001
 4227SOL    HW124317   3.809   0.879   1.277  0.0556 -0.6385 -0.5868
 4227SOL    HW224318   3.693   0.800   1.302 -0.1267  0.4470  0.5767
 4228SOL     OW24319   1.603   3.809   5.710 -0.0019 -0.2343  0.1258
 4228SOL    HW124320   1.647   3.890   5.736 -0.8273  0.3176 -0.1892
 4228SOL    HW224321   1.516   3.830   5.745  0.6305 -1.4046  2.3810
 4229SOL     OW24322   2.173   1.872  15.048  0.1430 -0.3962 -0.4315
 4229SOL    HW124323   2.103   1.919  15.094  1.1135 -1.6368  2.3193
 4229SOL    HW224324   2.237   1.859  15.118 -0.0136 -0.1130 -0.2375
 4230SOL     OW24325   1.819   4.026   5.502 -0.0690  0.2918 -0.4102
 4230SOL    HW124326   1.741   3.996   5.455  0.4787 -3.5380  1.0607
 4230SOL    HW224327   1.873   4.055   5.428 -1.5404  2.3189 -0.6694
 4231SOL     OW24328   1.653   4.042   4.962 -0.0251  0.1818  0.5900
 4231SOL    HW124329   1.627   4.124   4.920 -1.8267 -0.0094  1.3387
 4231SOL    HW224330   1.570   3.995   4.969 -1.1830  1.9171 -1.5100
 4232SOL     OW24331   2.507   3.497   5.216  0.5040  0.3544 -0.5683
 4232SOL    HW124332   2.523   3.449   5.298 -2.6444  0.9292  0.3800
 4232SOL    HW224333   2.466   3.433   5.158 -0.4438 -1.0880  1.7017
 4233SOL     OW24334   4.296   3.608   3.269  0.1885  0.2276  0.5664
 4233SOL    HW124335   4.236   3.606   3.194  0.2881  2.7536  0.4422
 4233SOL    HW224336   4.257   3.676   3.324  1.4250 -0.6893  2.5819
 4234SOL     OW24337   3.759   3.067  15.787  0.3663 -0.4971 -0.0613
 4234SOL    HW124338   3.811   3.069  15.867  1.0761 -2.6329 -0.4856
 4234SOL    HW224339   3.797   3.140  15.737 -1.1959 -0.2872 -0.9471
 4235SOL     OW24340   1.042   3.374   8.553  0.5567 -0.0581 -0.1582
 4235SOL    HW124341   1.059   3.335   8.467 -3.0595  0.8282 -1.2601
 4235SOL    HW224342   1.115   3.346   8.608 -0.2206  0.6353  1.2133
 4236SOL     OW24343   4.452   1.631   5.206  0.2069 -0.1740  0.2139
 4236SOL    HW124344   4.394   1.701   5.238  0.7267  1.2348 -1.9506
 4236SOL    HW224345   4.397   1.610   5.130  1.0280  2.2172 -1.0531
 4237SOL     OW24346   4.303   3.772   1.479 -0.1681 -0.0483  0.0764
 4237SOL    HW124347   4.353   3.810   1.552 -1.8240 -0.5937  1.4882
 4237SOL    HW224348   4.303   3.678   1.499  0.3230  0.0143  0.3929
 4238SOL     OW24349   2.968   2.393   2.155  0.1295  0.2778  0.4333
 4238SOL    HW124350   2.998   2.377   2.244 -1.2890  1.9365  1.2141
 4238SOL    HW224351   2.955   2.306   2.118  1.4006  1.2186 -2.2692
 4239SOL     OW24352   3.446   1.800  14.775 -0.3431  0.7904 -0.2767
 4239SOL    HW124353   3.500   1.846  14.710 -0.6994 -0.9016 -1.7592
 4239SOL    HW224354   3.377   1.763  14.720 -1.0582  0.9787  0.4932
 4240SOL     OW24355   2.006   3.566   2.385  0.2392  0.2080 -0.0832
 4240SOL    HW124356   1.928   3.534   2.430  0.9951 -0.8576  0.4466
 4240SOL    HW224357   2.038   3.494   2.332  0.3761  0.1577  0.0704
 4241SOL     OW24358   4.020   0.027   1.644 -0.1758 -0.1330  0.0211
 4241SOL    HW124359   4.000   0.073   1.563 -0.6976  1.0688  0.8248
 4241SOL    HW224360   4.112   0.046   1.663 -0.7566  1.1331  1.6154
 4242SOL     OW24361   4.430   2.540  14.668 -0.0940 -0.2040  0.0283
 4242SOL    HW124362   4.350   2.580  14.701 -0.9157 -3.5541  2.0764
 4242SOL    HW224363   4.396   2.455  14.642 -1.4701  0.9699 -1.9839
 4243SOL     OW24364   4.296   1.072   1.883  0.4855  0.2713  0.0891
 4243SOL    HW124365   4.391   1.066   1.894 -0.0486 -1.6036  3.4400
 4243SOL    HW224366   4.281   1.156   1.926  1.0619  0.7505 -0.6381
 4244SOL     OW24367   2.315   3.485   3.080  0.2390  0.4419 -0.3433
 4244SOL    HW124368   2.342   3.400   3.043  1.4119  1.0236 -0.8259
 4244SOL    HW224369   2.402   3.523   3.089 -0.2767  1.6841 -0.5744
 4245SOL     OW24370   4.032   1.524  14.541 -0.3607  0.3671  0.2573
 4245SOL    HW124371   4.002   1.576  14.466  2.0297  1.7610  0.2585
 4245SOL    HW224372   3.995   1.574  14.614 -1.5758  1.3215 -1.0104
 4246SOL     OW24373   0.969   3.353   5.660  0.1523 -0.0534 -0.2883
 4246SOL    HW124374   0.920   3.432   5.684 -0.9266 -0.6102 -0.6561
 4246SOL    HW224375   0.986   3.320   5.748 -0.6086  0.7462  0.1534
 4247SOL     OW24376   3.233   2.736   2.100 -0.0358  0.3266 -0.0286
 4247SOL    HW124377   3.201   2.676   2.033  0.1490  0.7559 -0.5005
 4247SOL    HW224378   3.298   2.684   2.148 -1.0957  0.2575  1.3146
 4248SOL     OW24379   4.713   4.520   5.966  0.0116 -0.0480  0.2775
 4248SOL    HW124380   4.655   4.533   6.041 -1.9224  0.2068 -1.2562
 4248SOL    HW224381   4.657   4.512   5.889  2.4230  0.3817 -1.5172
 4249SOL     OW24382   0.794   1.772   8.554  0.2905 -0.2313  0.1259
 4249SOL    HW124383   0.747   1.689   8.566 -1.1254  0.6035  0.3113
 4249SOL    HW224384   0.828   1.761   8.465  2.8886 -0.3754  1.1568
 4250SOL     OW24385   0.602   4.044   6.194  0.2261  0.1669  0.5795
 4250SOL    HW124386   0.524   4.026   6.141 -0.4353  0.3399  1.4907
 4250SOL    HW224387   0.663   4.028   6.122  0.7986  1.7596  0.7073
 4251SOL     OW24388   3.713   0.181   9.374  0.0634 -0.2994  0.9493
 4251SOL    HW124389   3.753   0.106   9.330 -0.8145  0.4770 -1.1741
 4251SOL    HW224390   3.686   0.224   9.293  2.5186 -1.3559 -0.4175
 4252SOL     OW24391   0.953   1.629   4.965  0.1707 -0.1455 -0.1918
 4252SOL    HW124392   1.022   1.564   4.953  0.1695 -0.0433 -0.7651
 4252SOL    HW224393   0.894   1.585   5.026  0.2226  2.4246  1.7242
 4253SOL     OW24394   0.169   4.412   7.913  0.2396 -0.1711  0.4187
 4253SOL    HW124395   0.228   4.408   7.837 -2.9825  2.1209 -2.1961
 4253SOL    HW224396   0.220   4.470   7.970  0.0498 -2.2460  2.6800
 4254SOL     OW24397   2.997   0.893  10.315 -0.0730  0.0405 -0.2754
 4254SOL    HW124398   2.982   0.821  10.376  0.4687  1.2006  1.2134
 4254SOL    HW224399   2.942   0.871  10.239 -1.2798 -2.2319  1.2737
 4255SOL     OW24400   4.417   2.163   4.508 -0.0353  0.1641 -0.4295
 4255SOL    HW124401   4.380   2.206   4.585  0.2021 -1.5017  0.6139
 4255SOL    HW224402   4.372   2.079   4.497 -1.2915  0.2570  4.1332
 4256SOL     OW24403   4.377   4.259   7.412 -0.2132  0.0370 -0.7476
 4256SOL    HW124404   4.396   4.179   7.462 -2.3030 -0.4644 -0.7808
 4256SOL    HW224405   4.383   4.324   7.482 -0.0220 -0.7516 -0.0261
 4257SOL     OW24406   0.867   2.741   2.105 -0.0792 -0.3466  0.6159
 4257SOL    HW124407   0.958   2.752   2.133  0.4942  1.3808 -1.9697
 4257SOL    HW224408   0.861   2.650   2.074  0.4936  0.6722 -2.5235
 4258SOL     OW24409   1.861   1.394   1.339  0.4636 -0.8878 -0.1111
 4258SOL    HW124410   1.781   1.408   1.390  0.5508 -0.5274 -0.0764
 4258SOL    HW224411   1.874   1.302   1.363 -0.8670 -0.9558  0.3738
 4259SOL     OW24412   0.050   0.582   8.310  0.5193 -0.5120  0.5661
 4259SOL    HW124413   0.061   0.661   8.363  1.5465 -0.5977  0.4890
 4259SOL    HW224414   4.727   0.537   8.369  0.9187 -0.4833  0.9918
 4260SOL     OW24415   2.191   3.142   7.459 -0.0076 -0.2792 -0.0029
 4260SOL    HW124416   2.146   3.166   7.540  1.2980  1.0328  0.3387
 4260SOL    HW224417   2.162   3.052   7.449 -1.2351  0.1265 -0.0402
 4261SOL     OW24418   1.295   2.228   5.848  0.0843 -0.3336  0.3586
 4261SOL    HW124419   1.290   2.321   5.824  1.3944 -0.3737 -0.0581
 4261SOL    HW224420   1.291   2.235   5.943  0.2633 -1.6638  0.4707
 4262SOL     OW24421   3.621   0.289   1.853 -0.3449 -0.0399  0.2967
 4262SOL    HW124422   3.634   0.267   1.945 -2.5210  0.7035  0.7763
 4262SOL    HW224423   3.646   0.208   1.808  1.4340  1.0295 -0.6424
 4263SOL     OW24424   3.266   2.444   2.167  0.5971 -0.1086 -0.8014
 4263SOL    HW124425   3.313   2.514   2.213 -0.6574  0.7421 -0.8012
 4263SOL    HW224426   3.182   2.433   2.213  0.4581  0.5281 -0.9013
 4264SOL     OW24427   2.951   3.735   3.951  0.2381  0.8423  0.1344
 4264SOL    HW124428   2.878   3.730   4.013 -1.6436  0.5930 -2.0789
 4264SOL    HW224429   2.910   3.693   3.875  2.1134 -0.3086 -0.2398
 4265SOL     OW24430   2.946   0.748   9.161 -0.1302 -0.0288 -1.0089
 4265SOL    HW124431   2.940   0.713   9.072 -0.0049 -0.8514 -0.6935
 4265SOL    HW224432   2.853   0.737   9.183 -0.4179  0.6776 -1.8893
 4266SOL     OW24433   0.526   2.436  17.601 -0.4602  0.0547  0.0909
 4266SOL    HW124434   0.573   2.439  17.685  0.2008  1.1210 -0.3092
 4266SOL    HW224435   0.597   2.425  17.538 -1.0301 -1.3949 -0.2829
 4267SOL     OW24436   3.148   2.910  14.670  0.7639 -0.0347 -0.4767
 4267SOL    HW124437   3.172   2.820  14.647  0.8403  0.3145 -1.7644
 4267SOL    HW224438   3.231   2.958  14.665 -0.0424  1.5020  0.7899
 4268SOL     OW24439   4.613   3.783   5.249 -0.3090  0.2314 -0.2171
 4268SOL    HW124440   4.577   3.718   5.309  2.2595 -1.6723 -0.6982
 4268SOL    HW224441   4.588   3.860   5.300 -0.0923  0.8683 -1.0671
 4269SOL     OW24442   1.180   0.207   7.068  0.1786  0.2088 -0.0172
 4269SOL    HW124443   1.251   0.143   7.064  0.1358  0.1022  0.8972
 4269SOL    HW224444   1.172   0.241   6.979 -2.0582  1.3511  0.6197
 4270SOL     OW24445   2.400   3.082  13.936  0.3919 -0.0343 -0.4662
 4270SOL    HW124446   2.361   3.052  14.017  0.1658 -1.7203 -1.1852
 4270SOL    HW224447   2.314   3.103  13.901 -0.1094  1.0427  1.4804
 4271SOL     OW24448   2.396   2.308   4.703 -0.0836  0.3740 -0.3160
 4271SOL    HW124449   2.316   2.296   4.653  0.2049 -0.9288 -0.4602
 4271SOL    HW224450   2.394   2.247   4.776  1.2104  0.4920 -0.1819
 4272SOL     OW24451   2.399   2.878   7.193 -0.1538 -0.4369 -0.4080
 4272SOL    HW124452   2.379   2.967   7.223 -1.2979 -1.1203  0.8767
 4272SOL    HW224453   2.449   2.901   7.115 -1.0856 -0.9327 -1.1429
 4273SOL     OW24454   3.361   0.804   3.278 -0.0927 -0.7493 -0.8710
 4273SOL    HW124455   3.433   0.861   3.304  0.6185 -1.6972 -0.7599
 4273SOL    HW224456   3.395   0.715   3.281 -0.7871 -1.0208 -0.8513
 4274SOL     OW24457   0.493   0.451   6.095 -0.2683  0.1157 -0.7170
 4274SOL    HW124458   0.583   0.483   6.091  0.0120 -0.5091  0.5876
 4274SOL    HW224459   0.492   0.403   6.178 -1.4334  0.0950 -0.7540
 4275SOL     OW24460   3.993   0.209   4.683  0.4052  0.8776  0.1558
 4275SOL    HW124461   4.027   0.197   4.772  2.3169 -1.9509 -0.9641
 4275SOL    HW224462   4.038   0.142   4.632  0.1848  1.0875 -0.3068
 4276SOL     OW24463   4.103   1.376   8.934 -0.2450  0.2039 -0.3691
 4276SOL    HW124464   4.179   1.338   8.979 -0.1387 -1.7291 -2.1808
 4276SOL    HW224465   4.030   1.338   8.983  0.6187  0.8639  1.3903
 4277SOL     OW24466   4.300   1.232   9.069  0.0542 -0.0385 -0.1021
 4277SOL    HW124467   4.283   1.142   9.098 -1.3764  0.0654 -0.6349
 4277SOL    HW224468   4.341   1.269   9.147 -0.2710  0.9056 -0.3873
 4278SOL     OW24469   4.053   0.966  16.847  0.0917  0.1478  0.6184
 4278SOL    HW124470   4.134   1.009  16.818 -1.1739  0.6266 -2.2271
 4278SOL    HW224471   4.005   0.950  16.765  0.4227  0.8341  0.2825
 4279SOL     OW24472   4.463   0.965   8.974 -0.4594 -0.4480 -0.3382
 4279SOL    HW124473   4.370   0.958   8.995 -0.2177 -1.3432  0.4081
 4279SOL    HW224474   4.500   0.970   9.062  0.1713  1.0702 -0.6823
 4280SOL     OW24475   2.165   0.946   0.177  0.1865 -0.9163 -0.4862
 4280SOL    HW124476   2.077   0.959   0.142 -0.6320 -0.3595  1.7144
 4280SOL    HW224477   2.204   0.896   0.107 -0.2173 -3.3059  0.9883
 4281SOL     OW24478   1.559   3.984  17.061  0.4439  0.0996 -0.1330
 4281SOL    HW124479   1.603   3.943  16.986 -0.2466 -0.1618 -0.3996
 4281SOL    HW224480   1.613   4.063  17.060  1.1851 -0.3949  0.4629
 4282SOL     OW24481   0.097   3.474   8.106 -0.5563  0.4064 -0.0963
 4282SOL    HW124482   0.167   3.408   8.110  0.0574  0.9803 -1.3513
 4282SOL    HW224483   0.092   3.503   8.197  1.4312 -1.2782  0.5434
 4283SOL     OW24484   2.344   4.066   6.827  0.1430  0.0799  0.4691
 4283SOL    HW124485   2.371   4.057   6.735 -1.5087  0.0797 -0.0017
 4283SOL    HW224486   2.335   3.975   6.853 -0.7410  0.6627  2.1881
 4284SOL     OW24487   2.610   0.728  10.494  0.4121  0.1131  0.3888
 4284SOL    HW124488   2.545   0.675  10.447  1.3161  2.5513 -3.5698
 4284SOL    HW224489   2.565   0.764  10.571 -2.6101  0.4240 -1.5255
 4285SOL     OW24490   2.832   0.859   5.409  0.7130  0.4785  0.0063
 4285SOL    HW124491   2.839   0.795   5.339  1.3821  2.6524 -1.9112
 4285SOL    HW224492   2.863   0.807   5.483 -0.9409 -0.2432  0.1994
 4286SOL     OW24493   0.795   1.582  14.285 -0.1254  0.1784  0.2785
 4286SOL    HW124494   0.883   1.618  14.276  0.3562 -0.7315  1.2705
 4286SOL    HW224495   0.734   1.633  14.233  0.5745 -1.4861 -2.1552
 4287SOL     OW24496   1.854   3.073   3.751  0.6484  0.5378 -0.2881
 4287SOL    HW124497   1.780   3.013   3.757 -0.7277  1.9634 -3.0313
 4287SOL    HW224498   1.830   3.127   3.676  1.5082 -0.6002 -1.3655
 4288SOL     OW24499   4.612   1.410   0.915  0.2381 -0.0418 -0.1250
 4288SOL    HW124500   4.553   1.418   0.991 -0.1314 -1.9393 -0.2070
 4288SOL    HW224501   4.672   1.343   0.946  0.6093 -0.9491 -2.8449
 4289SOL     OW24502   4.518   1.354   9.657 -0.4912  0.3269 -0.4679
 4289SOL    HW124503   4.445   1.311   9.611  1.2872 -0.0747 -2.9245
 4289SOL    HW224504   4.466   1.423   9.697 -0.0330 -0.4158  1.3809
 4290SOL     OW24505   2.494   0.935   6.439  0.1811 -0.2143 -0.5529
 4290SOL    HW124506   2.454   0.912   6.355  0.7844 -0.1606 -0.8614
 4290SOL    HW224507   2.452   1.018   6.461 -1.3826 -1.3116  0.5605
 4291SOL     OW24508   2.326   0.803   3.392  0.2907  0.8696 -0.1995
 4291SOL    HW124509   2.380   0.882   3.405  0.5961  0.6079  0.1503
 4291SOL    HW224510   2.240   0.844   3.391  0.0240  0.2547 -1.4847
 4292SOL     OW24511   1.423   2.686   2.092  0.1123  0.2668  0.8182
 4292SOL    HW124512   1.424   2.667   1.998  2.2972 -0.4732  0.9796
 4292SOL    HW224513   1.484   2.759   2.099 -1.1343  1.4798 -1.0764
 4293SOL     OW24514   4.482   1.809  14.478 -0.6911  0.1959 -0.1706
 4293SOL    HW124515   4.410   1.857  14.438 -2.3365 -0.3593  2.0929
 4293SOL    HW224516   4.429   1.748  14.531  0.9648 -0.8738  0.2528
 4294SOL     OW24517   0.291   4.188  15.233 -0.2050 -0.5068  0.9120
 4294SOL    HW124518   0.231   4.199  15.159 -0.5060  0.5633  1.3266
 4294SOL    HW224519   0.366   4.240  15.204 -1.8754  1.0579 -0.5368
 4295SOL     OW24520   0.029   1.539   8.695  0.0830  0.4838  0.0062
 4295SOL    HW124521   4.727   1.498   8.772 -1.8134 -0.7661 -1.6287
 4295SOL    HW224522   4.718   1.506   8.619  1.5717 -0.0647 -0.6952
 4296SOL     OW24523   3.762   3.109   0.546  0.7602  0.3402 -0.2097
 4296SOL    HW124524   3.699   3.171   0.584  1.3440  0.4567  0.5789
 4296SOL    HW224525   3.801   3.078   0.628  0.8836  1.1325  0.0299
 4297SOL     OW24526   0.654   4.293   7.196 -0.3064 -0.7204 -0.6532
 4297SOL    HW124527   0.576   4.348   7.202  0.8508  0.7257  1.4229
 4297SOL    HW224528   0.629   4.244   7.118 -0.9578  1.5873 -1.9072
 4298SOL     OW24529   0.514   3.576   1.913  0.1144  0.0808 -0.6071
 4298SOL    HW124530   0.455   3.641   1.875 -0.3916 -0.7568 -1.2479
 4298SOL    HW224531   0.525   3.524   1.833  1.8737 -2.9758  1.6447
 4299SOL     OW24532   2.531   1.845   3.307  0.4961  0.2646 -0.0450
 4299SOL    HW124533   2.609   1.899   3.301 -1.0104  2.5107  0.4554
 4299SOL    HW224534   2.487   1.892   3.236  1.3463  0.7811 -0.2311
 4300SOL     OW24535   3.157   3.824   8.207  0.3602  0.2196 -0.1329
 4300SOL    HW124536   3.137   3.755   8.270 -1.0131  0.8801  0.1727
 4300SOL    HW224537   3.197   3.878   8.275 -1.0065  4.1530 -2.4123
 4301SOL     OW24538   1.269   3.414   2.594 -0.4751  0.2301  0.5569
 4301SOL    HW124539   1.229   3.479   2.536 -0.6173  1.7747  2.3571
 4301SOL    HW224540   1.195   3.379   2.643 -0.4305 -1.1927 -0.4010
 4302SOL     OW24541   4.398   2.511   8.600  0.2512 -0.0131 -0.0107
 4302SOL    HW124542   4.309   2.500   8.634 -0.4998  0.3484 -1.8539
 4302SOL    HW224543   4.380   2.497   8.507 -2.9816 -0.0073  0.6175
 4303SOL     OW24544   4.143   2.420   5.659  0.4360 -0.2177  0.0150
 4303SOL    HW124545   4.180   2.333   5.645 -1.8177 -0.8616 -1.8202
 4303SOL    HW224546   4.058   2.401   5.699  1.6040 -0.5296  2.3690
 4304SOL     OW24547   2.655   3.407   3.339 -0.8347 -0.2027 -0.2546
 4304SOL    HW124548   2.747   3.397   3.314 -0.7638  3.3342 -1.4858
 4304SOL    HW224549   2.617   3.409   3.251 -0.5225  0.0757 -0.3881
 4305SOL     OW24550   0.196   3.425   2.514  0.6482 -0.5923  0.8126
 4305SOL    HW124551   0.238   3.346   2.549 -1.7159 -1.6667  1.2159
 4305SOL    HW224552   0.148   3.447   2.594  0.2757 -1.3451  0.7977
 4306SOL     OW24553   2.106   4.450   7.623 -0.1703  0.0791  0.2775
 4306SOL    HW124554   2.148   4.535   7.607  2.9787 -1.4238  0.4615
 4306SOL    HW224555   2.091   4.456   7.717 -0.2014  0.3619  0.2565
 4307SOL     OW24556   0.300   2.653   8.424 -0.2987 -0.0025 -0.0386
 4307SOL    HW124557   0.345   2.683   8.503 -0.4968  1.0171 -0.3146
 4307SOL    HW224558   0.364   2.592   8.388  0.8372  1.0034  0.2735
 4308SOL     OW24559   4.522   0.626   9.603  0.3146 -0.8308  0.7366
 4308SOL    HW124560   4.582   0.682   9.554 -0.4516  0.5450  1.3453
 4308SOL    HW224561   4.588   0.572   9.646 -0.6147 -1.4834  1.3581
 4309SOL     OW24562   0.172   3.718   7.245  0.3256  0.2872  0.7208
 4309SOL    HW124563   0.171   3.779   7.319 -0.2405 -0.7679  1.5658
 4309SOL    HW224564   0.148   3.636   7.287  2.8811 -0.3023  1.0835
 4310SOL     OW24565   1.038   0.028   8.288 -0.0148  0.0249  0.3125
 4310SOL    HW124566   1.051   4.706   8.214 -0.9596 -0.5681  0.6269
 4310SOL    HW224567   1.093   4.718   8.352  0.7548 -0.8909 -1.0213
 4311SOL     OW24568   1.044   2.634   8.492  0.2155  0.0220 -0.7018
 4311SOL    HW124569   0.993   2.692   8.436 -0.3463 -0.7229 -0.9622
 4311SOL    HW224570   1.088   2.692   8.555  0.1100 -2.3795  1.5859
 4312SOL     OW24571   2.174   3.830   6.619 -0.0025  0.6861  0.4820
 4312SOL    HW124572   2.157   3.924   6.608 -1.6446  0.1905 -1.2800
 4312SOL    HW224573   2.186   3.806   6.527 -2.1127  1.6135 -0.0370
 4313SOL     OW24574   4.382   3.062   6.291  0.1468 -0.3312 -0.0780
 4313SOL    HW124575   4.433   2.994   6.247  1.0136 -0.1488  0.6505
 4313SOL    HW224576   4.408   3.061   6.383 -0.9407 -1.5567  0.2234
 4314SOL     OW24577   3.813   2.342   6.607 -0.1338 -0.3864  0.1535
 4314SOL    HW124578   3.855   2.286   6.673 -1.2488  0.1205  1.2999
 4314SOL    HW224579   3.888   2.358   6.550 -0.0137 -2.3371 -0.2312
 4315SOL     OW24580   0.628   2.927   3.491  0.2749  0.0628  0.5992
 4315SOL    HW124581   0.563   2.871   3.448 -1.4020  1.3522  1.4831
 4315SOL    HW224582   0.705   2.918   3.434 -0.5238  0.1960 -0.4963
 4316SOL     OW24583   0.047   2.345   9.212 -0.2131  0.4008 -0.4073
 4316SOL    HW124584   0.107   2.352   9.139  0.0865  0.1629 -0.1822
 4316SOL    HW224585   4.720   2.407   9.176  0.5414  1.5412  0.2258
 4317SOL     OW24586   0.803   3.646   6.791 -0.0060  0.1079  0.1431
 4317SOL    HW124587   0.819   3.737   6.763  1.3674 -0.4195 -0.7927
 4317SOL    HW224588   0.709   3.641   6.777  0.3957 -0.1229 -2.4065
 4318SOL     OW24589   1.928   3.261   7.077  0.6378 -0.0483 -0.3956
 4318SOL    HW124590   1.834   3.279   7.083  0.5766 -0.9516  1.2270
 4318SOL    HW224591   1.924   3.207   6.998  2.4380 -2.0143  0.8712
 4319SOL     OW24592   0.245   0.331   1.767  0.3384  0.4673  0.7802
 4319SOL    HW124593   0.211   0.333   1.857  0.0317 -1.0275  0.6991
 4319SOL    HW224594   0.195   0.258   1.730  0.3049 -0.4783  2.6486
 4320SOL     OW24595   2.752   3.211   8.424 -0.5373 -0.7111 -0.2749
 4320SOL    HW124596   2.802   3.243   8.349  0.3633 -1.2896  0.0753
 4320SOL    HW224597   2.804   3.132   8.440  0.1892 -0.5518 -1.8643
 4321SOL     OW24598   3.662   3.707  17.715 -0.0755  0.0980 -0.3719
 4321SOL    HW124599   3.698   3.795  17.704 -1.4386  0.5997 -0.9119
 4321SOL    HW224600   3.590   3.723  17.654 -1.4181  3.1750  2.0031
 4322SOL     OW24601   0.294   4.160   4.464 -0.1431  0.0215 -0.0197
 4322SOL    HW124602   0.202   4.183   4.448  0.5797  2.1310 -1.1138
 4322SOL    HW224603   0.325   4.221   4.531  1.9540 -0.5858 -0.4535
 4323SOL     OW24604   0.231   3.798  13.684 -0.2357 -0.3218  0.4223
 4323SOL    HW124605   0.180   3.729  13.727 -1.2563  0.7696  0.9676
 4323SOL    HW224606   0.183   3.795  13.602  0.9272 -2.4779 -0.1623
 4324SOL     OW24607   4.479   1.637  15.244  0.3567  0.2304  0.0600
 4324SOL    HW124608   4.445   1.601  15.162 -0.9266  0.8472  0.3173
 4324SOL    HW224609   4.393   1.627  15.285  1.2454  1.8077  2.3178
 4325SOL     OW24610   0.179   0.565   4.401 -0.7512 -0.5135 -0.0342
 4325SOL    HW124611   0.140   0.635   4.348  1.8602 -0.7081 -2.2713
 4325SOL    HW224612   0.123   0.557   4.478  1.3715  0.9089  1.6638
 4326SOL     OW24613   4.557   3.411   7.407 -0.3116 -0.5715  0.6050
 4326SOL    HW124614   4.509   3.428   7.488 -0.6946  1.5817 -0.0695
 4326SOL    HW224615   4.627   3.352   7.436 -0.2481 -1.1594 -0.7208
 4327SOL     OW24616   3.928   2.905   5.661  0.1699 -0.2706  0.3196
 4327SOL    HW124617   3.894   2.818   5.684  1.8763 -1.0125  0.0332
 4327SOL    HW224618   4.014   2.904   5.703  0.6558  1.4446 -0.6520
 4328SOL     OW24619   3.754   1.561   7.239  0.2773 -0.3356 -0.4282
 4328SOL    HW124620   3.757   1.490   7.175  1.2185 -1.7397  1.1714
 4328SOL    HW224621   3.728   1.638   7.188 -1.0143 -1.0062 -0.7778
 4329SOL     OW24622   1.685   0.141   0.180 -0.3875 -0.5459  0.0023
 4329SOL    HW124623   1.761   0.194   0.155 -1.6320  0.9914 -0.5518
 4329SOL    HW224624   1.649   0.106   0.098  0.9291 -0.6373 -0.5542
 4330SOL     OW24625   0.288   4.201  16.591  0.2669  0.0651  0.3368
 4330SOL    HW124626   0.232   4.277  16.605  0.1003 -0.1163  0.6528
 4330SOL    HW224627   0.241   4.142  16.650 -0.1855  0.7592  0.6676
 4331SOL     OW24628   2.688   3.919  10.788 -0.6793  0.2759  0.4580
 4331SOL    HW124629   2.774   3.956  10.805 -1.0464  2.3721 -2.2731
 4331SOL    HW224630   2.690   3.914  10.693 -2.1196 -1.4838  0.5125
 4332SOL     OW24631   2.851   1.085   1.030 -0.1122 -0.1593  0.2363
 4332SOL    HW124632   2.917   1.099   0.963  0.8712  1.9299  1.6715
 4332SOL    HW224633   2.893   1.121   1.108  1.0520 -0.6485 -0.1670
 4333SOL     OW24634   3.603   2.370  11.884 -0.0562  0.0407  0.3364
 4333SOL    HW124635   3.525   2.326  11.919 -0.0317 -1.7087 -1.8461
 4333SOL    HW224636   3.559   2.442  11.840  0.9749  0.6847  0.3440
 4334SOL     OW24637   1.722   0.781   7.224 -0.5470 -0.8196  0.2905
 4334SOL    HW124638   1.699   0.872   7.241  0.6433 -0.2581 -1.0955
 4334SOL    HW224639   1.652   0.739   7.274 -0.7891  0.3725  0.9319
 4335SOL     OW24640   0.771   1.349   1.569  0.4429 -0.3806  0.3185
 4335SOL    HW124641   0.840   1.282   1.571 -1.3536 -2.1808  1.8522
 4335SOL    HW224642   0.745   1.355   1.477 -1.3155  0.0628  0.8412
 4336SOL     OW24643   0.057   3.450   5.167 -0.2316  0.1106 -0.1430
 4336SOL    HW124644   0.031   3.419   5.080 -1.4397  3.2290 -0.8868
 4336SOL    HW224645   0.105   3.373   5.195 -0.3020  0.3147  0.5384
 4337SOL     OW24646   1.359   0.866  13.132  0.4104  0.1357 -0.0470
 4337SOL    HW124647   1.396   0.932  13.191 -0.1412 -0.7469  1.2795
 4337SOL    HW224648   1.331   0.915  13.055 -0.7252  0.2179  0.4195
 4338SOL     OW24649   2.041   1.480   8.792  0.0856 -0.1548 -0.0186
 4338SOL    HW124650   2.102   1.506   8.861 -0.2945 -0.2934  0.3715
 4338SOL    HW224651   2.008   1.396   8.823  2.0785 -0.0562  2.3402
 4339SOL     OW24652   1.659   2.518  14.615 -0.2303 -0.6082  0.2062
 4339SOL    HW124653   1.752   2.520  14.637 -0.1172  0.3774 -0.3510
 4339SOL    HW224654   1.653   2.426  14.592 -2.5918 -0.4373  0.1932
 4340SOL     OW24655   2.418   1.113   2.434  0.0292 -0.1778  0.4530
 4340SOL    HW124656   2.505   1.152   2.426 -0.7116  1.1102 -1.4238
 4340SOL    HW224657   2.358   1.188   2.435  0.0920 -0.0925 -2.7017
 4341SOL     OW24658   3.457   4.650   6.191  0.3404 -0.1401  0.4046
 4341SOL    HW124659   3.476   0.002   6.162  0.8047 -0.6110 -0.7185
 4341SOL    HW224660   3.370   4.669   6.227 -0.0970 -0.9981 -0.1848
 4342SOL     OW24661   3.487   0.770  12.424 -0.4837 -0.2318  0.5964
 4342SOL    HW124662   3.424   0.788  12.354  0.7773  0.9679 -0.2343
 4342SOL    HW224663   3.460   0.816  12.503  0.0960 -1.9483  1.8009
 4343SOL     OW24664   0.547   0.638   2.942  0.4829 -0.1553  0.1936
 4343SOL    HW124665   0.537   0.580   2.866  2.0120 -2.3723  1.6936
 4343SOL    HW224666   0.630   0.680   2.920  1.4617 -0.6996  2.8517
 4344SOL     OW24667   2.039   3.668   7.752  0.1602  0.0851  0.4157
 4344SOL    HW124668   1.988   3.590   7.730  0.0356  0.2829  0.0019
 4344SOL    HW224669   1.971   3.735   7.760 -0.2546 -0.4898  1.5824
 4345SOL     OW24670   3.448   2.887   2.637  0.4018  0.5050 -0.7297
 4345SOL    HW124671   3.480   2.964   2.684  1.9192 -0.6750  0.1389
 4345SOL    HW224672   3.499   2.886   2.556 -0.1210  1.0944 -1.0689
 4346SOL     OW24673   3.860   2.511  11.761  0.2240 -0.0639  0.3937
 4346SOL    HW124674   3.889   2.473  11.844  0.9035 -1.9214 -0.7021
 4346SOL    HW224675   3.775   2.473  11.742 -1.0561  3.0009 -0.0033
 4347SOL     OW24676   2.585   3.023   7.773 -0.0820 -0.3086 -0.2467
 4347SOL    HW124677   2.640   3.065   7.839 -1.9293  2.5614 -0.5244
 4347SOL    HW224678   2.519   3.089   7.752  1.2459  1.1861  0.2148
 4348SOL     OW24679   0.798   2.289   6.337 -0.1361  0.0086  0.2050
 4348SOL    HW124680   0.799   2.385   6.327 -0.9103 -0.3031 -2.8281
 4348SOL    HW224681   0.729   2.269   6.273  0.7745 -0.5398 -0.6013
 4349SOL     OW24682   0.995   2.143  13.295 -0.2780  0.0455 -0.0479
 4349SOL    HW124683   0.942   2.186  13.362 -0.3011  0.3149 -0.2390
 4349SOL    HW224684   1.001   2.053  13.326  0.5663 -0.1114 -0.6725
 4350SOL     OW24685   2.439   3.808   7.108  0.4221 -0.0352 -0.1049
 4350SOL    HW124686   2.498   3.819   7.034  2.5483 -1.2561  1.3913
 4350SOL    HW224687   2.349   3.808   7.075  0.0849  1.9476  0.8005
 4351SOL     OW24688   2.141   2.431   8.223  0.1685  0.1139 -0.5964
 4351SOL    HW124689   2.190   2.408   8.302  0.3878 -0.1656 -0.8114
 4351SOL    HW224690   2.056   2.388   8.235 -0.3138  0.4630 -2.7946
 4352SOL     OW24691   2.837   1.110  14.526 -0.4176 -0.0768 -0.0309
 4352SOL    HW124692   2.813   1.040  14.586 -0.2762 -0.7175 -0.7110
 4352SOL    HW224693   2.863   1.178  14.587  2.2039 -0.4638 -0.6820
 4353SOL     OW24694   2.718   2.408   7.508 -0.5849  0.1695  0.2082
 4353SOL    HW124695   2.656   2.451   7.567  1.7126  1.7447  1.4625
 4353SOL    HW224696   2.796   2.421   7.562  1.0438 -1.2121 -1.8313
 4354SOL     OW24697   1.274   2.533   6.521  0.0040  0.5741 -0.2190
 4354SOL    HW124698   1.280   2.603   6.586  0.1076 -0.4341  0.8414
 4354SOL    HW224699   1.179   2.521   6.515  0.2670 -1.9147  0.6863
 4355SOL     OW24700   2.436   1.431   2.730  0.0317  0.0811  0.0900
 4355SOL    HW124701   2.434   1.518   2.769 -4.7270  1.1102 -2.4147
 4355SOL    HW224702   2.382   1.441   2.652  0.5610  1.6228 -0.0664
 4356SOL     OW24703   0.409   0.044   9.055 -0.0026  0.1760  0.3545
 4356SOL    HW124704   0.455   4.719   8.998 -0.3524  1.0134 -0.8462
 4356SOL    HW224705   0.338   0.067   8.996 -0.6946  1.2269  1.5981
 4357SOL     OW24706   2.438   3.336   4.587 -0.0970  0.6533 -0.0732
 4357SOL    HW124707   2.467   3.425   4.567  0.9214  0.6299  1.2845
 4357SOL    HW224708   2.347   3.335   4.559 -0.0719  0.0959 -0.1268
 4358SOL     OW24709   4.293   3.982   1.215  0.5282 -0.3301  0.1772
 4358SOL    HW124710   4.223   4.002   1.278 -0.5446 -0.9950 -0.8027
 4358SOL    HW224711   4.364   4.035   1.252 -0.9435  0.7933  1.4245
 4359SOL     OW24712   4.516   3.830   3.648 -0.4245  0.2399  0.0064
 4359SOL    HW124713   4.603   3.804   3.680 -0.4463 -1.0717 -1.0150
 4359SOL    HW224714   4.528   3.923   3.627  2.8651 -0.0052  0.7174
 4360SOL     OW24715   2.971   1.170  12.263  0.4810  0.1020  0.1221
 4360SOL    HW124716   3.001   1.099  12.320 -1.0003 -0.3147  0.3685
 4360SOL    HW224717   2.885   1.133  12.242 -0.1538  1.4100  0.4677
 4361SOL     OW24718   0.161   3.793   9.629  0.5939 -0.7021  0.4567
 4361SOL    HW124719   0.133   3.849   9.557  2.0382 -1.2471 -0.5422
 4361SOL    HW224720   0.083   3.744   9.657 -0.6790  0.3223 -1.3581
 4362SOL     OW24721   0.850   0.892   1.982  0.0097 -0.2225  0.6349
 4362SOL    HW124722   0.844   0.800   2.010 -1.1815 -1.1151 -2.5586
 4362SOL    HW224723   0.936   0.920   2.013 -0.7256  1.3759  1.2365
 4363SOL     OW24724   4.266   0.384   2.142 -0.1555  0.0516 -0.0926
 4363SOL    HW124725   4.185   0.435   2.148 -0.3811 -0.4562  1.2192
 4363SOL    HW224726   4.331   0.451   2.165 -0.3783  0.6453 -1.2035
 4364SOL     OW24727   3.325   2.278   8.536  0.0140 -0.2095  0.4101
 4364SOL    HW124728   3.361   2.353   8.488 -3.1121  1.1482  0.1724
 4364SOL    HW224729   3.269   2.318   8.602  0.4746  1.1429 -0.0303
 4365SOL     OW24730   3.129   2.569   3.616 -0.0348  0.2156  0.7642
 4365SOL    HW124731   3.184   2.491   3.612  1.0782  1.0064  0.6178
 4365SOL    HW224732   3.053   2.532   3.661 -0.4419  1.6182  1.2276
 4366SOL     OW24733   0.932   0.499   9.132 -0.2535  0.3965 -0.0823
 4366SOL    HW124734   0.838   0.513   9.126 -0.8890 -2.9041  1.8827
 4366SOL    HW224735   0.940   0.471   9.224 -3.1517  2.6544  0.8704
 4367SOL     OW24736   0.253   2.476   8.949  0.0645 -0.5599 -0.2887
 4367SOL    HW124737   0.333   2.501   8.996 -0.9902 -0.7365  1.5903
 4367SOL    HW224738   0.212   2.561   8.962  4.4431  1.2745  1.6275
 4368SOL     OW24739   2.001   4.462   1.153 -0.3351 -0.1806 -0.3337
 4368SOL    HW124740   1.939   4.513   1.206  1.8420  0.6291  1.4386
 4368SOL    HW224741   2.076   4.522   1.150 -0.1108 -0.4171  0.6933
 4369SOL     OW24742   1.434   4.733  17.152  0.6138  0.5056 -0.5228
 4369SOL    HW124743   1.405   0.022  17.065  0.9024 -2.1487 -1.4134
 4369SOL    HW224744   1.452   4.640  17.138 -0.4570  0.5217 -1.9895
 4370SOL     OW24745   3.972   0.553   5.646  0.5829 -0.3724  0.2392
 4370SOL    HW124746   4.053   0.508   5.624  0.0606 -1.8549  1.3639
 4370SOL    HW224747   4.006   0.642   5.652 -1.9651  0.3640  3.3410
 4371SOL     OW24748   2.244   3.893  16.614  0.1089  0.0795 -0.2153
 4371SOL    HW124749   2.273   3.982  16.631  1.6760 -0.1893 -1.5245
 4371SOL    HW224750   2.160   3.901  16.568 -0.4426  0.6207  0.8758
 4372SOL     OW24751   0.777   2.329  13.077 -0.5901 -0.1563 -0.2779
 4372SOL    HW124752   0.768   2.338  12.982 -0.6678  1.9728 -0.0563
 4372SOL    HW224753   0.870   2.349  13.093  0.1191 -2.2413 -1.7118
 4373SOL     OW24754   3.657   2.617   5.559 -0.2634  0.3778 -0.0554
 4373SOL    HW124755   3.583   2.557   5.554 -2.7477  3.3248  0.9197
 4373SOL    HW224756   3.658   2.665   5.476 -1.3331  0.3181 -0.0964
 4374SOL     OW24757   2.874   1.725   6.728  0.8050  0.0064  0.6272
 4374SOL    HW124758   2.875   1.805   6.780 -3.1743  1.1689 -1.0344
 4374SOL    HW224759   2.857   1.664   6.800  0.8773 -1.4675 -0.5964
 4375SOL     OW24760   2.839   0.694   8.915 -0.0532  0.0553  0.2649
 4375SOL    HW124761   2.838   0.598   8.925 -1.9995  0.0114 -0.2830
 4375SOL    HW224762   2.846   0.700   8.820 -1.1332  0.4682  0.2135
 4376SOL     OW24763   2.237   3.076   6.972  0.1012 -0.0502 -0.5082
 4376SOL    HW124764   2.277   3.103   7.054  1.5237  0.3587 -1.3517
 4376SOL    HW224765   2.207   2.987   6.991  0.2555 -0.1529 -0.7460
 4377SOL     OW24766   0.010   1.995   6.113  0.4605 -0.3907  0.3036
 4377SOL    HW124767   4.670   2.011   6.166 -0.2258 -1.2057 -0.4380
 4377SOL    HW224768   0.067   2.068   6.138  0.4223 -0.4193  0.4691
 4378SOL     OW24769   3.510   3.509   4.786  0.0271  0.8939  0.0471
 4378SOL    HW124770   3.480   3.539   4.872  1.3894  0.9801  0.4869
 4378SOL    HW224771   3.575   3.448   4.822 -1.3619  0.5121  1.9164
 4379SOL     OW24772   0.797   3.173   1.190  0.1502 -0.1281  0.1467
 4379SOL    HW124773   0.850   3.236   1.141 -0.4803 -0.4559 -0.9576
 4379SOL    HW224774   0.860   3.114   1.233  1.1658  0.7491 -0.1321
 4380SOL     OW24775   1.261   0.156   5.913  0.3289 -0.2204 -0.2157
 4380SOL    HW124776   1.238   0.190   5.826  3.0520 -2.1775 -1.7081
 4380SOL    HW224777   1.298   0.235   5.952 -1.4648  0.6633 -0.3041
 4381SOL     OW24778   3.765   0.412   8.911  0.1841  0.4870 -0.3889
 4381SOL    HW124779   3.677   0.376   8.919  0.3899  0.3118  1.0942
 4381SOL    HW224780   3.818   0.351   8.859  1.6349  0.5483  1.0125
 4382SOL     OW24781   2.032   0.512   5.347  0.2433 -0.2717 -0.3635
 4382SOL    HW124782   2.059   0.602   5.324  0.2545 -0.1009  0.3288
 4382SOL    HW224783   2.096   0.461   5.297  0.7113  0.1966 -0.2538
 4383SOL     OW24784   0.373   2.817  17.737  0.0604 -0.5870  0.5722
 4383SOL    HW124785   0.351   2.799  17.646  0.0402  1.0798  0.2506
 4383SOL    HW224786   0.461   2.852  17.729 -0.2786  0.2965  0.6814
 4384SOL     OW24787   1.606   2.725   3.298  0.1063  0.7365  0.1163
 4384SOL    HW124788   1.538   2.666   3.267  1.9812 -1.8153  0.8584
 4384SOL    HW224789   1.627   2.677   3.378  0.5649  2.1183  0.8186
 4385SOL     OW24790   4.576   0.366   3.776  0.2744  0.7272  0.4722
 4385SOL    HW124791   4.538   0.350   3.862  0.6621 -0.5944  0.3901
 4385SOL    HW224792   4.656   0.408   3.808  0.5013  0.3509  0.3942
 4386SOL     OW24793   0.809   3.553  12.242 -0.1264  0.0406  0.4587
 4386SOL    HW124794   0.828   3.490  12.172 -0.9564 -0.3100  0.5366
 4386SOL    HW224795   0.854   3.631  12.211 -1.0842  0.3498 -0.1721
 4387SOL     OW24796   1.047   3.807  13.235  0.0618 -0.4364 -0.1843
 4387SOL    HW124797   1.141   3.811  13.251 -0.3924 -1.5465  2.6653
 4387SOL    HW224798   1.058   3.815  13.140  2.8414 -2.4259 -0.0212
 4388SOL     OW24799   0.538   3.242   3.485  0.1438  0.1485  0.0043
 4388SOL    HW124800   0.531   3.150   3.458  0.6588 -0.7095  2.7672
 4388SOL    HW224801   0.629   3.259   3.461 -0.4526  0.3371 -2.1476
 4389SOL     OW24802   2.444   1.797  10.415  0.7666  0.2341  0.2750
 4389SOL    HW124803   2.517   1.820  10.358  0.3171 -0.1813 -0.4737
 4389SOL    HW224804   2.441   1.706  10.387 -1.5596  0.4274 -0.0775
 4390SOL     OW24805   0.581   4.270   1.856 -0.4520  0.0458 -0.1353
 4390SOL    HW124806   0.530   4.348   1.834 -1.2174  0.3603  2.7046
 4390SOL    HW224807   0.657   4.277   1.798  1.4455 -1.1096  2.2124
 4391SOL     OW24808   0.940   3.823   3.801 -0.0333  0.1873 -0.0678
 4391SOL    HW124809   0.876   3.885   3.767 -0.5339 -0.0659  0.4068
 4391SOL    HW224810   0.947   3.761   3.729 -0.9716 -0.6988  0.6015
 4392SOL     OW24811   3.184   2.221   8.302  0.4455 -0.6619 -0.5320
 4392SOL    HW124812   3.197   2.236   8.396  0.6186 -3.5275 -0.0965
 4392SOL    HW224813   3.267   2.255   8.269  0.1965 -0.9995 -1.5152
 4393SOL     OW24814   0.336   0.461   5.137  0.1359  0.0145 -0.5296
 4393SOL    HW124815   0.413   0.493   5.185  0.6442 -1.0322 -0.6414
 4393SOL    HW224816   0.340   0.513   5.057 -2.2532  0.5605 -0.2921
 4394SOL     OW24817   3.748   4.046   2.106  0.0706 -0.2344  0.7680
 4394SOL    HW124818   3.723   4.111   2.171 -0.6216 -0.3703  0.6446
 4394SOL    HW224819   3.692   4.074   2.033  1.1557  1.3145  0.5412
 4395SOL     OW24820   4.449   3.064   8.736  0.0341 -0.8815  0.0031
 4395SOL    HW124821   4.504   3.035   8.810 -1.3925 -2.3371  0.4903
 4395SOL    HW224822   4.411   2.978   8.717 -1.0924 -0.4928  0.5538
 4396SOL     OW24823   1.726   2.368   3.223  0.3163 -0.0122  0.3591
 4396SOL    HW124824   1.667   2.294   3.206 -0.5502  0.6251  0.6025
 4396SOL    HW224825   1.676   2.415   3.290 -0.3398  0.8550 -0.7363
 4397SOL     OW24826   1.906   0.276   3.512  0.2472 -0.1976  0.7027
 4397SOL    HW124827   1.992   0.246   3.484 -0.1477 -0.7184  0.0369
 4397SOL    HW224828   1.872   0.198   3.557 -3.7637  1.1311 -0.0008
 4398SOL     OW24829   3.856   3.343   0.132 -0.4821  0.2743  0.2047
 4398SOL    HW124830   3.837   3.252   0.109  0.4603  0.7035 -2.2190
 4398SOL    HW224831   3.818   3.355   0.219 -0.3915 -0.6970  0.3694
 4399SOL     OW24832   0.615   1.948  15.232 -0.4973 -0.3622  0.1183
 4399SOL    HW124833   0.683   2.004  15.269  0.1264 -1.4904  0.6932
 4399SOL    HW224834   0.555   1.933  15.305  1.1633 -1.5912  1.2410
 4400SOL     OW24835   0.712   4.346   8.002 -0.4065  0.2560 -0.2386
 4400SOL    HW124836   0.701   4.418   7.939  2.4007  0.9816  0.0870
 4400SOL    HW224837   0.807   4.354   8.015 -0.2996  1.6520 -1.8534
 4401SOL     OW24838   2.280   0.955  10.061  0.8500 -0.0398 -0.4967
 4401SOL    HW124839   2.261   0.983   9.972  2.0090  2.8693  0.1621
 4401SOL    HW224840   2.219   0.882  10.072  0.0839  0.5544 -0.8166
 4402SOL     OW24841   2.211   2.261   8.994 -0.2739  0.3925  0.8034
 4402SOL    HW124842   2.134   2.220   8.956 -0.1583  2.2234 -1.3925
 4402SOL    HW224843   2.232   2.328   8.929  0.4513 -0.2683  0.3708
 4403SOL     OW24844   3.346   0.508   5.894 -0.0259 -0.1352 -0.5953
 4403SOL    HW124845   3.386   0.595   5.904 -1.6774  0.4255  1.3478
 4403SOL    HW224846   3.252   0.524   5.906  0.2316 -0.0568  1.3123
 4404SOL     OW24847   4.359   4.487   3.487  0.1244  0.3236 -0.7394
 4404SOL    HW124848   4.324   4.572   3.515  1.7406  0.3220  1.3543
 4404SOL    HW224849   4.342   4.493   3.393  1.0041  0.0356 -0.9136
 4405SOL     OW24850   1.735   4.165   9.091 -0.0687  0.7036 -0.2235
 4405SOL    HW124851   1.758   4.236   9.151  0.0899  0.3860  0.0911
 4405SOL    HW224852   1.657   4.205   9.053 -0.6794  2.1398  2.5250
 4406SOL     OW24853   1.016   3.027   0.224  0.1237 -0.2076 -0.4894
 4406SOL    HW124854   1.110   3.042   0.234 -0.0604 -0.4439  1.5334
 4406SOL    HW224855   0.995   2.989   0.309  2.3620  0.0344  0.1740
 4407SOL     OW24856   3.385   3.267   1.959 -0.3634  0.0107 -0.7582
 4407SOL    HW124857   3.386   3.172   1.972 -0.0562  0.0456 -0.5418
 4407SOL    HW224858   3.375   3.293   2.050  1.0005 -1.5726 -0.1472
 4408SOL     OW24859   4.143   0.743   6.958  0.4575 -0.4998  0.2986
 4408SOL    HW124860   4.105   0.733   7.046 -0.0396  0.5304  0.2066
 4408SOL    HW224861   4.143   0.652   6.929  1.3085 -0.7933  1.2084
 4409SOL     OW24862   0.196   3.028  11.890 -0.3807 -0.1916 -0.2884
 4409SOL    HW124863   0.217   3.121  11.904 -2.2129  0.1913  0.0036
 4409SOL    HW224864   0.199   2.986  11.976 -0.5652 -1.6602 -0.9991
 4410SOL     OW24865   1.682   0.453  16.595 -0.2149 -0.1587 -0.1908
 4410SOL    HW124866   1.717   0.433  16.508  2.6987  0.2506  0.8842
 4410SOL    HW224867   1.737   0.523  16.628 -0.3958 -0.8422  1.5589
 4411SOL     OW24868   0.689   0.651   5.860  0.0961  0.1001 -0.1304
 4411SOL    HW124869   0.732   0.682   5.939 -1.3168 -1.0309  1.0779
 4411SOL    HW224870   0.755   0.589   5.828 -1.3083 -0.2556 -2.3737
 4412SOL     OW24871   4.012   3.687  16.321  0.0368 -0.6159  0.4513
 4412SOL    HW124872   4.029   3.775  16.354 -2.3849  0.8017 -2.1006
 4412SOL    HW224873   4.028   3.634  16.399  0.8474  0.3759  0.9556
 4413SOL     OW24874   0.166   0.359  17.123 -0.1659  0.2948  0.1923
 4413SOL    HW124875   0.095   0.371  17.187  0.5251  0.2035  0.9754
 4413SOL    HW224876   0.115   0.399  17.052 -0.3198 -3.7897 -1.9816
 4414SOL     OW24877   4.153   3.130   5.804  0.9767  0.3034 -0.1026
 4414SOL    HW124878   4.131   3.119   5.897  1.2833 -0.0974 -0.0812
 4414SOL    HW224879   4.172   3.039   5.782  0.7307  0.3158 -0.3758
 4415SOL     OW24880   0.295   4.608   5.752 -0.0446  0.0224  0.4174
 4415SOL    HW124881   0.245   4.571   5.679  3.2789  1.1053 -2.4286
 4415SOL    HW224882   0.277   4.702   5.748  1.3517  0.0957 -3.9540
 4416SOL     OW24883   3.082   3.126   1.875  0.0845  0.1569 -0.1953
 4416SOL    HW124884   3.130   3.127   1.792  1.5808  2.5927  0.7129
 4416SOL    HW224885   3.131   3.191   1.925  0.2709  0.8772 -1.3042
 4417SOL     OW24886   3.960   0.785   7.978  0.0736 -0.4642 -0.1104
 4417SOL    HW124887   3.974   0.794   8.072 -2.5563 -1.5524  0.4036
 4417SOL    HW224888   4.038   0.743   7.942  0.0122  0.3896 -1.2417
 4418SOL     OW24889   4.540   2.853   9.199  0.4066 -0.1887 -0.0181
 4418SOL    HW124890   4.549   2.927   9.259 -0.7719 -2.2305  2.6889
 4418SOL    HW224891   4.449   2.861   9.170  1.6326 -1.3771 -4.2459
 4419SOL     OW24892   0.857   0.926  10.850 -0.1592  0.4241 -0.3451
 4419SOL    HW124893   0.892   1.010  10.821  0.0300  0.8902  1.2678
 4419SOL    HW224894   0.936   0.877  10.871 -0.7922 -0.7354 -0.6626
 4420SOL     OW24895   2.546   0.862   1.169  0.0181 -0.0041  0.6951
 4420SOL    HW124896   2.538   0.955   1.152  0.4449  0.3631  2.4611
 4420SOL    HW224897   2.608   0.840   1.100 -0.5074  0.8097 -0.0342
 4421SOL     OW24898   1.464   0.819   6.951  0.3406  0.3064  0.1604
 4421SOL    HW124899   1.392   0.882   6.959 -1.0553 -1.1028 -1.5694
 4421SOL    HW224900   1.425   0.746   6.999  0.7728 -0.3645 -0.5180
 4422SOL     OW24901   4.702   2.045  17.734 -0.0496 -0.3807 -0.3497
 4422SOL    HW124902   0.004   1.958  17.744 -0.1221 -0.4200 -0.4096
 4422SOL    HW224903   0.008   2.074  17.653 -0.0633  0.5852 -0.0145
 4423SOL     OW24904   3.264   3.398   8.305  0.0980 -0.1445  0.3569
 4423SOL    HW124905   3.228   3.411   8.217  0.7039 -1.2918 -0.0547
 4423SOL    HW224906   3.201   3.375   8.374  0.5324 -1.7617  0.1999
 4424SOL     OW24907   2.790   4.010   3.727 -0.2051 -0.2762 -0.3315
 4424SOL    HW124908   2.785   3.916   3.711 -0.3148 -0.4685  0.7746
 4424SOL    HW224909   2.744   4.046   3.651 -1.2659 -1.3872 -0.2137
 4425SOL     OW24910   2.400   3.901   9.025  0.2140 -0.2418 -0.2305
 4425SOL    HW124911   2.317   3.921   8.981  1.0915  2.2128 -0.7674
 4425SOL    HW224912   2.434   3.829   8.972  1.4416 -0.2196  0.5348
 4426SOL     OW24913   4.120   2.971   6.085  0.3256 -0.2342 -0.7204
 4426SOL    HW124914   4.100   2.976   6.179  1.4623 -1.1595 -0.4265
 4426SOL    HW224915   4.101   2.880   6.063  1.6095 -0.1798 -2.0314
 4427SOL     OW24916   0.001   4.066   4.969 -0.4156  0.0720 -0.4263
 4427SOL    HW124917   0.067   3.998   4.984 -0.0937  0.6155  0.6633
 4427SOL    HW224918   0.050   4.117   4.906  2.2043 -0.3822  1.2514
 4428SOL     OW24919   0.353   3.432  11.777  0.3208  0.6981  0.0811
 4428SOL    HW124920   0.377   3.518  11.810  1.8299 -0.4365  1.9630
 4428SOL    HW224921   0.341   3.457  11.686  1.7440  0.9824 -0.0155
 4429SOL     OW24922   2.264   3.071  13.678  1.0137 -0.1895 -0.1381
 4429SOL    HW124923   2.211   3.143  13.712  0.9789 -0.4002  0.2566
 4429SOL    HW224924   2.340   3.110  13.634 -0.2769  1.7677 -0.6442
 4430SOL     OW24925   2.051   0.824  17.513  0.0586 -0.0454  0.2906
 4430SOL    HW124926   1.988   0.793  17.577  0.2881 -1.8557 -0.3535
 4430SOL    HW224927   1.998   0.889  17.467  1.0840 -0.3920 -1.3839
 4431SOL     OW24928   4.274   1.705   2.452  0.0150  0.2576 -0.4506
 4431SOL    HW124929   4.220   1.777   2.487  0.0675  1.1971 -2.2872
 4431SOL    HW224930   4.212   1.633   2.448 -1.2733  1.3323 -0.0793
 4432SOL     OW24931   2.545   2.353  13.546 -0.3672  0.7487 -0.5294
 4432SOL    HW124932   2.464   2.318  13.507 -0.1859 -1.1093  0.7784
 4432SOL    HW224933   2.585   2.276  13.587  0.0250  0.9002 -0.6289
 4433SOL     OW24934   3.721   1.722  14.865  1.1452  0.8065 -0.3307
 4433SOL    HW124935   3.630   1.709  14.838  0.8654  0.9819  0.5211
 4433SOL    HW224936   3.777   1.716  14.788  0.6939 -2.1513 -0.4195
 4434SOL     OW24937   1.423   0.563   0.201  1.0826 -0.6146 -0.2985
 4434SOL    HW124938   1.336   0.599   0.185  2.2570  1.5044 -1.9924
 4434SOL    HW224939   1.406   0.471   0.223  0.0446 -0.3977 -0.1984
 4435SOL     OW24940   1.846   2.774   5.440  0.0649 -0.0265 -0.3468
 4435SOL    HW124941   1.937   2.765   5.469  0.1227 -0.7977 -0.7552
 4435SOL    HW224942   1.851   2.855   5.389 -0.2851  1.0031  1.2484
 4436SOL     OW24943   1.059   2.197   4.378 -0.5742  0.0962 -0.2886
 4436SOL    HW124944   0.978   2.169   4.420  0.1977 -0.1858  0.9922
 4436SOL    HW224945   1.097   2.111   4.357 -1.4796 -0.2724 -0.3948
 4437SOL     OW24946   0.071   0.187   4.281  0.3445  0.1100 -0.3162
 4437SOL    HW124947   0.033   0.237   4.353 -2.3150 -1.0624 -0.9020
 4437SOL    HW224948   0.023   0.104   4.284  1.0767 -0.3313 -0.8409
 4438SOL     OW24949   4.357   2.116   2.690 -0.3563  0.1964 -0.3924
 4438SOL    HW124950   4.409   2.128   2.610 -0.3859  2.7742 -0.0280
 4438SOL    HW224951   4.379   2.026   2.713 -1.6395 -0.1863 -0.6977
 4439SOL     OW24952   0.942   0.353   6.181  0.5602 -0.2998 -0.1617
 4439SOL    HW124953   1.033   0.349   6.211  0.7385  0.2987 -0.6250
 4439SOL    HW224954   0.917   0.443   6.201  0.1289 -0.6562  0.8705
 4440SOL     OW24955   2.236   4.626   8.125  0.6927 -0.2605  0.7955
 4440SOL    HW124956   2.199   4.705   8.085  2.8230  0.6758  0.6641
 4440SOL    HW224957   2.325   4.632   8.089 -0.4049  0.7986 -1.7652
 4441SOL     OW24958   1.781   0.207   3.988  0.4009 -0.0330  0.1485
 4441SOL    HW124959   1.743   0.254   3.913 -0.4634 -2.7925 -1.1429
 4441SOL    HW224960   1.706   0.163   4.028  0.3034 -0.0221 -0.0215
 4442SOL     OW24961   2.937   1.302   3.331  0.1411  0.2111 -0.1115
 4442SOL    HW124962   3.026   1.330   3.355  0.0712  0.9995 -0.7372
 4442SOL    HW224963   2.905   1.384   3.293  0.9899  0.1001 -1.0803
 4443SOL     OW24964   0.535   2.534   9.349  0.0343  0.4527 -0.0039
 4443SOL    HW124965   0.517   2.621   9.313 -0.9128  0.0682 -0.4506
 4443SOL    HW224966   0.599   2.505   9.283 -1.0694  0.0134 -0.8894
 4444SOL     OW24967   0.786   0.502  15.681 -0.1462 -0.1681 -0.0047
 4444SOL    HW124968   0.793   0.416  15.723 -2.1062  0.1694  1.0191
 4444SOL    HW224969   0.765   0.557  15.756 -1.0569  0.9016 -1.0549
 4445SOL     OW24970   1.930   2.764   7.860  0.3127  0.2477  0.0997
 4445SOL    HW124971   1.958   2.676   7.835 -1.2541  0.2319 -1.5655
 4445SOL    HW224972   1.894   2.744   7.947  2.3668 -0.7883  0.7298
 4446SOL     OW24973   1.388   2.678   9.576 -0.1060 -0.0642 -0.6524
 4446SOL    HW124974   1.345   2.607   9.529  1.7403 -2.8299  1.9190
 4446SOL    HW224975   1.339   2.686   9.658  0.8888  1.2076 -0.1908
 4447SOL     OW24976   4.609   2.997   8.948  0.3096  0.0631 -0.1937
 4447SOL    HW124977   4.688   3.049   8.963 -1.0891  1.4393  2.6882
 4447SOL    HW224978   4.618   2.926   9.012 -1.5874 -0.2916 -0.3292
 4448SOL     OW24979   1.806   4.342   3.639 -0.3561 -0.4148  0.0566
 4448SOL    HW124980   1.836   4.374   3.554  1.9659  0.3598  1.1609
 4448SOL    HW224981   1.738   4.406   3.658  1.5391  1.4570  0.4884
 4449SOL     OW24982   2.624   3.209   6.013  0.2857  0.3506 -0.2243
 4449SOL    HW124983   2.639   3.140   6.078 -0.1473  0.6242  0.1680
 4449SOL    HW224984   2.710   3.217   5.971 -0.3839 -0.8704 -1.8393
 4450SOL     OW24985   0.744   2.884  16.119  0.0253  0.0219  0.1807
 4450SOL    HW124986   0.786   2.970  16.117  0.9050 -0.3738  1.4766
 4450SOL    HW224987   0.736   2.869  16.025  0.2123 -1.1871  0.3543
 4451SOL     OW24988   2.777   4.470   7.630 -0.3503 -0.6604  0.0196
 4451SOL    HW124989   2.710   4.530   7.664  0.4294 -0.7737  1.7373
 4451SOL    HW224990   2.804   4.521   7.553  0.5402 -2.0450 -0.5777
 4452SOL     OW24991   0.898   2.432   2.358 -0.6494  0.1759 -0.0256
 4452SOL    HW124992   0.940   2.474   2.283  0.0481 -1.3843 -0.5089
 4452SOL    HW224993   0.971   2.427   2.419 -2.4124 -2.4152  1.8830
 4453SOL     OW24994   1.797   3.463   6.288 -0.7445 -0.7045 -0.5039
 4453SOL    HW124995   1.888   3.487   6.304 -0.5790 -0.1198 -2.2451
 4453SOL    HW224996   1.799   3.450   6.193  0.2093 -1.3371 -0.4012
 4454SOL     OW24997   1.710   4.309   5.683 -0.5350  0.2835  0.0460
 4454SOL    HW124998   1.704   4.348   5.596  0.2616  2.8578  1.1765
 4454SOL    HW224999   1.694   4.387   5.735 -0.3854  1.6142 -1.9045
 4455SOL     OW25000   4.560   0.171  17.058  0.4432  0.6980  0.0105
 4455SOL    HW125001   4.522   0.179  16.970 -0.0799 -0.2754  0.1446
 4455SOL    HW225002   4.611   0.091  17.044 -1.7474 -0.6618 -0.2019
 4456SOL     OW25003   3.486   1.214  15.853 -0.7177  0.7573  0.1172
 4456SOL    HW125004   3.496   1.294  15.904 -2.9021  1.0578  0.0557
 4456SOL    HW225005   3.435   1.162  15.915 -1.8433  1.3552 -0.3070
 4457SOL     OW25006   4.552   2.367   3.931 -0.1567  0.3165 -0.1563
 4457SOL    HW125007   4.620   2.421   3.892  0.2636  0.9705  1.4770
 4457SOL    HW225008   4.593   2.284   3.907 -1.0793 -0.3913  0.6701
 4458SOL     OW25009   0.483   1.831   8.882 -0.4962 -0.0948 -0.4183
 4458SOL    HW125010   0.524   1.898   8.826 -0.9314  0.1954 -0.3847
 4458SOL    HW225011   0.476   1.749   8.833  1.2000 -0.5952  0.1551
 4459SOL     OW25012   3.065   1.588   9.587  0.2699  0.6953 -0.5342
 4459SOL    HW125013   3.008   1.513   9.602 -0.5682  1.2595 -0.8908
 4459SOL    HW225014   3.108   1.574   9.502  0.9004  1.1287 -0.2881
 4460SOL     OW25015   0.273   3.301  11.027 -1.1335  0.1276 -0.6862
 4460SOL    HW125016   0.242   3.359  11.096 -2.7766 -2.7301  0.9683
 4460SOL    HW225017   0.268   3.359  10.951  1.0623  2.2982  0.8529
 4461SOL     OW25018   2.141   1.582  16.274  0.3268 -0.1872 -0.1431
 4461SOL    HW125019   2.058   1.627  16.258  1.2684  0.7328 -2.3839
 4461SOL    HW225020   2.209   1.649  16.270  2.2687 -2.1385 -0.1874
 4462SOL     OW25021   2.484   0.171   8.834  0.7524 -0.5726  0.4880
 4462SOL    HW125022   2.493   0.143   8.743 -0.9667 -0.2758  0.2122
 4462SOL    HW225023   2.420   0.104   8.859  1.4903 -0.9595  1.3725
 4463SOL     OW25024   1.791   0.477  17.113  0.3712  0.1557  0.2363
 4463SOL    HW125025   1.746   0.437  17.187 -0.9113 -2.0101 -1.7135
 4463SOL    HW225026   1.718   0.510  17.061  0.4005 -0.8723 -0.4435
 4464SOL     OW25027   0.496   1.323  15.696 -0.3979 -0.1491  0.1539
 4464SOL    HW125028   0.509   1.365  15.610  0.0358  1.6899  1.1055
 4464SOL    HW225029   0.480   1.405  15.743  0.2981 -0.5376  1.0598
 4465SOL     OW25030   4.368   4.415   3.752 -0.2654  0.6882 -0.4601
 4465SOL    HW125031   4.355   4.421   3.657  0.6955  1.4780 -0.5364
 4465SOL    HW225032   4.305   4.480   3.782 -0.7815 -0.1647  0.2933
 4466SOL     OW25033   0.557   2.240  15.180  0.3986 -0.0475 -0.0634
 4466SOL    HW125034   0.646   2.210  15.196  0.3871  1.1637  2.3015
 4466SOL    HW225035   0.508   2.158  15.183  0.0353  0.0828 -2.6007
 4467SOL     OW25036   2.794   4.471   7.052 -0.9438  0.6965  0.2537
 4467SOL    HW125037   2.845   4.392   7.069 -2.3524 -0.5540 -1.3107
 4467SOL    HW225038   2.754   4.447   6.968 -0.3846 -1.5711  0.6259
 4468SOL     OW25039   3.974   4.018   9.503  0.4024  0.1884  0.0203
 4468SOL    HW125040   3.931   4.027   9.588 -0.5001 -0.1068 -0.3986
 4468SOL    HW225041   3.982   4.107   9.471  1.9169 -0.4901 -1.4816
 4469SOL     OW25042   2.952   0.553   8.461 -0.5992  0.6919 -0.1272
 4469SOL    HW125043   2.953   0.575   8.368  0.3865  0.9849 -0.0509
 4469SOL    HW225044   2.879   0.491   8.465 -0.7349  0.9209  0.9908
 4470SOL     OW25045   0.087   3.743   3.112 -0.0337  0.7065  0.1257
 4470SOL    HW125046   4.733   3.763   3.135 -0.4003 -1.4595  0.6067
 4470SOL    HW225047   0.130   3.793   3.181 -0.2893  1.4077 -0.2235
 4471SOL     OW25048   2.852   2.803   5.327  0.6117  0.3327  0.2891
 4471SOL    HW125049   2.914   2.844   5.387  0.9055 -0.6351  0.6405
 4471SOL    HW225050   2.769   2.852   5.332  0.7451  0.6979 -1.1305
 4472SOL     OW25051   1.243   0.706  17.707 -0.6761  0.7438 -0.0921
 4472SOL    HW125052   1.200   0.621  17.701 -2.3633  1.5617  0.4676
 4472SOL    HW225053   1.170   0.765  17.723 -1.2210  0.2817 -0.8847
 4473SOL     OW25054   3.630   0.625   9.455  0.4586  0.6507  0.0145
 4473SOL    HW125055   3.564   0.628   9.387  1.0844  1.1764 -0.5725
 4473SOL    HW225056   3.675   0.708   9.437 -0.1708  1.0391  0.2435
 4474SOL     OW25057   0.483   2.856   6.266  0.2029  0.3334  0.0083
 4474SOL    HW125058   0.527   2.914   6.328  0.4262 -0.9292  1.0304
 4474SOL    HW225059   0.462   2.914   6.192 -1.6612  0.2769  0.4876
 4475SOL     OW25060   1.940   2.416   6.853  0.0958 -0.0580  0.1353
 4475SOL    HW125061   1.876   2.362   6.807 -0.5702  0.3065  0.6186
 4475SOL    HW225062   1.974   2.355   6.918 -1.3497 -0.1620  0.7867
 4476SOL     OW25063   2.449   3.939   6.590 -0.4577 -0.0727 -0.2204
 4476SOL    HW125064   2.362   3.908   6.562 -1.0014 -0.5598  1.9795
 4476SOL    HW225065   2.497   3.856   6.588 -2.2040 -1.0769 -0.9029
 4477SOL     OW25066   1.453   3.850   6.684  0.2545  0.2282  0.4273
 4477SOL    HW125067   1.430   3.932   6.728 -0.5085  0.8716 -1.1465
 4477SOL    HW225068   1.521   3.874   6.621  1.2133  0.4993  1.5605
 4478SOL     OW25069   4.384   4.608   9.603  0.3815  0.3576  0.1974
 4478SOL    HW125070   4.451   4.559   9.649  0.9364  0.3950 -0.5680
 4478SOL    HW225071   4.339   4.538   9.555  2.1502 -1.3611  1.0641
 4479SOL     OW25072   0.179   3.214   5.253 -0.4900 -0.1340  0.0455
 4479SOL    HW125073   0.139   3.159   5.321  3.1297 -0.6592  1.7246
 4479SOL    HW225074   0.270   3.204   5.278 -0.6483 -0.5148  0.4624
 4480SOL     OW25075   2.463   1.845   4.950 -0.4775 -0.5133  0.2428
 4480SOL    HW125076   2.480   1.904   5.023  0.8158  0.1657 -0.6075
 4480SOL    HW225077   2.454   1.903   4.875  1.8232 -0.3769  0.0691
 4481SOL     OW25078   4.426   0.204  16.814  0.4664 -0.1444  0.2106
 4481SOL    HW125079   4.399   0.273  16.875 -1.1974 -0.2529 -0.4264
 4481SOL    HW225080   4.397   0.246  16.734  0.8075 -0.2075  0.0529
 4482SOL     OW25081   2.953   3.453   6.205  0.4816  0.3561  0.2405
 4482SOL    HW125082   2.899   3.423   6.277  0.1272 -0.7603 -0.4913
 4482SOL    HW225083   3.028   3.394   6.206  1.8765  2.0923 -0.9613
 4483SOL     OW25084   0.955   1.845  10.897 -0.2227 -0.1058 -0.2081
 4483SOL    HW125085   0.999   1.917  10.941 -2.8109  1.0396  0.5099
 4483SOL    HW225086   0.980   1.861  10.806  2.9793  2.6884  1.1664
 4484SOL     OW25087   2.697   1.703   0.805 -0.1332 -0.3476  0.2490
 4484SOL    HW125088   2.612   1.677   0.769  0.7270 -0.9942 -1.3161
 4484SOL    HW225089   2.752   1.631   0.773  0.0429 -0.3353  0.5218
 4485SOL     OW25090   1.455   4.659   3.042  0.7095  0.0410 -0.5631
 4485SOL    HW125091   1.493   4.696   2.962 -1.1006  0.6314 -1.1545
 4485SOL    HW225092   1.397   4.588   3.013 -0.4656  1.1132 -0.8225
 4486SOL     OW25093   1.079   2.678  15.689 -0.1630  0.7921 -0.0047
 4486SOL    HW125094   1.135   2.745  15.729 -0.1753  0.8821 -0.1373
 4486SOL    HW225095   1.034   2.726  15.620 -1.7952  0.1287  0.5910
 4487SOL     OW25096   3.167   2.771   8.013 -0.1286 -0.2223  0.1526
 4487SOL    HW125097   3.186   2.740   7.924  0.7586  0.9172 -0.0508
 4487SOL    HW225098   3.092   2.714   8.030  1.3609 -1.9848  0.8079
 4488SOL     OW25099   4.275   2.667   5.379  0.2409  0.0829 -0.5869
 4488SOL    HW125100   4.233   2.706   5.456  1.2314 -0.1709  0.0755
 4488SOL    HW225101   4.213   2.683   5.307 -1.1013 -1.5906  0.1956
 4489SOL     OW25102   0.410   1.108   9.351  0.0334 -0.1811 -0.0672
 4489SOL    HW125103   0.427   1.019   9.320 -1.1176 -0.2104 -0.6172
 4489SOL    HW225104   0.496   1.142   9.374 -0.0803  0.2357 -0.2567
 4490SOL     OW25105   4.033   1.328   9.411 -0.1559 -0.3426 -0.2527
 4490SOL    HW125106   3.986   1.410   9.421 -0.7378 -0.7122  0.0725
 4490SOL    HW225107   3.971   1.262   9.377 -1.0676 -0.0346  0.8267
 4491SOL     OW25108   2.085   3.829   5.393 -0.2129 -0.0325  0.3348
 4491SOL    HW125109   2.000   3.807   5.356 -1.2836  0.7194  2.3634
 4491SOL    HW225110   2.098   3.917   5.357  0.6745  0.5714  2.1255
 4492SOL     OW25111   0.075   3.554   3.592  0.2975  0.3345 -0.2602
 4492SOL    HW125112   0.066   3.515   3.678 -1.5709 -0.9894 -1.0652
 4492SOL    HW225113   0.069   3.645   3.621 -2.2052 -0.4747  1.6749
 4493SOL     OW25114   0.797   1.049   7.126  0.2096  0.1072  0.3584
 4493SOL    HW125115   0.857   0.978   7.149  0.7135  0.3674 -0.1576
 4493SOL    HW225116   0.764   1.008   7.046  0.2256 -1.8595  1.3648
 4494SOL     OW25117   2.382   2.771  15.708 -0.0714  0.6789  0.1760
 4494SOL    HW125118   2.416   2.790  15.620 -1.9390  0.0839 -0.6744
 4494SOL    HW225119   2.367   2.859  15.741  1.9529  2.0339 -2.4913
 4495SOL     OW25120   0.722   0.636  15.913 -0.3235 -0.0993  0.5764
 4495SOL    HW125121   0.717   0.632  16.009  1.1118  0.0671  0.6504
 4495SOL    HW225122   0.656   0.705  15.908  0.4655  0.6758  0.8342
 4496SOL     OW25123   0.389   1.300   8.857 -0.1325  0.4964  0.2330
 4496SOL    HW125124   0.377   1.391   8.830 -1.2491  0.0764 -0.7460
 4496SOL    HW225125   0.481   1.289   8.833 -0.2439  0.0175  0.0288
 4497SOL     OW25126   1.779   0.952   5.502 -1.0923 -0.2558  0.2467
 4497SOL    HW125127   1.870   0.925   5.493 -1.1437 -0.2281 -0.3451
 4497SOL    HW225128   1.772   0.964   5.597 -1.8799  3.0511 -0.2158
 4498SOL     OW25129   1.917   2.455  14.710 -0.6587  0.3162 -0.2797
 4498SOL    HW125130   1.891   2.442  14.801  0.7641 -0.4301  0.0036
 4498SOL    HW225131   2.012   2.445  14.711 -0.6017  0.8860  0.0998
 4499SOL     OW25132   4.467   0.241   4.466  0.3687  0.2495  0.1519
 4499SOL    HW125133   4.556   0.214   4.486  0.6583  1.3880  0.4325
 4499SOL    HW225134   4.490   0.297   4.392  3.9932 -1.2361  0.1603
 4500SOL     OW25135   2.585   1.451   1.067  0.1301 -0.1579  0.3656
 4500SOL    HW125136   2.540   1.524   1.108 -1.3259 -1.3121  0.8216
 4500SOL    HW225137   2.526   1.439   0.993  1.5234 -0.2408 -0.7370
 4501SOL     OW25138   2.586   3.795   5.352 -0.7358  0.0026  0.0240
 4501SOL    HW125139   2.604   3.809   5.259  1.8093  0.7333  0.6283
 4501SOL    HW225140   2.622   3.874   5.393 -1.6121 -0.0858  0.9831
 4502SOL     OW25141   0.315   3.571   8.351  0.1903 -0.2531 -0.0600
 4502SOL    HW125142   0.330   3.629   8.276 -0.4572  0.5004  0.3924
 4502SOL    HW225143   0.314   3.634   8.423  0.0687  2.3864 -2.3579
 4503SOL     OW25144   0.406   0.534   7.270  0.1299  0.0449  0.2145
 4503SOL    HW125145   0.443   0.460   7.222 -1.3386  0.3328 -1.3511
 4503SOL    HW225146   0.416   0.608   7.211  0.2771  0.6253  0.9660
 4504SOL     OW25147   0.793   2.511   2.917 -0.1999  0.0745 -0.2302
 4504SOL    HW125148   0.802   2.416   2.910  0.8183  0.0606  1.1763
 4504SOL    HW225149   0.763   2.505   3.008  2.2967  2.0239  0.7125
 4505SOL     OW25150   4.731   0.774  15.557 -0.6431 -0.1002 -0.1067
 4505SOL    HW125151   0.065   0.782  15.493 -0.2466 -1.7523  0.1397
 4505SOL    HW225152   0.009   0.845  15.619 -0.2728 -0.1914 -0.0928
 4506SOL     OW25153   1.416   2.555   3.794 -0.0584 -0.6738 -0.0665
 4506SOL    HW125154   1.346   2.615   3.820  1.7796  0.9412  1.1349
 4506SOL    HW225155   1.491   2.609   3.818  0.2263 -1.2433  0.3242
 4507SOL     OW25156   4.201   1.249   3.009  0.5429 -1.1623  0.4417
 4507SOL    HW125157   4.172   1.242   2.918  0.8855 -2.4329  0.4240
 4507SOL    HW225158   4.285   1.204   2.994  0.6859 -0.2784 -1.4476
 4508SOL     OW25159   3.152   0.602   9.281 -0.3279 -0.6216 -0.3633
 4508SOL    HW125160   3.131   0.509   9.271 -0.1108 -0.8442  1.3697
 4508SOL    HW225161   3.074   0.642   9.242 -0.6399 -1.6407 -0.7997
 4509SOL     OW25162   1.566   3.439   1.940 -0.4517  0.0474  0.4580
 4509SOL    HW125163   1.647   3.396   1.912  0.1402  0.6713  1.2021
 4509SOL    HW225164   1.499   3.371   1.932 -0.8259  0.3208  1.1914
 4510SOL     OW25165   2.430   2.865   7.567  0.0104  0.5598 -0.2153
 4510SOL    HW125166   2.394   2.801   7.627  1.7310 -0.8505 -0.6840
 4510SOL    HW225167   2.485   2.922   7.621 -1.1187 -0.0332  1.5469
 4511SOL     OW25168   3.568   3.728   9.248  0.2366  0.3387  0.2523
 4511SOL    HW125169   3.602   3.719   9.159  3.5050  2.4478  1.2926
 4511SOL    HW225170   3.647   3.747   9.298  1.5132  2.3235 -2.5556
 4512SOL     OW25171   4.364   0.203   5.391 -0.7507  0.1623 -0.0730
 4512SOL    HW125172   4.395   0.195   5.481 -0.7648  0.7354 -0.0119
 4512SOL    HW225173   4.270   0.186   5.397 -0.7656  0.1389 -0.3765
 4513SOL     OW25174   4.068   4.466   7.361 -0.0053  0.1814  0.2060
 4513SOL    HW125175   4.061   4.388   7.417  0.1775 -0.2768 -0.4107
 4513SOL    HW225176   4.017   4.525   7.416 -1.0063 -0.8175  0.3602
 4514SOL     OW25177   0.836   1.025  13.989 -0.3519  0.3156  0.2396
 4514SOL    HW125178   0.783   0.970  13.932 -2.3371  1.5962  0.8540
 4514SOL    HW225179   0.820   0.977  14.071  1.1718 -0.5360  0.0465
 4515SOL     OW25180   3.861   4.200  11.643  0.0293  0.0201 -0.2271
 4515SOL    HW125181   3.875   4.107  11.664 -1.5572  0.3528  2.2947
 4515SOL    HW225182   3.769   4.215  11.620  0.0178 -0.2616 -0.3683
 4516SOL     OW25183   0.850   1.783   4.124 -0.0598  0.4499 -0.0557
 4516SOL    HW125184   0.909   1.770   4.050  1.2470  0.6823  0.9482
 4516SOL    HW225185   0.873   1.704   4.173  1.8109  0.1042 -1.4886
 4517SOL     OW25186   0.032   0.913   5.685 -0.2569  0.0780  0.3768
 4517SOL    HW125187   4.719   0.926   5.604 -1.1637  1.5231  1.1676
 4517SOL    HW225188   4.719   0.977   5.737 -1.0080  1.2660 -1.7914
 4518SOL     OW25189   0.395   4.544   1.447 -0.3921 -0.0973 -0.2108
 4518SOL    HW125190   0.362   4.587   1.526 -1.2168 -1.7361  0.3424
 4518SOL    HW225191   0.337   4.572   1.376 -0.7757 -1.4461 -0.4299
 4519SOL     OW25192   1.971   0.073   7.683  0.2238 -0.1955 -0.1211
 4519SOL    HW125193   2.064   0.076   7.705 -0.2965  0.8012  1.9801
 4519SOL    HW225194   1.924   0.039   7.759 -0.3676 -0.7404 -0.7328
 4520SOL     OW25195   2.133   1.658   0.509  0.6348 -0.3052 -0.2732
 4520SOL    HW125196   2.194   1.665   0.436 -1.7998 -0.6323 -2.3756
 4520SOL    HW225197   2.053   1.708   0.489 -0.6541 -1.9841  0.6702
 4521SOL     OW25198   0.732   4.161   0.393 -0.2730  0.0026 -0.1659
 4521SOL    HW125199   0.679   4.114   0.457  0.0457 -1.2813 -0.8537
 4521SOL    HW225200   0.698   4.113   0.317  1.4248 -4.2909  1.7944
 4522SOL     OW25201   4.298   0.079   1.637  0.6931  0.7419 -0.6319
 4522SOL    HW125202   4.383   0.044   1.612 -0.1526 -0.0558 -2.3915
 4522SOL    HW225203   4.282   0.129   1.557 -0.4294  2.6329  0.7490
 4523SOL     OW25204   2.163   0.657   7.868  0.1077 -0.3254  0.2764
 4523SOL    HW125205   2.162   0.565   7.840 -0.4636 -0.3180  0.2802
 4523SOL    HW225206   2.253   0.658   7.901  1.0703  0.9128 -2.3595
 4524SOL     OW25207   4.374   3.431   8.317 -0.2412  0.0179  0.0604
 4524SOL    HW125208   4.287   3.442   8.355 -1.7072 -4.4685 -1.9240
 4524SOL    HW225209   4.391   3.336   8.318 -2.3168 -0.3361  1.0436
 4525SOL     OW25210   0.052   1.754   4.074  0.4426  0.0983 -0.0824
 4525SOL    HW125211   4.723   1.787   4.013  2.2233  0.9824 -1.5188
 4525SOL    HW225212   0.067   1.829   4.131 -1.9003 -0.3173  1.0810
 4526SOL     OW25213   2.574   1.797  15.671  0.0113  0.3431  0.5250
 4526SOL    HW125214   2.581   1.803  15.766  1.0561 -1.8844  0.5964
 4526SOL    HW225215   2.625   1.874  15.643 -0.1501  0.3670  0.2987
 4527SOL     OW25216   4.368   1.370   0.766  0.1692  0.0127  0.1907
 4527SOL    HW125217   4.327   1.442   0.717  0.8545  0.0341 -0.3457
 4527SOL    HW225218   4.445   1.407   0.808  0.4039 -0.4390  0.1561
 4528SOL     OW25219   2.070   1.213   0.048  0.0888  0.3709 -0.1202
 4528SOL    HW125220   1.999   1.195  17.731 -1.3407  1.0414  1.3231
 4528SOL    HW225221   2.153   1.195   0.004  0.8250 -0.4684  1.6464
 4529SOL     OW25222   1.341   1.876   4.733  0.2806  0.0290 -0.3312
 4529SOL    HW125223   1.412   1.848   4.674  0.5771 -2.2158  1.0729
 4529SOL    HW225224   1.336   1.970   4.721 -0.0999  0.4358  2.9978
 4530SOL     OW25225   2.669   2.201  10.929 -0.6216 -0.2872  0.9450
 4530SOL    HW125226   2.582   2.240  10.930 -1.3835 -1.9407 -0.2455
 4530SOL    HW225227   2.677   2.189  11.024  0.1516 -1.1631  0.7735
 4531SOL     OW25228   0.448   1.454   0.827  0.3080 -0.4988 -0.5568
 4531SOL    HW125229   0.354   1.434   0.825  0.3155 -0.6222  0.1318
 4531SOL    HW225230   0.448   1.518   0.756  0.9549  1.9342  1.6329
 4532SOL     OW25231   1.109   1.703  15.626 -0.0812 -0.0387  0.1219
 4532SOL    HW125232   1.185   1.647  15.615 -0.9937 -1.8566  3.1824
 4532SOL    HW225233   1.137   1.761  15.696  1.3442 -1.5155  0.7616
 4533SOL     OW25234   0.297   3.251   5.797 -0.2813 -0.5529 -0.4213
 4533SOL    HW125235   0.364   3.191   5.831 -1.0876 -0.7103  0.8583
 4533SOL    HW225236   0.230   3.200   5.841 -0.1508 -0.3998 -0.0481
 4534SOL     OW25237   1.673   1.023   8.607 -0.2465 -0.6742  0.0003
 4534SOL    HW125238   1.627   1.046   8.526 -0.1449  0.5864  0.3066
 4534SOL    HW225239   1.664   1.110   8.644  1.6214 -0.4198 -0.1515
 4535SOL     OW25240   0.601   2.205   9.010  0.2053 -1.0379 -0.4734
 4535SOL    HW125241   0.600   2.112   9.033 -0.4975 -0.6874  0.9128
 4535SOL    HW225242   0.523   2.208   8.954 -0.4195  0.8566  0.4961
 4536SOL     OW25243   2.414   2.321   2.560 -0.2838  0.2412  0.0296
 4536SOL    HW125244   2.479   2.342   2.492  0.4908  2.9980  1.6198
 4536SOL    HW225245   2.374   2.408   2.569 -0.9301 -0.2200  1.5372
 4537SOL     OW25246   0.007   3.811   9.346  0.3652 -0.2831 -0.3986
 4537SOL    HW125247   4.657   3.790   9.382  0.1194  0.5534 -0.5024
 4537SOL    HW225248   0.022   3.900   9.379  2.1519 -0.9993  0.6942
 4538SOL     OW25249   2.457   1.917   8.865  0.2471  0.2766 -0.0696
 4538SOL    HW125250   2.439   1.878   8.950  1.5232  1.2398  0.6425
 4538SOL    HW225251   2.533   1.974   8.882 -0.6291  0.3100  3.6230
 4539SOL     OW25252   4.175   1.018   1.271 -0.0196 -0.0522  0.3986
 4539SOL    HW125253   4.168   1.035   1.177 -1.3924 -1.5978  0.2126
 4539SOL    HW225254   4.083   1.005   1.293  0.0714 -1.1127  0.1718
 4540SOL     OW25255   4.070   2.108   2.706 -0.2392 -0.2700  0.1434
 4540SOL    HW125256   4.053   2.202   2.713 -1.0323 -0.3043 -1.4347
 4540SOL    HW225257   4.165   2.097   2.704 -0.3490 -1.1371 -0.1045
 4541SOL     OW25258   4.416   3.455  15.387 -0.3477  0.1779 -0.5691
 4541SOL    HW125259   4.339   3.458  15.330 -1.2524  2.7816  0.7846
 4541SOL    HW225260   4.433   3.362  15.379 -1.4278  0.0122 -0.9661
 4542SOL     OW25261   0.310   4.017  16.784 -0.0184  0.9178  0.1087
 4542SOL    HW125262   0.401   4.002  16.757 -0.9639 -1.9003 -1.4888
 4542SOL    HW225263   0.292   3.941  16.839 -0.1885  0.5783 -0.4156
 4543SOL     OW25264   0.777   3.250  17.497 -0.0763  0.0061  0.4089
 4543SOL    HW125265   0.709   3.300  17.453 -1.5768 -1.3839  1.1465
 4543SOL    HW225266   0.849   3.312  17.489  0.5210 -0.2805  3.2838
 4544SOL     OW25267   0.971   1.058   6.368 -0.1167  0.6802 -0.1831
 4544SOL    HW125268   0.884   1.028   6.394 -0.6757  1.6335 -0.9394
 4544SOL    HW225269   1.003   0.980   6.322 -0.5175  1.1230 -1.2249
 4545SOL     OW25270   0.594   0.246   3.751  0.2325  0.6950  0.1902
 4545SOL    HW125271   0.571   0.268   3.661 -1.5573 -0.5686  0.3372
 4545SOL    HW225272   0.591   0.151   3.746  1.2459  0.6622  0.3051
 4546SOL     OW25273   3.082   3.320   6.803  0.4108  0.5428  0.3895
 4546SOL    HW125274   3.100   3.320   6.897 -3.0781 -0.5260  1.0251
 4546SOL    HW225275   3.160   3.365   6.769  0.0939 -0.1475 -1.2343
 4547SOL     OW25276   1.908   3.819   6.759  0.0760  0.3165 -0.1353
 4547SOL    HW125277   1.893   3.740   6.707 -0.6906  1.1877 -1.2463
 4547SOL    HW225278   1.992   3.840   6.719 -0.4030 -1.5794 -2.1597
 4548SOL     OW25279   3.948   1.528   9.648  0.0134  1.0481  0.0748
 4548SOL    HW125280   3.936   1.532   9.554 -1.1222 -0.9488  0.1259
 4548SOL    HW225281   3.997   1.608   9.667  0.9707  0.3239  0.6472
 4549SOL     OW25282   2.006   4.228  15.516 -0.2451 -0.0585  0.1052
 4549SOL    HW125283   1.940   4.164  15.542 -0.5310  0.0777 -0.2735
 4549SOL    HW225284   2.024   4.205  15.425  0.8237 -2.2028  0.8841
 4550SOL     OW25285   2.358   0.115   6.889  0.2820 -0.5581  0.5154
 4550SOL    HW125286   2.373   0.189   6.949  0.1469  0.6310 -0.9234
 4550SOL    HW225287   2.263   0.107   6.899  0.2195  1.9280  1.8953
 4551SOL     OW25288   1.152   0.674   7.015  0.0081 -0.3231 -0.1306
 4551SOL    HW125289   1.228   0.617   7.024  1.0866  0.5718 -3.5408
 4551SOL    HW225290   1.173   0.732   6.942  0.1071 -1.2014 -0.7940
 4552SOL     OW25291   2.683   0.118   8.427  0.4934 -0.0050 -0.0365
 4552SOL    HW125292   2.768   0.131   8.385  0.1731 -2.2537 -1.3573
 4552SOL    HW225293   2.628   0.072   8.363 -0.7742  1.9228 -0.3759
 4553SOL     OW25294   0.934   3.061   6.076 -0.6308  0.1827 -0.1170
 4553SOL    HW125295   0.921   2.977   6.120 -1.9182  1.2895  1.6749
 4553SOL    HW225296   0.984   3.104   6.146  1.5077  1.1622 -2.2668
 4554SOL     OW25297   0.213   0.592   8.613  0.1839  0.2969  0.3038
 4554SOL    HW125298   0.188   0.571   8.523  0.2055  0.0908  0.3451
 4554SOL    HW225299   0.206   0.687   8.611 -0.7690  0.2105 -0.4306
 4555SOL     OW25300   3.118   2.434  11.674  0.4057  0.0852  0.1947
 4555SOL    HW125301   3.114   2.373  11.601  0.8340  0.6245 -0.2783
 4555SOL    HW225302   3.135   2.516  11.627 -1.5958 -1.0947 -2.5905
 4556SOL     OW25303   1.059   2.109   8.366 -0.3428  0.3010 -0.0431
 4556SOL    HW125304   1.122   2.108   8.438 -1.6274  1.5707  1.1297
 4556SOL    HW225305   1.032   2.200   8.354  0.5282  0.4512 -0.8060
 4557SOL     OW25306   3.052   4.300  14.077  0.5622  0.0372  0.5055
 4557SOL    HW125307   2.989   4.316  14.007  0.4680 -0.4184  0.4843
 4557SOL    HW225308   3.006   4.236  14.131 -2.2470 -0.1196 -2.0568
 4558SOL     OW25309   2.309   3.805   8.108 -0.1171  0.4453 -0.0840
 4558SOL    HW125310   2.288   3.769   8.195  1.0189 -1.7208 -0.7006
 4558SOL    HW225311   2.375   3.874   8.116  1.4330 -0.8745 -1.4864
 4559SOL     OW25312   1.862   4.720   3.437 -0.3949 -0.7737 -0.3705
 4559SOL    HW125313   1.799   4.699   3.506 -2.0078  0.6056 -1.4327
 4559SOL    HW225314   1.881   4.637   3.394 -0.9579  0.2482 -2.5667
 4560SOL     OW25315   4.451   4.323  10.914 -0.5373  0.4580 -0.2534
 4560SOL    HW125316   4.412   4.389  10.857  1.1848 -0.2135 -2.1825
 4560SOL    HW225317   4.393   4.247  10.903 -2.5496  1.8590  0.5601
 4561SOL     OW25318   3.468   1.266   7.026 -0.2136  0.3300 -0.2970
 4561SOL    HW125319   3.525   1.189   7.017  0.9056  0.9247  1.9715
 4561SOL    HW225320   3.498   1.295   7.112 -0.4731  0.8070 -0.3686
 4562SOL     OW25321   2.906   1.597  14.706  0.3250 -0.7414  0.3910
 4562SOL    HW125322   2.965   1.590  14.781  0.4355 -3.2269  0.0687
 4562SOL    HW225323   2.960   1.579  14.629  0.3151 -0.8763  0.4160
 4563SOL     OW25324   1.352   4.135   2.008 -0.4194  0.4096  0.1479
 4563SOL    HW125325   1.348   4.213   1.953  1.2406  0.9750  0.8331
 4563SOL    HW225326   1.344   4.062   1.948 -1.0429  2.2823 -2.0275
 4564SOL     OW25327   2.382   4.273   2.814 -0.2840  0.4083 -0.9074
 4564SOL    HW125328   2.365   4.212   2.885 -1.5815  0.8825 -0.8031
 4564SOL    HW225329   2.472   4.304   2.828 -0.6304  0.4084  1.2739
 4565SOL     OW25330   4.205   2.603  14.212  0.4335  0.0721 -0.4914
 4565SOL    HW125331   4.274   2.635  14.270  0.4604 -1.6790  0.4231
 4565SOL    HW225332   4.195   2.670  14.144  1.5088 -0.5288 -1.2451
 4566SOL     OW25333   0.170   2.548   1.076 -0.2023  0.3074 -0.4713
 4566SOL    HW125334   0.097   2.515   1.024  1.0125 -1.1826 -1.2291
 4566SOL    HW225335   0.213   2.580   0.997  0.0256 -0.6415 -0.7331
 4567SOL     OW25336   4.101   2.094   6.557  0.1468 -0.4781 -0.0125
 4567SOL    HW125337   4.012   2.060   6.566 -0.7587  1.9388  0.2716
 4567SOL    HW225338   4.125   2.097   6.649  2.0759  0.3967 -0.5501
 4568SOL     OW25339   0.458   2.689  15.346 -0.1490  0.0843 -0.0039
 4568SOL    HW125340   0.539   2.728  15.314 -1.0614  0.9950 -1.2293
 4568SOL    HW225341   0.397   2.710  15.275 -1.5648 -2.0731  0.5757
 4569SOL     OW25342   0.875   1.960   5.511 -0.1930 -0.1546 -0.4696
 4569SOL    HW125343   0.792   2.007   5.515 -0.3880 -0.4768 -0.7182
 4569SOL    HW225344   0.925   1.986   5.588  0.6570  1.9346 -1.7140
 4570SOL     OW25345   1.083   3.386   3.489 -0.3480 -0.1887  0.2136
 4570SOL    HW125346   1.143   3.340   3.430  0.8404  3.5023 -1.4405
 4570SOL    HW225347   0.993   3.373   3.458 -0.2361  1.7767 -0.9787
 4571SOL     OW25348   4.730   2.447  10.022 -0.0189  0.4812 -0.1687
 4571SOL    HW125349   0.066   2.460  10.082 -2.4956 -0.1774  2.9468
 4571SOL    HW225350   4.661   2.504  10.056 -0.9854 -0.5097 -0.4739
 4572SOL     OW25351   3.570   1.428   4.631 -0.3893 -0.0471  0.3562
 4572SOL    HW125352   3.476   1.445   4.641 -0.1913 -0.3034  2.4995
 4572SOL    HW225353   3.580   1.337   4.601 -0.7103  0.3142 -0.8788
 4573SOL     OW25354   4.296   4.726   5.189  0.3931 -0.3135 -0.4797
 4573SOL    HW125355   4.289   4.658   5.256  0.5902  0.8490  0.7257
 4573SOL    HW225356   4.238   0.055   5.227  2.8913  1.2667  0.6252
 4574SOL     OW25357   0.791   3.389   8.167 -0.3288 -0.3661  0.1397
 4574SOL    HW125358   0.799   3.484   8.173 -1.1134 -0.1849 -1.7473
 4574SOL    HW225359   0.704   3.372   8.202 -0.0058 -2.2511  0.0473
 4575SOL     OW25360   3.622   1.156  16.413 -0.6018 -0.0970 -0.2369
 4575SOL    HW125361   3.670   1.077  16.388 -1.0254 -0.1707 -0.7883
 4575SOL    HW225362   3.529   1.138  16.404 -0.6207  1.4164 -3.0899
 4576SOL     OW25363   0.198   3.047   3.072 -0.3431  0.2878 -0.0049
 4576SOL    HW125364   0.226   2.957   3.051 -1.2285  0.0484 -0.1564
 4576SOL    HW225365   0.250   3.089   3.004 -0.2017 -3.5504 -2.2817
 4577SOL     OW25366   2.831   1.574   8.373  0.0232 -0.0560  0.0952
 4577SOL    HW125367   2.889   1.639   8.334 -1.0382  0.9596  0.2244
 4577SOL    HW225368   2.898   1.508   8.395 -2.3130 -2.2807  0.5288
 4578SOL     OW25369   1.563   3.367   3.235  0.3944 -0.2153 -0.1501
 4578SOL    HW125370   1.594   3.277   3.228 -1.1415 -0.7324 -0.1540
 4578SOL    HW225371   1.644   3.413   3.260 -0.2535  0.7377  0.2076
 4579SOL     OW25372   3.787   2.609   8.372  0.0329 -0.1765 -0.2358
 4579SOL    HW125373   3.816   2.521   8.394 -0.0857  0.7648  3.6480
 4579SOL    HW225374   3.865   2.665   8.373 -1.4779  1.9473 -1.2576
 4580SOL     OW25375   2.950   1.306  11.548 -0.3919 -1.5027  0.4155
 4580SOL    HW125376   2.890   1.344  11.612  0.2672 -0.5373  0.4715
 4580SOL    HW225377   2.894   1.314  11.470 -1.0697 -0.9419  0.9674
 4581SOL     OW25378   3.273   1.004   9.085 -0.5042  0.1948  0.9806
 4581SOL    HW125379   3.362   0.970   9.090 -1.0654 -1.6684 -2.0953
 4581SOL    HW225380   3.229   0.945   9.024 -1.3325  0.0875  1.6778
 4582SOL     OW25381   1.893   2.111   7.720 -0.0033  0.3761  0.3907
 4582SOL    HW125382   1.975   2.096   7.674 -0.4568 -0.9687  0.0240
 4582SOL    HW225383   1.931   2.126   7.806 -0.2565 -0.4502  0.6386
 4583SOL     OW25384   0.857   0.009   6.962 -0.1211  0.0176 -0.3533
 4583SOL    HW125385   0.886   4.660   6.993 -0.3460  1.3470  3.4700
 4583SOL    HW225386   0.914   0.017   6.885  0.9504 -0.1202  0.4302
 4584SOL     OW25387   1.058   2.347   3.106  0.6351 -0.2433 -0.4341
 4584SOL    HW125388   1.000   2.278   3.137  1.5892 -0.8069  0.1012
 4584SOL    HW225389   1.117   2.300   3.046  0.2216 -0.7943 -0.4082
 4585SOL     OW25390   3.364   1.946   8.693  0.4937 -0.1306 -0.6072
 4585SOL    HW125391   3.338   1.917   8.605  1.9772  0.4861 -1.2560
 4585SOL    HW225392   3.405   1.866   8.724  2.8767  0.4800 -2.1578
 4586SOL     OW25393   0.050   4.610   2.532  0.2969 -0.0884 -0.5667
 4586SOL    HW125394   4.707   4.558   2.544 -0.1525  0.6005 -0.5631
 4586SOL    HW225395   0.095   4.576   2.609 -1.3312 -0.2119  0.3139
 4587SOL     OW25396   3.151   0.692  16.076  0.6916  0.5052 -0.1233
 4587SOL    HW125397   3.216   0.654  16.135  2.4100  0.7909 -1.8253
 4587SOL    HW225398   3.071   0.662  16.119 -0.7771 -0.2721 -3.3646
 4588SOL     OW25399   1.405   1.164   1.385  0.0212 -0.0002  0.2257
 4588SOL    HW125400   1.382   1.224   1.456  1.7108  0.7141  0.1780
 4588SOL    HW225401   1.501   1.169   1.382 -0.0026 -0.0884 -0.8341
 4589SOL     OW25402   3.697   4.537   4.372  0.7804  0.7939  0.1334
 4589SOL    HW125403   3.782   4.521   4.414  0.8975  0.1435 -0.3613
 4589SOL    HW225404   3.708   4.505   4.282  1.0485 -1.4749  1.0007
 4590SOL     OW25405   4.229   1.226   4.699 -0.1802  0.0626  0.2623
 4590SOL    HW125406   4.276   1.280   4.763  0.6904 -1.4427  0.8817
 4590SOL    HW225407   4.177   1.297   4.662 -1.3420  0.3391  2.4237
 4591SOL     OW25408   3.733   0.912   4.112 -0.1731 -0.0618 -0.2959
 4591SOL    HW125409   3.808   0.913   4.172 -0.6393 -0.4078  0.2823
 4591SOL    HW225410   3.674   0.970   4.159  1.3243  2.3933 -1.4731
 4592SOL     OW25411   1.755   1.734  17.692  1.1122 -0.4792  0.0785
 4592SOL    HW125412   1.691   1.799  17.719  1.0613 -0.7261  0.5750
 4592SOL    HW225413   1.797   1.775  17.617 -0.5860  0.6986 -0.2298
 4593SOL     OW25414   0.331   0.994   5.115 -0.2246  0.0426 -0.2543
 4593SOL    HW125415   0.404   0.934   5.099  0.8461  0.8203  1.8848
 4593SOL    HW225416   0.350   1.015   5.206 -1.7197  0.2119  0.0220
 4594SOL     OW25417   0.846   2.544   6.285  0.4317  0.0478  0.0615
 4594SOL    HW125418   0.872   2.635   6.301 -1.3487  0.9763 -2.4540
 4594SOL    HW225419   0.897   2.538   6.205 -2.3627 -0.0640 -1.7063
 4595SOL     OW25420   3.754   1.040   5.229 -0.0657 -0.2636 -0.4768
 4595SOL    HW125421   3.802   1.117   5.200 -2.7044  2.1080  1.4925
 4595SOL    HW225422   3.707   0.997   5.158 -2.5443 -1.6927  1.9964
 4596SOL     OW25423   1.057   2.256   0.263 -0.4142  0.3199 -0.2130
 4596SOL    HW125424   0.967   2.280   0.287 -0.3915 -0.6487  0.8589
 4596SOL    HW225425   1.051   2.217   0.176 -0.9120  1.6125 -0.7564
 4597SOL     OW25426   3.339   0.081   1.235 -0.1334 -0.4442  0.4635
 4597SOL    HW125427   3.411   0.073   1.172 -2.3067  1.8565 -2.3270
 4597SOL    HW225428   3.381   0.117   1.312  0.1406  1.2759 -0.4980
 4598SOL     OW25429   4.654   4.273   1.355 -0.1236  0.0692  0.2298
 4598SOL    HW125430   4.593   4.201   1.337  0.5550 -0.6897  0.9741
 4598SOL    HW225431   4.605   4.355   1.344  0.9503  0.8107  0.9897
 4599SOL     OW25432   2.475   2.101  10.519  0.3384  0.4885 -0.6200
 4599SOL    HW125433   2.399   2.150  10.488 -0.7791 -1.6993 -1.3849
 4599SOL    HW225434   2.434   2.022  10.555 -0.1611  0.7625 -0.5906
 4600SOL     OW25435   0.146   1.885   1.125  0.1104  0.2682  0.4241
 4600SOL    HW125436   0.175   1.854   1.040  2.4567  1.0992  0.9261
 4600SOL    HW225437   0.102   1.967   1.099 -0.7444  0.0829  1.2567
 4601SOL     OW25438   2.429   0.769  17.414  0.2896  0.3985 -0.3472
 4601SOL    HW125439   2.428   0.799  17.504 -0.0265 -2.8292  0.7152
 4601SOL    HW225440   2.416   0.857  17.378 -0.5652  0.6685  0.6298
 4602SOL     OW25441   2.509   4.134  16.931 -0.5087 -0.0736  0.0678
 4602SOL    HW125442   2.569   4.165  16.863 -0.3166 -2.4441 -0.8434
 4602SOL    HW225443   2.564   4.070  16.977 -0.9743 -0.5688 -0.0663
 4603SOL     OW25444   4.555   4.485   2.173  0.3674 -0.7129  0.2925
 4603SOL    HW125445   4.466   4.518   2.159  0.8654  0.9338  1.0100
 4603SOL    HW225446   4.608   4.563   2.188  0.1170 -0.1999 -1.5322
 4604SOL     OW25447   2.499   1.491   5.031 -0.2914 -0.0927 -0.9737
 4604SOL    HW125448   2.553   1.539   5.093 -0.2898  1.9934 -2.6037
 4604SOL    HW225449   2.471   1.421   5.090  0.3122 -0.4417 -1.0987
 4605SOL     OW25450   1.963   1.535   5.151 -0.1777  0.3430 -0.2655
 4605SOL    HW125451   1.869   1.529   5.166  0.2302 -0.6954  1.9184
 4605SOL    HW225452   1.970   1.616   5.100 -0.8362  0.0405 -0.8371
 4606SOL     OW25453   0.207   1.132   9.526  0.0387  0.2989 -0.0648
 4606SOL    HW125454   0.245   1.214   9.558  1.4885 -0.2766 -0.3095
 4606SOL    HW225455   0.258   1.126   9.445 -0.8422  2.7083 -0.7940
 4607SOL     OW25456   1.823   2.113  17.576 -0.0801  0.2619 -0.0378
 4607SOL    HW125457   1.837   2.129  17.483  1.7798 -0.7526  0.0722
 4607SOL    HW225458   1.879   2.036  17.580 -0.1960  0.0789 -2.1367
 4608SOL     OW25459   4.606   0.622   6.423  0.0977  0.9124  0.3929
 4608SOL    HW125460   4.526   0.672   6.437  0.5646  1.8336 -0.1976
 4608SOL    HW225461   4.619   0.603   6.516  0.3981  0.2090  0.2127
 4609SOL     OW25462   0.977   3.546   9.122  0.0953  0.2986 -0.1312
 4609SOL    HW125463   0.943   3.478   9.064 -0.7283  0.4058  0.2187
 4609SOL    HW225464   1.028   3.498   9.186 -0.5372 -1.1088 -0.6864
 4610SOL     OW25465   0.805   2.480   7.296 -0.3850  0.3787 -0.1823
 4610SOL    HW125466   0.725   2.427   7.296 -0.0332 -0.1741 -1.7881
 4610SOL    HW225467   0.772   2.569   7.298 -0.2878  0.3676  1.8353
 4611SOL     OW25468   1.457   2.086   5.014  0.7345  0.0395 -0.1187
 4611SOL    HW125469   1.491   2.121   5.096  1.0025  0.8125 -0.5572
 4611SOL    HW225470   1.466   1.994   5.040  0.4007  0.5035  1.5796
 4612SOL     OW25471   0.258   3.726  11.054 -0.5267 -0.6099  0.7643
 4612SOL    HW125472   0.281   3.818  11.041 -0.8633 -0.2865  2.4847
 4612SOL    HW225473   0.286   3.706  11.143  1.3644  1.8197  0.7057
 4613SOL     OW25474   3.949   1.127   7.704  0.0516  0.0134 -0.8674
 4613SOL    HW125475   3.903   1.165   7.780  3.1043 -0.9435  1.4439
 4613SOL    HW225476   3.951   1.208   7.653  3.8842 -0.6006 -1.6513
 4614SOL     OW25477   1.593   0.651   4.516 -0.1857  0.1589  0.1470
 4614SOL    HW125478   1.685   0.646   4.543 -0.2894  2.1819  0.9173
 4614SOL    HW225479   1.583   0.746   4.507  0.5779  0.0908 -1.5161
 4615SOL     OW25480   3.827   2.683   5.765  0.5395 -0.0727  0.0355
 4615SOL    HW125481   3.859   2.601   5.801 -1.4410 -0.0608  1.7922
 4615SOL    HW225482   3.781   2.647   5.689  0.3307 -0.3880  0.3131
 4616SOL     OW25483   2.779   1.960   6.848 -0.8149  0.6001 -0.0199
 4616SOL    HW125484   2.696   1.972   6.803 -0.4848  1.1739 -0.4723
 4616SOL    HW225485   2.820   2.038   6.812  0.6242  1.3173  3.1233
 4617SOL     OW25486   2.728   4.590  15.152  0.0104 -0.2639  0.0712
 4617SOL    HW125487   2.656   4.539  15.116 -0.9032  1.4213 -0.4885
 4617SOL    HW225488   2.799   4.527  15.136  0.2617 -0.2913  1.2950
 4618SOL     OW25489   1.632   3.699   7.311  0.3555  0.0746 -0.6076
 4618SOL    HW125490   1.605   3.742   7.230  0.8972 -0.5286 -1.1084
 4618SOL    HW225491   1.604   3.757   7.382 -0.1413 -2.4986  1.2843
 4619SOL     OW25492   1.656   0.257   7.153  0.3536  0.0490 -0.4791
 4619SOL    HW125493   1.603   0.267   7.231  0.9303  0.4096 -0.1329
 4619SOL    HW225494   1.686   0.169   7.173  0.0309  0.0033 -0.2102
 4620SOL     OW25495   2.539   1.357   6.401  0.2649  0.0277 -0.3733
 4620SOL    HW125496   2.628   1.322   6.403 -1.0833 -3.4098 -0.0524
 4620SOL    HW225497   2.565   1.426   6.462 -3.1849  1.4800 -0.5456
 4621SOL     OW25498   4.231   2.431  11.095 -0.3399 -0.2404  0.1671
 4621SOL    HW125499   4.230   2.346  11.138  0.7696  1.2892  3.2245
 4621SOL    HW225500   4.307   2.466  11.141  0.3655 -2.5217  0.7380
 4622SOL     OW25501   2.257   2.184   0.949 -0.4940 -0.1694  0.2467
 4622SOL    HW125502   2.294   2.100   0.977 -2.1809 -0.6148  1.1067
 4622SOL    HW225503   2.189   2.196   1.015  0.0428 -0.6245  0.8723
 4623SOL     OW25504   2.438   0.488   7.663 -0.2235 -0.3612  0.2850
 4623SOL    HW125505   2.348   0.511   7.639 -0.3476 -1.6191 -0.4771
 4623SOL    HW225506   2.475   0.575   7.675 -2.1994  0.4909  0.1519
 4624SOL     OW25507   1.396   3.810   3.471  0.0126  0.0620  0.3518
 4624SOL    HW125508   1.422   3.790   3.561 -0.9218 -1.1991  0.3499
 4624SOL    HW225509   1.478   3.831   3.427  0.3006  0.3643  1.0354
 4625SOL     OW25510   4.058   4.732   9.383  0.4376 -0.1443  0.6230
 4625SOL    HW125511   4.085   4.659   9.439 -3.2307 -1.2517  0.8991
 4625SOL    HW225512   4.023   0.052   9.452 -1.3059 -1.4898  0.8163
 4626SOL     OW25513   0.353   1.440   2.137  0.4432  0.4836  0.3076
 4626SOL    HW125514   0.328   1.432   2.229 -2.8988  0.2059 -0.6245
 4626SOL    HW225515   0.398   1.524   2.143  1.5968 -0.0678 -0.6010
 4627SOL     OW25516   0.740   4.551   4.198 -0.3252 -0.0821 -0.4963
 4627SOL    HW125517   0.654   4.581   4.170 -0.6774 -1.8805 -1.2903
 4627SOL    HW225518   0.770   4.622   4.255  0.0768 -2.2006  1.9346
 4628SOL     OW25519   3.467   1.591   7.769 -0.1908  0.2252  0.2158
 4628SOL    HW125520   3.474   1.497   7.752  0.2410  0.0889  1.1761
 4628SOL    HW225521   3.383   1.577   7.811 -1.4778  0.1754 -2.3668
 4629SOL     OW25522   1.805   1.930   6.721 -0.1292  0.2071  0.2933
 4629SOL    HW125523   1.746   1.893   6.787  1.3932  1.3742  2.3114
 4629SOL    HW225524   1.872   1.958   6.783  0.4201 -2.0347  0.7411
 4630SOL     OW25525   0.774   3.436   9.704  0.4278  0.1693  0.6740
 4630SOL    HW125526   0.792   3.387   9.784 -1.6023  0.3633  1.2550
 4630SOL    HW225527   0.859   3.439   9.660 -0.4616 -3.1192 -1.3146
 4631SOL     OW25528   0.245   3.428   1.534  1.0003  0.0113 -0.2648
 4631SOL    HW125529   0.198   3.495   1.584 -0.3161  0.1310 -1.6796
 4631SOL    HW225530   0.267   3.473   1.452  0.3397 -2.2165 -1.6432
 4632SOL     OW25531   4.056   0.753   5.081  0.4170  0.0928  0.1322
 4632SOL    HW125532   4.077   0.678   5.026  1.2346  0.8082 -0.5429
 4632SOL    HW225533   4.109   0.723   5.155 -0.3440  2.1475  1.5062
 4633SOL     OW25534   1.191   0.450   8.396  0.3828 -0.3293 -0.2090
 4633SOL    HW125535   1.155   0.369   8.430  0.2832 -0.8082 -1.4572
 4633SOL    HW225536   1.160   0.506   8.467 -1.0863  0.7468 -1.6850
 4634SOL     OW25537   4.213   0.111   9.200 -0.6545 -0.9230  1.2853
 4634SOL    HW125538   4.205   0.183   9.262  1.4256  0.7001 -0.3165
 4634SOL    HW225539   4.153   0.043   9.230 -0.5068 -1.0463  1.3031
 4635SOL     OW25540   4.659   0.970   3.515 -0.5273 -0.2486  0.0883
 4635SOL    HW125541   4.650   1.004   3.426  0.7535 -0.2293 -0.0449
 4635SOL    HW225542   4.732   1.027   3.538 -0.8709  0.8015 -1.4107
 4636SOL     OW25543   2.720   1.270   5.758  1.1449  0.4866 -0.1446
 4636SOL    HW125544   2.719   1.202   5.690 -3.0479  0.4371  0.0026
 4636SOL    HW225545   2.806   1.256   5.799  0.9070  1.3177  0.6234
 4637SOL     OW25546   3.284   4.515   2.350  0.1829  0.7630 -0.3751
 4637SOL    HW125547   3.191   4.538   2.342  0.5452  2.8078  1.3024
 4637SOL    HW225548   3.284   4.464   2.430 -0.2998 -1.3536 -1.7425
 4638SOL     OW25549   1.514   4.554   8.683 -0.5441  0.2375 -0.2261
 4638SOL    HW125550   1.604   4.528   8.701 -0.4873  0.7272  0.1928
 4638SOL    HW225551   1.501   4.612   8.758 -0.9932 -0.8319  0.5301
 4639SOL     OW25552   0.872   3.088   1.720  0.2353 -0.2178  0.1078
 4639SOL    HW125553   0.962   3.115   1.708  0.0001  1.0754  1.2152
 4639SOL    HW225554   0.882   2.993   1.725  2.1707 -0.0158 -0.0034
 4640SOL     OW25555   3.781   0.389   4.748  0.5369 -0.1239 -0.5275
 4640SOL    HW125556   3.749   0.407   4.660  0.3104 -0.4968 -0.5184
 4640SOL    HW225557   3.823   0.304   4.740 -0.2045 -0.5791  0.4014
 4641SOL     OW25558   3.563   2.243  13.105  0.6799 -0.0206  0.0484
 4641SOL    HW125559   3.566   2.151  13.131 -0.9029  0.1610  0.8944
 4641SOL    HW225560   3.594   2.245  13.015  0.2321  1.9947 -0.0679
 4642SOL     OW25561   3.229   2.402   8.766  0.0856 -0.3822 -0.4819
 4642SOL    HW125562   3.235   2.497   8.761  4.8658 -0.7865 -2.7008
 4642SOL    HW225563   3.167   2.382   8.836 -0.2557  1.7473 -0.1899
 4643SOL     OW25564   4.066   1.349   6.315 -0.1112  0.0378  0.5185
 4643SOL    HW125565   3.989   1.296   6.296  1.5926 -1.2301 -2.8618
 4643SOL    HW225566   4.130   1.278   6.323 -1.2259 -1.0704 -0.4632
 4644SOL     OW25567   2.410   4.276   3.952  0.4764  0.6764 -0.1886
 4644SOL    HW125568   2.399   4.277   3.856  1.3618  1.8624 -0.2835
 4644SOL    HW225569   2.373   4.364   3.963  1.5676  1.2104 -0.7480
 4645SOL     OW25570   2.730   0.741   6.766 -0.0103 -0.0771 -0.5070
 4645SOL    HW125571   2.712   0.715   6.676 -0.2669 -2.1914  0.1555
 4645SOL    HW225572   2.721   0.657   6.811  0.8194  0.5131  0.7608
 4646SOL     OW25573   1.025   0.381   3.064  0.1928  0.5709 -0.4892
 4646SOL    HW125574   1.116   0.363   3.041  0.6277  4.0202 -1.3045
 4646SOL    HW225575   0.996   0.304   3.114 -2.6410  1.9670  0.0261
 4647SOL     OW25576   3.095   4.233   7.593  0.4894 -0.2892  0.3693
 4647SOL    HW125577   3.140   4.158   7.633  0.7896 -0.3257 -0.0412
 4647SOL    HW225578   3.033   4.187   7.537 -0.6924  1.5857  0.1558
 4648SOL     OW25579   1.880   1.485   6.959  0.0752  0.1741 -0.4694
 4648SOL    HW125580   1.898   1.559   6.902  0.3270  0.3458 -0.1710
 4648SOL    HW225581   1.923   1.532   7.031 -0.8124 -0.6918  0.6267
 4649SOL     OW25582   2.496   2.633   1.998  0.4287 -0.1780 -0.0868
 4649SOL    HW125583   2.584   2.628   2.035  1.6803  2.4818 -2.7030
 4649SOL    HW225584   2.457   2.560   2.048  0.2058  1.1090  1.6275
 4650SOL     OW25585   1.583   3.983   7.711 -0.3323 -0.2654  0.2854
 4650SOL    HW125586   1.535   4.057   7.673 -1.5416 -1.5387 -0.6507
 4650SOL    HW225587   1.533   3.978   7.792 -0.4258  1.3316  0.3359
 4651SOL     OW25588   4.345   3.018  17.153  0.0850 -0.3192 -0.4601
 4651SOL    HW125589   4.272   3.001  17.094 -0.4413 -1.1123  0.4225
 4651SOL    HW225590   4.410   3.043  17.087 -2.1481  0.4031 -2.3494
 4652SOL     OW25591   1.528   3.735   7.608  0.1750  0.2783 -0.1033
 4652SOL    HW125592   1.556   3.824   7.630  0.2701  0.8425 -2.5298
 4652SOL    HW225593   1.432   3.740   7.605  0.3123  1.7191 -2.4253
 4653SOL     OW25594   1.235   0.984   7.576  0.4100 -0.7761 -0.4047
 4653SOL    HW125595   1.222   1.026   7.661  1.0211  3.3031 -2.3459
 4653SOL    HW225596   1.326   0.959   7.592  0.3682 -1.7854 -1.7317
 4654SOL     OW25597   0.917   2.110   1.027  0.4122 -0.0048 -0.1557
 4654SOL    HW125598   0.955   2.025   1.051  1.0298  0.0838 -0.8354
 4654SOL    HW225599   0.941   2.167   1.100 -2.8760  2.4133 -0.9460
 4655SOL     OW25600   4.573   0.371   6.209 -0.0743  0.0683  0.2112
 4655SOL    HW125601   4.516   0.365   6.285  0.8804  0.9059  1.0023
 4655SOL    HW225602   4.604   0.461   6.221 -0.6690  0.4067 -0.7673
 4656SOL     OW25603   4.326   3.415   5.331  0.2305 -0.3031 -0.3784
 4656SOL    HW125604   4.298   3.373   5.249 -0.7761 -0.5005  0.0644
 4656SOL    HW225605   4.414   3.447   5.312 -0.5361  1.9847 -0.1488
 4657SOL     OW25606   3.812   0.403   8.201  0.0540  0.4688  0.4501
 4657SOL    HW125607   3.902   0.373   8.195  0.1918  0.8930  0.4293
 4657SOL    HW225608   3.762   0.322   8.217 -0.7749  1.2830  2.0134
 4658SOL     OW25609   0.062   0.947   0.448 -0.1854 -0.0397 -0.5190
 4658SOL    HW125610   0.046   0.965   0.541 -0.0919  1.7243 -0.8528
 4658SOL    HW225611   0.014   0.864   0.441 -0.4852  0.1343 -0.5088
 4659SOL     OW25612   2.541   4.598   3.987 -0.0512 -0.5967  0.3476
 4659SOL    HW125613   2.557   4.515   4.032 -1.6278 -0.3439  1.3773
 4659SOL    HW225614   2.447   4.591   3.971 -0.3630 -2.8781  3.2290
 4660SOL     OW25615   1.400   2.334   2.734 -0.1222  0.4347 -0.2305
 4660SOL    HW125616   1.366   2.264   2.678  1.2285 -0.0847 -0.4063
 4660SOL    HW225617   1.368   2.294   2.815  2.4520  0.7408  0.9037
 4661SOL     OW25618   1.796   0.783   6.294  1.0067  0.1364  0.7957
 4661SOL    HW125619   1.769   0.847   6.228 -2.8086 -2.3861 -0.0928
 4661SOL    HW225620   1.806   0.710   6.233  1.2416  0.7946  0.0397
 4662SOL     OW25621   1.207   4.038   2.559  0.3723  0.0188 -0.1791
 4662SOL    HW125622   1.256   3.996   2.489 -0.4236 -1.3387  0.0830
 4662SOL    HW225623   1.254   4.121   2.563  0.1525 -0.0471  3.5926
 4663SOL     OW25624   0.680   4.326   5.917 -0.4373 -0.2714 -0.2990
 4663SOL    HW125625   0.690   4.323   6.012 -0.6305 -1.3270 -0.3167
 4663SOL    HW225626   0.688   4.415   5.883 -1.5658  0.7515  2.1312
 4664SOL     OW25627   2.876   4.181   3.911  0.2283  0.0839  0.5434
 4664SOL    HW125628   2.807   4.156   3.972 -0.0847 -2.5937 -0.8647
 4664SOL    HW225629   2.861   4.111   3.847 -1.6885  0.8352  0.1704
 4665SOL     OW25630   3.855   3.066   4.314  0.9208 -0.5680 -0.0803
 4665SOL    HW125631   3.833   3.098   4.227 -0.2132  2.6532  1.3672
 4665SOL    HW225632   3.911   3.140   4.338  1.4115 -0.8982 -0.2044
 4666SOL     OW25633   2.297   2.836  13.804  0.2621  0.6915 -0.4274
 4666SOL    HW125634   2.374   2.886  13.830 -0.7805  2.4080 -0.6296
 4666SOL    HW225635   2.254   2.899  13.746  1.1996  2.4202  0.7586
 4667SOL     OW25636   2.165   3.268   0.433 -0.3590  0.1000  0.0684
 4667SOL    HW125637   2.106   3.324   0.483  1.0313  0.0039  1.7819
 4667SOL    HW225638   2.245   3.280   0.483 -0.0193 -1.0833 -0.1862
 4668SOL     OW25639   4.490   0.882   2.044 -0.3267  0.1535 -0.5163
 4668SOL    HW125640   4.460   0.798   2.009  1.0992 -0.2912 -0.6618
 4668SOL    HW225641   4.576   0.894   2.004  0.1792 -0.8191  0.2640
 4669SOL     OW25642   2.299   2.990   2.225  0.0677 -0.5530  0.2223
 4669SOL    HW125643   2.293   2.949   2.139 -0.5541 -0.8100  0.3946
 4669SOL    HW225644   2.225   2.959   2.277  0.6064 -3.0485 -0.5043
 4670SOL     OW25645   3.178   4.715   5.696  0.3928  0.0263 -0.0526
 4670SOL    HW125646   3.185   4.671   5.780  1.7795 -1.3135 -0.8871
 4670SOL    HW225647   3.164   4.640   5.639 -1.6480  0.5190 -0.2163
 4671SOL     OW25648   3.694   2.831  13.729  0.2577  0.1772 -0.2920
 4671SOL    HW125649   3.736   2.861  13.809  1.1315 -0.6063 -0.4549
 4671SOL    HW225650   3.735   2.894  13.670  1.8973 -0.0554  0.6071
 4672SOL     OW25651   0.087   1.591  17.068  0.7691 -0.2837  0.8620
 4672SOL    HW125652   0.089   1.646  16.989 -1.4053 -0.7934  0.4563
 4672SOL    HW225653   0.103   1.666  17.125 -3.5602  2.0688 -0.9815
 4673SOL     OW25654   2.478   4.580   8.005  0.0021 -0.0577 -0.5762
 4673SOL    HW125655   2.471   4.548   7.915  2.1862 -0.5400 -0.5876
 4673SOL    HW225656   2.491   4.495   8.047 -0.3318  0.1485 -0.0582
 4674SOL     OW25657   0.092   4.351   7.146 -0.1207 -0.3273  0.0688
 4674SOL    HW125658   0.138   4.291   7.206 -1.9879 -0.4236  1.3979
 4674SOL    HW225659   0.142   4.347   7.064 -1.1250 -0.5246 -0.5313
 4675SOL     OW25660   0.922   2.044  17.336 -0.5406  0.3442  1.0219
 4675SOL    HW125661   0.865   2.114  17.369 -0.4758 -0.2754  2.4300
 4675SOL    HW225662   1.011   2.075  17.354 -0.5006  1.2125 -0.5752
 4676SOL     OW25663   3.618   2.689   8.156  0.0181 -0.2873  0.4751
 4676SOL    HW125664   3.649   2.617   8.210  0.3432 -0.1862  0.4221
 4676SOL    HW225665   3.697   2.703   8.104 -0.5088  0.9550  0.0104
 4677SOL     OW25666   4.500   1.685   2.928 -0.6822  0.3923 -0.1648
 4677SOL    HW125667   4.433   1.620   2.951 -1.3292  1.1320  0.0462
 4677SOL    HW225668   4.516   1.650   2.840  0.0216 -0.2837  0.2375
 4678SOL     OW25669   0.811   2.562   9.249  0.8303 -0.3841 -0.4513
 4678SOL    HW125670   0.801   2.630   9.183  2.3846 -1.3080 -1.6372
 4678SOL    HW225671   0.879   2.501   9.220  0.8304  0.1604 -1.5858
 4679SOL     OW25672   2.551   1.126  15.664  0.7254 -0.0250 -0.2429
 4679SOL    HW125673   2.567   1.037  15.631 -2.5375 -0.6195 -0.2674
 4679SOL    HW225674   2.613   1.174  15.609  1.6641 -0.8147  0.1238
 4680SOL     OW25675   1.609   1.011   2.376 -0.1962  0.0997 -0.3011
 4680SOL    HW125676   1.567   1.068   2.312 -1.7770 -0.0768  0.5650
 4680SOL    HW225677   1.668   0.959   2.322  1.2051  1.2632  0.1271
 4681SOL     OW25678   2.369   1.418   5.952 -0.5664 -0.0583 -0.3427
 4681SOL    HW125679   2.282   1.458   5.952 -0.6060 -0.1854 -3.2889
 4681SOL    HW225680   2.399   1.466   6.029 -2.4828  2.3303 -1.0627
 4682SOL     OW25681   1.472   0.962   8.874 -1.0181 -0.4059  0.6091
 4682SOL    HW125682   1.422   1.032   8.831  0.1943 -1.0677 -1.8991
 4682SOL    HW225683   1.457   0.898   8.804 -2.3800  0.5283  0.0571
 4683SOL     OW25684   4.716   2.303   9.783 -0.3226  0.0542  0.4931
 4683SOL    HW125685   4.720   2.338   9.871 -0.5314 -1.3769  1.0746
 4683SOL    HW225686   0.073   2.283   9.782 -0.0391  1.3863 -0.7109
 4684SOL     OW25687   4.318   1.853   2.777  0.7010 -0.0384 -0.3501
 4684SOL    HW125688   4.383   1.825   2.713 -0.8695 -1.7121 -1.2073
 4684SOL    HW225689   4.350   1.821   2.861 -0.6081 -0.0830  0.1297
 4685SOL     OW25690   2.048   3.770   8.572 -0.0015 -0.3791 -0.7800
 4685SOL    HW125691   1.982   3.772   8.641  3.4942 -0.0328  2.5534
 4685SOL    HW225692   1.994   3.805   8.502 -1.5523 -0.3654  0.4358
 4686SOL     OW25693   1.824   2.119   2.740  0.0412  0.0798  0.5131
 4686SOL    HW125694   1.854   2.143   2.828 -0.7502 -2.6332  1.5102
 4686SOL    HW225695   1.840   2.199   2.689 -0.3697 -0.4063 -0.3732
 4687SOL     OW25696   1.127   2.122   4.960  0.4713  0.2362  0.5645
 4687SOL    HW125697   1.058   2.057   4.971 -0.0612  0.6695 -0.2143
 4687SOL    HW225698   1.176   2.082   4.888 -1.0355  0.4733 -0.6016
 4688SOL     OW25699   3.763   2.269   7.688  0.4014  0.8000  0.1089
 4688SOL    HW125700   3.700   2.298   7.754  0.3373  0.5322  0.1650
 4688SOL    HW225701   3.766   2.174   7.689  0.3715  0.7995  0.1256
 4689SOL     OW25702   2.177   2.400   8.517 -0.3504  0.3486 -0.8017
 4689SOL    HW125703   2.266   2.407   8.551  0.2175  1.1832 -2.4460
 4689SOL    HW225704   2.137   2.349   8.588  0.7834  0.1874 -0.2804
 4690SOL     OW25705   4.704   2.561   7.086  0.1236  0.1687  0.3709
 4690SOL    HW125706   4.616   2.522   7.086  0.6261 -0.9610  0.9741
 4690SOL    HW225707   0.017   2.514   7.153 -0.5094  0.2126  0.8752
 4691SOL     OW25708   1.262   2.235   0.955 -0.3731 -0.2955 -0.0631
 4691SOL    HW125709   1.249   2.145   0.928  0.9407 -0.3838 -0.4025
 4691SOL    HW225710   1.355   2.227   0.978 -0.4775  0.6656  0.6782
 4692SOL     OW25711   1.834   1.087   0.195 -0.3776  0.4856  0.2459
 4692SOL    HW125712   1.754   1.132   0.164  0.6486  0.3226 -2.6614
 4692SOL    HW225713   1.909   1.123   0.148 -1.2159  1.8348 -0.0643
 4693SOL     OW25714   0.403   2.567   3.465  0.3124  0.1544  0.3229
 4693SOL    HW125715   0.357   2.582   3.548  0.1398  0.2820  0.2027
 4693SOL    HW225716   0.477   2.510   3.487 -0.6909 -1.0840  0.4903
 4694SOL     OW25717   2.254   3.732   8.383 -0.0705 -0.5753  0.4063
 4694SOL    HW125718   2.195   3.774   8.446 -0.2248  1.6178 -1.1911
 4694SOL    HW225719   2.333   3.752   8.431 -0.8556 -0.4616  1.6454
 4695SOL     OW25720   3.221   0.984   3.109  0.2272  0.0244  0.3932
 4695SOL    HW125721   3.296   0.928   3.126  1.2088  1.5301  1.0369
 4695SOL    HW225722   3.232   1.047   3.180  0.8523  0.9878 -0.5491
 4696SOL     OW25723   0.772   0.853   3.426  0.2340 -0.3898 -0.1683
 4696SOL    HW125724   0.718   0.900   3.362 -0.3756 -3.0592 -1.5953
 4696SOL    HW225725   0.834   0.918   3.460  0.2478 -0.3069 -0.3561
 4697SOL     OW25726   4.096   0.680   8.738 -0.3431  0.2807  0.1026
 4697SOL    HW125727   4.126   0.607   8.683  0.8367  2.3980 -2.0681
 4697SOL    HW225728   4.080   0.638   8.823 -0.4591 -0.6616 -0.3788
 4698SOL     OW25729   0.420   3.889   7.314  0.4951 -0.1013 -0.3820
 4698SOL    HW125730   0.441   3.967   7.365  0.0293  0.6282 -1.2973
 4698SOL    HW225731   0.339   3.850   7.348  0.2114  0.1998 -0.7016
 4699SOL     OW25732   1.103   0.595   8.597  0.7368  0.2685 -0.6205
 4699SOL    HW125733   1.030   0.655   8.610  0.4391 -0.2589  0.1569
 4699SOL    HW225734   1.141   0.584   8.685  0.1239  0.6303 -0.3113
 4700SOL     OW25735   2.225   3.609   7.954 -0.4032  0.0731 -0.1020
 4700SOL    HW125736   2.234   3.682   8.016 -0.5273  0.5674 -0.6659
 4700SOL    HW225737   2.166   3.649   7.891 -0.0424 -1.1348 -1.2081
 4701SOL     OW25738   0.272   0.605   8.967  0.2178  0.1877 -0.1657
 4701SOL    HW125739   0.183   0.642   8.964  0.2792  0.1772 -1.7529
 4701SOL    HW225740   0.271   0.576   9.059 -2.5114  2.6624  0.5776
 4702SOL     OW25741   2.694   3.677  15.747  0.0225 -0.2359  0.1588
 4702SOL    HW125742   2.618   3.672  15.689 -0.9819  0.7638  1.3824
 4702SOL    HW225743   2.764   3.680  15.682 -0.0378 -1.6232  0.0295
 4703SOL     OW25744   3.993   3.332   8.358 -0.2832  0.3437 -0.1567
 4703SOL    HW125745   4.033   3.419   8.355 -1.5457  0.9318  0.3171
 4703SOL    HW225746   3.971   3.329   8.451  2.2070  0.1103  0.4335
 4704SOL     OW25747   0.805   0.145   2.075 -0.4229 -0.7491  0.1608
 4704SOL    HW125748   0.863   0.072   2.098  0.8151  0.7385  1.7421
 4704SOL    HW225749   0.872   0.212   2.067  0.6563 -2.0468 -1.4667
 4705SOL     OW25750   0.278   1.407   4.801 -0.0832  0.2826  0.6678
 4705SOL    HW125751   0.308   1.321   4.831 -0.2186 -0.0664 -0.2001
 4705SOL    HW225752   0.297   1.392   4.708 -3.0064 -3.4529  0.6463
 4706SOL     OW25753   3.402   2.327   4.180 -0.3039  0.6976  0.2179
 4706SOL    HW125754   3.323   2.331   4.235 -1.4202 -0.7547 -1.3066
 4706SOL    HW225755   3.357   2.373   4.109  0.6335  1.3411  0.0541
 4707SOL     OW25756   3.093   2.556   5.694 -0.2117 -0.0137 -0.0375
 4707SOL    HW125757   3.187   2.545   5.709 -0.3448 -0.5738  0.4040
 4707SOL    HW225758   3.085   2.651   5.695  0.8876  0.1044 -1.8947
 4708SOL     OW25759   4.486   2.381   6.164 -0.8324 -0.3089 -0.3429
 4708SOL    HW125760   4.508   2.321   6.235  2.8653  0.8603 -0.5321
 4708SOL    HW225761   4.576   2.409   6.151 -0.3830 -1.0667  1.1553
 4709SOL     OW25762   1.701   1.009   0.705 -0.2585 -0.9989 -0.2612
 4709SOL    HW125763   1.745   1.003   0.621  0.6408  0.8923  0.0790
 4709SOL    HW225764   1.654   0.925   0.701  1.1201 -1.7574 -0.5469
 4710SOL     OW25765   1.193   2.723   3.932  0.4604  0.5372  0.6020
 4710SOL    HW125766   1.218   2.796   3.989 -0.4750  2.2662 -1.2181
 4710SOL    HW225767   1.099   2.737   3.918  0.2117 -0.7941  0.9101
 4711SOL     OW25768   1.192   2.244   5.546  0.1207 -0.2312  0.0806
 4711SOL    HW125769   1.202   2.207   5.459  1.9395 -1.2780  0.7258
 4711SOL    HW225770   1.241   2.178   5.595  0.2631 -0.0433  0.1900
 4712SOL     OW25771   0.767   0.656   1.545 -0.0632 -0.6798  0.3267
 4712SOL    HW125772   0.771   0.574   1.595  0.6713 -1.7908 -1.5778
 4712SOL    HW225773   0.817   0.713   1.603  0.7149 -0.2594 -0.7515
 4713SOL     OW25774   1.570   3.574   4.651 -0.3595 -0.1555  0.1744
 4713SOL    HW125775   1.663   3.564   4.631 -0.2596  0.9936  0.0831
 4713SOL    HW225776   1.534   3.613   4.571 -3.4299 -2.6007  0.3277
 4714SOL     OW25777   1.645   0.694  17.331  0.5254 -0.3139 -0.1770
 4714SOL    HW125778   1.579   0.632  17.362  0.5426  0.5190  1.5364
 4714SOL    HW225779   1.711   0.625  17.325  0.0596 -0.6807 -1.0926
 4715SOL     OW25780   0.373   0.289   5.336 -0.1494  0.5404  0.2016
 4715SOL    HW125781   0.322   0.333   5.405  3.3931  0.7779  2.6703
 4715SOL    HW225782   0.347   0.347   5.264  0.4499 -0.6851 -0.9954
 4716SOL     OW25783   4.356   1.202   6.135 -0.5322 -0.2381 -0.0237
 4716SOL    HW125784   4.350   1.180   6.228 -0.0995 -2.6123 -0.5700
 4716SOL    HW225785   4.267   1.235   6.121 -0.5899 -1.2037 -1.8812
 4717SOL     OW25786   1.106   2.713   7.917  0.5797  0.2198 -0.3349
 4717SOL    HW125787   1.110   2.619   7.937  1.0607  0.3426  0.1168
 4717SOL    HW225788   1.131   2.741   8.004 -0.8759  0.3756  0.0389
 4718SOL     OW25789   4.435   4.396   7.673 -0.1230 -0.2248 -0.7845
 4718SOL    HW125790   4.462   4.424   7.761  0.0370  2.4732 -1.6888
 4718SOL    HW225791   4.359   4.343   7.697  0.5047 -0.0594  1.5632
 4719SOL     OW25792   4.029   0.746   7.461  0.5693 -0.4821  0.1543
 4719SOL    HW125793   4.095   0.694   7.508 -0.2020 -0.4927  1.2318
 4719SOL    HW225794   3.947   0.700   7.479  1.5525 -2.6020 -0.8630
 4720SOL     OW25795   4.024   4.270   2.328 -0.3247  0.0075 -0.0951
 4720SOL    HW125796   3.953   4.325   2.362 -1.3144 -0.6177 -1.1967
 4720SOL    HW225797   4.077   4.264   2.408  0.2563  1.2229 -0.3763
 4721SOL     OW25798   1.647   0.852   0.095 -0.2195 -0.5399  0.3595
 4721SOL    HW125799   1.700   0.806   0.160  0.6898 -0.2470 -0.1743
 4721SOL    HW225800   1.693   0.844   0.011  0.4533 -0.1349  0.6908
 4722SOL     OW25801   2.817   3.098   6.422 -0.4620 -0.1506  0.5365
 4722SOL    HW125802   2.878   3.047   6.475 -0.1883 -1.1228 -0.7385
 4722SOL    HW225803   2.788   3.039   6.353  1.4616 -0.4516 -0.0114
 4723SOL     OW25804   0.399   2.402  11.545 -0.2510  0.2813 -0.5354
 4723SOL    HW125805   0.460   2.332  11.569  0.2962  1.2493  0.8526
 4723SOL    HW225806   0.320   2.380  11.595  0.5208 -1.6358 -0.1439
 4724SOL     OW25807   2.179   0.538   8.537 -0.3160 -0.3980  0.1015
 4724SOL    HW125808   2.261   0.586   8.542 -0.2207 -0.7384  1.8073
 4724SOL    HW225809   2.124   0.607   8.501  0.7009  1.2565  1.7804
 4725SOL     OW25810   1.396   0.050  15.229 -0.7840  0.3806  0.1553
 4725SOL    HW125811   1.463   0.112  15.262  1.3124 -0.2712 -2.9042
 4725SOL    HW225812   1.346   0.027  15.307  0.2601  0.2862  0.8118
 4726SOL     OW25813   1.634   1.652  12.680  0.3486 -0.2059  0.4574
 4726SOL    HW125814   1.634   1.660  12.584  1.6349  0.9887  0.5545
 4726SOL    HW225815   1.600   1.737  12.708 -0.7534 -0.7943  0.9005
 4727SOL     OW25816   2.421   3.276  12.503 -0.5745 -0.8806 -0.3358
 4727SOL    HW125817   2.400   3.193  12.547 -2.5999 -0.1915 -0.0233
 4727SOL    HW225818   2.381   3.337  12.565  0.0462 -0.5558 -0.2579
 4728SOL     OW25819   1.291   0.362   4.622 -0.0072  0.7208 -0.1510
 4728SOL    HW125820   1.376   0.325   4.598 -0.6300  0.5412 -2.0303
 4728SOL    HW225821   1.245   0.280   4.639  1.7900 -0.1986  0.1997
 4729SOL     OW25822   2.210   2.695   3.129 -0.2994 -0.0913 -0.1455
 4729SOL    HW125823   2.281   2.709   3.191 -1.2557 -1.0137  1.1557
 4729SOL    HW225824   2.168   2.781   3.122  0.5931  0.5059  1.7734
 4730SOL     OW25825   2.521   1.180   8.090 -0.1627  0.5185  0.4313
 4730SOL    HW125826   2.539   1.208   8.000 -1.9193 -1.8897 -0.6903
 4730SOL    HW225827   2.581   1.238   8.136 -0.0782  1.0480 -0.3552
 4731SOL     OW25828   1.968   4.273  17.689 -0.8151  0.0403 -0.6626
 4731SOL    HW125829   2.028   4.253  17.618  1.1745  2.5222  0.3335
 4731SOL    HW225830   1.980   4.204   0.010 -0.6640  1.1379  0.4534
 4732SOL     OW25831   1.774   0.417  16.065  0.5976  0.0529 -0.1340
 4732SOL    HW125832   1.761   0.322  16.077 -0.8159  0.5665  2.4793
 4732SOL    HW225833   1.744   0.431  15.976  0.3024 -1.1744 -0.2284
 4733SOL     OW25834   1.437   2.439  17.678  0.0399 -0.4638  0.3800
 4733SOL    HW125835   1.474   2.509  17.732  1.3717 -1.0032  0.1603
 4733SOL    HW225836   1.481   2.358  17.703 -0.3859 -1.0238 -0.6614
 4734SOL     OW25837   4.221   2.324   9.417 -0.4800 -0.1680  0.1047
 4734SOL    HW125838   4.228   2.340   9.323  0.5622 -2.5724 -0.2337
 4734SOL    HW225839   4.254   2.234   9.416  3.1842  1.1780 -0.6758
 4735SOL     OW25840   4.106   3.574   2.743  0.6215 -0.0409  0.0642
 4735SOL    HW125841   4.133   3.548   2.655 -1.4807  0.5183 -0.7434
 4735SOL    HW225842   4.040   3.636   2.711  0.1829 -0.8017 -0.4932
 4736SOL     OW25843   4.156   1.446  16.852 -0.1660 -0.1768  0.2002
 4736SOL    HW125844   4.200   1.510  16.796  1.6990 -0.4528  1.3246
 4736SOL    HW225845   4.150   1.504  16.929  0.8653  2.3605 -1.6263
 4737SOL     OW25846   0.230   1.227  15.640 -0.1619 -0.5074 -0.0724
 4737SOL    HW125847   0.264   1.146  15.603 -0.4712 -1.5304  1.8615
 4737SOL    HW225848   0.306   1.274  15.675  1.1215 -2.0313 -0.8547
 4738SOL     OW25849   3.985   2.270   6.371 -0.1220 -0.5249 -0.1872
 4738SOL    HW125850   4.062   2.233   6.415 -1.7124 -3.5723  0.0484
 4738SOL    HW225851   3.918   2.204   6.389 -1.1279  0.7694  0.7129
 4739SOL     OW25852   4.473   1.749   8.860 -0.2621  0.2742 -0.3881
 4739SOL    HW125853   4.497   1.720   8.948  1.4840 -1.4495 -1.4274
 4739SOL    HW225854   4.435   1.669   8.823  1.1702 -0.0731 -1.1029
 4740SOL     OW25855   3.937   4.131   3.288  0.3618  0.5040 -0.0706
 4740SOL    HW125856   4.012   4.179   3.325 -1.8885  2.4302  2.0227
 4740SOL    HW225857   3.877   4.124   3.363 -0.7641 -1.2392 -1.1301
 4741SOL     OW25858   0.976   0.787   2.492 -0.0229 -0.4596  0.0913
 4741SOL    HW125859   1.003   0.868   2.450  1.3799 -1.4748 -0.9627
 4741SOL    HW225860   1.012   0.721   2.432  0.8230  1.1084 -1.1148
 4742SOL     OW25861   2.411   2.154   9.107  0.1222 -0.2677  0.1139
 4742SOL    HW125862   2.465   2.124   9.035 -2.7876  0.3306 -2.3319
 4742SOL    HW225863   2.343   2.194   9.053 -1.0400 -1.4843  0.6613
 4743SOL     OW25864   1.463   4.486  12.054 -0.4109  0.8854 -0.0483
 4743SOL    HW125865   1.473   4.398  12.091 -0.6035  1.1008  0.4964
 4743SOL    HW225866   1.432   4.475  11.964  1.2101 -1.9095 -0.2741
 4744SOL     OW25867   3.220   0.387   3.271 -0.2522  0.0360  0.0382
 4744SOL    HW125868   3.219   0.384   3.175 -1.0940  1.6073 -0.0071
 4744SOL    HW225869   3.262   0.305   3.294 -1.2935 -0.6699 -0.5856
 4745SOL     OW25870   2.851   1.518   7.826 -0.1085  0.0948  0.1871
 4745SOL    HW125871   2.891   1.590   7.776  0.0820 -0.0226  0.1721
 4745SOL    HW225872   2.783   1.501   7.761 -1.6551  2.7727  1.0877
 4746SOL     OW25873   1.554   4.469   9.191  0.7773 -0.3357  0.2879
 4746SOL    HW125874   1.645   4.443   9.176  1.0367  0.8134 -0.1333
 4746SOL    HW225875   1.574   4.520   9.269 -1.8287  0.1523  0.6246
 4747SOL     OW25876   4.651   0.138   4.964 -0.6113 -0.0831 -0.2221
 4747SOL    HW125877   4.617   0.139   5.053 -2.8112  1.1783 -1.0836
 4747SOL    HW225878   4.578   0.133   4.903 -0.7408 -0.1196 -0.0622
 4748SOL     OW25879   0.726   4.456   3.398 -0.3246 -0.1789  0.2017
 4748SOL    HW125880   0.688   4.509   3.328 -1.3252  1.0203  1.6413
 4748SOL    HW225881   0.795   4.515   3.427  0.0526 -0.5936  0.1418
 4749SOL     OW25882   3.958   0.194   5.835 -0.0197 -0.4615 -0.1591
 4749SOL    HW125883   3.925   0.159   5.752  2.2361 -0.3355 -1.1033
 4749SOL    HW225884   4.018   0.124   5.862 -0.6661 -0.8973  0.1511
 4750SOL     OW25885   4.067   1.835   5.811 -0.0954 -0.1644  0.0764
 4750SOL    HW125886   4.018   1.803   5.887  1.1522 -1.2234  0.4178
 4750SOL    HW225887   4.133   1.767   5.801  2.8054  2.7539 -0.3425
 4751SOL     OW25888   0.850   3.470   5.327 -0.5018 -0.0988 -0.2419
 4751SOL    HW125889   0.915   3.416   5.373 -1.5124 -0.4399  0.7685
 4751SOL    HW225890   0.880   3.457   5.237 -1.2045 -0.9181 -0.3517
 4752SOL     OW25891   0.297   4.344   6.208  0.3231  0.3456  0.3833
 4752SOL    HW125892   0.265   4.291   6.135 -2.4705  2.5807 -0.0216
 4752SOL    HW225893   0.266   4.432   6.185 -4.0502 -0.7378  2.0954
 4753SOL     OW25894   1.657   2.257  12.163  0.4367  0.7563  0.0624
 4753SOL    HW125895   1.602   2.266  12.086  0.2159  2.2224  0.4095
 4753SOL    HW225896   1.602   2.280  12.238 -0.2708  0.5072 -0.3819
 4754SOL     OW25897   0.710   1.845   0.274 -0.2103  0.5836  0.2057
 4754SOL    HW125898   0.728   1.854   0.368  0.5478  0.0557  0.1135
 4754SOL    HW225899   0.795   1.877   0.245 -0.2818  2.6763  2.2766
 4755SOL     OW25900   1.720   0.628  14.753  0.1716  0.1964  0.7570
 4755SOL    HW125901   1.759   0.541  14.740 -3.0606 -1.2909  0.9248
 4755SOL    HW225902   1.705   0.653  14.662  1.6270  0.1124  0.4971
 4756SOL     OW25903   0.445   4.610   2.582 -0.1740 -0.1131 -0.1796
 4756SOL    HW125904   0.451   4.516   2.563 -3.0262  0.3568 -3.4454
 4756SOL    HW225905   0.480   4.612   2.671  0.6652 -1.4429 -0.4843
 4757SOL     OW25906   2.472   0.211   6.069 -0.7247  0.3446  0.2994
 4757SOL    HW125907   2.500   0.150   6.137 -0.2222  0.5238  0.2529
 4757SOL    HW225908   2.441   0.144   6.008  1.9334  0.4707 -1.1936
 4758SOL     OW25909   3.825   0.189  12.753  0.1346 -0.2932  0.7814
 4758SOL    HW125910   3.849   0.268  12.801  1.3992  0.3995 -0.9982
 4758SOL    HW225911   3.835   0.227  12.666  0.8535  1.4220  1.6097
 4759SOL     OW25912   4.633   0.643  10.305  0.3275 -0.2887  0.0100
 4759SOL    HW125913   4.671   0.578  10.246  3.0260 -0.5177  1.9983
 4759SOL    HW225914   4.551   0.663  10.260  0.3951 -2.0080 -0.9073
 4760SOL     OW25915   4.614   2.913   3.443 -0.5798 -0.1829 -0.4352
 4760SOL    HW125916   4.585   2.827   3.411  0.9664 -1.2649  1.1104
 4760SOL    HW225917   4.705   2.908   3.412  0.2319 -0.5461  2.0716
 4761SOL     OW25918   1.665   3.849   3.403 -0.5011 -0.1109 -0.5858
 4761SOL    HW125919   1.743   3.900   3.428 -0.2865 -0.5264 -0.4140
 4761SOL    HW225920   1.700   3.764   3.427 -1.6693 -0.5588 -0.4701
 4762SOL     OW25921   0.968   3.966   8.736  0.7270 -0.2078 -0.2713
 4762SOL    HW125922   1.033   3.993   8.800 -0.3205  0.8659  0.3353
 4762SOL    HW225923   1.009   3.980   8.650 -1.3283  0.0451 -1.2231
 4763SOL     OW25924   4.590   2.982  15.083 -0.5890 -0.1823 -0.7879
 4763SOL    HW125925   4.619   3.060  15.037 -0.7203  0.4395  0.1836
 4763SOL    HW225926   4.619   2.917  15.019  0.1002  0.6726 -1.3462
 4764SOL     OW25927   2.315   2.870   7.953 -0.0402  0.2004 -0.0080
 4764SOL    HW125928   2.404   2.838   7.943 -0.7656 -1.4816 -1.2231
 4764SOL    HW225929   2.322   2.958   7.989  3.2859  1.3108 -3.4350
 4765SOL     OW25930   4.213   0.924   1.607  0.5218 -0.1844  0.0641
 4765SOL    HW125931   4.218   0.972   1.525  0.1152 -0.1184  0.0740
 4765SOL    HW225932   4.257   0.982   1.669  0.4479  0.7203 -0.7474
 4766SOL     OW25933   3.185   0.212   2.401 -0.1476 -0.4500 -0.3002
 4766SOL    HW125934   3.097   0.223   2.438  0.1151  0.2109  0.1286
 4766SOL    HW225935   3.171   0.180   2.312 -0.2447 -2.4616  0.4304
 4767SOL     OW25936   3.256   2.144  17.344 -0.6957 -0.5971  0.0672
 4767SOL    HW125937   3.226   2.232  17.366 -0.8376 -0.6539  0.0999
 4767SOL    HW225938   3.338   2.164  17.298 -0.9915 -0.7811 -0.5350
 4768SOL     OW25939   0.921   4.095  17.141  0.3567  0.1095 -0.2235
 4768SOL    HW125940   0.987   4.162  17.154  0.3709  0.2475 -1.0582
 4768SOL    HW225941   0.973   4.015  17.155 -1.5719 -0.7540  2.1685
 4769SOL     OW25942   2.419   3.084   0.065  0.0234 -0.6655  0.4773
 4769SOL    HW125943   2.396   3.009   0.010  1.1964 -2.6526  2.6953
 4769SOL    HW225944   2.361   3.060   0.138 -0.5069 -1.3870 -0.1805
 4770SOL     OW25945   3.060   1.447   7.694 -0.0174 -0.7689  0.3504
 4770SOL    HW125946   2.984   1.463   7.750  0.0744 -1.8010  0.7619
 4770SOL    HW225947   3.036   1.479   7.607  1.8646  0.8192  0.4189
 4771SOL     OW25948   4.630   4.168   5.647  0.2295 -0.0472  0.5488
 4771SOL    HW125949   4.726   4.177   5.644  0.3723 -1.3833  1.0371
 4771SOL    HW225950   4.622   4.184   5.741 -2.6122 -0.7040  0.3956
 4772SOL     OW25951   1.011   1.211   1.525 -0.5540 -0.0222 -0.1923
 4772SOL    HW125952   1.035   1.300   1.496  1.7524 -0.4495  0.4126
 4772SOL    HW225953   1.028   1.159   1.446  0.3780 -2.4114  1.5922
 4773SOL     OW25954   1.164   3.645   0.492  0.7101 -0.7893  0.1703
 4773SOL    HW125955   1.253   3.679   0.481 -0.9581  3.0425 -1.5780
 4773SOL    HW225956   1.192   3.554   0.492  0.7883 -0.7510 -2.0516
 4774SOL     OW25957   0.268   1.491   9.332 -0.3663 -0.3579  0.2127
 4774SOL    HW125958   0.360   1.516   9.332 -0.2894 -0.6283 -1.5890
 4774SOL    HW225959   0.270   1.414   9.275 -0.6048 -0.1469 -0.0742
 4775SOL     OW25960   0.638   0.585   0.153 -0.4659  0.1468  0.0969
 4775SOL    HW125961   0.550   0.571   0.188 -0.6534  0.3285 -0.3006
 4775SOL    HW225962   0.650   0.529   0.076  0.6231 -0.5347  0.7698
 4776SOL     OW25963   1.290   4.224  17.337 -0.1235  0.3861  0.2399
 4776SOL    HW125964   1.212   4.259  17.293  0.4627 -2.2385 -2.9054
 4776SOL    HW225965   1.259   4.134  17.349  0.9622 -0.1132 -0.6685
 4777SOL     OW25966   4.328   2.714   4.537 -0.0945 -0.6749 -0.4387
 4777SOL    HW125967   4.244   2.693   4.497 -0.1070 -0.5239 -0.4891
 4777SOL    HW225968   4.399   2.690   4.476  1.0916 -3.1520  1.9205
 4778SOL     OW25969   0.555   3.475   1.673  0.0224  0.3985 -0.2729
 4778SOL    HW125970   0.531   3.533   1.601  0.2178 -0.7016 -1.2460
 4778SOL    HW225971   0.588   3.399   1.624  1.1297  0.6703  0.0446
 4779SOL     OW25972   3.748   1.861  17.629 -0.0386  0.1798 -0.0394
 4779SOL    HW125973   3.669   1.807  17.638  1.8418 -2.1686  2.0930
 4779SOL    HW225974   3.716   1.931  17.571  1.3314  1.2395  0.5073
 4780SOL     OW25975   2.989   1.192   6.972  0.2057  0.3918 -0.3908
 4780SOL    HW125976   2.952   1.104   6.969 -0.8762  0.8555 -0.6477
 4780SOL    HW225977   3.080   1.179   6.946  0.5885  0.6609  0.7965
 4781SOL     OW25978   1.152   1.056   0.461 -0.3345 -0.4111 -0.0915
 4781SOL    HW125979   1.108   0.987   0.510 -1.0983 -0.4907 -0.8964
 4781SOL    HW225980   1.089   1.057   0.389 -0.1758  0.7689 -0.2145
 4782SOL     OW25981   3.343   1.635   9.140 -0.2280 -0.3964  0.1908
 4782SOL    HW125982   3.319   1.718   9.098 -0.2153  0.2085  1.3988
 4782SOL    HW225983   3.353   1.577   9.065 -0.5247  1.0992 -1.0165
 4783SOL     OW25984   0.981   1.852   1.077 -0.0151 -0.4278 -0.1318
 4783SOL    HW125985   0.952   1.793   1.008  1.5953 -2.3045  0.7728
 4783SOL    HW225986   1.073   1.826   1.083  0.0405  0.2062  1.8284
 4784SOL     OW25987   3.410   0.802   5.752  0.4285  0.0065 -0.2207
 4784SOL    HW125988   3.501   0.782   5.730  0.4849  0.0293 -0.0049
 4784SOL    HW225989   3.380   0.724   5.705  0.5940  0.0456 -0.3938
 4785SOL     OW25990   0.241   4.568   6.012  0.7388 -0.7159  0.1518
 4785SOL    HW125991   0.147   4.576   5.997  0.6248 -0.9479  0.7375
 4785SOL    HW225992   0.275   4.608   5.932 -0.5220 -0.5747 -0.3101
 4786SOL     OW25993   4.398   2.869  13.621 -0.2280 -1.2880 -0.3105
 4786SOL    HW125994   4.443   2.952  13.611  1.9026 -1.8524  5.0394
 4786SOL    HW225995   4.428   2.799  13.563 -1.4314 -0.8424 -1.4799
 4787SOL     OW25996   0.219   1.381  14.490 -0.0178  0.0207 -0.2605
 4787SOL    HW125997   0.183   1.392  14.402  1.4304  1.1207 -0.6962
 4787SOL    HW225998   0.308   1.417  14.486 -0.0190  0.0616  0.0892
 4788SOL     OW25999   3.152   1.863  17.440 -0.0580 -0.1968  0.1299
 4788SOL    HW126000   3.239   1.902  17.437  0.2440 -0.9646 -1.0710
 4788SOL    HW226001   3.156   1.808  17.517 -0.6922  0.2774  0.5036
 4789SOL     OW26002   3.294   1.454  16.860  0.1756  0.2086  0.5959
 4789SOL    HW126003   3.358   1.525  16.862  1.9254 -1.3403  0.5210
 4789SOL    HW226004   3.361   1.385  16.855  1.4648  1.4891 -0.0447
 4790SOL     OW26005   2.949   1.554   3.990 -0.3273 -0.3362 -0.6017
 4790SOL    HW126006   2.880   1.616   4.016  1.0134  0.7117  0.4907
 4790SOL    HW226007   2.924   1.480   4.045 -3.5272  1.1434 -0.0449
 4791SOL     OW26008   0.749   3.294   7.390  0.0774 -0.0899 -0.4224
 4791SOL    HW126009   0.708   3.363   7.442  0.7944 -0.4498  0.6365
 4791SOL    HW226010   0.782   3.352   7.322 -0.6610 -1.1852 -1.7016
 4792SOL     OW26011   2.382   2.352   1.164  0.0113 -0.1716  0.3955
 4792SOL    HW126012   2.421   2.291   1.226 -0.5493  0.3532  1.2718
 4792SOL    HW226013   2.388   2.299   1.085  0.0033 -0.7676  0.8005
 4793SOL     OW26014   0.801   3.339   1.833  0.2541  0.6926 -0.1125
 4793SOL    HW126015   0.812   3.244   1.829 -1.9647  0.4493 -0.5392
 4793SOL    HW226016   0.721   3.354   1.784 -0.1168  0.8840  0.5444
 4794SOL     OW26017   2.118   0.408  17.073  0.1052 -0.1375 -0.7716
 4794SOL    HW126018   2.137   0.352  17.148  1.0224 -1.2617 -1.8572
 4794SOL    HW226019   2.055   0.364  17.015 -1.3189  1.2847 -0.3182
 4795SOL     OW26020   4.546   2.386   3.228  0.6038 -0.3164 -0.0406
 4795SOL    HW126021   4.520   2.318   3.290 -2.3665  2.5261  1.8388
 4795SOL    HW226022   4.518   2.353   3.142  1.4546  1.9889 -1.2154
 4796SOL     OW26023   0.741   2.122   8.083  0.3117  0.8665 -0.2508
 4796SOL    HW126024   0.669   2.153   8.029 -0.2059  0.8545  0.4328
 4796SOL    HW226025   0.729   2.184   8.154  1.4896 -0.2406  0.9216
 4797SOL     OW26026   2.186   1.865   4.347  0.2230  0.0473  0.0651
 4797SOL    HW126027   2.156   1.919   4.420 -0.7873 -1.8649  1.0649
 4797SOL    HW226028   2.132   1.787   4.363  0.1015 -0.2374 -1.7790
 4798SOL     OW26029   1.079   0.547  10.898  0.0553 -0.2567 -0.3171
 4798SOL    HW126030   1.086   0.639  10.925  1.8273 -0.6695  0.6086
 4798SOL    HW226031   1.013   0.522  10.963  1.1230 -0.3023  0.7306
 4799SOL     OW26032   2.931   3.220   8.215 -0.5063 -0.0458  0.0307
 4799SOL    HW126033   3.011   3.168   8.218 -0.7287 -0.3166  1.5081
 4799SOL    HW226034   2.964   3.305   8.185 -0.6644  0.3887  1.0895
 4800SOL     OW26035   0.656   3.503   6.070 -0.1653 -0.2672  0.3032
 4800SOL    HW126036   0.692   3.581   6.112 -1.0216  1.7183 -2.5829
 4800SOL    HW226037   0.564   3.529   6.066 -1.0067 -3.3582 -0.3560
 4801SOL     OW26038   4.357   3.895   5.913 -0.5827 -0.2266 -0.0585
 4801SOL    HW126039   4.412   3.848   5.850 -1.5594  2.7182 -3.1434
 4801SOL    HW226040   4.274   3.860   5.882  0.6039 -1.2730 -2.0781
 4802SOL     OW26041   1.819   4.201   6.077  0.3531 -0.3486 -0.1966
 4802SOL    HW126042   1.914   4.207   6.084 -0.1514  3.5834  2.9743
 4802SOL    HW226043   1.795   4.112   6.105 -0.6748  0.1579  0.5458
 4803SOL     OW26044   3.948   1.080   6.968 -0.1366 -0.0728 -0.3647
 4803SOL    HW126045   4.019   1.080   7.032 -1.3597 -0.9679  1.0138
 4803SOL    HW226046   3.991   1.055   6.887 -1.2039  3.6621 -2.0518
 4804SOL     OW26047   3.073   2.204   5.502  0.0979  0.0928  0.3918
 4804SOL    HW126048   3.008   2.141   5.535 -0.6002  2.0724  2.7797
 4804SOL    HW226049   3.017   2.281   5.493 -1.2985 -0.8262  1.2547
 4805SOL     OW26050   3.317   1.405  13.475 -0.2691  0.1257 -0.3730
 4805SOL    HW126051   3.287   1.335  13.416  2.5860 -1.9774  0.6679
 4805SOL    HW226052   3.254   1.400  13.547  0.1142  1.6097  0.0588
 4806SOL     OW26053   0.575   3.746   2.491 -0.0843  0.3087  0.3919
 4806SOL    HW126054   0.534   3.692   2.558 -0.4524  0.2664  0.1323
 4806SOL    HW226055   0.503   3.755   2.429  2.1982  0.9990 -2.1425
 4807SOL     OW26056   3.870   0.127   6.312 -0.4813 -0.3603 -0.0800
 4807SOL    HW126057   3.888   0.042   6.273  1.4074  0.4496 -0.9883
 4807SOL    HW226058   3.828   0.102   6.394  0.6339  1.0870  0.9517
 4808SOL     OW26059   4.109   3.586   8.336 -0.5811 -0.4171 -0.0370
 4808SOL    HW126060   4.026   3.633   8.335 -0.5261 -0.3179  0.1027
 4808SOL    HW226061   4.137   3.607   8.246 -2.3379  1.1316 -0.2168
 4809SOL     OW26062   2.613   1.733  12.847  0.1073  0.0200 -0.0698
 4809SOL    HW126063   2.696   1.711  12.888  0.6618 -0.1697 -1.2965
 4809SOL    HW226064   2.554   1.674  12.894 -0.7639  1.9802  1.2723
 4810SOL     OW26065   2.029   1.587   2.955  0.3532 -0.7602  0.8085
 4810SOL    HW126066   2.084   1.585   3.034  2.7862 -1.0627 -0.8856
 4810SOL    HW226067   2.105   1.593   2.897  0.2187  1.5234  0.8600
 4811SOL     OW26068   1.888   2.728   7.453 -0.8721 -0.4695  0.4594
 4811SOL    HW126069   1.914   2.810   7.411 -0.3729 -0.8350  0.0626
 4811SOL    HW226070   1.975   2.691   7.469 -0.6390 -0.6334 -1.2575
 4812SOL     OW26071   3.341   0.541   4.447  0.0302  0.2524 -0.4159
 4812SOL    HW126072   3.313   0.450   4.438 -0.5982  0.5833 -1.8580
 4812SOL    HW226073   3.367   0.545   4.539  0.9556  0.8829 -0.7053
 4813SOL     OW26074   4.537   0.938   9.223 -0.1132  0.3179 -0.2650
 4813SOL    HW126075   4.626   0.909   9.244 -1.5395 -1.5764  3.2236
 4813SOL    HW226076   4.497   0.936   9.311 -0.5060 -1.2353 -0.4675
 4814SOL     OW26077   4.534   2.701   6.646 -0.0854 -0.1760  0.8414
 4814SOL    HW126078   4.518   2.673   6.556  0.5628  4.1748 -0.6513
 4814SOL    HW226079   4.619   2.659   6.659  0.2499  0.3199  0.2871
 4815SOL     OW26080   3.162   0.946  16.629 -0.0261  0.5118  0.8443
 4815SOL    HW126081   3.197   0.876  16.573 -2.1764 -0.3729  0.6151
 4815SOL    HW226082   3.115   0.997  16.563  0.9523 -0.7175 -0.8180
 4816SOL     OW26083   2.313   1.431   6.563  0.3457  0.0214  0.1575
 4816SOL    HW126084   2.283   1.498   6.502  0.3375 -1.1261 -1.0810
 4816SOL    HW226085   2.371   1.376   6.512 -1.6170 -0.4838 -1.4958
 4817SOL     OW26086   2.477   1.576  10.266 -0.0663 -0.5347  0.1034
 4817SOL    HW126087   2.556   1.598  10.216  0.6305  0.0077  1.4642
 4817SOL    HW226088   2.467   1.484  10.241 -0.4876 -0.5697  0.4020
 4818SOL     OW26089   1.307   4.617   4.217 -0.2355 -0.1636 -0.0889
 4818SOL    HW126090   1.247   4.661   4.157 -2.1818 -1.7249  0.7277
 4818SOL    HW226091   1.244   4.588   4.283  0.9094  1.4679  1.7447
 4819SOL     OW26092   2.049   4.047   9.408 -0.2024  0.6361 -0.3619
 4819SOL    HW126093   2.073   3.955   9.400  0.0519  0.7518 -0.8787
 4819SOL    HW226094   2.086   4.073   9.324 -2.8558  1.8651 -1.1633
 4820SOL     OW26095   0.165   2.743   7.705  0.1797  0.0329 -0.2513
 4820SOL    HW126096   0.138   2.653   7.688 -0.6624  0.3287 -0.4803
 4820SOL    HW226097   0.188   2.772   7.617  0.4617  1.2194  0.2102
 4821SOL     OW26098   1.447   1.713   5.909  0.0450 -0.0398 -0.1149
 4821SOL    HW126099   1.361   1.754   5.915  0.0881 -0.0043  0.3021
 4821SOL    HW226100   1.418   1.626   5.936  1.6407  0.0487  1.9511
 4822SOL     OW26101   3.810   3.520   2.841 -0.0600  0.1171 -0.7110
 4822SOL    HW126102   3.847   3.568   2.915  1.1766  1.0637 -1.9474
 4822SOL    HW226103   3.787   3.599   2.794 -0.6180  1.0967  1.1957
 4823SOL     OW26104   0.823   3.757   4.813  0.3605 -0.0135  0.2460
 4823SOL    HW126105   0.876   3.804   4.877  3.1122 -2.3189 -0.3054
 4823SOL    HW226106   0.735   3.761   4.851  0.0410  1.5360 -0.6535
 4824SOL     OW26107   1.493   0.901   9.177 -0.4207 -0.1961 -0.1574
 4824SOL    HW126108   1.398   0.900   9.188 -0.3088  0.7242  0.9217
 4824SOL    HW226109   1.489   0.894   9.082 -0.7095  1.3900 -0.2649
 4825SOL     OW26110   3.238   1.234   7.635 -0.4182  0.2937 -0.3492
 4825SOL    HW126111   3.171   1.297   7.663 -0.1014 -0.4976  2.1233
 4825SOL    HW226112   3.227   1.229   7.540 -0.3018  2.2355 -0.4702
 4826SOL     OW26113   4.157   2.892  13.749 -0.2656 -0.1752  1.0785
 4826SOL    HW126114   4.241   2.902  13.704 -0.1827  1.8485  1.6802
 4826SOL    HW226115   4.098   2.853  13.685 -1.5899  0.4577  1.9160
 4827SOL     OW26116   3.128   1.509  14.860  0.1597  0.3574  0.7185
 4827SOL    HW126117   3.180   1.455  14.801  0.1537  1.3912 -0.2432
 4827SOL    HW226118   3.084   1.443  14.913 -0.8458  0.8664  0.5276
 4828SOL     OW26119   2.400   3.998   5.139 -0.8962 -0.1507  0.3264
 4828SOL    HW126120   2.418   3.905   5.124 -1.9881 -0.0322 -1.6777
 4828SOL    HW226121   2.389   4.034   5.052  0.5600 -0.6545 -0.0832
 4829SOL     OW26122   4.441   2.548   7.287  0.2899  0.2988 -0.3347
 4829SOL    HW126123   4.445   2.452   7.276  0.7529  0.0797  1.8308
 4829SOL    HW226124   4.361   2.568   7.238  0.8649 -1.4092 -1.9950
 4830SOL     OW26125   4.170   2.134  12.380 -0.1910 -0.1916  0.2665
 4830SOL    HW126126   4.244   2.194  12.368  0.8683 -1.0153  2.5466
 4830SOL    HW226127   4.136   2.122  12.291 -0.3748 -0.6294  0.3961
 4831SOL     OW26128   3.629   2.672  16.173  0.3405 -0.1566  0.2431
 4831SOL    HW126129   3.607   2.618  16.097 -1.5519  0.0760  0.6178
 4831SOL    HW226130   3.697   2.723  16.129  0.7122 -2.7891 -2.2465
 4832SOL     OW26131   0.805   1.399   7.518 -0.0677  0.3711 -0.3625
 4832SOL    HW126132   0.779   1.440   7.600 -0.8220  1.1673 -1.0097
 4832SOL    HW226133   0.739   1.423   7.453  0.1785  0.5089 -0.5608
 4833SOL     OW26134   2.217   2.447   5.551  0.2631  0.3244  0.4959
 4833SOL    HW126135   2.211   2.386   5.624  1.0331  0.2757  0.5194
 4833SOL    HW226136   2.157   2.408   5.487 -0.5534  1.4051  0.5935
 4834SOL     OW26137   2.882   4.298   8.284 -0.6095 -0.7630  0.6181
 4834SOL    HW126138   2.848   4.289   8.373 -0.0907  0.6819  0.9676
 4834SOL    HW226139   2.911   4.207   8.274  0.7289 -0.2421 -0.1134
 4835SOL     OW26140   4.391   2.282  12.331  0.0285 -0.0391 -0.5727
 4835SOL    HW126141   4.441   2.350  12.286  0.4817  0.3641  0.5160
 4835SOL    HW226142   4.419   2.296  12.422  0.1889 -0.6999 -0.5190
 4836SOL     OW26143   0.054   1.715   7.971  0.3148 -0.7221 -0.7009
 4836SOL    HW126144   0.045   1.811   7.976 -2.8985 -0.9824 -1.9143
 4836SOL    HW226145   4.731   1.692   8.042 -0.2583 -0.2144 -1.0227
 4837SOL     OW26146   3.007   2.315   6.549  0.5525  0.0902 -0.2516
 4837SOL    HW126147   2.980   2.407   6.550 -0.8600 -0.3389  0.5208
 4837SOL    HW226148   3.045   2.313   6.461 -0.7242 -2.6164 -0.7515
 4838SOL     OW26149   0.525   0.693   8.910 -0.4703  0.0782 -0.2607
 4838SOL    HW126150   0.550   0.646   8.831  0.4374  1.3606 -0.7389
 4838SOL    HW226151   0.436   0.670   8.937  0.9722 -2.1225  2.7098
 4839SOL     OW26152   2.603   3.861   7.900  0.0970 -0.2572 -0.0545
 4839SOL    HW126153   2.567   3.773   7.911 -1.8660  0.9188  2.9413
 4839SOL    HW226154   2.697   3.843   7.903 -0.4246 -3.0989 -0.4528
 4840SOL     OW26155   3.318   3.668   5.547  0.0298 -0.5517  0.3716
 4840SOL    HW126156   3.238   3.620   5.570 -0.4882 -0.3122 -0.9536
 4840SOL    HW226157   3.271   3.729   5.489 -1.4945 -2.9301 -0.9190
 4841SOL     OW26158   0.892   3.919   6.287  0.0003  0.1762  0.4368
 4841SOL    HW126159   0.977   3.940   6.325  1.1235 -1.9482 -0.8925
 4841SOL    HW226160   0.897   3.981   6.215  1.0058 -0.5951 -0.1619
 4842SOL     OW26161   3.987   4.404   6.375  0.6797  0.3486  0.0673
 4842SOL    HW126162   4.034   4.323   6.396 -1.0732 -0.8677 -0.7398
 4842SOL    HW226163   3.936   4.417   6.455  1.0055 -1.6841  0.6316
 4843SOL     OW26164   2.345   2.174   7.371  0.1875 -0.1749  0.2728
 4843SOL    HW126165   2.440   2.169   7.360 -0.0456  1.3068 -2.2931
 4843SOL    HW226166   2.327   2.256   7.326 -1.8423 -0.2722  0.9348
 4844SOL     OW26167   2.908   0.949   6.940  0.2378  0.1991  0.2894
 4844SOL    HW126168   2.818   0.919   6.927 -0.2897  1.2139  1.5870
 4844SOL    HW226169   2.963   0.875   6.914  0.6788  0.1849  1.2428
 4845SOL     OW26170   0.265   4.222  10.544 -0.3305  0.0811  0.6587
 4845SOL    HW126171   0.206   4.192  10.474  0.1861  0.1907  0.1782
 4845SOL    HW226172   0.244   4.314  10.561  2.5229  0.9829 -0.8669
 4846SOL     OW26173   0.341   1.052   5.411 -0.2125 -0.0301  0.2799
 4846SOL    HW126174   0.335   1.075   5.504  2.3540 -0.2559  0.5189
 4846SOL    HW226175   0.414   0.990   5.413  0.7889  1.0845 -1.3825
 4847SOL     OW26176   2.404   4.707  12.698  0.0055  0.4583  0.4997
 4847SOL    HW126177   2.340   0.020  12.749  0.4065  1.3530  0.1276
 4847SOL    HW226178   2.455   0.042  12.661  0.4064 -1.1805 -2.1089
 4848SOL     OW26179   3.930   3.066   7.825 -0.5871  0.3378 -0.1625
 4848SOL    HW126180   3.841   3.041   7.800 -1.5146  3.1785  0.2227
 4848SOL    HW226181   3.918   3.133   7.892  1.1165  0.5393 -0.0609
 4849SOL     OW26182   3.270   3.019   3.377 -0.4249  0.2121  0.0799
 4849SOL    HW126183   3.303   2.933   3.352  0.8603  0.1663  1.9097
 4849SOL    HW226184   3.182   2.995   3.407  0.9485 -1.5633  2.7223
 4850SOL     OW26185   0.189   1.194  10.743  0.1002  0.2334  0.4590
 4850SOL    HW126186   0.111   1.139  10.751 -0.5046  0.9249 -0.6410
 4850SOL    HW226187   0.264   1.136  10.757  0.5631  0.7444  0.0962
 4851SOL     OW26188   0.332   3.347   6.141  0.0894  0.0004  0.2701
 4851SOL    HW126189   0.358   3.426   6.094  1.6325 -1.6438 -1.6323
 4851SOL    HW226190   0.243   3.339   6.105  0.8073 -2.8926 -0.8535
 4852SOL     OW26191   4.137   3.189  13.825 -0.2378 -0.1362  0.4766
 4852SOL    HW126192   4.119   3.095  13.832  0.3667 -0.3993 -1.5154
 4852SOL    HW226193   4.228   3.194  13.797 -1.1526  0.8215 -2.3509
 4853SOL     OW26194   0.963   4.437   4.913 -0.1249  0.1963 -0.3231
 4853SOL    HW126195   0.964   4.342   4.923 -0.6103 -0.0544 -2.5273
 4853SOL    HW226196   1.050   4.456   4.878  0.2682 -1.5920 -0.3187
 4854SOL     OW26197   4.332   1.010  15.083 -0.3033  0.3712  0.0759
 4854SOL    HW126198   4.395   0.940  15.065  0.2818  1.1210 -0.8524
 4854SOL    HW226199   4.323   1.022  15.177  0.8042  1.7114  0.0151
 4855SOL     OW26200   1.892   2.399  14.434  0.6693 -0.1138  0.4134
 4855SOL    HW126201   1.923   2.431  14.518  0.3191 -0.5433  0.7036
 4855SOL    HW226202   1.942   2.318  14.425 -0.2533 -0.5852 -0.5509
 4856SOL     OW26203   0.805   3.892   5.739 -0.0890 -0.3804  0.3760
 4856SOL    HW126204   0.812   3.956   5.668 -1.7978 -0.9578 -0.3052
 4856SOL    HW226205   0.887   3.845   5.722  0.4218  0.1261  1.4645
 4857SOL     OW26206   4.357   3.614   7.521 -0.0042  0.4904 -0.0844
 4857SOL    HW126207   4.420   3.681   7.494  1.2300 -0.7810 -0.3484
 4857SOL    HW226208   4.413   3.563   7.579 -1.0451  3.5257  3.6074
 4858SOL     OW26209   2.601   1.245   3.350 -0.3345 -0.1089 -0.2037
 4858SOL    HW126210   2.631   1.188   3.279 -1.5682 -0.9177 -0.0791
 4858SOL    HW226211   2.537   1.180   3.381  0.5164  0.0125  1.8411
 4859SOL     OW26212   0.401   1.046   3.848 -0.2270  0.2928 -0.0210
 4859SOL    HW126213   0.392   0.953   3.829 -1.5504  0.3244  0.4757
 4859SOL    HW226214   0.316   1.085   3.825 -0.6729  0.1053  1.3273
 4860SOL     OW26215   4.490   4.085   7.171  0.4284 -0.4193 -0.3591
 4860SOL    HW126216   4.556   4.122   7.228 -1.5408  3.7054 -0.7609
 4860SOL    HW226217   4.444   4.038   7.241  2.5016 -2.6924 -0.5155
 4861SOL     OW26218   1.643   3.093   4.546  0.6297 -0.1355  0.0041
 4861SOL    HW126219   1.615   3.164   4.602  0.2276  0.2147 -0.6473
 4861SOL    HW226220   1.642   3.141   4.463 -0.8190  1.1674  0.7772
 4862SOL     OW26221   1.759   4.082   8.356 -0.2146  0.2743  0.8709
 4862SOL    HW126222   1.697   4.041   8.416 -0.2451  0.6055  1.0666
 4862SOL    HW226223   1.768   4.167   8.399  2.0391  0.4064  0.1312
 4863SOL     OW26224   2.967   0.439   7.279 -0.2333  0.3522  0.8489
 4863SOL    HW126225   2.947   0.348   7.297  1.7847 -0.3240 -0.2758
 4863SOL    HW226226   2.893   0.464   7.224  0.9888 -0.2862 -1.0855
 4864SOL     OW26227   1.057   0.394   8.086 -0.0357 -0.3349 -0.6293
 4864SOL    HW126228   1.010   0.345   8.153 -2.2074  3.2068  0.3976
 4864SOL    HW226229   1.067   0.482   8.123 -0.6337 -0.0839 -1.0779
 4865SOL     OW26230   0.111   4.691   6.308 -0.5941 -0.2526  0.5787
 4865SOL    HW126231   0.098   0.046   6.287 -3.0801 -0.8335 -0.4754
 4865SOL    HW226232   0.024   4.654   6.288 -1.3803  1.9525 -0.0745
 4866SOL     OW26233   2.992   0.615  16.314 -0.4811 -0.8376 -0.2239
 4866SOL    HW126234   2.899   0.636  16.309 -0.1425  0.1869 -2.0316
 4866SOL    HW226235   2.991   0.531  16.360 -0.8546 -0.2994  0.7491
 4867SOL     OW26236   0.321   0.635   4.683  0.3792 -0.3454  0.9526
 4867SOL    HW126237   0.247   0.580   4.658  1.5166 -1.5873  0.3263
 4867SOL    HW226238   0.293   0.660   4.771  1.0210  0.4473  0.9270
 4868SOL     OW26239   4.246   4.400   6.480 -0.2407  0.8530 -0.1498
 4868SOL    HW126240   4.197   4.473   6.442 -1.2835  0.5500  0.5936
 4868SOL    HW226241   4.288   4.367   6.401  1.0190  1.1961  0.3748
 4869SOL     OW26242   3.957   0.374  12.917  0.2680  0.0644  0.7985
 4869SOL    HW126243   3.939   0.348  13.008 -0.7200 -1.3828  0.2045
 4869SOL    HW226244   3.968   0.469  12.916 -2.0219  0.3483  1.6626
 4870SOL     OW26245   1.200   3.071   1.983  0.1752  0.2132  0.0323
 4870SOL    HW126246   1.182   2.981   1.958 -0.2232  1.0847 -2.8017
 4870SOL    HW226247   1.111   3.093   2.012 -0.6115 -0.2033 -2.1002
 4871SOL     OW26248   3.306   2.979   4.345 -0.5868  0.3349 -0.1615
 4871SOL    HW126249   3.270   2.918   4.280  0.6511 -0.5152 -0.0586
 4871SOL    HW226250   3.398   2.952   4.335 -0.7558  0.2670 -1.5877
 4872SOL     OW26251   0.315   2.004   7.363 -0.0568  0.0155 -0.0918
 4872SOL    HW126252   0.325   2.012   7.458  0.3413 -0.1793 -0.1192
 4872SOL    HW226253   0.396   2.041   7.329  0.4407  0.4050  1.4857
 4873SOL     OW26254   0.466   1.986  17.369 -0.1204 -0.1798  0.6638
 4873SOL    HW126255   0.415   2.022  17.441  0.7885  1.7684  0.3308
 4873SOL    HW226256   0.500   2.068  17.335 -0.8055  0.6203  1.8960
 4874SOL     OW26257   2.047   0.713   8.388  0.3375  0.6878 -0.1870
 4874SOL    HW126258   1.995   0.793   8.401  0.2349  0.2902  1.8614
 4874SOL    HW226259   2.023   0.664   8.310 -2.2169 -0.2458  1.1715
 4875SOL     OW26260   1.483   2.418   1.902  0.0215 -0.0486  0.4315
 4875SOL    HW126261   1.560   2.466   1.933 -0.4782  0.3081  1.1387
 4875SOL    HW226262   1.519   2.368   1.830 -0.6549  0.7510 -0.4620
 4876SOL     OW26263   3.682   1.011  15.026  0.5394  0.0514 -0.4008
 4876SOL    HW126264   3.751   1.068  15.060  0.5303 -0.3698  0.3318
 4876SOL    HW226265   3.621   1.026  15.098  0.2057  0.8369 -0.8539
 4877SOL     OW26266   2.573   3.340   8.026  0.3697  0.0794  0.2109
 4877SOL    HW126267   2.509   3.273   8.048  0.0142  0.2848 -0.2132
 4877SOL    HW226268   2.640   3.280   7.994  0.2674  0.7529 -1.2402
 4878SOL     OW26269   4.580   2.108   6.327 -0.5874 -0.1967 -0.7427
 4878SOL    HW126270   4.492   2.085   6.356  0.3305 -0.7999  1.4926
 4878SOL    HW226271   4.630   2.050   6.383  0.8559 -0.1229 -1.9633
 4879SOL     OW26272   1.706   0.993   1.026  0.1391 -0.3131  0.4868
 4879SOL    HW126273   1.763   1.011   0.951 -0.7097 -0.7268 -0.2490
 4879SOL    HW226274   1.698   0.897   1.028 -1.3562 -0.1825  0.4278
 4880SOL     OW26275   0.473   0.491   5.762  0.2684  0.0638 -0.2018
 4880SOL    HW126276   0.547   0.435   5.789 -0.0538  0.6022  1.7598
 4880SOL    HW226277   0.515   0.577   5.758 -0.0576  0.1327 -2.1542
 4881SOL     OW26278   0.539   0.853  15.888 -0.0362 -0.4469 -0.1075
 4881SOL    HW126279   0.544   0.915  15.816 -0.8957  0.8518  0.9439
 4881SOL    HW226280   0.499   0.904  15.959  2.3236  2.6494 -0.9874
 4882SOL     OW26281   0.212   2.810   1.774 -0.2755 -0.2295  0.2809
 4882SOL    HW126282   0.161   2.887   1.751  1.2002  1.0467  1.2633
 4882SOL    HW226283   0.203   2.753   1.698  0.2267 -1.7961  1.3905
 4883SOL     OW26284   2.323   0.860   6.244 -0.5059  0.0679  0.5757
 4883SOL    HW126285   2.238   0.818   6.254  0.2196 -1.0943  1.7578
 4883SOL    HW226286   2.366   0.817   6.170 -1.4723 -1.5240  0.9499
 4884SOL     OW26287   2.865   0.444   8.987  0.7227 -0.0751  0.5975
 4884SOL    HW126288   2.831   0.366   9.032 -0.2573  0.2353  0.4145
 4884SOL    HW226289   2.952   0.410   8.970  1.2292  0.9162  1.2001
 4885SOL     OW26290   2.274   0.578   2.531 -0.3196  0.3516  0.0728
 4885SOL    HW126291   2.314   0.520   2.466  0.0471  0.3001  0.3470
 4885SOL    HW226292   2.305   0.535   2.611 -0.2370 -1.0293 -0.7036
 4886SOL     OW26293   1.274   3.078   8.661  0.0061  0.2655 -0.2129
 4886SOL    HW126294   1.300   3.165   8.691 -0.0480  0.5415 -0.9663
 4886SOL    HW226295   1.180   3.078   8.679  0.4425 -1.7945  2.0620
 4887SOL     OW26296   0.178   3.133  16.081 -0.2255 -0.4750  0.0618
 4887SOL    HW126297   0.165   3.212  16.134  3.3250 -0.3303  0.7213
 4887SOL    HW226298   0.273   3.139  16.092 -0.2809  2.6982 -1.0043
 4888SOL     OW26299   2.564   1.355   8.454 -0.0917 -0.0122 -0.2506
 4888SOL    HW126300   2.481   1.312   8.436  0.3882 -0.4078 -1.5384
 4888SOL    HW226301   2.593   1.357   8.363 -1.3492  1.9328 -0.6129
 4889SOL     OW26302   3.137   3.040   8.256 -0.1409 -0.5871  0.4161
 4889SOL    HW126303   3.094   2.954   8.264 -1.3457 -0.0061  0.1937
 4889SOL    HW226304   3.162   3.035   8.164 -1.0627  0.2179  0.1228
 4890SOL     OW26305   4.597   1.757  11.823  0.1576  0.0148 -0.3516
 4890SOL    HW126306   4.517   1.774  11.773  0.3778 -0.4726 -0.8745
 4890SOL    HW226307   4.663   1.759  11.753  1.7734 -0.5414  1.1633
 4891SOL     OW26308   0.970   3.146  11.924  0.3140  0.1665 -0.1863
 4891SOL    HW126309   0.924   3.088  11.863 -0.3777  0.9397 -0.3947
 4891SOL    HW226310   1.058   3.153  11.886  0.7796  4.1755  1.5981
 4892SOL     OW26311   0.426   3.986  11.245  0.1874 -0.5702  0.4875
 4892SOL    HW126312   0.371   3.918  11.284 -3.2109  1.9826  0.1880
 4892SOL    HW226313   0.383   3.995  11.159  1.1095 -1.5014 -0.0761
 4893SOL     OW26314   2.511   4.039   4.276 -0.4437  0.4559  0.0543
 4893SOL    HW126315   2.491   4.018   4.184 -2.0297  0.1404  0.4714
 4893SOL    HW226316   2.584   4.101   4.267 -0.2573  0.3098  0.5589
 4894SOL     OW26317   1.747   1.529  17.178 -0.0765 -0.1395  0.2982
 4894SOL    HW126318   1.728   1.482  17.259 -2.0816  0.1235 -0.0101
 4894SOL    HW226319   1.825   1.484  17.145  0.8628  1.9639 -0.3298
 4895SOL     OW26320   2.585   1.290   7.847  0.3512 -0.4326 -0.0231
 4895SOL    HW126321   2.538   1.241   7.780  0.0890  0.1062 -0.2345
 4895SOL    HW226322   2.591   1.375   7.802 -0.9637  0.1500  0.9154
 4896SOL     OW26323   2.018   0.334  17.742 -0.0911 -0.1331 -0.0217
 4896SOL    HW126324   2.069   0.325   0.077 -2.8252  3.0074  2.0666
 4896SOL    HW226325   1.993   0.243  17.728  0.4465 -0.2666 -0.1213
 4897SOL     OW26326   3.572   0.639   7.879 -0.0396  0.9059 -0.5797
 4897SOL    HW126327   3.657   0.596   7.888 -0.8481 -0.3695  0.8715
 4897SOL    HW226328   3.581   0.728   7.912  2.8001  0.2168  0.4530
 4898SOL     OW26329   1.450   0.507  16.735  0.2378 -0.3160 -0.0106
 4898SOL    HW126330   1.402   0.560  16.672 -1.9733 -0.5107  1.5136
 4898SOL    HW226331   1.521   0.479  16.677 -0.1129  0.1145 -0.6465
 4899SOL     OW26332   3.960   4.269   8.620 -0.2402  0.0581 -0.3411
 4899SOL    HW126333   3.959   4.249   8.526  0.1327  0.2649 -0.3859
 4899SOL    HW226334   4.005   4.190   8.651 -2.9332 -1.6364 -0.6975
 4900SOL     OW26335   3.976   1.675   6.023 -0.8084 -0.3597  0.1498
 4900SOL    HW126336   3.939   1.670   6.111  0.5089 -1.3769  0.6625
 4900SOL    HW226337   4.026   1.593   6.025  1.1935  0.8623  0.2310
 4901SOL     OW26338   4.395   2.614   9.085 -0.4939  0.1487 -0.2089
 4901SOL    HW126339   4.411   2.632   9.178  0.9106 -0.2384 -0.3818
 4901SOL    HW226340   4.467   2.661   9.043  0.2571  0.9372  1.9352
 4902SOL     OW26341   3.741   0.033   8.653  0.3308 -0.2121 -0.3222
 4902SOL    HW126342   3.750   0.022   8.747 -1.4148  1.1505  0.0052
 4902SOL    HW226343   3.667   4.711   8.641  0.1645 -0.1713  0.5340
 4903SOL     OW26344   0.613   2.942  17.686 -0.0119  0.0149  0.0384
 4903SOL    HW126345   0.702   2.952  17.653  0.1844  0.3701  0.6861
 4903SOL    HW226346   0.574   3.029  17.675  1.5035  0.6671 -0.0605
 4904SOL     OW26347   2.797   1.371   1.658  0.2433  0.3450  0.4712
 4904SOL    HW126348   2.701   1.369   1.657  0.1958  1.7204  2.5378
 4904SOL    HW226349   2.813   1.311   1.731 -0.1398  1.5946  1.5774
 4905SOL     OW26350   4.279   3.624  12.685 -0.4232  0.1804  0.5423
 4905SOL    HW126351   4.349   3.635  12.750  0.0238  1.0938 -0.0936
 4905SOL    HW226352   4.317   3.659  12.605  2.6802 -2.4439  0.8348
 4906SOL     OW26353   3.090   0.924   0.862  0.6208 -0.4794 -0.7373
 4906SOL    HW126354   3.183   0.923   0.842  0.6361  0.3310 -0.7114
 4906SOL    HW226355   3.059   0.963   0.781  1.3109  1.1953 -0.1884
 4907SOL     OW26356   3.323   1.944   2.728 -0.5108 -0.5871 -0.2731
 4907SOL    HW126357   3.374   2.010   2.775 -1.7625  0.8792 -1.0002
 4907SOL    HW226358   3.374   1.946   2.647  0.7579  0.8954  0.5591
 4908SOL     OW26359   1.302   3.995   6.074 -0.0320 -0.1858  0.2450
 4908SOL    HW126360   1.331   3.936   6.143  1.3592  0.8072  0.5012
 4908SOL    HW226361   1.237   4.043   6.125  0.7057 -2.0926  2.9978
 4909SOL     OW26362   1.986   1.744   3.996 -0.3552 -0.5513 -0.3521
 4909SOL    HW126363   1.924   1.722   3.926 -0.0235  0.5230 -0.9831
 4909SOL    HW226364   1.925   1.803   4.040  0.0035  1.7904 -2.9864
 4910SOL     OW26365   3.211   2.648   2.481 -0.0552  0.4401 -0.6220
 4910SOL    HW126366   3.283   2.639   2.544  0.4046  1.9032 -0.9355
 4910SOL    HW226367   3.260   2.636   2.400  0.4607 -1.4220 -0.0241
 4911SOL     OW26368   4.085   2.630   4.381  0.1434 -0.2741 -0.6459
 4911SOL    HW126369   4.037   2.550   4.360 -2.8108  1.5969 -1.0164
 4911SOL    HW226370   4.026   2.703   4.361 -1.6608 -0.5064  4.0019
 4912SOL     OW26371   3.640   1.340  16.589  0.7798  0.4747  0.2979
 4912SOL    HW126372   3.655   1.263  16.534 -0.4822  1.3358 -1.2366
 4912SOL    HW226373   3.668   1.397  16.518  1.5871  1.2387  1.2376
 4913SOL     OW26374   3.955   4.520   4.494 -0.3738  0.3866 -0.2231
 4913SOL    HW126375   3.995   4.596   4.451 -1.4264  0.3070 -1.3598
 4913SOL    HW226376   3.952   4.551   4.584  1.0610  0.2840 -0.1353
 4914SOL     OW26377   0.033   0.181   4.008  0.2590  0.3950  0.3865
 4914SOL    HW126378   0.081   0.252   3.967 -0.0108  0.9545  1.0494
 4914SOL    HW226379   0.042   0.203   4.101 -1.1825 -0.5325  0.7469
 4915SOL     OW26380   1.099   3.245   4.935  0.1827 -0.3961  0.1972
 4915SOL    HW126381   1.080   3.178   5.001  1.5483  0.0297  1.0140
 4915SOL    HW226382   1.118   3.195   4.856  2.0098  0.6503 -0.0287
 4916SOL     OW26383   4.467   1.288   8.774  0.7550  0.2800 -0.2464
 4916SOL    HW126384   4.440   1.262   8.862 -1.5703  1.3551 -0.6247
 4916SOL    HW226385   4.525   1.216   8.749  0.1684 -0.6724  1.1387
 4917SOL     OW26386   1.306   1.041   6.534  0.0968  0.3439 -0.4789
 4917SOL    HW126387   1.322   0.951   6.564  1.5832  0.2133 -1.6585
 4917SOL    HW226388   1.311   1.025   6.440  1.3248 -2.3905  0.0414
 4918SOL     OW26389   2.720   0.055   5.744  0.1262 -0.6391 -0.7033
 4918SOL    HW126390   2.718   0.051   5.649 -1.8287  1.7049 -0.7630
 4918SOL    HW226391   2.661   0.130   5.744  1.0852  0.0981 -1.6976
 4919SOL     OW26392   0.827   1.350   3.401 -0.3095 -0.1238 -0.2149
 4919SOL    HW126393   0.786   1.436   3.389  2.0459  1.0364  0.0929
 4919SOL    HW226394   0.768   1.308   3.463  0.9296 -0.4061  0.7865
 4920SOL     OW26395   1.324   4.628   5.109 -0.3934 -0.5273 -0.1253
 4920SOL    HW126396   1.336   4.571   5.033 -1.7493 -1.4824  0.3663
 4920SOL    HW226397   1.334   4.719   5.081 -0.3894 -0.6077 -0.3827
 4921SOL     OW26398   3.708   3.684   5.965  0.4399 -0.2118 -0.4142
 4921SOL    HW126399   3.775   3.622   5.992  1.1757 -0.0432 -1.8848
 4921SOL    HW226400   3.680   3.634   5.888 -0.9736 -0.4400  0.2493
 4922SOL     OW26401   1.350   1.988   7.885  0.1548 -0.0117  0.2606
 4922SOL    HW126402   1.304   1.921   7.937  0.8405 -0.1564  0.6762
 4922SOL    HW226403   1.300   2.061   7.922  0.1922  0.1745 -0.0594
 4923SOL     OW26404   3.074   3.654   0.528  0.0499  0.1820  0.0767
 4923SOL    HW126405   3.106   3.592   0.462 -0.5351 -0.5127  0.4468
 4923SOL    HW226406   3.117   3.616   0.604  2.3296  0.8920 -0.8492
 4924SOL     OW26407   4.699   4.069   1.725  0.0494 -0.2518  0.2234
 4924SOL    HW126408   4.680   4.163   1.723 -2.1985 -0.7623 -1.9386
 4924SOL    HW226409   4.642   4.048   1.799 -0.6343 -2.0493 -0.8270
 4925SOL     OW26410   0.968   4.691   8.692  0.0559 -0.2449  0.4490
 4925SOL    HW126411   0.969   0.016   8.619  0.0640 -0.5396  0.1987
 4925SOL    HW226412   1.058   4.696   8.726  0.4574  0.2996 -0.7002
 4926SOL     OW26413   2.271   2.028   3.477 -0.7189  0.0023  0.3967
 4926SOL    HW126414   2.345   1.981   3.514 -0.5563 -0.0765 -0.0219
 4926SOL    HW226415   2.330   2.100   3.452 -2.6270  1.1443 -0.7970
 4927SOL     OW26416   1.913   0.886   1.247  0.3161  0.0203 -0.3859
 4927SOL    HW126417   1.949   0.798   1.255  1.8053  0.8293  1.8073
 4927SOL    HW226418   1.919   0.892   1.151 -2.7453 -1.4595 -0.6625
 4928SOL     OW26419   4.275   2.434  11.898 -0.0944  0.2236  0.0573
 4928SOL    HW126420   4.328   2.363  11.934  0.7789 -0.0020 -1.6709
 4928SOL    HW226421   4.307   2.439  11.808 -0.2363 -2.9824 -0.1851
 4929SOL     OW26422   2.926   0.998   7.944 -0.0545  0.6338  0.6066
 4929SOL    HW126423   2.981   1.001   7.866 -0.2397  0.8352  0.4869
 4929SOL    HW226424   2.898   1.089   7.952 -0.9227  0.4263 -0.1331
 4930SOL     OW26425   1.605   0.709  12.398  0.3940 -0.6873  0.3677
 4930SOL    HW126426   1.634   0.797  12.422 -2.1295  0.5625 -1.1427
 4930SOL    HW226427   1.545   0.729  12.326  0.5752  0.6552  0.5892
 4931SOL     OW26428   3.546   0.246   8.655 -0.0350 -0.2864  0.3490
 4931SOL    HW126429   3.618   0.183   8.649  0.7593  0.5607  0.9955
 4931SOL    HW226430   3.546   0.263   8.750  0.5683  0.6580  0.1755
 4932SOL     OW26431   1.923   0.370   7.255 -0.3839 -0.2709 -0.0867
 4932SOL    HW126432   1.843   0.344   7.209 -1.3490  1.4539  0.6275
 4932SOL    HW226433   1.912   0.464   7.242  0.0338  0.0406  1.8608
 4933SOL     OW26434   0.310   1.204  11.499  0.4622 -0.4200 -0.8039
 4933SOL    HW126435   0.373   1.256  11.449 -0.6399  1.0855 -0.6371
 4933SOL    HW226436   0.296   1.267  11.570  1.9185  0.4678 -1.3095
 4934SOL     OW26437   3.643   0.429   4.993 -0.3765 -0.6097  0.4589
 4934SOL    HW126438   3.639   0.334   4.987 -3.7559 -0.4498 -0.0792
 4934SOL    HW226439   3.700   0.440   4.917 -0.4899  2.4091  0.7878
 4935SOL     OW26440   1.409   3.959   8.576  0.5812  0.9881 -0.0243
 4935SOL    HW126441   1.341   3.909   8.530  1.4496 -2.2848  2.2387
 4935SOL    HW226442   1.358   4.027   8.621  0.0767 -0.8183  2.1476
 4936SOL     OW26443   3.950   1.934   4.410 -0.0585  0.0255  0.5273
 4936SOL    HW126444   3.882   1.966   4.350  0.2418 -0.0402  0.1545
 4936SOL    HW226445   3.897   1.870   4.457  0.8640 -1.2883 -0.2300
 4937SOL     OW26446   1.449   3.767  13.778  0.6631  0.0532 -0.2501
 4937SOL    HW126447   1.388   3.788  13.707 -0.6090  1.7170  1.3336
 4937SOL    HW226448   1.512   3.839  13.787 -0.6736  0.9231  2.1337
 4938SOL     OW26449   2.264   1.069   0.810  0.5766 -0.1801  0.5144
 4938SOL    HW126450   2.323   1.112   0.747 -1.0490  1.6996  0.2628
 4938SOL    HW226451   2.306   1.087   0.894  0.2685 -2.1267  1.0690
 4939SOL     OW26452   3.665   2.410   3.221 -0.8672 -0.0600 -0.5417
 4939SOL    HW126453   3.665   2.321   3.188 -0.8680 -0.2398 -0.0494
 4939SOL    HW226454   3.577   2.431   3.189 -0.4510  0.1678 -1.5443
 4940SOL     OW26455   0.915   1.831  15.449  0.1301 -1.0156  0.8507
 4940SOL    HW126456   0.947   1.909  15.405  2.3731 -2.9362 -0.9530
 4940SOL    HW226457   0.894   1.779  15.370  0.5414  0.6267 -0.3330
 4941SOL     OW26458   3.603   2.181   2.294  0.6127 -0.3474 -0.2673
 4941SOL    HW126459   3.585   2.113   2.230  0.6889  0.7951 -1.4947
 4941SOL    HW226460   3.689   2.209   2.261  0.4874 -2.4392 -2.3733
 4942SOL     OW26461   2.287   0.154  16.915  0.2743  0.3016 -0.7149
 4942SOL    HW126462   2.272   0.083  16.977 -0.7279  0.4576 -0.7768
 4942SOL    HW226463   2.308   0.235  16.961 -1.2260  1.2684 -1.7349
 4943SOL     OW26464   1.231   3.774  12.231 -0.6659  0.1565 -0.5208
 4943SOL    HW126465   1.325   3.756  12.239 -0.4299  1.7823  0.2879
 4943SOL    HW226466   1.237   3.850  12.288 -2.0905  0.4639 -0.7903
 4944SOL     OW26467   4.151   2.205   4.977  0.7693  0.0523 -0.2776
 4944SOL    HW126468   4.154   2.207   5.072 -2.9392 -2.9362 -0.0944
 4944SOL    HW226469   4.191   2.289   4.951  2.3661 -0.7192 -0.3535
 4945SOL     OW26470   0.647   2.748   4.440  0.5726  0.0538 -0.7510
 4945SOL    HW126471   0.625   2.704   4.522  2.7272 -0.3103 -0.3526
 4945SOL    HW226472   0.586   2.694   4.389  0.5184  0.4472 -1.1005
 4946SOL     OW26473   1.872   1.487   6.611 -0.6526 -1.0170 -0.0981
 4946SOL    HW126474   1.906   1.403   6.643  0.5586 -0.5255 -0.1027
 4946SOL    HW226475   1.906   1.542   6.681  0.5568 -1.3498 -0.4260
 4947SOL     OW26476   3.369   0.164   3.280 -0.3153 -0.3093 -0.4981
 4947SOL    HW126477   3.365   0.087   3.223  0.2913 -0.4376 -0.3667
 4947SOL    HW226478   3.455   0.199   3.258  0.1189 -0.0247  1.6933
 4948SOL     OW26479   2.440   2.466  16.140  0.5975  0.4692  0.0437
 4948SOL    HW126480   2.427   2.533  16.073  0.8565 -0.7034 -1.1755
 4948SOL    HW226481   2.519   2.429  16.102  0.1434  0.3957 -0.8407
 4949SOL     OW26482   1.006   2.835  12.451 -0.2966 -0.1089  0.6416
 4949SOL    HW126483   1.087   2.882  12.470 -0.2603  0.6527 -1.3696
 4949SOL    HW226484   0.948   2.864  12.521  0.1831 -0.9809  1.4125
 4950SOL     OW26485   1.126   4.017   2.850  0.1528 -0.7267 -0.2527
 4950SOL    HW126486   1.148   3.928   2.878  0.2984 -0.2458  1.1641
 4950SOL    HW226487   1.192   4.034   2.783 -0.8548  0.1080 -1.0300
 4951SOL     OW26488   3.519   0.247   4.465 -0.2005  0.1895  0.2488
 4951SOL    HW126489   3.428   0.261   4.493 -0.9508 -1.7372 -1.1510
 4951SOL    HW226490   3.512   0.285   4.377  1.5022 -2.4540 -1.0460
 4952SOL     OW26491   1.448   2.743  15.069 -0.1688  0.2284 -0.1361
 4952SOL    HW126492   1.422   2.653  15.088 -2.3357  1.2000  1.4868
 4952SOL    HW226493   1.400   2.758  14.988 -0.3536 -2.7752 -0.5677
 4953SOL     OW26494   3.842   3.596   9.627  0.8114  0.9325  0.0072
 4953SOL    HW126495   3.796   3.676   9.653  0.1629 -0.2544  2.4519
 4953SOL    HW226496   3.832   3.598   9.532  0.0253  0.2415  0.0694
 4954SOL     OW26497   2.066   1.417   5.929 -0.4636 -0.1027 -0.1102
 4954SOL    HW126498   1.980   1.400   5.890 -1.1822 -1.0970  1.8903
 4954SOL    HW226499   2.035   1.454   6.012  1.9362  0.9349  0.3261
 4955SOL     OW26500   2.075   0.628   0.236 -0.2952 -0.0318 -0.0789
 4955SOL    HW126501   1.987   0.597   0.258 -0.2698 -0.7567 -0.9845
 4955SOL    HW226502   2.120   0.636   0.321  1.9596  0.2731 -1.2975
 4956SOL     OW26503   4.459   3.106  16.793  0.3273  0.0458  0.0383
 4956SOL    HW126504   4.525   3.077  16.729 -0.3410 -0.2338 -0.5279
 4956SOL    HW226505   4.518   3.116  16.868 -0.8465  1.2689  0.7797
 4957SOL     OW26506   3.944   3.579   4.051  0.2493  0.2311 -0.2940
 4957SOL    HW126507   4.015   3.524   4.017  2.2863  3.7037 -1.6150
 4957SOL    HW226508   3.990   3.611   4.129 -0.2385  0.7023 -0.2030
 4958SOL     OW26509   2.517   0.779   4.688 -0.3203  0.3492  0.1272
 4958SOL    HW126510   2.518   0.815   4.600 -1.4866 -2.5296 -1.0396
 4958SOL    HW226511   2.603   0.805   4.722  0.0042  0.5688 -0.8825
 4959SOL     OW26512   0.757   1.163   7.694 -0.4840 -0.2087  0.1536
 4959SOL    HW126513   0.819   1.214   7.747 -0.6773  0.5534 -0.3571
 4959SOL    HW226514   0.758   1.211   7.611 -1.3605 -0.8462 -0.2270
 4960SOL     OW26515   4.122   2.485  17.121  0.2628 -0.2094  0.3078
 4960SOL    HW126516   4.145   2.573  17.091  1.0444 -0.4137  0.3139
 4960SOL    HW226517   4.206   2.440  17.115 -0.5961 -1.5820 -1.3346
 4961SOL     OW26518   1.726   3.925  13.740  0.5992 -0.5249 -0.4140
 4961SOL    HW126519   1.761   3.899  13.654  0.0624 -0.0016 -0.7921
 4961SOL    HW226520   1.755   3.858  13.802  0.0033  1.1000  1.6249
 4962SOL     OW26521   2.680   0.569   5.721 -0.3697 -0.1161  0.0648
 4962SOL    HW126522   2.732   0.642   5.687 -0.3851 -0.2059 -0.1493
 4962SOL    HW226523   2.596   0.615   5.718 -1.3200 -1.8882 -0.2146
 4963SOL     OW26524   0.278   4.724   8.299  0.2943 -0.7801  0.0968
 4963SOL    HW126525   0.333   4.666   8.351 -1.0950 -1.3013  0.9654
 4963SOL    HW226526   0.323   4.732   8.215 -2.1588 -0.4934 -1.1929
 4964SOL     OW26527   1.685   2.344  11.593 -0.4830 -0.1244  0.2960
 4964SOL    HW126528   1.708   2.320  11.504  1.7848  2.4522  0.1846
 4964SOL    HW226529   1.750   2.408  11.623  1.5645 -1.2892 -1.7167
 4965SOL     OW26530   2.944   3.637   3.469 -0.3103  0.3609  0.0104
 4965SOL    HW126531   2.909   3.721   3.501 -0.5690  1.1971 -2.4733
 4965SOL    HW226532   3.037   3.658   3.480 -0.4447  1.2657 -0.5214
 4966SOL     OW26533   0.484   1.387  14.451  1.0687 -0.7039  0.3307
 4966SOL    HW126534   0.526   1.310  14.413 -0.3569 -0.8635 -0.9587
 4966SOL    HW226535   0.553   1.422  14.507 -0.9167  0.3145  2.1442
 4967SOL     OW26536   4.700   2.580  13.086  0.1689  0.3656 -0.0904
 4967SOL    HW126537   4.628   2.575  13.023  0.2268 -2.5869  0.0500
 4967SOL    HW226538   4.654   2.567  13.169 -1.4700 -0.7829 -1.1797
 4968SOL     OW26539   1.639   0.443   6.952 -0.3757 -0.5144  0.3137
 4968SOL    HW126540   1.727   0.474   6.929 -0.1121 -0.1657  1.7943
 4968SOL    HW226541   1.655   0.362   7.000  0.9670  0.5165  1.6215
 4969SOL     OW26542   1.243   2.920   5.319 -0.3055  0.2707  0.8810
 4969SOL    HW126543   1.306   2.861   5.278 -0.7302  0.5490 -0.1597
 4969SOL    HW226544   1.294   2.965   5.388  1.1435  1.4465 -0.9454
 4970SOL     OW26545   2.492   4.712   6.177 -0.5163 -0.1978  0.5437
 4970SOL    HW126546   2.441   4.697   6.257  2.4604 -2.3200  2.1008
 4970SOL    HW226547   2.449   4.652   6.116  0.5498 -1.2118  0.7735
 4971SOL     OW26548   0.707   2.981   5.744  0.4546 -0.1487  0.2009
 4971SOL    HW126549   0.800   2.993   5.723 -0.1764 -0.7681 -2.8834
 4971SOL    HW226550   0.670   3.063   5.710  0.9859 -0.1077 -0.2795
 4972SOL     OW26551   0.818   3.174   5.250  0.0516  0.2059  0.2919
 4972SOL    HW126552   0.785   3.167   5.340  0.1312  0.8788  0.3742
 4972SOL    HW226553   0.743   3.201   5.196 -0.6050  0.5437  1.3770
 4973SOL     OW26554   2.869   0.471   0.728 -0.1548 -0.4637 -0.4103
 4973SOL    HW126555   2.834   0.437   0.646  3.2166  1.5169 -2.6529
 4973SOL    HW226556   2.837   0.561   0.725  0.0960 -0.3931 -0.9468
 4974SOL     OW26557   4.249   2.131  16.689 -0.4048 -0.2011  0.1853
 4974SOL    HW126558   4.212   2.098  16.607  1.2673  1.4578 -1.2527
 4974SOL    HW226559   4.327   2.174  16.654 -1.4360  2.6722  1.4283
 4975SOL     OW26560   4.520   4.468   7.177 -0.1561 -0.0318  0.2978
 4975SOL    HW126561   4.607   4.434   7.195  0.0440  0.9443  1.1753
 4975SOL    HW226562   4.506   4.512   7.261 -0.8908 -0.1407  0.2279
 4976SOL     OW26563   4.628   1.759   7.226  0.5756  0.7498 -0.2382
 4976SOL    HW126564   4.632   1.854   7.230 -0.0233  0.8139 -1.3449
 4976SOL    HW226565   4.619   1.734   7.318  1.4323  3.0238  0.4659
 4977SOL     OW26566   2.414   2.007   4.412 -0.2291  0.6121  0.2361
 4977SOL    HW126567   2.351   1.937   4.397 -2.0075  2.4089 -0.5609
 4977SOL    HW226568   2.475   1.978   4.343 -0.2657 -1.0889  0.9131
 4978SOL     OW26569   1.802   2.371  12.616  0.4838 -0.0487  0.1856
 4978SOL    HW126570   1.818   2.349  12.525 -1.5817 -3.3838  0.6072
 4978SOL    HW226571   1.891   2.395  12.641 -0.0632  0.3179  1.7642
 4979SOL     OW26572   4.095   4.206   1.463 -0.1267  0.1511  0.1539
 4979SOL    HW126573   4.101   4.301   1.455  0.2453 -0.0507 -1.8700
 4979SOL    HW226574   4.142   4.190   1.545  0.2011  0.7547  0.0826
 4980SOL     OW26575   2.066   1.263   4.957 -0.2325 -0.7245  0.5286
 4980SOL    HW126576   2.055   1.327   5.028 -2.1234 -2.3201  1.6566
 4980SOL    HW226577   2.157   1.234   4.966 -0.6107 -1.6173  1.4084
 4981SOL     OW26578   1.818   4.035  16.343  0.1875  0.3487 -0.1231
 4981SOL    HW126579   1.835   4.127  16.368  1.4267  0.4298 -1.2985
 4981SOL    HW226580   1.722   4.032  16.352  0.3889 -0.1248  1.8425
 4982SOL     OW26581   0.183   2.121   9.426 -0.0509  0.3163 -0.1341
 4982SOL    HW126582   0.242   2.185   9.386  0.5316  0.3101  0.7197
 4982SOL    HW226583   0.115   2.133   9.360  1.5781  0.1111 -1.8328
 4983SOL     OW26584   2.545   3.026   2.349 -0.2171 -0.7395  0.0434
 4983SOL    HW126585   2.454   3.033   2.320 -0.0474  1.0406 -0.0615
 4983SOL    HW226586   2.577   2.996   2.263 -0.6795 -0.9016 -0.0756
 4984SOL     OW26587   2.872   4.518   9.397  0.1677  0.4610 -0.0028
 4984SOL    HW126588   2.865   4.598   9.448  0.6694 -0.3241  1.2944
 4984SOL    HW226589   2.779   4.512   9.372  0.2371 -1.4027  0.1857
 4985SOL     OW26590   2.906   3.200   5.222 -0.1188  0.4866  0.5683
 4985SOL    HW126591   2.996   3.175   5.238  0.1586 -0.0680 -1.7622
 4985SOL    HW226592   2.923   3.288   5.187  0.6343  0.8809  1.9239
 4986SOL     OW26593   0.313   1.976   1.954 -0.3786 -0.2773  0.4116
 4986SOL    HW126594   0.363   2.042   1.907  3.7235 -0.4549  4.5689
 4986SOL    HW226595   0.369   1.898   1.960 -2.0169 -1.3880  1.3646
 4987SOL     OW26596   0.706   3.791   8.465 -0.0924  0.0777 -0.0977
 4987SOL    HW126597   0.789   3.831   8.440  1.6858 -3.3508  0.4353
 4987SOL    HW226598   0.662   3.779   8.381  1.1685  3.1909 -1.2051
 4988SOL     OW26599   1.294   0.383  16.978 -0.2914 -0.3733  0.0718
 4988SOL    HW126600   1.349   0.430  16.915 -1.4951  1.7890  0.6256
 4988SOL    HW226601   1.322   0.291  16.973  3.3424  0.8350 -1.8698
 4989SOL     OW26602   1.806   0.572   4.779 -0.3107 -0.6378  0.1635
 4989SOL    HW126603   1.836   0.494   4.733  0.4498  0.5719 -1.3921
 4989SOL    HW226604   1.796   0.633   4.706  2.4332 -1.8771 -1.2367
 4990SOL     OW26605   2.912   3.554   7.753  0.5759 -0.1984  0.7758
 4990SOL    HW126606   2.877   3.538   7.841 -1.2578 -0.4227  0.0143
 4990SOL    HW226607   2.903   3.464   7.720  0.9321  0.2110 -0.4584
 4991SOL     OW26608   3.911   4.495   3.333  0.1126 -0.0175  0.0692
 4991SOL    HW126609   3.924   4.472   3.241 -1.4830  1.0987 -0.4261
 4991SOL    HW226610   3.983   4.439   3.363 -0.2793 -0.2115  0.6537
 4992SOL     OW26611   0.492   1.051  15.687 -0.0742  0.4019 -0.0518
 4992SOL    HW126612   0.463   1.051  15.596  1.9444 -1.9277 -0.6984
 4992SOL    HW226613   0.508   1.141  15.714 -0.0002  0.4085 -0.1164
 4993SOL     OW26614   0.392   0.598   2.178 -0.1545  0.2643 -0.2947
 4993SOL    HW126615   0.455   0.588   2.106  1.3410 -0.0443  1.0416
 4993SOL    HW226616   0.396   0.514   2.225 -0.6173 -0.6617 -1.9315
 4994SOL     OW26617   4.586   0.233   9.051 -0.2097 -0.4905  0.2057
 4994SOL    HW126618   4.533   0.306   9.084  1.1804  0.1568  1.0168
 4994SOL    HW226619   4.662   0.243   9.108  0.0750  1.4856 -0.5040
 4995SOL     OW26620   2.735   0.017  11.312  0.0186  0.5541  0.1815
 4995SOL    HW126621   2.719   4.716  11.226  0.8118  1.6833 -0.4539
 4995SOL    HW226622   2.822   0.054  11.301 -0.4813  1.6829  0.0367
 4996SOL     OW26623   3.189   3.037   7.971  0.2640 -0.3057 -0.5567
 4996SOL    HW126624   3.207   2.946   7.994 -1.6179 -1.1052 -2.2348
 4996SOL    HW226625   3.167   3.027   7.878  1.1859  0.7734 -0.8980
 4997SOL     OW26626   4.098   4.586   8.956 -0.1700 -0.5394  0.3542
 4997SOL    HW126627   4.178   4.535   8.943  1.0284  1.4592 -0.2493
 4997SOL    HW226628   4.080   4.614   8.866  2.0911 -0.7324 -0.1736
 4998SOL     OW26629   2.205   1.452   0.673 -0.8304 -0.3846  0.2264
 4998SOL    HW126630   2.262   1.390   0.627  1.1894  2.1769 -0.7080
 4998SOL    HW226631   2.192   1.519   0.606  0.5415 -0.1403  0.2156
 4999SOL     OW26632   3.658   0.066   5.891  0.7242 -0.3034  0.2487
 4999SOL    HW126633   3.723   0.132   5.870 -0.8589  0.9062 -0.8179
 4999SOL    HW226634   3.696   0.025   5.970 -1.4207 -0.3549  1.2566
 5000SOL     OW26635   4.631   0.831   2.670 -0.6177  0.4736  0.1006
 5000SOL    HW126636   4.548   0.813   2.715 -0.2251 -0.3328  0.5060
 5000SOL    HW226637   4.693   0.805   2.738  2.3554  1.3530 -2.2709
 5001SOL     OW26638   1.385   1.382   3.713 -0.2066  0.0018  0.8520
 5001SOL    HW126639   1.424   1.469   3.705 -0.6721 -0.0148 -1.8588
 5001SOL    HW226640   1.339   1.365   3.631  0.8342  0.1628  0.2280
 5002SOL     OW26641   3.033   2.860   6.175 -0.0523  0.2702  0.2089
 5002SOL    HW126642   2.952   2.854   6.225 -2.2806 -1.4067 -3.6894
 5002SOL    HW226643   3.090   2.918   6.226 -1.1873  1.6691 -0.1119
 5003SOL     OW26644   2.409   1.554   9.559 -0.2497 -0.8153  0.3462
 5003SOL    HW126645   2.462   1.475   9.546  0.5785  0.0175 -1.3793
 5003SOL    HW226646   2.411   1.551   9.655 -1.4057 -0.5230  0.3748
 5004SOL     OW26647   3.009   3.427   5.149 -0.3899 -0.2777 -0.4088
 5004SOL    HW126648   3.083   3.486   5.137 -0.0651 -0.1072  2.5551
 5004SOL    HW226649   2.949   3.491   5.111  0.2708  1.1120  0.9345
 5005SOL     OW26650   2.922   1.666  17.092  0.5052 -0.4088  0.2054
 5005SOL    HW126651   2.909   1.698  17.002  0.1166 -1.2331 -0.0320
 5005SOL    HW226652   3.005   1.707  17.116  0.2789 -0.2151  0.6511
 5006SOL     OW26653   2.731   4.709   6.836 -0.2480  0.2095 -0.7206
 5006SOL    HW126654   2.750   4.628   6.789 -2.1584 -0.9895  0.6040
 5006SOL    HW226655   2.655   4.673   6.881  0.5119  1.1137  1.2614
 5007SOL     OW26656   0.082   3.804   6.638 -0.3863  0.1197  0.0402
 5007SOL    HW126657   0.097   3.820   6.545  0.6036 -0.0322  0.1732
 5007SOL    HW226658   0.138   3.731   6.663  0.1843  0.3791 -0.4905
 5008SOL     OW26659   4.283   3.568   7.168  0.8170  0.1784  0.2277
 5008SOL    HW126660   4.246   3.602   7.086  0.0341  0.5490  0.7342
 5008SOL    HW226661   4.372   3.545   7.141 -0.3643 -1.0682 -2.6907
 5009SOL     OW26662   2.112   4.436  15.208  0.0039  0.7192  0.2162
 5009SOL    HW126663   2.100   4.508  15.146  1.6169  0.1590 -0.7289
 5009SOL    HW226664   2.115   4.356  15.156  0.2381  0.0679  1.2238
 5010SOL     OW26665   4.648   1.051   5.135 -0.3237  0.2754  0.3568
 5010SOL    HW126666   4.634   1.127   5.078  1.9050  2.3865  2.5958
 5010SOL    HW226667   4.693   1.092   5.209  0.5262 -0.1124  0.0537
 5011SOL     OW26668   2.618   2.402   9.745  0.2752 -0.4151  0.4936
 5011SOL    HW126669   2.674   2.408   9.667 -1.5226  0.0930 -0.7655
 5011SOL    HW226670   2.657   2.463   9.807 -0.0038  0.4306 -0.1678
 5012SOL     OW26671   3.819   2.661   2.219 -0.0728  0.5105  0.2191
 5012SOL    HW126672   3.801   2.749   2.186  1.4091  0.9368  0.5248
 5012SOL    HW226673   3.913   2.667   2.202  0.3501 -0.9939  2.0827
 5013SOL     OW26674   0.863   3.012  17.573  0.2975 -0.1570 -0.2017
 5013SOL    HW126675   0.871   2.971  17.486 -0.6131  0.4562 -0.5712
 5013SOL    HW226676   0.844   3.104  17.554  0.2437 -0.4061 -1.3775
 5014SOL     OW26677   0.709   0.326   5.767  1.0404  0.0709 -0.5584
 5014SOL    HW126678   0.750   0.251   5.723  0.0358  0.2973 -1.8855
 5014SOL    HW226679   0.782   0.388   5.773 -0.1917  1.3528  1.0478
 5015SOL     OW26680   0.232   2.649   2.238  0.2105  0.2819 -0.1815
 5015SOL    HW126681   0.215   2.700   2.159  2.1502 -1.9426 -2.0536
 5015SOL    HW226682   0.189   2.703   2.304  0.2693  1.1483 -0.8591
 5016SOL     OW26683   0.952   1.210   4.069 -0.1137 -0.2169 -0.5856
 5016SOL    HW126684   0.997   1.228   3.986  1.0360 -4.9324 -0.9874
 5016SOL    HW226685   0.871   1.181   4.026 -0.4378  0.9468 -0.7524
 5017SOL     OW26686   3.879   3.321   4.448 -0.1825  0.3439 -0.1960
 5017SOL    HW126687   3.866   3.294   4.539  0.8357  0.1085 -0.1159
 5017SOL    HW226688   3.956   3.379   4.452  0.6036 -0.7007 -0.3294
 5018SOL     OW26689   2.205   3.742  13.134  0.3737  0.1050  0.2868
 5018SOL    HW126690   2.113   3.733  13.160  1.0240  0.0206  2.5947
 5018SOL    HW226691   2.194   3.784  13.049  2.6194 -1.3219 -0.6917
 5019SOL     OW26692   0.367   3.462   5.452  0.2323  0.1913  0.4475
 5019SOL    HW126693   0.454   3.441   5.419 -0.5221  0.1611 -1.5362
 5019SOL    HW226694   0.343   3.540   5.401 -1.1101  0.4677  1.4923
 5020SOL     OW26695   3.739   1.717  16.682  0.4152 -0.2524 -0.5710
 5020SOL    HW126696   3.718   1.762  16.764  0.9733 -0.4068 -0.3414
 5020SOL    HW226697   3.653   1.720  16.640  0.6316  1.1997 -0.9032
 5021SOL     OW26698   3.112   4.536   7.208 -0.0124  0.1447 -0.0427
 5021SOL    HW126699   3.085   4.588   7.132  1.5558  0.1543 -0.6083
 5021SOL    HW226700   3.076   4.594   7.274  0.1889 -0.7177  0.8210
 5022SOL     OW26701   1.433   1.608   0.024  0.7674  0.3213 -0.1163
 5022SOL    HW126702   1.459   1.669   0.093 -0.3086 -0.7900  1.2784
 5022SOL    HW226703   1.444   1.668  17.696  1.5335  0.7054  0.3109
 5023SOL     OW26704   2.602   4.570   1.739 -0.1729  0.4705 -0.0081
 5023SOL    HW126705   2.516   4.612   1.746 -1.0288 -1.4390  0.8588
 5023SOL    HW226706   2.642   4.617   1.666 -2.5616  2.5325  0.0126
 5024SOL     OW26707   3.864   1.285  16.729  0.0051  0.1028  0.2756
 5024SOL    HW126708   3.781   1.288  16.681  0.7926 -0.2723 -1.1028
 5024SOL    HW226709   3.865   1.369  16.774 -1.8202 -0.5937  1.6557
 5025SOL     OW26710   1.533   2.241   1.038 -0.1348 -0.1288 -0.8302
 5025SOL    HW126711   1.517   2.239   1.132  0.9005  1.2760 -0.6266
 5025SOL    HW226712   1.599   2.309   1.023  0.1390 -0.0170  0.9658
 5026SOL     OW26713   0.702   0.733   4.231  0.8484 -1.2648  0.1666
 5026SOL    HW126714   0.706   0.638   4.222  2.4075 -0.9720 -2.3097
 5026SOL    HW226715   0.794   0.758   4.245  0.1773  1.4201 -0.2961
 5027SOL     OW26716   2.889   1.846   4.080 -0.4304  0.2369 -0.8213
 5027SOL    HW126717   2.829   1.860   4.153 -0.4439 -0.2739 -0.7318
 5027SOL    HW226718   2.968   1.881   4.121 -0.3099 -1.0325  0.0420
 5028SOL     OW26719   2.284   0.884   4.115 -0.4271 -0.2622  0.0581
 5028SOL    HW126720   2.363   0.831   4.109 -0.9962 -1.2007  0.8169
 5028SOL    HW226721   2.268   0.899   4.022  1.0476  0.8526 -0.0088
 5029SOL     OW26722   3.556   0.515   7.547 -0.2455 -0.5899 -0.0276
 5029SOL    HW126723   3.587   0.454   7.481  0.8706  0.0904 -0.1357
 5029SOL    HW226724   3.574   0.596   7.499  0.5038 -0.5540  0.3100
 5030SOL     OW26725   4.265   3.718   2.256 -0.4944 -0.2707  0.0458
 5030SOL    HW126726   4.206   3.787   2.228  1.2182  0.6458 -1.3099
 5030SOL    HW226727   4.344   3.754   2.215 -1.7744 -1.2594 -3.2836
 5031SOL     OW26728   1.202   4.223  11.723 -0.0757  0.4127  0.8770
 5031SOL    HW126729   1.175   4.225  11.631 -0.5183 -0.2926  0.9908
 5031SOL    HW226730   1.134   4.163  11.753 -0.7391  1.3355  1.2352
 5032SOL     OW26731   0.765   4.272   4.283 -0.2723  0.6114  0.2730
 5032SOL    HW126732   0.726   4.260   4.197  0.1190 -0.4443  0.2414
 5032SOL    HW226733   0.779   4.366   4.293 -1.8083  0.9132 -0.3871
 5033SOL     OW26734   2.077   1.100   1.586 -0.2100 -0.2043  0.0882
 5033SOL    HW126735   2.144   1.031   1.585 -0.5802 -0.5942  2.9278
 5033SOL    HW226736   2.127   1.179   1.604  2.1598 -1.7606  0.3512
 5034SOL     OW26737   2.021   1.587   1.491  0.3211 -0.5752  0.0834
 5034SOL    HW126738   1.986   1.515   1.439 -0.4153  0.5764 -1.0048
 5034SOL    HW226739   2.115   1.568   1.495  0.5709  0.2719 -1.8791
 5035SOL     OW26740   2.291   0.790   2.758  0.1793 -0.5195  0.4879
 5035SOL    HW126741   2.358   0.797   2.690 -0.9512  1.2652 -0.4242
 5035SOL    HW226742   2.312   0.701   2.786  0.0678 -0.4067  0.9263
 5036SOL     OW26743   3.437   0.582   8.350 -0.3723  0.3765 -0.0364
 5036SOL    HW126744   3.409   0.663   8.393  1.3207  1.7870 -1.6222
 5036SOL    HW226745   3.514   0.611   8.301  0.3788 -2.1206 -0.2918
 5037SOL     OW26746   3.855   3.225   4.709  0.4169 -0.3666  0.3782
 5037SOL    HW126747   3.933   3.279   4.722 -0.1297  0.8536 -1.4477
 5037SOL    HW226748   3.894   3.153   4.758 -0.8603  0.5510  2.7567
 5038SOL     OW26749   4.586   4.477  12.987  0.5139 -0.3917  0.1218
 5038SOL    HW126750   4.595   4.416  13.060  2.6179  0.0887  0.2582
 5038SOL    HW226751   4.510   4.435  12.947  0.3661  1.0659 -1.1604
 5039SOL     OW26752   0.052   3.958   2.259  0.2587 -1.0522 -0.4064
 5039SOL    HW126753   0.116   3.973   2.189  0.0013 -1.2481 -0.6847
 5039SOL    HW226754   0.112   3.975   2.332  2.9710  3.0789 -3.6335
 5040SOL     OW26755   1.852   3.741  16.986  0.2707 -0.4773 -0.6448
 5040SOL    HW126756   1.922   3.800  17.013 -0.4651  0.7697 -1.4700
 5040SOL    HW226757   1.847   3.758  16.892  0.1101  0.2413 -0.5056
 5041SOL     OW26758   2.658   4.435   6.776 -0.3617  0.4639 -0.2071
 5041SOL    HW126759   2.672   4.340   6.781 -3.2063  0.2179  2.8803
 5041SOL    HW226760   2.623   4.444   6.687 -1.0975 -0.4149 -0.0024
 5042SOL     OW26761   2.874   1.154   3.573  0.0210 -0.3419 -0.2022
 5042SOL    HW126762   2.862   1.229   3.514  0.0864 -0.7412 -0.7273
 5042SOL    HW226763   2.895   1.194   3.657 -1.8733 -0.7916  0.4822
 5043SOL     OW26764   2.054   2.582   6.148  0.5570  0.0005  0.3186
 5043SOL    HW126765   1.987   2.536   6.199 -0.2635  1.9296  0.9881
 5043SOL    HW226766   2.017   2.557   6.064 -1.7509 -0.5241  1.4964
 5044SOL     OW26767   4.526   0.764  10.043  0.5132 -0.5980  0.6574
 5044SOL    HW126768   4.470   0.831  10.083 -1.3332 -3.5919  2.9922
 5044SOL    HW226769   4.542   0.797   9.954 -0.2840  0.3144  0.8545
 5045SOL     OW26770   0.094   0.859   5.106 -0.0881  0.2216  0.4440
 5045SOL    HW126771   0.033   0.932   5.121  0.8480  1.7928 -3.4150
 5045SOL    HW226772   0.177   0.906   5.103  1.0097 -1.8022 -0.5206
 5046SOL     OW26773   2.768   1.338  13.069 -0.5545  0.5866  0.5574
 5046SOL    HW126774   2.833   1.335  12.999  0.3309  0.6145  1.3605
 5046SOL    HW226775   2.689   1.350  13.018 -0.3669 -2.1742 -0.3752
 5047SOL     OW26776   3.248   0.017   4.504 -0.5174 -0.2848  0.0545
 5047SOL    HW126777   3.293   4.701   4.437 -1.4889 -0.5013 -0.4289
 5047SOL    HW226778   3.160   4.716   4.506 -0.1536 -1.1554 -0.3534
 5048SOL     OW26779   4.334   0.090  10.160 -0.5590 -0.0642  0.5066
 5048SOL    HW126780   4.266   0.034  10.197 -1.1931  0.6593  0.4359
 5048SOL    HW226781   4.291   0.167  10.122 -0.3772 -0.0680  0.2951
 5049SOL     OW26782   4.286   1.592  14.646 -0.9880  0.2303  0.8357
 5049SOL    HW126783   4.347   1.572  14.716  0.2889  0.1440 -0.3133
 5049SOL    HW226784   4.213   1.531  14.660 -1.4988  0.2306 -1.8042
 5050SOL     OW26785   2.457   0.736   6.024 -0.1023  0.3276 -0.3423
 5050SOL    HW126786   2.368   0.706   6.007 -0.1166  0.0594  0.2163
 5050SOL    HW226787   2.507   0.656   6.004 -1.1255 -0.2894 -0.4063
 5051SOL     OW26788   3.402   2.723  11.070 -0.2138 -0.4253 -0.2379
 5051SOL    HW126789   3.459   2.673  11.129 -0.6903 -0.4838  0.1737
 5051SOL    HW226790   3.315   2.688  11.086 -1.4727  0.7962 -4.4843
 5052SOL     OW26791   0.666   2.534   3.939 -0.4654 -0.2040 -0.0527
 5052SOL    HW126792   0.604   2.606   3.944 -1.3943 -1.1047  1.2683
 5052SOL    HW226793   0.713   2.537   3.856  1.6940 -0.5130  1.1540
 5053SOL     OW26794   3.568   4.708  12.794 -0.1104 -0.3465  0.3162
 5053SOL    HW126795   3.560   0.065  12.806  0.6237 -0.1778 -0.4953
 5053SOL    HW226796   3.655   4.699  12.753  0.7545 -2.6890  2.6422
 5054SOL     OW26797   0.081   4.363   9.250 -0.1234 -0.0462 -0.8033
 5054SOL    HW126798   0.117   4.439   9.295 -1.9000  0.2983  0.0732
 5054SOL    HW226799   0.027   4.411   9.187 -1.3185 -0.9907 -0.4971
 5055SOL     OW26800   3.617   0.378   6.019 -0.0154 -0.0593 -0.4334
 5055SOL    HW126801   3.576   0.459   5.989 -1.2139 -0.2364  0.6651
 5055SOL    HW226802   3.677   0.357   5.948  1.3431  0.0956  0.6626
 5056SOL     OW26803   2.062   1.427   7.922 -0.2881 -0.3391  0.3871
 5056SOL    HW126804   2.026   1.363   7.861  1.2599  1.2736 -2.2086
 5056SOL    HW226805   2.149   1.433   7.883 -0.0314  0.9567  1.1527
 5057SOL     OW26806   2.485   1.734   2.159 -0.0129 -0.1976 -0.0841
 5057SOL    HW126807   2.446   1.760   2.242  1.3676 -2.0795  1.1599
 5057SOL    HW226808   2.569   1.778   2.170 -0.6477  0.9198  0.2394
 5058SOL     OW26809   2.626   2.614   8.503 -0.0016 -0.0255 -0.9842
 5058SOL    HW126810   2.559   2.570   8.450  0.1781 -0.0513 -1.1890
 5058SOL    HW226811   2.657   2.674   8.435 -1.4271  0.6750 -1.0340
 5059SOL     OW26812   0.137   1.786  16.182  0.3873 -0.1481  0.3080
 5059SOL    HW126813   0.179   1.784  16.268  2.3426  1.2907 -0.6190
 5059SOL    HW226814   0.166   1.871  16.149 -0.9274 -1.1629 -3.4730
 5060SOL     OW26815   1.370   4.115   9.101  0.4246  0.2624  0.5344
 5060SOL    HW126816   1.380   4.176   9.174  0.0400 -0.4539  1.1953
 5060SOL    HW226817   1.395   4.158   9.020  2.2086 -0.0490  0.9067
 5061SOL     OW26818   1.343   1.415   2.539 -0.1935  0.0585  0.1130
 5061SOL    HW126819   1.434   1.387   2.525 -0.0188 -0.8179  3.0705
 5061SOL    HW226820   1.314   1.406   2.449  0.1268 -0.6444  0.0800
 5062SOL     OW26821   4.534   1.754   2.620 -0.3948  0.7747  0.1709
 5062SOL    HW126822   4.545   1.669   2.578  0.3192  0.3637  1.1874
 5062SOL    HW226823   4.626   1.777   2.633 -0.6546  1.5635  0.6238
 5063SOL     OW26824   4.649   0.713   2.379 -0.4301 -0.1430  0.1651
 5063SOL    HW126825   4.666   0.779   2.447 -2.2977  1.3852 -0.8777
 5063SOL    HW226826   4.735   0.679   2.353  0.0089 -0.6815  2.2982
 5064SOL     OW26827   3.810   0.583  11.547 -0.2249  0.6190 -0.5052
 5064SOL    HW126828   3.794   0.586  11.641  0.8414  0.2681 -0.3170
 5064SOL    HW226829   3.831   0.490  11.534  0.4176  0.5844  0.8023
 5065SOL     OW26830   0.076   3.294   4.183  0.2981 -0.4258  0.3803
 5065SOL    HW126831   0.003   3.273   4.124  1.3968  0.1088 -1.1605
 5065SOL    HW226832   0.155   3.271   4.136  2.5748  0.0780  3.9484
 5066SOL     OW26833   2.616   3.037   8.687 -0.0401 -0.0163 -0.5231
 5066SOL    HW126834   2.689   3.009   8.630  0.0164  0.6104 -0.7622
 5066SOL    HW226835   2.538   2.989   8.659 -1.3661  0.9564  1.5608
 5067SOL     OW26836   2.354   4.656   7.611 -0.0608 -0.4384  0.1115
 5067SOL    HW126837   2.436   4.686   7.572 -2.4842  0.5265 -4.2838
 5067SOL    HW226838   2.392   4.587   7.665 -0.3966 -0.2289  0.6113
 5068SOL     OW26839   3.811   4.433   6.593  0.3343 -0.1348 -0.5391
 5068SOL    HW126840   3.736   4.415   6.536  0.2594 -3.4949  0.6067
 5068SOL    HW226841   3.778   4.406   6.679 -0.8735 -1.0448 -1.2898
 5069SOL     OW26842   2.640   3.182   2.983 -0.1884  0.1234  0.0964
 5069SOL    HW126843   2.660   3.250   3.048 -1.3933  0.8719 -0.3141
 5069SOL    HW226844   2.695   3.201   2.907 -0.5551  0.6525 -0.0389
 5070SOL     OW26845   1.173   0.756   1.059 -0.1287 -0.0790  0.1093
 5070SOL    HW126846   1.248   0.701   1.035 -0.6901 -1.4572  1.5445
 5070SOL    HW226847   1.203   0.764   1.149  1.5353  1.9136 -0.6091
 5071SOL     OW26848   3.408   3.009   9.029  0.2950 -0.1862 -0.1561
 5071SOL    HW126849   3.470   2.952   8.983 -0.9070 -0.7127 -1.1407
 5071SOL    HW226850   3.375   2.954   9.101  0.9940 -1.1269 -0.5525
 5072SOL     OW26851   4.587   1.443   5.366 -0.0912 -0.1914  0.4495
 5072SOL    HW126852   4.681   1.443   5.347 -0.1190  1.6893  0.2556
 5072SOL    HW226853   4.560   1.489   5.286 -1.1677  0.0898  0.9787
 5073SOL     OW26854   1.450   3.643   4.416 -0.7285  0.3944 -0.0054
 5073SOL    HW126855   1.417   3.717   4.366 -1.2209  0.1219 -0.0866
 5073SOL    HW226856   1.371   3.589   4.417 -0.4258 -0.0461  0.2119
 5074SOL     OW26857   1.267   3.013   0.319  0.0933 -0.2445  0.0489
 5074SOL    HW126858   1.263   2.937   0.377  0.0990 -1.5487 -1.6503
 5074SOL    HW226859   1.279   3.092   0.372  2.4208  0.7869 -1.9872
 5075SOL     OW26860   1.591   4.291   9.908  0.2741  0.0042  0.1643
 5075SOL    HW126861   1.677   4.248   9.908 -0.7102 -1.9224 -0.3463
 5075SOL    HW226862   1.551   4.219   9.956 -0.4781  0.5614  0.3736
 5076SOL     OW26863   1.746   2.626   4.703  0.4867  0.1793 -0.7074
 5076SOL    HW126864   1.746   2.717   4.674 -4.1150 -0.0534 -1.3277
 5076SOL    HW226865   1.699   2.588   4.628 -2.1701 -2.4200  2.2814
 5077SOL     OW26866   3.506   3.315  16.758  0.3014  0.1106 -0.0670
 5077SOL    HW126867   3.412   3.321  16.773  0.2718 -0.8400  0.1268
 5077SOL    HW226868   3.509   3.250  16.688  0.8799 -0.2417  0.2781
 5078SOL     OW26869   3.692   0.837   5.753 -0.3515  0.1810  0.1613
 5078SOL    HW126870   3.704   0.931   5.761 -1.6158  0.3313  0.2542
 5078SOL    HW226871   3.705   0.811   5.661  1.6933 -0.7787  0.7100
 5079SOL     OW26872   2.355   3.737   5.982  0.3130 -0.6435  0.2454
 5079SOL    HW126873   2.309   3.675   5.926  1.7003  0.5458 -2.1813
 5079SOL    HW226874   2.293   3.810   5.985  0.5174 -0.4196 -1.4568
 5080SOL     OW26875   0.847   0.717   6.054  0.3790  0.5619 -0.0797
 5080SOL    HW126876   0.935   0.753   6.045  0.6916  0.2171  1.5232
 5080SOL    HW226877   0.869   0.667   6.133  0.9447  0.8054 -0.0796
 5081SOL     OW26878   3.459   2.621   8.870 -0.0621 -0.1308  0.0179
 5081SOL    HW126879   3.540   2.656   8.832  0.2263  0.0019  0.7377
 5081SOL    HW226880   3.505   2.575   8.940 -1.3828 -0.7761  0.4496
 5082SOL     OW26881   2.156   3.010   5.651  0.5799  0.2679  0.1381
 5082SOL    HW126882   2.156   3.095   5.696  0.0186 -0.5156  1.6216
 5082SOL    HW226883   2.147   3.040   5.561  0.1036 -1.6581 -0.4379
 5083SOL     OW26884   2.854   0.151   9.234 -0.1019 -0.0394  0.1307
 5083SOL    HW126885   2.764   0.164   9.202  0.0876  1.6504  0.2757
 5083SOL    HW226886   2.829   0.113   9.318  2.0427 -1.9044 -0.0826
 5084SOL     OW26887   1.188   0.396   3.560  0.6255 -0.4923 -0.1718
 5084SOL    HW126888   1.175   0.351   3.477 -0.7270  0.2750 -0.3678
 5084SOL    HW226889   1.216   0.485   3.538  1.3809 -0.4870  0.7997
 5085SOL     OW26890   2.868   0.375   5.805  0.7605 -0.3247 -0.6547
 5085SOL    HW126891   2.838   0.331   5.885 -1.3589  1.4997 -0.4605
 5085SOL    HW226892   2.795   0.433   5.786 -0.7186 -2.0107 -0.1543
 5086SOL     OW26893   0.602   4.469   8.630  0.0709  0.0252 -0.3232
 5086SOL    HW126894   0.644   4.457   8.545  1.6549 -0.6942  0.5531
 5086SOL    HW226895   0.670   4.523   8.671  1.0801 -1.4020 -0.1268
 5087SOL     OW26896   2.737   4.339   4.185  0.0257 -0.1478  0.2347
 5087SOL    HW126897   2.717   4.378   4.270 -0.3888  0.3432 -0.0833
 5087SOL    HW226898   2.767   4.249   4.197  3.5311  1.3421  2.6248
 5088SOL     OW26899   3.067   4.049  15.438 -0.0221  0.0388  0.7440
 5088SOL    HW126900   3.005   4.079  15.504  2.5364  2.1709  2.1568
 5088SOL    HW226901   3.105   3.971  15.478  0.8722  0.1940  0.2083
 5089SOL     OW26902   2.611   0.141   4.909  0.2463 -0.4595  0.3672
 5089SOL    HW126903   2.632   0.112   4.998 -0.1610 -2.5062 -0.2045
 5089SOL    HW226904   2.516   0.141   4.919  0.1213 -0.2279 -0.8362
 5090SOL     OW26905   3.230   1.563   7.875 -0.2894 -0.2869  0.1404
 5090SOL    HW126906   3.174   1.638   7.857  0.3957  0.3039  0.4411
 5090SOL    HW226907   3.201   1.497   7.812 -1.1538  0.8481 -0.6506
 5091SOL     OW26908   2.857   1.522   4.431  0.2953 -0.2208 -0.2710
 5091SOL    HW126909   2.876   1.508   4.524 -0.5028  0.3906 -0.0105
 5091SOL    HW226910   2.808   1.440   4.425  0.6640 -0.4139 -0.5733
 5092SOL     OW26911   4.248   2.322   4.678  0.3709 -0.1507 -0.2858
 5092SOL    HW126912   4.156   2.335   4.656 -0.2360 -2.3882  0.8785
 5092SOL    HW226913   4.257   2.381   4.752  0.4670 -1.4873  0.7591
 5093SOL     OW26914   4.724   0.200   6.006 -0.1222 -0.0052 -0.3192
 5093SOL    HW126915   4.696   0.264   6.071  0.1565 -1.1142  0.8879
 5093SOL    HW226916   4.662   0.129   6.017  0.5196 -0.1702  2.3232
 5094SOL     OW26917   1.708   3.484   4.294  0.2427  0.0062 -0.3254
 5094SOL    HW126918   1.698   3.554   4.357 -2.1790 -1.1263  0.5579
 5094SOL    HW226919   1.690   3.536   4.215  2.6264 -2.3706 -2.4484
 5095SOL     OW26920   3.574   0.071   8.172  0.0962 -0.3099  0.2751
 5095SOL    HW126921   3.572   0.145   8.112 -0.8692 -1.0299 -0.5823
 5095SOL    HW226922   3.670   0.070   8.181  0.0418 -0.5372  0.8340
 5096SOL     OW26923   0.565   1.560  11.064 -0.0791  0.1288  0.1005
 5096SOL    HW126924   0.633   1.627  11.076 -2.2551  2.2697  0.3038
 5096SOL    HW226925   0.576   1.529  10.974  0.1923 -1.3203  0.6205
 5097SOL     OW26926   2.371   1.399   7.037 -0.0960 -0.3195  0.1143
 5097SOL    HW126927   2.319   1.402   6.957  1.4199  0.3205 -0.8316
 5097SOL    HW226928   2.345   1.309   7.059 -2.1860  0.6297  1.5935
 5098SOL     OW26929   0.319   2.986   4.326  0.3643 -0.0055  0.0467
 5098SOL    HW126930   0.318   3.010   4.418 -0.2659  2.7899 -0.6917
 5098SOL    HW226931   0.401   3.024   4.294  0.5115  0.1742  0.6340
 5099SOL     OW26932   3.818   4.596   9.527 -0.0197 -0.5985 -0.2785
 5099SOL    HW126933   3.853   4.683   9.547  2.0094 -2.0257  2.4250
 5099SOL    HW226934   3.902   4.550   9.533  0.0590 -0.4746 -0.4366
 5100SOL     OW26935   2.930   3.360   2.470  0.3732 -0.4325 -0.3687
 5100SOL    HW126936   3.018   3.322   2.467 -0.2321 -1.8639  0.4512
 5100SOL    HW226937   2.881   3.282   2.444  0.4049 -0.5344 -0.1246
 5101SOL     OW26938   4.721   3.893   4.650  0.1535 -0.1495  0.2931
 5101SOL    HW126939   0.072   3.877   4.684  0.0459 -1.7946 -0.2066
 5101SOL    HW226940   4.727   3.850   4.565 -0.2753  0.1117  0.1325
 5102SOL     OW26941   1.592   1.517   0.368 -0.7995  0.8898 -0.3353
 5102SOL    HW126942   1.523   1.452   0.359 -2.1624  2.4292 -1.0013
 5102SOL    HW226943   1.546   1.585   0.418  0.2278  2.1040 -1.0418
 5103SOL     OW26944   1.502   3.702  14.881 -0.3871  0.1930 -0.0797
 5103SOL    HW126945   1.463   3.683  14.966  2.7753  0.1067  1.3282
 5103SOL    HW226946   1.560   3.773  14.908  2.4002 -1.9048 -0.5925
 5104SOL     OW26947   3.985   4.174  16.035 -0.0903  0.2502 -0.2290
 5104SOL    HW126948   3.985   4.079  16.047 -2.0734  0.2226 -0.4173
 5104SOL    HW226949   3.895   4.184  16.004 -0.7256 -3.9239  0.2359
 5105SOL     OW26950   3.687   1.041  13.172 -0.0964 -0.6110  0.9209
 5105SOL    HW126951   3.686   1.059  13.078  0.1663 -0.8640  0.8694
 5105SOL    HW226952   3.781   1.031  13.186  0.4536  2.1727 -0.8202
 5106SOL     OW26953   2.778   2.272   8.754  0.1963 -0.6331 -0.1200
 5106SOL    HW126954   2.786   2.347   8.813 -0.0089  0.3080 -1.2701
 5106SOL    HW226955   2.864   2.231   8.761  0.3139 -0.3078  0.3236
 5107SOL     OW26956   0.297   1.098   7.749 -0.3133 -0.2693  0.4572
 5107SOL    HW126957   0.342   1.156   7.810 -0.4686 -0.9445  1.2137
 5107SOL    HW226958   0.353   1.117   7.674 -1.9892  0.9193 -0.4935
 5108SOL     OW26959   1.445   1.141  17.060 -0.0241  0.5881 -0.1810
 5108SOL    HW126960   1.501   1.067  17.085  1.0361  2.4682  3.0167
 5108SOL    HW226961   1.434   1.136  16.965  1.2195 -1.3831 -0.2168
 5109SOL     OW26962   1.526   3.851   3.960 -0.2592  0.2622 -0.6977
 5109SOL    HW126963   1.468   3.797   3.907 -0.0293 -0.5751 -0.0939
 5109SOL    HW226964   1.584   3.896   3.898 -0.3063  1.3234  0.0295
 5110SOL     OW26965   0.009   2.710   3.061 -0.1353 -0.2478 -0.5472
 5110SOL    HW126966   0.020   2.630   3.010 -1.4770 -0.5868 -0.3244
 5110SOL    HW226967   4.701   2.766   2.997 -0.7979  2.4976  2.3036
 5111SOL     OW26968   3.440   2.209  14.408  0.0253  0.0841 -0.1482
 5111SOL    HW126969   3.439   2.277  14.341  2.6961  1.4660  1.2197
 5111SOL    HW226970   3.418   2.260  14.486  2.2852  1.1131 -0.1861
 5112SOL     OW26971   3.158   2.826   3.882 -0.1821  0.6463 -0.8382
 5112SOL    HW126972   3.217   2.815   3.956 -0.8041 -0.8009 -0.5422
 5112SOL    HW226973   3.094   2.891   3.913  0.8148 -0.6079  3.7997
 5113SOL     OW26974   1.818   0.782  17.000 -0.0886 -0.6498  0.5103
 5113SOL    HW126975   1.737   0.732  16.996  0.6828 -1.9862  1.3041
 5113SOL    HW226976   1.794   0.868  16.965 -1.0570 -1.4336 -0.7402
 5114SOL     OW26977   0.283   2.631   0.834 -0.5975  0.2103  0.5410
 5114SOL    HW126978   0.295   2.719   0.798  0.5074 -0.4386 -0.6970
 5114SOL    HW226979   0.227   2.588   0.770  3.2878 -1.3586 -1.8299
 5115SOL     OW26980   3.195   0.091   7.619 -0.4610  0.0113  0.5299
 5115SOL    HW126981   3.169   0.177   7.585 -1.8137 -0.8972 -0.7049
 5115SOL    HW226982   3.106   0.069   7.646 -0.7218 -0.9976 -1.2213
 5116SOL     OW26983   0.765   2.805  10.414 -0.4569  0.4649 -0.6086
 5116SOL    HW126984   0.844   2.793  10.466 -1.1320 -0.2016  0.2733
 5116SOL    HW226985   0.725   2.867  10.475 -0.1079  2.4754 -2.4468
 5117SOL     OW26986   3.277   3.203  14.186  0.0795 -0.2317  0.3395
 5117SOL    HW126987   3.286   3.222  14.280  0.2074  2.5171 -0.2157
 5117SOL    HW226988   3.358   3.156  14.166  0.9350  0.8142  1.3493
 5118SOL     OW26989   4.272   2.904   9.181 -0.7015 -0.6464  0.4544
 5118SOL    HW126990   4.217   2.899   9.259  0.6562  0.8184  1.4915
 5118SOL    HW226991   4.297   2.996   9.169 -0.3418 -1.0174 -1.6157
 5119SOL     OW26992   4.430   2.162   3.369 -0.4194  0.2747  0.0246
 5119SOL    HW126993   4.383   2.186   3.448 -0.1493  1.6949 -0.2587
 5119SOL    HW226994   4.478   2.084   3.397 -1.9023 -0.4928  0.4221
 5120SOL     OW26995   1.192   1.821   6.605 -0.1948  0.0542 -0.5702
 5120SOL    HW126996   1.286   1.835   6.616 -0.1111 -1.5455  0.8004
 5120SOL    HW226997   1.198   1.740   6.555 -0.9613  0.6887 -1.6936
 5121SOL     OW26998   0.707   1.669  15.129 -0.1999 -0.1939  0.0587
 5121SOL    HW126999   0.780   1.667  15.068  0.4138 -2.0155  0.8564
 5121SOL    HW227000   0.656   1.742  15.092 -2.2532 -0.8992  1.4529
 5122SOL     OW27001   1.482   2.316   4.130 -0.3054  0.1999  0.5781
 5122SOL    HW127002   1.426   2.387   4.097  0.2043 -0.4168 -1.5736
 5122SOL    HW227003   1.504   2.350   4.217  1.0778  0.3103  0.1780
 5123SOL     OW27004   3.923   1.663   3.010 -0.5838  0.3021  0.6750
 5123SOL    HW127005   3.843   1.711   2.990 -0.1493  1.0043  0.5982
 5123SOL    HW227006   3.973   1.730   3.057  0.6125 -0.2954  0.2589
 5124SOL     OW27007   4.551   2.817   4.691 -0.0632  0.5010 -0.5141
 5124SOL    HW127008   4.576   2.750   4.755  0.5251  0.5617 -0.6863
 5124SOL    HW227009   4.486   2.764   4.645 -0.0816 -1.3414  1.6540
 5125SOL     OW27010   4.639   1.735   3.582 -0.0732 -0.2357 -0.4426
 5125SOL    HW127011   4.593   1.663   3.538  0.6223 -0.4703 -0.7824
 5125SOL    HW227012   4.633   1.795   3.508  0.7633 -1.3383 -1.4099
 5126SOL     OW27013   1.238   2.321   9.217 -0.3058  0.0858 -0.2345
 5126SOL    HW127014   1.251   2.237   9.174  0.8431  0.7568 -1.1931
 5126SOL    HW227015   1.219   2.288   9.305 -3.5312  0.4275 -0.8303
 5127SOL     OW27016   3.541   0.651   4.294  0.1451  0.1780  0.3483
 5127SOL    HW127017   3.577   0.562   4.288  1.2652  0.6093  0.6632
 5127SOL    HW227018   3.449   0.632   4.314  0.4114 -1.0504  0.4271
 5128SOL     OW27019   0.037   1.884   2.622  0.5064  0.5770  0.0553
 5128SOL    HW127020   0.113   1.928   2.660  0.9761 -1.5987  1.6493
 5128SOL    HW227021   0.058   1.897   2.530 -1.3341  0.7380 -0.3440
 5129SOL     OW27022   0.829   2.734   9.445 -0.5333 -0.1311 -0.0847
 5129SOL    HW127023   0.793   2.683   9.372  0.8050 -2.4102  0.8491
 5129SOL    HW227024   0.750   2.783   9.470 -0.4268  0.8311 -1.6389
 5130SOL     OW27025   2.670   4.479   6.017  0.0117  0.1652  0.1860
 5130SOL    HW127026   2.635   4.462   5.929 -2.2552  1.0644  0.9100
 5130SOL    HW227027   2.605   4.429   6.067 -0.0506 -0.5322 -0.5862
 5131SOL     OW27028   4.593   1.940   3.403 -0.0114 -0.5114 -0.1991
 5131SOL    HW127029   4.678   1.959   3.364 -0.3623  0.2747 -0.5737
 5131SOL    HW227030   4.564   1.892   3.325  0.8145 -0.4820 -0.5304
 5132SOL     OW27031   1.202   4.365   0.518  0.1830  0.0707 -0.1352
 5132SOL    HW127032   1.186   4.453   0.553  0.5182 -0.2903  0.9106
 5132SOL    HW227033   1.283   4.348   0.565  0.5135 -0.8139 -1.0274
 5133SOL     OW27034   2.255   4.593  17.652  0.7248  0.3448  0.7082
 5133SOL    HW127035   2.223   4.621  17.738 -1.2995 -1.2131  0.4592
 5133SOL    HW227036   2.268   4.498  17.656  1.8102  0.4476 -0.4293
 5134SOL     OW27037   1.622   0.695  11.118  0.5055 -0.0396 -0.2668
 5134SOL    HW127038   1.673   0.615  11.128  1.7452  0.7055 -0.7709
 5134SOL    HW227039   1.681   0.748  11.172 -1.3033 -1.3809  3.0889
 5135SOL     OW27040   2.680   0.500   9.955 -0.3258  0.2795  0.2882
 5135SOL    HW127041   2.701   0.500  10.049  0.1935 -0.4018  0.1723
 5135SOL    HW227042   2.765   0.486   9.915 -0.0381  2.3700  0.1995
 5136SOL     OW27043   0.654   2.726   5.806  0.3089  0.5594 -0.0452
 5136SOL    HW127044   0.673   2.820   5.801  3.3686 -0.1399 -1.7672
 5136SOL    HW227045   0.718   2.698   5.872  1.4685  0.8190 -1.0512
 5137SOL     OW27046   3.735   0.419   9.787  0.4808 -0.6020  0.0607
 5137SOL    HW127047   3.726   0.353   9.718 -0.3573  0.4295 -0.8207
 5137SOL    HW227048   3.679   0.479   9.738 -1.3837 -2.5833 -0.2634
 5138SOL     OW27049   0.976   0.629   2.029 -0.3120 -0.1476  0.0204
 5138SOL    HW127050   1.063   0.664   2.011 -0.8126 -0.4749 -2.9739
 5138SOL    HW227051   0.994   0.587   2.113 -2.3942 -0.9995  0.0391
 5139SOL     OW27052   2.297   4.492   9.332  0.0217  0.1920 -0.2936
 5139SOL    HW127053   2.216   4.519   9.289  0.8217  0.1193 -1.8523
 5139SOL    HW227054   2.262   4.492   9.421  1.4218 -0.3812  0.2516
 5140SOL     OW27055   1.747   0.218   8.254  0.0875  0.1045  0.1733
 5140SOL    HW127056   1.690   0.277   8.304 -0.9459 -1.0022  0.2897
 5140SOL    HW227057   1.683   0.183   8.192  1.3986  3.1063 -2.8864
 5141SOL     OW27058   0.066   3.388   4.428  0.4529 -0.3766  0.0890
 5141SOL    HW127059   4.733   3.327   4.451  0.1230 -0.1323 -0.2806
 5141SOL    HW227060   0.091   3.347   4.345  0.8782 -1.1010  0.5675
 5142SOL     OW27061   0.054   0.281   0.499  0.5353  0.1265 -0.1104
 5142SOL    HW127062   0.040   0.296   0.406 -1.4053 -0.7005  0.0457
 5142SOL    HW227063   0.069   0.367   0.538 -3.0147  1.4320 -1.6337
 5143SOL     OW27064   3.622   4.407   9.455  0.5103 -0.8175 -0.0526
 5143SOL    HW127065   3.702   4.458   9.440  0.0529 -0.0012  0.3158
 5143SOL    HW227066   3.559   4.474   9.478  1.0057 -0.2274 -0.4162
 5144SOL     OW27067   1.315   3.958   6.930  0.5634 -0.4971 -0.2824
 5144SOL    HW127068   1.272   3.978   7.013 -1.2570 -0.6012 -1.2085
 5144SOL    HW227069   1.250   3.899   6.891 -0.6149  0.2585  0.5519
 5145SOL     OW27070   2.410   0.468   5.397 -0.1706  0.0523  0.0674
 5145SOL    HW127071   2.432   0.383   5.361  2.4746  1.4420 -1.5884
 5145SOL    HW227072   2.341   0.440   5.457 -1.2467 -0.6875 -1.5123
 5146SOL     OW27073   1.260   2.460   8.692  0.5739  0.4820  0.1180
 5146SOL    HW127074   1.267   2.551   8.664  1.4493  0.1528 -0.7038
 5146SOL    HW227075   1.327   2.414   8.641 -0.4970  1.1719 -1.9080
 5147SOL     OW27076   3.661   3.348   5.021  0.5750 -0.3114  0.2761
 5147SOL    HW127077   3.723   3.290   5.065  1.6402  0.2478 -0.5039
 5147SOL    HW227078   3.722   3.407   4.978 -2.3415  1.3947 -1.5166
 5148SOL     OW27079   2.496   2.533  11.609  0.0294  0.5138 -0.1915
 5148SOL    HW127080   2.448   2.524  11.691 -0.5897  0.5566 -0.5447
 5148SOL    HW227081   2.587   2.508  11.624 -0.0595  0.2916 -0.0283
 5149SOL     OW27082   3.429   3.031   5.918  0.4290  0.6159  0.9532
 5149SOL    HW127083   3.416   3.087   5.841  0.8491  0.4375  0.7550
 5149SOL    HW227084   3.477   2.960   5.878  1.6114  0.2344  3.0435
 5150SOL     OW27085   2.377   0.115   9.391 -0.7209 -0.2730  0.3724
 5150SOL    HW127086   2.414   0.078   9.311 -0.7162 -1.2746  0.8335
 5150SOL    HW227087   2.291   0.075   9.384 -1.2657  0.6464  1.8869
 5151SOL     OW27088   1.081   1.984  12.372  0.0600 -0.1251  0.7211
 5151SOL    HW127089   0.997   2.025  12.352 -0.2072 -2.0262 -2.0819
 5151SOL    HW227090   1.095   1.930  12.294 -1.9264  2.7350 -1.6685
 5152SOL     OW27091   0.347   2.209  10.161 -0.1445  0.2552 -0.1770
 5152SOL    HW127092   0.309   2.297  10.163  3.1379  1.6928 -0.0934
 5152SOL    HW227093   0.380   2.207  10.071  1.6615  0.9880  0.4561
 5153SOL     OW27094   0.210   2.235   1.379  0.4635  0.0086 -0.3544
 5153SOL    HW127095   0.268   2.224   1.304  1.6349  0.1308  0.5310
 5153SOL    HW227096   0.133   2.275   1.338 -0.5737 -1.6779 -0.0985
 5154SOL     OW27097   1.845   4.605   2.561 -0.2764 -0.2027  0.1025
 5154SOL    HW127098   1.898   4.544   2.510 -1.1037  0.7088 -1.8685
 5154SOL    HW227099   1.763   4.573   2.523 -0.0642 -0.7615  0.1158
 5155SOL     OW27100   2.410   1.471  12.217  0.2806  0.5309  0.2823
 5155SOL    HW127101   2.433   1.542  12.156 -0.1325  2.3645  2.2519
 5155SOL    HW227102   2.416   1.526  12.295  0.4464  0.4522  0.3253
 5156SOL     OW27103   2.082   4.578   3.127  0.9404  0.1704  0.4810
 5156SOL    HW127104   2.109   4.579   3.219 -2.9502  1.5532  1.6410
 5156SOL    HW227105   2.041   4.665   3.121 -1.1047 -0.9993 -2.3919
 5157SOL     OW27106   0.796   1.386  14.446 -0.1274 -0.1866  0.8289
 5157SOL    HW127107   0.778   1.448  14.375  1.0238 -2.8208 -1.7578
 5157SOL    HW227108   0.864   1.439  14.486  1.7846 -1.6123 -0.5287
 5158SOL     OW27109   0.805   1.717   6.059  0.0761 -0.1142  0.0530
 5158SOL    HW127110   0.786   1.795   6.008  0.6163 -1.4657 -2.2032
 5158SOL    HW227111   0.764   1.644   6.012  1.0276 -0.1204 -0.7679
 5159SOL     OW27112   4.373   1.605   2.132  0.6589 -0.1983  0.0003
 5159SOL    HW127113   4.354   1.692   2.166  0.9083 -0.6907  1.3783
 5159SOL    HW227114   4.325   1.609   2.049 -0.6270  0.3592  0.7761
 5160SOL     OW27115   3.481   0.278   0.155 -0.4542  0.3193 -0.3595
 5160SOL    HW127116   3.405   0.309   0.205  0.0208  1.9924 -0.7007
 5160SOL    HW227117   3.440   0.227   0.086  0.1961 -0.9704  0.2051
 5161SOL     OW27118   2.087   3.762  12.254  0.0973 -0.1268 -0.3450
 5161SOL    HW127119   2.025   3.712  12.200  0.0325 -0.9053  0.4459
 5161SOL    HW227120   2.130   3.820  12.192  0.1146 -1.8787 -1.9550
 5162SOL     OW27121   4.036   0.260   9.860  0.2162  0.5308  0.2926
 5162SOL    HW127122   3.971   0.302   9.917 -1.3491 -0.7265 -0.5467
 5162SOL    HW227123   4.118   0.268   9.909  0.3517 -1.6294  0.4368
 5163SOL     OW27124   0.058   0.513   2.932 -0.3022  0.3772 -0.2680
 5163SOL    HW127125   0.113   0.459   2.874  2.2877  0.7736  1.8204
 5163SOL    HW227126   0.108   0.512   3.014 -1.5387 -0.6189  0.4700
 5164SOL     OW27127   1.065   3.211   3.897 -0.4587  0.3712  0.0414
 5164SOL    HW127128   1.145   3.210   3.950  0.0710 -0.0414 -0.7548
 5164SOL    HW227129   1.035   3.121   3.910 -1.6491  0.4207 -2.3704
 5165SOL     OW27130   1.404   2.677   4.280  0.2554  0.5360  0.0378
 5165SOL    HW127131   1.375   2.614   4.214  1.1873  2.8442 -2.6132
 5165SOL    HW227132   1.326   2.732   4.288  0.1713  0.4374 -0.0994
 5166SOL     OW27133   2.545   4.417  16.545 -0.1605  0.1741  0.2000
 5166SOL    HW127134   2.501   4.496  16.579 -2.5564 -1.1702  0.2376
 5166SOL    HW227135   2.588   4.367  16.614  0.6713 -0.3485 -0.7178
 5167SOL     OW27136   2.913   3.848   8.049 -0.3508 -0.2982 -0.5093
 5167SOL    HW127137   2.989   3.805   8.088 -0.9096 -1.0455 -0.2522
 5167SOL    HW227138   2.959   3.919   8.005 -0.8278  0.2184 -0.1803
 5168SOL     OW27139   2.893   3.644  10.801 -0.4327  0.4807 -0.5392
 5168SOL    HW127140   2.973   3.657  10.750  0.5017 -0.8108  0.5688
 5168SOL    HW227141   2.890   3.548  10.794 -0.6126  0.6064 -2.1370
 5169SOL     OW27142   1.418   3.862   5.034  0.6902 -0.0803  0.0345
 5169SOL    HW127143   1.385   3.808   5.106 -1.4535 -1.6906 -2.1472
 5169SOL    HW227144   1.433   3.791   4.972  0.6143  0.8888 -1.0747
 5170SOL     OW27145   4.048   2.178   7.178 -0.3371  0.4739  0.0423
 5170SOL    HW127146   4.111   2.248   7.159 -0.2540  0.3858 -0.0035
 5170SOL    HW227147   4.095   2.096   7.164 -1.2394 -0.4218  2.2413
 5171SOL     OW27148   1.225   1.751   1.113 -0.4305 -0.0781  0.2978
 5171SOL    HW127149   1.313   1.768   1.081  0.5993 -3.5987  1.2723
 5171SOL    HW227150   1.234   1.656   1.107  0.2191  0.0425 -0.6072
 5172SOL     OW27151   0.907   1.177   3.767 -0.4211 -0.4819 -0.7390
 5172SOL    HW127152   0.814   1.155   3.763 -0.9932  1.8626 -0.5570
 5172SOL    HW227153   0.951   1.104   3.725  1.5763 -0.8193  1.9286
 5173SOL     OW27154   4.157   4.086   2.745 -0.4953 -0.0973 -0.1375
 5173SOL    HW127155   4.225   4.126   2.691 -0.7263 -1.0167 -1.1076
 5173SOL    HW227156   4.114   4.166   2.775  2.1962  1.7716 -1.1883
 5174SOL     OW27157   2.052   1.458   2.653 -0.4570  0.0353 -0.0750
 5174SOL    HW127158   1.986   1.443   2.585 -0.0415 -0.2522 -0.4152
 5174SOL    HW227159   2.044   1.553   2.658 -1.2863 -0.2362  3.6881
 5175SOL     OW27160   1.493   1.076   8.048  0.1001  0.7508 -0.0254
 5175SOL    HW127161   1.566   1.017   8.069 -0.2738  0.9351  1.8309
 5175SOL    HW227162   1.420   1.015   8.042  0.5010  0.2617  0.0556
 5176SOL     OW27163   1.630   0.615  14.295 -0.1996 -0.3171  0.2215
 5176SOL    HW127164   1.674   0.651  14.219 -0.3724  0.3062  0.4132
 5176SOL    HW227165   1.679   0.537  14.321 -1.5661 -0.1677  3.3573
 5177SOL     OW27166   0.668   0.400   4.463 -0.2888 -0.8024 -0.0344
 5177SOL    HW127167   0.687   0.416   4.370  1.6547  0.4026  0.5754
 5177SOL    HW227168   0.574   0.385   4.454  0.0423 -2.3316 -1.0209
 5178SOL     OW27169   1.946   3.946   2.951  0.2506  0.0875  0.0894
 5178SOL    HW127170   2.038   3.973   2.947  0.1570  0.5839  1.3759
 5178SOL    HW227171   1.918   4.011   3.015 -0.8517  0.4296 -0.7391
 5179SOL     OW27172   3.849   0.159   2.074 -0.2376  0.5053  0.3254
 5179SOL    HW127173   3.846   0.233   2.134  3.6798 -0.1973  1.3981
 5179SOL    HW227174   3.774   0.110   2.108  1.2921  0.1541  3.1644
 5180SOL     OW27175   0.127   1.459   5.347  0.1684 -0.1643  0.0223
 5180SOL    HW127176   0.175   1.533   5.309  1.1394  0.0210  1.6190
 5180SOL    HW227177   0.145   1.393   5.279 -0.3425  0.2665 -0.5231
 5181SOL     OW27178   3.631   4.388   8.159 -0.3432  0.0997 -0.5585
 5181SOL    HW127179   3.577   4.309   8.152 -1.5740  0.9355 -0.3616
 5181SOL    HW227180   3.636   4.418   8.068  0.5042  0.4653 -0.3900
 5182SOL     OW27181   1.020   3.218   7.708 -0.4130  0.1003  0.2159
 5182SOL    HW127182   0.976   3.292   7.750 -1.0637 -0.8107  1.1300
 5182SOL    HW227183   1.029   3.150   7.775 -0.6997 -0.4279 -0.2852
 5183SOL     OW27184   1.124   2.783   2.204  0.1850 -0.2629 -0.3621
 5183SOL    HW127185   1.091   2.818   2.287  0.2244  0.5344 -0.6859
 5183SOL    HW227186   1.189   2.717   2.228 -0.5029 -0.2906  1.4401
 5184SOL     OW27187   3.307   3.438   6.670 -0.7507 -0.3974  0.2607
 5184SOL    HW127188   3.253   3.462   6.594  1.8660  0.9213 -1.2127
 5184SOL    HW227189   3.354   3.520   6.688 -1.7284  0.5404 -1.3371
 5185SOL     OW27190   4.719   4.162   5.933 -0.3128  0.5595 -0.3344
 5185SOL    HW127191   0.071   4.197   5.924  0.3275 -1.2138 -1.0212
 5185SOL    HW227192   0.002   4.070   5.952 -1.1710  0.4259 -0.1014
 5186SOL     OW27193   1.627   4.241   4.186 -0.2558  0.0389  0.1121
 5186SOL    HW127194   1.567   4.225   4.113  0.7872  2.9737 -1.3890
 5186SOL    HW227195   1.681   4.164   4.170  0.3034  0.3831  0.3652
 5187SOL     OW27196   1.415   1.681   7.183  0.3477 -0.0893 -0.8995
 5187SOL    HW127197   1.372   1.600   7.155  1.5133 -0.9176 -0.2531
 5187SOL    HW227198   1.348   1.748   7.168 -0.8617 -0.5691  2.3465
 5188SOL     OW27199   0.602   0.317   6.903  0.0511  0.2212 -0.1066
 5188SOL    HW127200   0.697   0.321   6.891  0.1261  5.4651  2.2666
 5188SOL    HW227201   0.587   0.228   6.936 -1.3182  0.4947  0.0046
 5189SOL     OW27202   3.582   3.815   2.996  0.0138 -0.6147  0.5880
 5189SOL    HW127203   3.629   3.812   2.913 -2.8345 -2.5778 -0.9584
 5189SOL    HW227204   3.570   3.908   3.014  1.9324 -0.0915 -0.9017
 5190SOL     OW27205   1.269   2.503   5.442 -0.6347 -0.4954  0.3932
 5190SOL    HW127206   1.283   2.420   5.487  0.1457 -0.7130 -0.2481
 5190SOL    HW227207   1.253   2.556   5.520 -0.5621 -0.8252  0.6296
 5191SOL     OW27208   4.403   0.067  14.716 -0.3216  0.1041 -0.2184
 5191SOL    HW127209   4.343   0.114  14.774  1.0343 -0.6009  1.7433
 5191SOL    HW227210   4.378   0.113  14.635  0.6797  1.0878  0.0348
 5192SOL     OW27211   1.930   1.694   6.789  0.1730  0.7856  0.3344
 5192SOL    HW127212   1.850   1.721   6.835  0.0869 -0.1047  0.7304
 5192SOL    HW227213   1.984   1.772   6.798  1.6851 -0.0220 -1.7588
 5193SOL     OW27214   0.901   0.349   2.681 -0.1950 -0.4540 -0.1985
 5193SOL    HW127215   0.965   0.309   2.740  0.4873  0.8799 -0.0266
 5193SOL    HW227216   0.928   0.304   2.601  0.0134 -2.2324  0.8774
 5194SOL     OW27217   2.134   4.488   8.864 -0.2643  0.5985 -0.6476
 5194SOL    HW127218   2.066   4.429   8.896 -1.7871  1.5268 -2.2428
 5194SOL    HW227219   2.187   4.422   8.819  1.9812  1.3289  0.9002
 5195SOL     OW27220   1.763   1.521   0.634  0.9321 -0.1456  0.1927
 5195SOL    HW127221   1.701   1.455   0.604 -0.6982  1.2717  0.3875
 5195SOL    HW227222   1.840   1.473   0.663  0.0316 -2.5939 -1.5204
 5196SOL     OW27223   3.595   2.816   5.821  0.0393 -0.4379  0.4813
 5196SOL    HW127224   3.590   2.841   5.728  1.3716 -2.1464 -0.0263
 5196SOL    HW227225   3.681   2.775   5.825 -0.6668 -2.0263 -0.5159
 5197SOL     OW27226   0.979   1.370   7.304  0.1562  0.3061  0.0608
 5197SOL    HW127227   1.049   1.435   7.311  1.6206 -1.3630  1.0170
 5197SOL    HW227228   0.921   1.381   7.379 -0.9191 -3.5548 -0.2235
 5198SOL     OW27229   3.012   0.216   8.576  0.4978 -0.2641 -0.2373
 5198SOL    HW127230   3.101   0.235   8.605 -0.5344  3.4217  0.4788
 5198SOL    HW227231   2.997   0.124   8.600 -0.2235 -0.0878 -0.0037
 5199SOL     OW27232   2.722   3.423   3.066 -0.0092  0.3178  0.1233
 5199SOL    HW127233   2.813   3.429   3.038  1.0535 -1.4733  3.1681
 5199SOL    HW227234   2.692   3.506   3.028 -0.7443  0.7769  1.7087
 5200SOL     OW27235   2.119   2.597   1.754  0.2303  0.1530  0.1255
 5200SOL    HW127236   2.113   2.611   1.848  0.3130  0.3339  0.1038
 5200SOL    HW227237   2.138   2.687   1.729  1.5883  0.3664  1.8871
 5201SOL     OW27238   0.154   4.256   8.514  0.2785  0.0642 -0.6148
 5201SOL    HW127239   0.078   4.212   8.553 -0.8067  0.6755 -2.0560
 5201SOL    HW227240   0.171   4.324   8.579  0.7030 -0.6229 -0.0028
 5202SOL     OW27241   2.665   0.183   0.956  0.2502 -0.2970 -0.1615
 5202SOL    HW127242   2.713   0.264   0.971  1.3115 -1.1137  0.8569
 5202SOL    HW227243   2.735   0.120   0.936 -1.2887 -1.9445 -0.4268
 5203SOL     OW27244   2.930   0.638  10.483 -0.5775  0.1859  0.8832
 5203SOL    HW127245   2.834   0.637  10.482 -0.5254 -0.3369 -2.0516
 5203SOL    HW227246   2.937   0.612  10.575  1.4294 -1.5836  0.2159
 5204SOL     OW27247   3.604   1.799   9.183  0.4042 -0.0628 -0.3338
 5204SOL    HW127248   3.603   1.873   9.122 -1.8420 -0.7243 -1.1002
 5204SOL    HW227249   3.590   1.723   9.126 -0.4074  0.3643 -0.7160
 5205SOL     OW27250   4.431   4.427   7.968 -0.0618 -0.0167 -0.4530
 5205SOL    HW127251   4.403   4.339   7.996 -0.9767  0.2299 -0.5971
 5205SOL    HW227252   4.356   4.485   7.978  0.7415  0.8639  0.4210
 5206SOL     OW27253   1.006   4.081   8.098 -0.0737  0.8817  0.5166
 5206SOL    HW127254   1.013   4.050   8.008 -0.2318  0.5031  0.6374
 5206SOL    HW227255   1.045   4.167   8.084  0.9294 -0.1429 -3.0627
 5207SOL     OW27256   3.525   2.705  12.581  0.3083 -0.2548  0.1534
 5207SOL    HW127257   3.489   2.734  12.498 -1.2884  0.3111  1.0568
 5207SOL    HW227258   3.600   2.761  12.600  0.3297 -0.7564  1.5597
 5208SOL     OW27259   1.532   0.678   6.678 -0.2143  0.1700 -0.3702
 5208SOL    HW127260   1.446   0.647   6.652 -0.2236 -0.9488  0.9766
 5208SOL    HW227261   1.515   0.718   6.764 -2.0281 -0.6294 -0.3716
 5209SOL     OW27262   3.746   0.684  14.672  0.1087 -0.1675  0.0267
 5209SOL    HW127263   3.654   0.670  14.648 -0.6670 -1.5141  3.8118
 5209SOL    HW227264   3.750   0.773  14.638 -0.3092 -0.3189 -0.4357
 5210SOL     OW27265   0.617   1.248   4.003 -0.6866  0.4603  1.3484
 5210SOL    HW127266   0.633   1.170   4.055  0.6101  1.4208  2.3596
 5210SOL    HW227267   0.522   1.239   4.000 -0.7546  1.5609  0.2285
 5211SOL     OW27268   4.662   4.055   8.539  0.2382 -0.0879  0.1997
 5211SOL    HW127269   4.577   4.065   8.583  0.1567 -0.3068  0.0947
 5211SOL    HW227270   4.700   3.984   8.591  2.3150 -1.3275 -3.0239
 5212SOL     OW27271   4.188   3.360   7.457 -0.0288  0.0489 -0.0572
 5212SOL    HW127272   4.099   3.371   7.490  0.5429  0.5237  1.3140
 5212SOL    HW227273   4.223   3.449   7.463 -1.9323  0.9247 -1.8650
 5213SOL     OW27274   4.476   4.007   7.518  0.2899  0.0649  0.4746
 5213SOL    HW127275   4.510   3.918   7.513 -0.2647 -0.1663  0.8199
 5213SOL    HW227276   4.394   4.002   7.567  1.6044  1.0391  2.7676
 5214SOL     OW27277   0.908   0.579   9.789 -0.2962  0.1001 -0.1069
 5214SOL    HW127278   0.893   0.577   9.884 -1.7224 -1.5115 -0.3591
 5214SOL    HW227279   0.878   0.669   9.775 -0.0011  0.1952 -0.1188
 5215SOL     OW27280   2.936   3.046   7.096  0.1037  0.3090  0.2297
 5215SOL    HW127281   2.883   3.050   7.017 -1.0141  2.4924  1.0971
 5215SOL    HW227282   2.919   3.136   7.123  0.7958  0.2450  0.8912
 5216SOL     OW27283   3.069   1.002  11.845  0.0779 -0.2072  0.3735
 5216SOL    HW127284   3.001   1.058  11.883 -0.7274  0.5592 -2.1823
 5216SOL    HW227285   3.036   0.984  11.757  1.0795 -1.1180  0.1942
 5217SOL     OW27286   4.421   0.683  13.253 -0.0666  0.2703  0.3622
 5217SOL    HW127287   4.434   0.623  13.327  0.4192 -0.2784 -0.1653
 5217SOL    HW227288   4.444   0.770  13.283  0.4831 -0.6521  2.6539
 5218SOL     OW27289   4.140   3.169   6.337  0.5207 -0.2169  0.1885
 5218SOL    HW127290   4.137   3.123   6.421  1.7499  1.2539  1.0435
 5218SOL    HW227291   4.227   3.139   6.310  0.1650 -0.2051 -0.9935
 5219SOL     OW27292   1.100   2.999   8.159 -0.0765  0.0249  0.4357
 5219SOL    HW127293   1.146   2.917   8.179  0.6117  0.0637 -0.9745
 5219SOL    HW227294   1.051   3.000   8.241 -0.4416 -1.4580  0.2481
 5220SOL     OW27295   1.911   1.401  14.371  0.0094 -0.4289  0.6245
 5220SOL    HW127296   1.841   1.462  14.350  1.9883  0.5551 -2.9832
 5220SOL    HW227297   1.857   1.321  14.371  0.0877 -0.4816 -2.4878
 5221SOL     OW27298   3.049   1.089  16.422 -0.3178  0.5412  0.1579
 5221SOL    HW127299   2.956   1.108  16.439 -0.7145  1.3863 -2.9915
 5221SOL    HW227300   3.046   1.036  16.343 -0.6685  1.9425 -0.7794
 5222SOL     OW27301   0.383   4.453   7.752 -0.3039 -0.0083 -0.2257
 5222SOL    HW127302   0.394   4.457   7.657 -1.8641 -0.2796 -0.4155
 5222SOL    HW227303   0.475   4.470   7.772 -0.6700  0.3643  1.1744
 5223SOL     OW27304   4.228   2.716  11.647  0.3470 -0.1576 -0.6086
 5223SOL    HW127305   4.263   2.769  11.718 -0.1068 -0.1078 -0.4252
 5223SOL    HW227306   4.146   2.758  11.622  0.2989 -0.5467 -1.1276
 5224SOL     OW27307   2.374   2.563   4.874 -0.6224  0.3053 -0.0454
 5224SOL    HW127308   2.279   2.552   4.869 -0.5058 -1.2009  0.9352
 5224SOL    HW227309   2.398   2.514   4.795 -1.5483 -0.5105  0.1751
 5225SOL     OW27310   3.180   1.878   4.919  0.4440 -0.3584 -0.7683
 5225SOL    HW127311   3.178   1.902   5.011  1.6782 -2.4695 -0.1881
 5225SOL    HW227312   3.089   1.846   4.918  0.5417 -0.6101 -2.0371
 5226SOL     OW27313   2.495   0.054   3.086  0.2504  0.0332  0.3856
 5226SOL    HW127314   2.420   0.093   3.040  2.9089  2.1136 -2.2043
 5226SOL    HW227315   2.499   4.706   3.042 -0.1289 -0.0461  0.5023
 5227SOL     OW27316   1.311   4.196   7.313  0.1045 -0.3882 -0.2527
 5227SOL    HW127317   1.291   4.109   7.347 -0.6384 -0.6633 -1.3714
 5227SOL    HW227318   1.392   4.224   7.356  0.0596 -0.8865  0.1479
 5228SOL     OW27319   1.068   2.299   6.404 -0.3557  0.1014 -0.5142
 5228SOL    HW127320   1.047   2.389   6.430  0.3238  0.5386 -1.4795
 5228SOL    HW227321   1.002   2.292   6.335 -3.2244 -0.3208  2.2678
 5229SOL     OW27322   4.445   2.701   1.767  0.0913 -0.3433 -0.5512
 5229SOL    HW127323   4.500   2.651   1.827  0.7665 -0.6425 -1.4232
 5229SOL    HW227324   4.463   2.790   1.799 -0.7567 -0.4155  0.1194
 5230SOL     OW27325   0.423   3.091   6.101  0.5405 -0.2271 -0.3259
 5230SOL    HW127326   0.449   3.080   6.010  0.2331  0.4451 -0.5018
 5230SOL    HW227327   0.411   3.186   6.099  1.6218 -0.0702  1.2790
 5231SOL     OW27328   4.266   0.660   9.479 -0.3014  0.1198  0.1353
 5231SOL    HW127329   4.357   0.634   9.494 -0.9249 -1.0809  1.8772
 5231SOL    HW227330   4.214   0.588   9.515  1.7390 -2.5138 -2.2303
 5232SOL     OW27331   0.432   1.790   2.857 -0.1456 -0.3036 -0.2622
 5232SOL    HW127332   0.437   1.698   2.833  1.3161 -0.4798  0.6961
 5232SOL    HW227333   0.401   1.791   2.948  0.8954 -1.7704  0.1044
 5233SOL     OW27334   2.033   4.184   7.575  0.5101 -0.1134  0.2710
 5233SOL    HW127335   2.045   4.197   7.669 -1.2499  1.0350  0.3222
 5233SOL    HW227336   2.071   4.266   7.543 -1.2070  0.0943 -1.2201
 5234SOL     OW27337   3.884   3.291  13.763 -0.1885  0.3575  0.3282
 5234SOL    HW127338   3.842   3.320  13.844  1.7015  1.4636  0.9254
 5234SOL    HW227339   3.972   3.269  13.794 -0.3793 -0.9269 -0.0759
 5235SOL     OW27340   1.178   1.154  10.550 -0.3669  0.3082  0.4816
 5235SOL    HW127341   1.102   1.131  10.496  1.0602 -1.4033 -0.8114
 5235SOL    HW227342   1.150   1.142  10.640  0.2154  0.0990  0.6357
 5236SOL     OW27343   0.984   2.898   0.474 -0.4596  0.0221  0.3665
 5236SOL    HW127344   1.030   2.931   0.551  0.4190  1.2971 -0.7111
 5236SOL    HW227345   0.931   2.828   0.512  0.6665 -0.0424  1.8009
 5237SOL     OW27346   3.810   1.308   7.099  0.4245  0.0939  0.2868
 5237SOL    HW127347   3.839   1.222   7.070  0.4399 -0.0902  0.8554
 5237SOL    HW227348   3.817   1.349   7.013 -0.0370 -2.2810 -0.8600
 5238SOL     OW27349   2.299   0.811   6.629 -0.2798 -0.3986  0.0734
 5238SOL    HW127350   2.304   0.718   6.650 -0.7968  0.2624  3.1222
 5238SOL    HW227351   2.356   0.831   6.554  1.0784 -0.9807  0.9601
 5239SOL     OW27352   3.934   0.931   6.064  0.2092 -0.5861 -0.1216
 5239SOL    HW127353   3.911   0.983   6.141  0.2925 -0.0270 -0.4705
 5239SOL    HW227354   3.862   0.960   6.008  2.2608  2.2186 -1.3268
 5240SOL     OW27355   0.250   4.489   6.956 -0.3035  0.8536 -0.3512
 5240SOL    HW127356   0.334   4.507   6.915  0.7595  1.1698  1.9699
 5240SOL    HW227357   0.242   4.569   7.009  0.5609  1.2768 -0.8559
 5241SOL     OW27358   1.673   1.479   1.521  0.1339 -0.4686 -0.4676
 5241SOL    HW127359   1.634   1.434   1.596  1.0124 -0.3312  0.0658
 5241SOL    HW227360   1.667   1.572   1.545  1.4633 -0.2645 -0.8879
 5242SOL     OW27361   4.280   1.188   3.286  0.5762  0.2091 -0.2110
 5242SOL    HW127362   4.357   1.176   3.230  1.4752 -0.5854  1.1842
 5242SOL    HW227363   4.213   1.193   3.218  1.6365 -1.1254 -1.3485
 5243SOL     OW27364   0.721   1.862   0.543 -0.2198 -0.3022 -0.2090
 5243SOL    HW127365   0.774   1.903   0.612 -1.0010 -1.6230  1.1782
 5243SOL    HW227366   0.654   1.929   0.532  0.2332 -0.1033 -1.7446
 5244SOL     OW27367   1.404   0.951   0.485 -0.3856 -0.3064 -0.0137
 5244SOL    HW127368   1.314   0.978   0.502 -0.7494  0.5378 -3.4565
 5244SOL    HW227369   1.437   1.025   0.434 -3.3466  1.1817  0.2542
 5245SOL     OW27370   1.561   2.618   4.501 -0.3607 -0.8258  0.0823
 5245SOL    HW127371   1.542   2.657   4.416  0.8076  0.9057  0.6322
 5245SOL    HW227372   1.496   2.670   4.548 -0.7973 -0.1072 -1.3287
 5246SOL     OW27373   3.776   1.557   3.662 -0.3971 -0.6189 -0.2085
 5246SOL    HW127374   3.854   1.588   3.708 -0.3532  0.7447 -1.1812
 5246SOL    HW227375   3.746   1.635   3.615 -1.2578 -1.8289 -1.6833
 5247SOL     OW27376   2.430   0.643   8.518  1.2140 -0.1448 -0.3071
 5247SOL    HW127377   2.455   0.617   8.430 -0.0359  1.1371 -1.0313
 5247SOL    HW227378   2.501   0.612   8.575 -2.0043 -1.0765  3.1629
 5248SOL     OW27379   4.560   3.289   9.695  0.9241  0.4322 -0.4377
 5248SOL    HW127380   4.492   3.323   9.754 -2.3978 -1.7293 -2.9915
 5248SOL    HW227381   4.636   3.306   9.750  0.1261  0.4237  0.6713
 5249SOL     OW27382   4.515   2.393  14.947 -0.6566  0.4857  0.1527
 5249SOL    HW127383   4.509   2.424  14.857  0.3359 -2.2480 -0.8482
 5249SOL    HW227384   4.602   2.353  14.941 -0.3496  1.2724 -0.6846
 5250SOL     OW27385   1.904   4.364   4.280  0.5542  0.3499  0.4591
 5250SOL    HW127386   1.840   4.303   4.318 -1.5396  1.9276 -0.5094
 5250SOL    HW227387   1.860   4.449   4.285  1.3396  0.9341 -2.4941
 5251SOL     OW27388   1.674   3.234   2.492  0.0964  0.1863  0.0515
 5251SOL    HW127389   1.664   3.142   2.515 -0.8110  0.8342  2.2080
 5251SOL    HW227390   1.612   3.241   2.419  0.8187 -0.1871 -0.5972
 5252SOL     OW27391   1.814   3.568   4.556 -0.2845  0.3943 -0.4025
 5252SOL    HW127392   1.859   3.646   4.525 -1.1702  1.7110  1.6408
 5252SOL    HW227393   1.876   3.495   4.559  0.0053  0.7157  1.3851
 5253SOL     OW27394   3.176   3.844  15.618 -0.5118 -0.6533  0.3395
 5253SOL    HW127395   3.200   3.903  15.690  1.2063 -2.1469  0.9921
 5253SOL    HW227396   3.266   3.825  15.591 -0.3190  1.2850 -0.3255
 5254SOL     OW27397   0.730   1.142   0.083 -0.0402 -0.1539 -0.1879
 5254SOL    HW127398   0.791   1.123   0.154  0.2519  2.1697  0.1802
 5254SOL    HW227399   0.752   1.069   0.025 -1.4000 -0.7517  0.0353
 5255SOL     OW27400   0.716   0.777   4.519  0.3636  0.4094 -0.1793
 5255SOL    HW127401   0.712   0.780   4.423  0.2221  0.9572 -0.1599
 5255SOL    HW227402   0.625   0.807   4.528 -0.1439 -1.3389  0.4011
 5256SOL     OW27403   2.459   3.774  16.835 -0.2193  0.4913  0.1943
 5256SOL    HW127404   2.415   3.824  16.766  0.3242 -1.5472 -1.6463
 5256SOL    HW227405   2.537   3.741  16.791  0.2158  1.5285  0.2088
 5257SOL     OW27406   4.656   1.679  11.435 -0.2486  0.4752 -0.7059
 5257SOL    HW127407   4.636   1.759  11.388  0.1475  0.1957 -1.3595
 5257SOL    HW227408   4.571   1.637  11.449 -0.1365  0.2526 -0.6952
 5258SOL     OW27409   3.606   3.277   3.351 -0.2413  0.2667 -0.5662
 5258SOL    HW127410   3.586   3.216   3.422  0.2068 -1.1500 -1.6631
 5258SOL    HW227411   3.682   3.323   3.388 -1.5717  2.7663 -0.9302
 5259SOL     OW27412   2.539   1.177  15.291 -0.5449 -0.3784  0.0197
 5259SOL    HW127413   2.548   1.242  15.361 -0.6506  0.7830 -1.0283
 5259SOL    HW227414   2.443   1.180  15.291 -0.5036  0.5383  1.7999
 5260SOL     OW27415   4.211   1.745  13.211  0.3804  0.3361 -0.3016
 5260SOL    HW127416   4.261   1.664  13.212  0.5654  0.4752  1.7518
 5260SOL    HW227417   4.254   1.794  13.142 -0.1833  0.6053 -0.4675
 5261SOL     OW27418   4.567   3.526   5.328  0.4277  0.0582  0.3642
 5261SOL    HW127419   4.605   3.520   5.415  0.9059  1.3375  0.2451
 5261SOL    HW227420   4.643   3.532   5.269  0.3760  0.3339  0.3230
 5262SOL     OW27421   0.278   0.539  17.733  0.0996  0.0039  0.0561
 5262SOL    HW127422   0.308   0.603   0.053 -0.9385  1.3038 -0.7235
 5262SOL    HW227423   0.265   0.602  17.662 -0.1434 -0.3143 -0.1766
 5263SOL     OW27424   0.652   3.439   7.177  0.2111 -0.5230 -0.1413
 5263SOL    HW127425   0.578   3.494   7.151  0.1846 -0.7517 -0.5475
 5263SOL    HW227426   0.591   3.370   7.204 -1.4579  0.3226 -1.7141
 5264SOL     OW27427   3.549   0.927   1.078 -0.0178  0.0569  0.3278
 5264SOL    HW127428   3.593   1.011   1.062  1.5188 -1.0046 -1.0560
 5264SOL    HW227429   3.624   0.887   1.124 -0.2456 -0.5246  0.1965
 5265SOL     OW27430   1.628   4.674   0.393 -0.4313  0.5266  0.1884
 5265SOL    HW127431   1.540   4.705   0.372 -0.4686  0.4519  0.2326
 5265SOL    HW227432   1.677   0.008   0.353  2.0487 -0.7759  0.9527
 5266SOL     OW27433   4.392   1.684  14.964 -0.1517 -0.2452  0.0679
 5266SOL    HW127434   4.431   1.763  15.002 -1.2485  1.0043 -1.3662
 5266SOL    HW227435   4.464   1.644  14.916 -0.8902 -1.4972  0.0090
 5267SOL     OW27436   4.663   1.799   8.680 -0.1196 -0.3894 -0.0484
 5267SOL    HW127437   4.717   1.721   8.692  1.4891  0.6526 -0.6372
 5267SOL    HW227438   4.590   1.775   8.737  0.2447 -1.1638  0.0888
 5268SOL     OW27439   3.634   3.363   9.619  0.0149  0.0328  0.7261
 5268SOL    HW127440   3.553   3.354   9.669  0.6289  0.0783  1.7358
 5268SOL    HW227441   3.700   3.385   9.685  1.6154 -3.8775  0.4333
 5269SOL     OW27442   0.412   3.849   5.821 -0.0579 -0.8810 -0.5842
 5269SOL    HW127443   0.497   3.807   5.832  0.5778  0.9715  1.6725
 5269SOL    HW227444   0.370   3.797   5.753 -1.4966 -1.3277  0.6608
 5270SOL     OW27445   1.729   2.507   4.029 -0.7367  0.2629 -0.2079
 5270SOL    HW127446   1.805   2.485   3.976  1.1140  1.6819  1.8370
 5270SOL    HW227447   1.677   2.563   3.971  1.8742  1.6841 -1.1964
 5271SOL     OW27448   0.548   2.095   5.740  0.1200  0.4802 -0.2466
 5271SOL    HW127449   0.529   2.132   5.654  0.7376 -0.1319 -0.6476
 5271SOL    HW227450   0.486   2.131   5.803 -0.1888  0.7610 -0.7121
 5272SOL     OW27451   4.488   3.679   4.427  0.1267  0.3661  0.0966
 5272SOL    HW127452   4.581   3.696   4.443 -0.0201 -0.6511  2.0743
 5272SOL    HW227453   4.463   3.770   4.410  0.5469  0.3811 -0.4507
 5273SOL     OW27454   2.002   3.867   5.945 -0.4084  0.5335 -0.4998
 5273SOL    HW127455   1.931   3.926   5.920 -1.1139 -0.5549 -1.0917
 5273SOL    HW227456   2.024   3.830   5.860  2.1200 -0.0348  0.3865
 5274SOL     OW27457   0.862   3.947   7.084  0.4934  0.5508 -0.4826
 5274SOL    HW127458   0.795   3.997   7.037 -1.0492 -0.9308  0.0860
 5274SOL    HW227459   0.807   3.874   7.114  1.1097  0.6897  0.9969
 5275SOL     OW27460   1.007   2.339   8.704  0.2786 -0.0019  0.4355
 5275SOL    HW127461   1.099   2.359   8.722 -0.1341  0.3640  2.1670
 5275SOL    HW227462   0.968   2.416   8.745  2.5877  1.1603  0.4524
 5276SOL     OW27463   1.667   4.017   3.798 -0.0817 -0.7274 -0.1003
 5276SOL    HW127464   1.687   4.041   3.708  0.3394 -0.7761 -0.0201
 5276SOL    HW227465   1.747   3.983   3.838 -1.4868  0.9727  4.2310
 5277SOL     OW27466   3.067   3.334   4.539 -0.5269 -0.1559 -0.0968
 5277SOL    HW127467   3.086   3.249   4.499  0.5457  2.1289 -4.3924
 5277SOL    HW227468   3.151   3.378   4.550  0.1485 -1.3711 -0.3234
 5278SOL     OW27469   4.598   0.388   8.554  0.1252  0.0877  0.0568
 5278SOL    HW127470   4.660   0.322   8.523  0.2093 -0.8056  2.1282
 5278SOL    HW227471   4.520   0.333   8.543  0.9780 -1.0239 -0.4763
 5279SOL     OW27472   1.866   0.174   5.960  0.5432 -0.1434 -0.2661
 5279SOL    HW127473   1.838   0.088   5.928 -0.8298 -0.1101  0.8272
 5279SOL    HW227474   1.801   0.228   5.917 -0.6961  0.4631  2.3484
 5280SOL     OW27475   3.444   1.880   7.050  1.2847 -0.0286  0.2570
 5280SOL    HW127476   3.374   1.826   7.013  2.0917 -1.3547  0.6383
 5280SOL    HW227477   3.522   1.824   7.056  0.3209 -1.3788  0.2087
 5281SOL     OW27478   4.112   1.326   7.876  0.2963  0.3785  0.0483
 5281SOL    HW127479   4.141   1.245   7.917  2.0568  0.0709 -1.7953
 5281SOL    HW227480   4.019   1.323   7.854  0.3861 -2.2316  0.0725
 5282SOL     OW27481   3.913   2.904   4.516  0.1793 -0.0879 -0.1040
 5282SOL    HW127482   3.829   2.936   4.551 -0.5954 -1.9314 -0.2846
 5282SOL    HW227483   3.908   2.953   4.433 -0.0292  1.7812  0.9999
 5283SOL     OW27484   2.838   4.091   4.271  0.2305  0.0440  0.3326
 5283SOL    HW127485   2.915   4.111   4.218  1.0803 -1.5604  0.9543
 5283SOL    HW227486   2.849   3.996   4.283 -2.0828 -0.1669  0.8530
 5284SOL     OW27487   0.425   4.193  13.296  0.6129  0.4620  0.0773
 5284SOL    HW127488   0.500   4.139  13.269 -0.0002  0.1180 -0.9469
 5284SOL    HW227489   0.364   4.168  13.226 -0.8957  2.9638  0.5049
 5285SOL     OW27490   2.958   3.350   3.583 -0.1218  0.2677  0.0914
 5285SOL    HW127491   2.889   3.414   3.601  0.3160  0.8289 -0.2269
 5285SOL    HW227492   2.950   3.342   3.488  0.6330  0.3881  0.0170
 5286SOL     OW27493   2.219   1.425   6.805  0.0329 -0.6882  0.1077
 5286SOL    HW127494   2.256   1.417   6.718 -1.1084 -0.7850 -0.3697
 5286SOL    HW227495   2.168   1.343   6.804  0.2226 -0.8515  2.0583
 5287SOL     OW27496   4.311   0.470   2.460 -0.1586 -0.4989 -0.7260
 5287SOL    HW127497   4.360   0.501   2.384 -2.4160  1.1671 -1.4745
 5287SOL    HW227498   4.237   0.530   2.468  1.5392  1.3011  1.7819
 5288SOL     OW27499   0.983   2.282   4.755 -0.3022 -0.2889  0.2869
 5288SOL    HW127500   1.060   2.333   4.730  0.0477 -0.8162  0.2777
 5288SOL    HW227501   1.021   2.222   4.820  0.9298  0.4675  0.2797
 5289SOL     OW27502   2.294   3.596  17.018  0.0935  0.7797  0.4331
 5289SOL    HW127503   2.380   3.595  16.974 -0.1120  0.6660  0.0367
 5289SOL    HW227504   2.242   3.541  16.959  1.9898  0.7132 -1.1944
 5290SOL     OW27505   2.293   0.407   8.163 -0.3285 -0.4301  0.3126
 5290SOL    HW127506   2.310   0.492   8.204 -0.3018 -0.1670 -0.2415
 5290SOL    HW227507   2.202   0.403   8.191 -0.5159  0.2750 -0.1953
 5291SOL     OW27508   0.418   1.028  14.922  0.1211 -0.2477 -0.3050
 5291SOL    HW127509   0.512   1.040  14.906 -0.0040  2.3473  0.8490
 5291SOL    HW227510   0.385   1.052  14.835  0.5537  2.2669  0.2024
 5292SOL     OW27511   3.171   3.500   8.073  0.0487 -0.0642  0.3335
 5292SOL    HW127512   3.154   3.435   8.005  0.0905 -3.2088  3.3302
 5292SOL    HW227513   3.082   3.529   8.091  1.0591  3.5200 -0.4635
 5293SOL     OW27514   0.982   1.042  15.149 -0.5313  0.5083 -0.0489
 5293SOL    HW127515   0.926   1.118  15.137 -0.3564  0.6189 -0.1730
 5293SOL    HW227516   0.970   1.008  15.060  1.2978 -1.1493  0.3186
 5294SOL     OW27517   0.160   4.013   6.251 -0.2864  0.0748  0.1180
 5294SOL    HW127518   0.121   4.088   6.297  0.0990  0.4029 -0.0837
 5294SOL    HW227519   0.196   4.049   6.170  0.2666 -0.1941  0.2464
 5295SOL     OW27520   4.627   2.346   5.409  0.1798  0.4789 -0.7154
 5295SOL    HW127521   4.594   2.312   5.326 -0.6342 -0.1094 -0.1629
 5295SOL    HW227522   4.545   2.354   5.459 -0.0265  1.8972 -1.2997
 5296SOL     OW27523   3.453   1.905   4.504 -0.1789  0.5273 -0.0604
 5296SOL    HW127524   3.394   1.951   4.565  0.0464  1.3842 -0.4799
 5296SOL    HW227525   3.393   1.840   4.466 -0.1743 -0.1489  1.0975
 5297SOL     OW27526   1.047   4.233   3.797  0.4172 -0.2254  0.2096
 5297SOL    HW127527   0.975   4.216   3.736 -1.5806 -0.5430  2.6748
 5297SOL    HW227528   1.012   4.198   3.879 -0.0553  1.2473  0.6548
 5298SOL     OW27529   0.273   2.754  11.765 -0.0988  0.0955 -0.0953
 5298SOL    HW127530   0.272   2.848  11.779 -0.6484  0.6732 -4.1052
 5298SOL    HW227531   0.185   2.730  11.793 -0.5091  1.8422  0.0523
 5299SOL     OW27532   3.771   2.967  11.249 -0.2122  0.5373 -0.2152
 5299SOL    HW127533   3.739   3.012  11.328  1.7501  1.1124  0.2585
 5299SOL    HW227534   3.720   2.995  11.173  1.0131 -1.4153 -1.7357
 5300SOL     OW27535   4.594   1.057   1.643  0.0114 -0.7314  0.2857
 5300SOL    HW127536   4.564   1.132   1.592  0.2042 -0.1930  0.9597
 5300SOL    HW227537   4.668   1.105   1.682  1.3974 -3.7371  1.3459
 5301SOL     OW27538   3.690   1.686   4.261  0.6072  0.4089 -0.2048
 5301SOL    HW127539   3.651   1.605   4.293  0.4457  0.4497 -0.2974
 5301SOL    HW227540   3.782   1.660   4.268  0.2125 -1.0842 -0.5390
 5302SOL     OW27541   3.182   3.884   3.985  0.4078  0.0549 -0.5082
 5302SOL    HW127542   3.105   3.835   3.956  1.7380 -1.3451 -1.6589
 5302SOL    HW227543   3.249   3.817   3.972  1.8287  0.9402  2.0665
 5303SOL     OW27544   3.524   3.600   5.265 -0.2352 -0.1631  0.0752
 5303SOL    HW127545   3.579   3.604   5.187  0.2399  1.5773  0.4852
 5303SOL    HW227546   3.536   3.688   5.303 -0.5184 -0.4287  0.7758
 5304SOL     OW27547   2.597   1.025   7.098  0.1161 -0.1821 -0.4556
 5304SOL    HW127548   2.594   1.005   7.005 -0.6346  1.4394 -0.7896
 5304SOL    HW227549   2.613   0.948   7.153 -0.6507 -0.5256 -0.7193
 5305SOL     OW27550   3.364   3.156  13.768  0.0196  0.8806 -0.0469
 5305SOL    HW127551   3.340   3.066  13.790 -0.0368  0.6761 -0.9469
 5305SOL    HW227552   3.284   3.204  13.743 -0.8136 -0.2747  0.4054
 5306SOL     OW27553   3.921   3.745   4.319  0.4413  0.7844 -0.0698
 5306SOL    HW127554   3.979   3.801   4.267 -0.4505 -0.4780 -2.4293
 5306SOL    HW227555   3.840   3.796   4.325  0.8984  1.6535 -1.1665
 5307SOL     OW27556   4.634   2.404   6.427  0.1649  0.6865 -0.2100
 5307SOL    HW127557   4.681   2.321   6.434 -1.2310 -0.0994 -0.1171
 5307SOL    HW227558   4.694   2.467   6.466  0.0606  0.2954  0.5906
 5308SOL     OW27559   3.285   2.300   6.681  0.0756 -0.1105  0.1697
 5308SOL    HW127560   3.331   2.351   6.748 -0.0103  0.5142 -0.2518
 5308SOL    HW227561   3.206   2.351   6.669  0.4327  0.3905 -0.0582
 5309SOL     OW27562   0.878   0.365   2.297  0.1032  0.0393 -0.4655
 5309SOL    HW127563   0.795   0.318   2.293 -1.1112  2.0752  0.6569
 5309SOL    HW227564   0.913   0.314   2.370 -1.4422 -0.5636 -0.1450
 5310SOL     OW27565   4.610   0.174  14.948 -0.5692  0.1744 -0.5311
 5310SOL    HW127566   4.645   0.255  14.985  2.2850 -1.8713  1.2777
 5310SOL    HW227567   4.648   0.187  14.861  0.2566  1.4760  0.0278
 5311SOL     OW27568   4.591   1.252   4.974  0.4024 -0.2139  0.1843
 5311SOL    HW127569   4.647   1.295   4.909  0.6259  1.0487  1.2218
 5311SOL    HW227570   4.513   1.302   4.951  0.4671 -0.0222  0.3853
 5312SOL     OW27571   0.677   1.388   9.231 -0.3246 -1.0699 -0.2283
 5312SOL    HW127572   0.711   1.464   9.278  1.5300 -1.7391 -0.5122
 5312SOL    HW227573   0.600   1.423   9.185 -0.5686 -0.9327  0.2836
 5313SOL     OW27574   1.071   3.837   4.350  0.3339  0.1702 -0.2574
 5313SOL    HW127575   1.016   3.915   4.342 -0.8077 -0.9025 -3.0327
 5313SOL    HW227576   1.093   3.828   4.257  1.5301 -2.1047  0.2453
 5314SOL     OW27577   0.390   0.524   0.647  0.3552  0.0923 -0.2218
 5314SOL    HW127578   0.370   0.503   0.555  1.7131 -0.5489 -0.3676
 5314SOL    HW227579   0.383   0.620   0.648 -0.9947  0.0105 -1.7742
 5315SOL     OW27580   0.965   3.596  11.746 -0.5136 -0.0680 -0.0844
 5315SOL    HW127581   0.906   3.608  11.820  1.8393 -2.9555  2.2698
 5315SOL    HW227582   1.044   3.559  11.786  1.7908  2.1241 -2.6143
 5316SOL     OW27583   1.334   2.106   4.270 -0.3487 -0.2450  0.0362
 5316SOL    HW127584   1.354   2.177   4.209  0.3161 -1.6185 -1.3398
 5316SOL    HW227585   1.421   2.104   4.310  0.3251 -1.4083 -1.4689
 5317SOL     OW27586   0.466   1.779   3.575  0.4224 -0.3320 -0.4575
 5317SOL    HW127587   0.508   1.705   3.618 -1.9160 -0.7243  1.1874
 5317SOL    HW227588   0.388   1.743   3.533 -0.5551  0.0106  1.0599
 5318SOL     OW27589   3.367   0.097   4.984  0.3843  0.3105  0.2520
 5318SOL    HW127590   3.289   0.061   5.026 -0.9587 -1.2141 -3.5211
 5318SOL    HW227591   3.340   0.059   4.900  3.1319 -2.8608  0.8025
 5319SOL     OW27592   3.897   3.845   7.895 -0.2651 -0.2296 -0.1244
 5319SOL    HW127593   3.889   3.839   7.990 -1.5058  1.6895 -0.0934
 5319SOL    HW227594   3.805   3.859   7.871 -0.7060  1.8683  2.7786
 5320SOL     OW27595   4.209   3.703   5.802  0.0744  0.3322  0.4578
 5320SOL    HW127596   4.206   3.673   5.711 -0.4272  1.0676  0.2356
 5320SOL    HW227597   4.115   3.704   5.822  0.0313  0.4986  0.2450
 5321SOL     OW27598   0.852   4.125   7.324  0.7120  0.0959  0.2834
 5321SOL    HW127599   0.775   4.177   7.303  0.0003 -0.4609  1.5406
 5321SOL    HW227600   0.865   4.066   7.250  0.9118  2.0981 -1.2793
 5322SOL     OW27601   2.729   3.772   4.137 -0.4831  0.7290  0.4190
 5322SOL    HW127602   2.715   3.679   4.155 -1.5650  1.0485  1.2298
 5322SOL    HW227603   2.784   3.790   4.213 -0.1538  1.0513  0.1071
 5323SOL     OW27604   2.547   4.733  17.062 -0.0979 -0.1038 -0.3571
 5323SOL    HW127605   2.458   0.030  17.070 -0.1543 -0.2305 -0.4610
 5323SOL    HW227606   2.527   4.640  17.076 -1.0676  0.6474  3.1347
 5324SOL     OW27607   0.591   1.664   3.145  0.0268 -0.0130 -0.6073
 5324SOL    HW127608   0.642   1.725   3.092  1.0654  1.0678  1.6514
 5324SOL    HW227609   0.637   1.582   3.128  1.5766  1.0402 -1.4601
 5325SOL     OW27610   4.155   4.090  11.160 -0.0645  0.3313  0.4340
 5325SOL    HW127611   4.165   4.165  11.219  1.4394 -0.1167  0.7299
 5325SOL    HW227612   4.131   4.021  11.220 -0.0216  1.2739  1.5317
 5326SOL     OW27613   3.870   0.621   4.463  0.3028 -0.3037 -0.1595
 5326SOL    HW127614   3.868   0.647   4.555 -0.5707 -2.0071  0.3104
 5326SOL    HW227615   3.791   0.567   4.463  0.6188 -0.7776  0.7907
 5327SOL     OW27616   4.116   1.427  14.017 -0.3202 -0.0747 -0.5191
 5327SOL    HW127617   4.107   1.399  14.108  0.7541  0.6162 -0.1945
 5327SOL    HW227618   4.045   1.492  14.014  0.0491  0.2726 -1.5571
 5328SOL     OW27619   2.286   0.615   4.748 -0.3745  0.2236 -0.1447
 5328SOL    HW127620   2.364   0.656   4.786  0.2583 -1.2514  0.1413
 5328SOL    HW227621   2.240   0.688   4.706 -0.0400  1.6667  1.9723
 5329SOL     OW27622   4.420   3.121   6.692 -0.3896  0.1020  0.3616
 5329SOL    HW127623   4.378   3.051   6.642 -0.6653  0.5968 -0.1004
 5329SOL    HW227624   4.436   3.082   6.778 -0.6636 -0.4029  0.1858
 5330SOL     OW27625   2.322   4.638  10.729 -0.4481  0.1419  0.1695
 5330SOL    HW127626   2.242   4.688  10.742  0.2069  0.9064  1.2122
 5330SOL    HW227627   2.388   4.707  10.719 -0.3136 -0.1290 -0.8575
 5331SOL     OW27628   1.787   0.914   4.150  0.4189  0.3721 -0.2718
 5331SOL    HW127629   1.727   0.848   4.113  2.4983 -2.6072  1.7038
 5331SOL    HW227630   1.725   0.976   4.187  0.5771  0.6714 -0.5117
 5332SOL     OW27631   2.938   3.748  12.317 -0.3205 -0.1914  0.7244
 5332SOL    HW127632   2.967   3.807  12.387  3.5109 -0.8689 -0.2986
 5332SOL    HW227633   2.928   3.665  12.364 -0.8327 -1.2721 -1.3089
 5333SOL     OW27634   1.561   1.889   7.435  0.4413 -0.2741 -0.0364
 5333SOL    HW127635   1.548   1.923   7.524 -0.4133  0.3116 -0.3784
 5333SOL    HW227636   1.474   1.851   7.419  0.9392 -1.6540  0.5237
 5334SOL     OW27637   4.308   3.637   6.203  0.1337  0.0661 -0.0032
 5334SOL    HW127638   4.331   3.603   6.117 -0.4219  1.2762 -0.6358
 5334SOL    HW227639   4.394   3.621   6.241 -0.3455  0.1235  1.0984
 5335SOL     OW27640   0.503   3.249   8.523 -0.1441  0.5248  0.1512
 5335SOL    HW127641   0.542   3.303   8.454  0.7398 -2.0701 -1.3596
 5335SOL    HW227642   0.424   3.230   8.471 -0.1294 -2.6036  1.2849
 5336SOL     OW27643   4.014   1.046   6.304  0.5526 -0.2301  0.1813
 5336SOL    HW127644   3.932   1.047   6.352  0.1247 -0.0056 -0.5525
 5336SOL    HW227645   4.056   0.975   6.353  0.8470  0.0744  0.3685
 5337SOL     OW27646   3.291   3.591   0.725 -0.3977 -0.7014 -0.8525
 5337SOL    HW127647   3.376   3.552   0.744 -0.6834 -0.4546  0.9436
 5337SOL    HW227648   3.307   3.684   0.709  1.0089 -0.4479  2.0230
 5338SOL     OW27649   0.201   4.190   4.815  0.1645  0.1179 -0.1549
 5338SOL    HW127650   0.281   4.235   4.791 -1.1148  0.4923 -3.6691
 5338SOL    HW227651   0.247   4.105   4.813 -3.2269 -1.7289 -0.0442
 5339SOL     OW27652   4.560   3.585  10.138 -0.3628  0.1333 -0.1051
 5339SOL    HW127653   4.653   3.606  10.139  0.2920 -2.9195  1.5323
 5339SOL    HW227654   4.552   3.519  10.207 -0.7114  1.0822  0.7720
 5340SOL     OW27655   0.206   0.051   5.044  0.0202  0.4131 -0.3258
 5340SOL    HW127656   0.175   0.029   5.132  0.4621  0.0662 -0.2522
 5340SOL    HW227657   0.135   0.054   4.980 -2.8333 -0.4435  2.8089
 5341SOL     OW27658   3.360   3.715   8.951  0.3791 -0.3263 -0.1006
 5341SOL    HW127659   3.375   3.623   8.928 -0.7329 -0.1193 -1.6362
 5341SOL    HW227660   3.291   3.701   9.016  0.1279  0.1459 -0.2681
 5342SOL     OW27661   2.980   2.786  13.693  0.8084  0.5115  0.0977
 5342SOL    HW127662   2.886   2.804  13.691  0.1719 -2.4576  2.2207
 5342SOL    HW227663   2.990   2.787  13.788  0.3705  1.0395  0.1348
 5343SOL     OW27664   3.166   1.518   9.316  0.3736 -0.0743 -0.0815
 5343SOL    HW127665   3.230   1.540   9.248 -1.7986  0.5720 -1.9344
 5343SOL    HW227666   3.124   1.441   9.277  0.8115 -1.7503  2.7136
 5344SOL     OW27667   2.949   1.003  11.579  0.0188  0.3501 -0.1393
 5344SOL    HW127668   2.921   1.093  11.563 -3.5434 -0.6939  0.1740
 5344SOL    HW227669   3.018   1.001  11.513 -0.4191 -0.2382 -0.5818
 5345SOL     OW27670   2.289   2.488   6.182  0.0139  0.0369 -0.3005
 5345SOL    HW127671   2.199   2.518   6.169 -0.3705 -0.8765  0.2376
 5345SOL    HW227672   2.270   2.396   6.159 -0.2795 -0.1289  0.6253
 5346SOL     OW27673   3.669   1.755  14.168 -0.6287 -0.2880  0.7145
 5346SOL    HW127674   3.718   1.721  14.242 -1.1089 -0.9995  0.7040
 5346SOL    HW227675   3.621   1.828  14.208 -3.1427 -2.2269  1.2043
 5347SOL     OW27676   0.726   0.449   4.202  0.0521  0.1143  0.3245
 5347SOL    HW127677   0.820   0.435   4.185  0.1899 -1.6204  2.4982
 5347SOL    HW227678   0.693   0.383   4.141 -2.1825  0.9088  0.6792
 5348SOL     OW27679   0.411   3.923   4.558  0.1443 -0.3011 -0.0793
 5348SOL    HW127680   0.487   3.892   4.509  0.3669 -0.7704  0.5788
 5348SOL    HW227681   0.404   4.018   4.549 -0.6774 -0.2352  1.2866
 5349SOL     OW27682   2.140   3.729   1.255 -0.8884  0.4285 -0.4179
 5349SOL    HW127683   2.231   3.756   1.261 -0.7941 -0.5053  2.2496
 5349SOL    HW227684   2.102   3.814   1.233  0.2211  0.4860 -2.0480
 5350SOL     OW27685   2.167   3.344  11.853 -0.0230 -0.2440  0.1831
 5350SOL    HW127686   2.177   3.410  11.784 -2.5838  0.9662  0.9710
 5350SOL    HW227687   2.188   3.392  11.933 -0.1750  0.6350 -0.2981
 5351SOL     OW27688   3.581   4.358  11.890  0.0588  0.2024 -0.3475
 5351SOL    HW127689   3.676   4.364  11.888  0.0379 -1.2137 -3.9057
 5351SOL    HW227690   3.560   4.448  11.863  0.2747 -0.3987 -2.4841
 5352SOL     OW27691   0.021   4.508   5.104  0.3784  1.1021  0.5097
 5352SOL    HW127692   4.667   4.537   5.093  1.2824  3.5650 -0.5018
 5352SOL    HW227693   0.028   4.516   5.199 -0.2379 -2.1628  0.8236
 5353SOL     OW27694   0.122   3.244   1.257  0.5933 -0.2442 -0.2024
 5353SOL    HW127695   0.200   3.284   1.217  1.0449 -0.9181 -0.0033
 5353SOL    HW227696   0.095   3.313   1.318 -1.6346 -0.4710 -0.9327
 5354SOL     OW27697   0.718   2.820   5.107  1.1107  0.0584  0.1853
 5354SOL    HW127698   0.726   2.866   5.191 -0.1146  2.9094 -1.2683
 5354SOL    HW227699   0.715   2.728   5.133  0.8231  0.5400  1.8547
 5355SOL     OW27700   4.290   2.558   6.232  0.0984 -0.9081  0.2978
 5355SOL    HW127701   4.211   2.514   6.202 -0.9736  2.9127 -2.4435
 5355SOL    HW227702   4.353   2.502   6.186  1.1434 -0.6791  1.4614
 5356SOL     OW27703   3.721   2.729   8.745 -0.1028 -0.4569 -0.3579
 5356SOL    HW127704   3.721   2.791   8.818  2.5285  0.2729 -0.9448
 5356SOL    HW227705   3.793   2.670   8.768  0.6771  0.1373 -1.2570
 5357SOL     OW27706   3.377   0.997   0.422  0.0053  0.0420  0.1353
 5357SOL    HW127707   3.309   0.934   0.402 -0.9557  0.5935  1.6696
 5357SOL    HW227708   3.393   1.047   0.342  2.0383  0.0163  0.5176
 5358SOL     OW27709   4.617   0.469   8.834  0.3345  0.5704 -0.1858
 5358SOL    HW127710   4.619   0.440   8.743 -0.0212  1.4714 -0.4856
 5358SOL    HW227711   4.580   0.389   8.872  0.6036  0.4772 -0.1153
 5359SOL     OW27712   1.651   2.523  13.586 -0.0492 -0.3591 -0.0411
 5359SOL    HW127713   1.609   2.451  13.539  0.7076 -1.4858  1.0355
 5359SOL    HW227714   1.739   2.518  13.547 -0.4123  0.1945 -0.9378
 5360SOL     OW27715   1.406   0.570   7.054 -0.0543 -0.0672  0.6488
 5360SOL    HW127716   1.481   0.512   7.047  0.4447  0.6902 -0.1990
 5360SOL    HW227717   1.364   0.517   7.122 -3.1255 -2.0365 -2.7908
 5361SOL     OW27718   4.719   2.073  17.247  0.1762 -0.4226 -0.0281
 5361SOL    HW127719   0.038   2.075  17.169 -0.2318 -0.5333 -0.3240
 5361SOL    HW227720   4.662   2.147  17.225 -0.9700 -0.8165  1.5661
 5362SOL     OW27721   1.178   1.245   2.145  0.6189  0.5554  0.5929
 5362SOL    HW127722   1.167   1.192   2.223  2.1277  1.2057  1.2390
 5362SOL    HW227723   1.108   1.214   2.087  0.7737 -0.4078  0.9283
 5363SOL     OW27724   1.715   1.532   5.732  0.2727  1.0332  0.0460
 5363SOL    HW127725   1.806   1.558   5.719  0.5429  0.5965  1.0570
 5363SOL    HW227726   1.685   1.623   5.727  0.7630  1.2397  0.7700
 5364SOL     OW27727   0.512   0.651   9.853 -0.0702 -0.1913 -0.1786
 5364SOL    HW127728   0.584   0.711   9.833 -1.0266  1.1223  0.3619
 5364SOL    HW227729   0.442   0.710   9.879  0.3410  0.4780 -0.5710
 5365SOL     OW27730   0.214   1.329   0.827  0.1234 -0.1270 -0.0827
 5365SOL    HW127731   0.143   1.384   0.795  0.5565  1.2815  1.3975
 5365SOL    HW227732   0.162   1.278   0.889 -3.7052  2.0367 -1.5126
 5366SOL     OW27733   2.546   3.575   4.514 -0.1882 -0.3593  0.0704
 5366SOL    HW127734   2.481   3.631   4.472  0.4120  0.4609  0.2373
 5366SOL    HW227735   2.601   3.553   4.439 -0.3330 -0.2371 -0.0725
 5367SOL     OW27736   4.483   0.806   6.876 -0.2936  0.1553 -0.3566
 5367SOL    HW127737   4.389   0.790   6.872 -0.3001 -0.6540  2.8754
 5367SOL    HW227738   4.489   0.901   6.884 -0.9692  0.0337  1.4294
 5368SOL     OW27739   3.460   3.945   4.221  0.3227  0.1979  0.0277
 5368SOL    HW127740   3.503   4.027   4.197 -0.0665  0.2869 -0.3502
 5368SOL    HW227741   3.384   3.956   4.164 -0.6992  1.7705  1.7211
 5369SOL     OW27742   2.018   1.885   3.653  0.1166 -0.4161  0.3772
 5369SOL    HW127743   2.074   1.894   3.576  0.2075  1.3184  0.6436
 5369SOL    HW227744   2.073   1.817   3.692 -0.0036 -2.0757 -2.3479
 5370SOL     OW27745   1.074   3.719  15.110  0.2531 -0.2989  0.8906
 5370SOL    HW127746   1.057   3.753  15.198  0.4018  0.2155  0.7130
 5370SOL    HW227747   1.008   3.651  15.093  0.9163 -0.6510 -0.2421
 5371SOL     OW27748   2.845   0.127  13.933  0.3965  0.3221 -0.0565
 5371SOL    HW127749   2.922   0.183  13.931 -1.1306  2.4661  0.2024
 5371SOL    HW227750   2.875   0.046  13.974 -0.2869 -0.7290 -1.6204
 5372SOL     OW27751   2.512   4.458   5.693  0.4328 -0.3786  0.1961
 5372SOL    HW127752   2.428   4.501   5.703  1.1266  0.7227  1.3489
 5372SOL    HW227753   2.485   4.368   5.677 -0.2540 -0.1776  0.2381
 5373SOL     OW27754   4.473   0.875   4.765  0.2519  0.1471 -0.1256
 5373SOL    HW127755   4.403   0.822   4.800  0.1621  0.9028  0.8269
 5373SOL    HW227756   4.552   0.831   4.797 -0.9669 -1.5094  0.5524
 5374SOL     OW27757   0.816   0.428   6.508  0.3643  0.5434  0.0908
 5374SOL    HW127758   0.826   0.362   6.577 -0.6158  0.4999  0.1932
 5374SOL    HW227759   0.722   0.443   6.523  0.2452  0.2995 -0.4070
 5375SOL     OW27760   0.912   0.410   6.819 -0.4423 -0.0134 -0.2130
 5375SOL    HW127761   1.007   0.397   6.825 -0.5195 -1.0352 -1.2876
 5375SOL    HW227762   0.880   0.328   6.783  1.1330  0.2843 -2.3192
 5376SOL     OW27763   2.522   3.599   7.923 -0.4108 -0.5861 -0.3179
 5376SOL    HW127764   2.430   3.587   7.947 -0.7347  0.5786 -0.9683
 5376SOL    HW227765   2.567   3.530   7.971  0.1330  0.1611  0.2507
 5377SOL     OW27766   0.979   2.546   1.681  0.3316 -0.2652 -0.0871
 5377SOL    HW127767   1.060   2.504   1.707  0.6815  0.7068  0.3946
 5377SOL    HW227768   0.924   2.471   1.656  0.9203 -0.0215 -2.1541
 5378SOL     OW27769   0.984   1.241   7.048 -0.6242  0.1239  0.0365
 5378SOL    HW127770   0.943   1.158   7.073 -1.2636  0.9180  1.6043
 5378SOL    HW227771   1.001   1.277   7.135  2.3662  1.1656 -0.9632
 5379SOL     OW27772   0.368   4.614   1.693  0.4704 -0.3228  0.0921
 5379SOL    HW127773   0.404   4.637   1.779 -2.2785  0.7333  0.9799
 5379SOL    HW227774   0.276   4.597   1.716  0.0886 -0.8032 -1.8130
 5380SOL     OW27775   3.438   2.664   2.989 -0.0586  0.0676 -0.3884
 5380SOL    HW127776   3.456   2.758   2.980 -0.4942  0.2106  0.2355
 5380SOL    HW227777   3.438   2.645   2.895  0.0085  0.4294 -0.4625
 5381SOL     OW27778   0.535   0.586  12.884  0.3253  0.5046  0.1110
 5381SOL    HW127779   0.540   0.579  12.980  1.7934 -3.2400 -0.2624
 5381SOL    HW227780   0.533   0.492  12.870 -2.7383  0.4875  0.7987
 5382SOL     OW27781   4.180   1.577   7.203 -0.1870 -0.2760  0.2546
 5382SOL    HW127782   4.174   1.672   7.211 -0.2945 -0.2552 -0.0977
 5382SOL    HW227783   4.250   1.550   7.263 -1.0152  1.8139  2.1522
 5383SOL     OW27784   2.389   3.644   9.549 -0.2137  0.1510  0.0954
 5383SOL    HW127785   2.418   3.693   9.626  1.4163  3.2885 -2.5211
 5383SOL    HW227786   2.322   3.584   9.582 -0.4098 -0.7064 -1.8534
 5384SOL     OW27787   1.865   0.594   8.208 -0.3026  0.1692  0.1854
 5384SOL    HW127788   1.875   0.607   8.113  2.3879  0.9495  0.5626
 5384SOL    HW227789   1.785   0.646   8.201  0.0905  0.8359  0.6824
 5385SOL     OW27790   1.925   1.971   8.397 -0.2615  0.0758 -0.1319
 5385SOL    HW127791   1.943   1.960   8.490  0.0399  0.8585 -0.1033
 5385SOL    HW227792   1.866   1.895   8.397 -0.8754  0.5458  3.6752
 5386SOL     OW27793   2.014   3.475  11.532  0.3506  0.0323  0.1246
 5386SOL    HW127794   1.947   3.528  11.488  2.1297  1.2456 -1.1025
 5386SOL    HW227795   2.053   3.428  11.458  1.0149 -1.2566  1.2892
 5387SOL     OW27796   2.864   2.963   8.578  0.5983 -0.1788 -0.2125
 5387SOL    HW127797   2.926   2.925   8.515  0.9936 -0.6137  0.4445
 5387SOL    HW227798   2.910   2.951   8.661  1.1006 -1.3616 -0.6690
 5388SOL     OW27799   0.624   2.245  15.939 -0.4647  0.8225  0.2529
 5388SOL    HW127800   0.713   2.244  15.905 -0.3304 -2.7275  0.7089
 5388SOL    HW227801   0.585   2.277  15.858  0.0773  1.4392  0.2373
 5389SOL     OW27802   1.191   2.448   4.730  0.3793 -0.0624  0.4839
 5389SOL    HW127803   1.199   2.542   4.715  1.6187 -0.0097  1.4742
 5389SOL    HW227804   1.270   2.422   4.778  0.0239 -2.1661 -0.0529
 5390SOL     OW27805   2.546   4.054  13.135  0.2527 -0.1457 -0.1618
 5390SOL    HW127806   2.469   4.110  13.137  1.5369  1.6457 -0.3048
 5390SOL    HW227807   2.609   4.099  13.192 -1.6130  2.1768  0.0874
 5391SOL     OW27808   2.914   1.933  12.884  0.3908  0.0592  0.7424
 5391SOL    HW127809   2.985   1.963  12.940  0.5441 -0.0099  0.5817
 5391SOL    HW227810   2.868   2.017  12.888  0.2870 -0.0064  0.9673
 5392SOL     OW27811   1.340   4.201   4.742 -0.2207 -0.1947  0.7781
 5392SOL    HW127812   1.356   4.111   4.713  2.4636  0.2695  0.8925
 5392SOL    HW227813   1.422   4.222   4.786  0.6738  0.5548 -1.2354
 5393SOL     OW27814   1.796   3.849   7.796 -0.4116 -0.2197 -0.6054
 5393SOL    HW127815   1.743   3.918   7.758  3.7155  2.7541 -0.9525
 5393SOL    HW227816   1.728   3.783   7.784 -0.8044  0.1999 -0.6869
 5394SOL     OW27817   2.365   2.874  17.639  0.1064  0.0919  0.0220
 5394SOL    HW127818   2.416   2.808  17.592 -0.8941 -1.3505  0.9710
 5394SOL    HW227819   2.325   2.821  17.708 -0.4718 -0.7683 -0.9927
 5395SOL     OW27820   2.507   3.861   7.547  0.0839  0.0835 -0.2394
 5395SOL    HW127821   2.485   3.925   7.615 -0.4685  1.3362 -1.5825
 5395SOL    HW227822   2.434   3.800   7.557  0.8145 -1.1039 -2.0918
 5396SOL     OW27823   1.782   0.979  13.348  0.2252  0.1379  0.1538
 5396SOL    HW127824   1.758   0.899  13.396  0.2372  1.0065  1.5983
 5396SOL    HW227825   1.774   1.054  13.407  1.1885  0.5496 -0.2459
 5397SOL     OW27826   1.772   1.931   3.533 -0.9131  0.1756 -0.6776
 5397SOL    HW127827   1.792   1.863   3.468 -1.7778 -0.6856 -0.0485
 5397SOL    HW227828   1.856   1.933   3.578 -1.2526  0.9381 -0.0787
 5398SOL     OW27829   1.996   1.390   4.726  0.4678 -0.1365  0.8173
 5398SOL    HW127830   2.010   1.343   4.808  1.2189 -0.7125  0.3569
 5398SOL    HW227831   1.918   1.352   4.685 -0.0255  1.5793  0.1533
 5399SOL     OW27832   2.599   4.534   2.481 -0.3966 -0.3335  0.3120
 5399SOL    HW127833   2.509   4.519   2.509 -0.2590 -3.3415 -0.9464
 5399SOL    HW227834   2.629   4.455   2.526 -0.5552  0.0879  1.1649
 5400SOL     OW27835   0.060   0.566   3.898  0.0539 -0.4701  0.6483
 5400SOL    HW127836   0.096   0.626   3.832  1.0839 -3.0313 -1.1133
 5400SOL    HW227837   0.003   0.629   3.943  0.0177 -1.4940  2.0114
 5401SOL     OW27838   1.806   0.288   8.676 -0.1116  0.1536 -0.2490
 5401SOL    HW127839   1.799   0.231   8.752  2.2216 -0.9576 -0.8852
 5401SOL    HW227840   1.900   0.279   8.663 -0.2365  0.1995 -1.1960
 5402SOL     OW27841   1.031   0.767   6.577 -0.4730  0.2352  0.4177
 5402SOL    HW127842   1.058   0.679   6.602  0.2332  0.7061  1.3418
 5402SOL    HW227843   0.940   0.789   6.596 -0.6939  0.1051 -0.4952
 5403SOL     OW27844   0.908   0.521   5.711  0.5622  0.0209 -0.0957
 5403SOL    HW127845   0.979   0.582   5.728 -2.2477  3.0633  0.7462
 5403SOL    HW227846   0.935   0.499   5.622 -0.9909 -1.7539 -0.1274
 5404SOL     OW27847   2.585   0.873  12.095 -0.2538  0.1472  0.2411
 5404SOL    HW127848   2.492   0.849  12.099 -0.2076  0.0710  0.7402
 5404SOL    HW227849   2.618   0.796  12.049 -2.7102 -0.1055 -1.1384
 5405SOL     OW27850   1.980   3.028   4.717 -0.5501 -0.0224 -0.3758
 5405SOL    HW127851   1.906   2.971   4.697 -0.6215 -1.0885  2.9542
 5405SOL    HW227852   1.979   3.015   4.811  0.9117 -2.6061 -0.7170
 5406SOL     OW27853   4.323   2.358   0.740  0.7928 -0.1865 -0.2175
 5406SOL    HW127854   4.385   2.382   0.671 -1.5960  2.6497 -1.3290
 5406SOL    HW227855   4.391   2.348   0.807 -0.2915 -0.8508  0.7765
 5407SOL     OW27856   2.897   4.368  13.654  0.0260  0.9856 -0.3613
 5407SOL    HW127857   2.896   4.449  13.704 -0.5714  0.9001 -0.2408
 5407SOL    HW227858   2.879   4.306  13.725 -2.7465  0.4817 -1.5137
 5408SOL     OW27859   0.175   2.582  17.180  0.6790  0.2053 -0.2964
 5408SOL    HW127860   0.144   2.635  17.254  2.8603 -0.2580  0.9681
 5408SOL    HW227861   0.242   2.537  17.231  0.6121  1.4543  0.9105
 5409SOL     OW27862   4.602   2.955  14.169 -0.3025 -0.0435 -0.0921
 5409SOL    HW127863   4.645   2.884  14.218 -1.2149 -1.6005 -1.5394
 5409SOL    HW227864   4.616   3.036  14.218 -1.3175 -0.8019  1.4781
 5410SOL     OW27865   2.883   2.301   9.165 -0.1010  0.0618 -0.1107
 5410SOL    HW127866   2.873   2.208   9.143 -1.6265 -0.2927  2.2143
 5410SOL    HW227867   2.793   2.321   9.189 -0.2001  1.8467 -1.9269
 5411SOL     OW27868   1.938   0.902  13.150  0.1714 -0.4504 -0.0202
 5411SOL    HW127869   1.889   0.939  13.223  0.7831  2.4964 -1.0596
 5411SOL    HW227870   2.021   0.877  13.190  0.2217 -0.5918 -0.2128
 5412SOL     OW27871   1.247   2.086  17.601  0.1034 -0.4022 -0.1476
 5412SOL    HW127872   1.303   2.146  17.650 -0.4674  2.2991 -2.9010
 5412SOL    HW227873   1.305   2.025  17.555  1.6932  1.2391 -0.2997
 5413SOL     OW27874   3.999   3.577  11.046  0.0430  0.3729  0.2344
 5413SOL    HW127875   4.007   3.654  11.103 -0.8423 -0.8547  2.0165
 5413SOL    HW227876   4.088   3.542  11.034  0.0510 -0.3416  2.3342
 5414SOL     OW27877   2.049   4.198   7.870  0.1319  0.1107  0.1289
 5414SOL    HW127878   1.989   4.191   7.944  0.5097  0.0045  0.4271
 5414SOL    HW227879   2.063   4.104   7.861  1.3265  0.4458 -1.6380
 5415SOL     OW27880   4.472   3.028   6.955 -0.1231 -0.1173 -0.2088
 5415SOL    HW127881   4.460   3.074   7.037 -0.3332 -1.2387  0.3885
 5415SOL    HW227882   4.559   3.053   6.923 -1.1566  1.4514 -1.7824
 5416SOL     OW27883   0.519   0.219   7.660  0.0144  0.4057  0.5528
 5416SOL    HW127884   0.490   0.131   7.638 -0.7594  0.6244  0.7216
 5416SOL    HW227885   0.466   0.265   7.595  0.4451 -0.4557 -0.4047
 5417SOL     OW27886   2.159   4.681  16.046 -0.3774  0.0261  0.2587
 5417SOL    HW127887   2.166   4.650  16.137 -1.0183 -0.3232  0.1942
 5417SOL    HW227888   2.220   4.623  16.002 -0.7630 -1.7186  2.0106
 5418SOL     OW27889   1.785   3.995   4.135  0.0818 -0.7511  0.3507
 5418SOL    HW127890   1.855   3.940   4.169  0.8969 -0.2047 -0.4633
 5418SOL    HW227891   1.804   3.968   4.045 -3.0357 -0.4495 -0.3974
 5419SOL     OW27892   1.775   4.077   6.772 -0.1060 -0.2646  0.2700
 5419SOL    HW127893   1.737   4.160   6.801  2.0802  0.7774  0.0802
 5419SOL    HW227894   1.835   4.052   6.842  0.0867  0.8144  0.4850
 5420SOL     OW27895   2.559   0.495   5.955 -0.3643  0.0312  0.0353
 5420SOL    HW127896   2.609   0.426   5.997 -0.0322  0.3867  0.2227
 5420SOL    HW227897   2.613   0.521   5.880  1.0616 -0.2946  0.9715
 5421SOL     OW27898   2.011   2.765   3.702 -0.6941 -0.1182  0.2868
 5421SOL    HW127899   1.992   2.843   3.651 -0.7692 -0.0653  0.3954
 5421SOL    HW227900   2.104   2.751   3.683  0.3326  3.1863  3.1000
 5422SOL     OW27901   4.460   3.267   0.402  0.3508  0.3303  0.0946
 5422SOL    HW127902   4.410   3.203   0.350  1.6457  0.2618 -1.0459
 5422SOL    HW227903   4.470   3.340   0.341  0.6243 -0.1113 -0.3935
 5423SOL     OW27904   2.352   2.070   3.904 -0.0050 -0.7468  0.2174
 5423SOL    HW127905   2.276   2.039   3.855 -0.6139  1.3275 -0.1472
 5423SOL    HW227906   2.313   2.074   3.991  0.1788 -2.2892  0.3740
 5424SOL     OW27907   0.646   1.808   9.585  0.3704 -0.4177  0.0204
 5424SOL    HW127908   0.653   1.752   9.662 -0.7391 -0.7192 -0.1108
 5424SOL    HW227909   0.618   1.893   9.619  1.0297 -0.2161  0.0634
 5425SOL     OW27910   1.674   3.408  17.299  0.7107  0.0721 -0.4048
 5425SOL    HW127911   1.651   3.501  17.289  2.6831  0.6561  0.5394
 5425SOL    HW227912   1.767   3.408  17.278  1.2058  0.2803  1.8470
 5426SOL     OW27913   1.153   2.868   3.586 -0.0921  0.7569  0.0960
 5426SOL    HW127914   1.214   2.842   3.517 -1.6561 -0.4815 -0.8177
 5426SOL    HW227915   1.208   2.858   3.663  0.8473  1.0373 -0.5399
 5427SOL     OW27916   4.421   4.160  14.731  0.5755 -0.3080 -0.0502
 5427SOL    HW127917   4.343   4.211  14.712  0.3149 -1.1770 -1.3283
 5427SOL    HW227918   4.440   4.134  14.640  2.4276 -1.3424  0.6151
 5428SOL     OW27919   3.713   2.951   5.101 -0.3979  0.1894  0.3649
 5428SOL    HW127920   3.803   2.932   5.073 -0.4064 -0.6607  0.9237
 5428SOL    HW227921   3.726   3.043   5.125 -0.3642 -0.4164  2.6394
 5429SOL     OW27922   1.356   1.806   3.500  0.1444 -0.1848  0.2207
 5429SOL    HW127923   1.365   1.781   3.408 -0.8987 -1.4813  0.4629
 5429SOL    HW227924   1.358   1.718   3.539  1.4110  0.6646  2.0790
 5430SOL     OW27925   1.549   4.448   2.690  0.0288 -0.3763 -0.2726
 5430SOL    HW127926   1.596   4.418   2.768  0.8381  1.6214 -0.0011
 5430SOL    HW227927   1.538   4.539   2.716 -0.2668 -0.5606  0.2548
 5431SOL     OW27928   4.319   0.381   5.023 -0.0950 -0.0664  0.0347
 5431SOL    HW127929   4.379   0.307   5.013 -0.3952 -0.3363  0.2286
 5431SOL    HW227930   4.257   0.353   4.956  0.2500 -1.4014  0.2550
 5432SOL     OW27931   1.313   2.775   6.094 -0.1396  0.2692 -0.2449
 5432SOL    HW127932   1.352   2.807   6.013  0.5829 -0.8271 -0.3340
 5432SOL    HW227933   1.368   2.704   6.127 -1.9512 -0.8094  0.4363
 5433SOL     OW27934   4.700   3.301   4.950 -0.1618  0.3955  0.3766
 5433SOL    HW127935   4.647   3.322   4.873  2.2264 -0.2108 -1.4302
 5433SOL    HW227936   4.736   3.218   4.919  0.9957  0.6270  1.0977
 5434SOL     OW27937   1.936   4.503  16.342  0.2709 -0.5997  0.7477
 5434SOL    HW127938   2.018   4.514  16.389  0.3997 -1.2605  0.6767
 5434SOL    HW227939   1.906   4.594  16.338  0.6349 -0.6206 -1.9732
 5435SOL     OW27940   2.358   3.758   4.393 -0.2231 -0.0577 -0.0368
 5435SOL    HW127941   2.376   3.737   4.301 -1.5880 -0.1764 -0.2721
 5435SOL    HW227942   2.340   3.851   4.384  0.5533  0.1184  0.2995
 5436SOL     OW27943   1.800   1.065   4.560 -0.1711  0.3174 -0.5512
 5436SOL    HW127944   1.786   1.156   4.585 -0.9692  0.7286 -2.5209
 5436SOL    HW227945   1.853   1.039   4.635 -0.8549  1.3094  0.2721
 5437SOL     OW27946   4.636   4.672   3.653 -0.7492  0.7247  0.5212
 5437SOL    HW127947   4.615   4.596   3.600 -0.7112 -0.3638  2.0614
 5437SOL    HW227948   4.643   0.011   3.595 -2.2802  2.7222  2.9480
 5438SOL     OW27949   0.691   1.961  12.355 -0.1922  0.2518  0.3391
 5438SOL    HW127950   0.618   1.968  12.292  0.6992  2.4445 -0.4492
 5438SOL    HW227951   0.755   2.024  12.324  0.1139  0.7365  1.9997
 5439SOL     OW27952   3.119   4.245  17.683 -0.5504 -0.7058 -0.3263
 5439SOL    HW127953   3.067   4.265   0.015  1.3421  0.2146  0.7226
 5439SOL    HW227954   3.097   4.320  17.628  3.0271 -0.0808 -0.9230
 5440SOL     OW27955   2.151   2.385   0.113  0.2167  0.0204 -0.7700
 5440SOL    HW127956   2.187   2.354   0.029 -0.4153 -2.9263  0.0723
 5440SOL    HW227957   2.058   2.402   0.100 -0.4331 -2.5310  0.6875
 5441SOL     OW27958   1.792   0.137   2.605  0.3403 -0.2026  0.3665
 5441SOL    HW127959   1.811   0.046   2.584  1.1887 -0.3480  1.7173
 5441SOL    HW227960   1.720   0.165   2.549  1.2635 -1.1228 -1.2810
 5442SOL     OW27961   0.213   0.202   8.652  0.4198 -0.1171 -0.4369
 5442SOL    HW127962   0.209   0.229   8.560 -1.0150  1.3344  0.0613
 5442SOL    HW227963   0.290   0.145   8.656  0.5688  0.1766  1.0354
 5443SOL     OW27964   0.192   1.265  10.247  0.2568  0.4946  0.9671
 5443SOL    HW127965   0.119   1.319  10.277 -0.5999  0.4374 -1.0794
 5443SOL    HW227966   0.238   1.338  10.205  0.1038  0.6299  1.0334
 5444SOL     OW27967   0.750   4.607   8.179  0.3922  0.0533  0.1448
 5444SOL    HW127968   0.707   4.686   8.146 -0.1759 -0.2645  0.1345
 5444SOL    HW227969   0.838   4.636   8.156 -0.0631  0.6360 -0.8518
 5445SOL     OW27970   3.876   4.108   5.655 -0.0799  0.5881  0.6747
 5445SOL    HW127971   3.793   4.144   5.687  0.3685  0.8085  1.5811
 5445SOL    HW227972   3.910   4.194   5.630 -0.3948  0.7100  0.6600
 5446SOL     OW27973   3.421   4.601  11.935  0.3875 -0.3390  0.4255
 5446SOL    HW127974   3.340   4.645  11.910  1.1502  1.9795  2.0789
 5446SOL    HW227975   3.418   4.584  12.029  1.6438  2.0269  0.9016
 5447SOL     OW27976   4.550   3.234   4.502 -0.3211 -0.0991 -0.3683
 5447SOL    HW127977   4.462   3.268   4.486  0.4857  1.2928 -1.8623
 5447SOL    HW227978   4.532   3.140   4.503 -1.5214  0.1240 -0.6957
 5448SOL     OW27979   1.197   4.614   0.638 -0.5823  0.7892 -0.4973
 5448SOL    HW127980   1.125   4.647   0.584 -1.2358 -0.0624 -0.1528
 5448SOL    HW227981   1.188   4.663   0.719 -0.1675 -0.7304  0.4590
 5449SOL     OW27982   3.878   1.231   8.983 -0.2766  0.3515 -0.7296
 5449SOL    HW127983   3.900   1.158   8.925 -2.0289 -0.3433 -0.5129
 5449SOL    HW227984   3.791   1.214   9.018 -0.0123  0.0503 -0.2315
 5450SOL     OW27985   0.951   0.710  15.599  0.4257 -0.1700  0.4073
 5450SOL    HW127986   1.029   0.671  15.638  0.3560  0.0151  0.7305
 5450SOL    HW227987   0.884   0.645  15.622  1.1470 -0.3875  1.8574
 5451SOL     OW27988   3.581   4.220   6.605  0.3286 -0.1273 -0.6243
 5451SOL    HW127989   3.638   4.170   6.547  0.7169 -1.6792  1.1066
 5451SOL    HW227990   3.523   4.261   6.541  0.9478 -0.9063 -1.6825
 5452SOL     OW27991   1.988   2.658   3.356 -0.6723  0.5246 -0.0203
 5452SOL    HW127992   1.965   2.645   3.448  0.5364  3.5017  0.6932
 5452SOL    HW227993   2.005   2.569   3.325 -0.4624  1.4273 -2.4994
 5453SOL     OW27994   3.740   2.094   1.228 -0.0637 -0.9333  0.0246
 5453SOL    HW127995   3.654   2.135   1.235  0.2900 -0.2326  0.1779
 5453SOL    HW227996   3.755   2.048   1.311  0.9323 -0.5594  0.0521
 5454SOL     OW27997   3.434   2.179   7.513 -0.1732 -0.4200 -0.0687
 5454SOL    HW127998   3.516   2.135   7.535 -0.3595 -1.2637 -1.0371
 5454SOL    HW227999   3.434   2.153   7.421 -1.1000 -1.6248  0.2763
 5455SOL     OW28000   3.129   0.703   4.114 -0.1265 -0.1817 -0.2899
 5455SOL    HW128001   3.106   0.704   4.206  0.5556 -0.6199 -0.1143
 5455SOL    HW228002   3.190   0.776   4.112 -1.1293  0.6588 -0.2954
 5456SOL     OW28003   1.451   2.148   0.269 -0.2047 -0.4487  0.3558
 5456SOL    HW128004   1.495   2.100   0.339 -0.5161 -1.4003 -0.1130
 5456SOL    HW228005   1.497   2.117   0.191 -0.2081  0.5818 -0.0633
 5457SOL     OW28006   0.100   0.705   6.050 -0.5858 -0.3506  0.2616
 5457SOL    HW128007   0.013   0.700   6.089 -0.3812 -0.8689  0.6440
 5457SOL    HW228008   0.154   0.683   6.125 -0.6590 -0.3923  0.3023
 5458SOL     OW28009   0.004   0.176  12.013 -0.1673  0.4861  0.1793
 5458SOL    HW128010   0.063   0.251  12.023 -0.2028  0.4393  0.7118
 5458SOL    HW228011   0.001   0.170  11.917  1.9521 -0.0888  0.1375
 5459SOL     OW28012   1.106   2.597   6.931 -0.1975 -0.2816  0.1140
 5459SOL    HW128013   1.149   2.611   7.015  0.9578  0.3333 -0.5723
 5459SOL    HW228014   1.104   2.502   6.936  2.0535 -0.3467 -0.1195
 5460SOL     OW28015   2.555   3.784   1.558  0.2286  0.2002  0.1256
 5460SOL    HW128016   2.475   3.805   1.607  0.4067  0.7455  0.1827
 5460SOL    HW228017   2.622   3.801   1.623  0.8178  1.6232 -0.8583
 5461SOL     OW28018   1.775   2.892   8.853  0.2615 -0.4050 -0.0431
 5461SOL    HW128019   1.865   2.869   8.830  1.1470  2.3548  0.7763
 5461SOL    HW228020   1.794   2.919   8.943 -0.5945 -2.8345  0.8756
 5462SOL     OW28021   0.171   0.121   5.812  0.1066 -0.3496  0.1476
 5462SOL    HW128022   0.115   0.121   5.889  1.6303 -0.2504  1.2565
 5462SOL    HW228023   0.203   0.212   5.807  0.7040 -0.6516 -1.5610
 5463SOL     OW28024   1.230   0.046   3.088  0.3514  0.4911 -0.6212
 5463SOL    HW128025   1.302   4.720   3.075  0.7463  1.0351 -1.0742
 5463SOL    HW228026   1.254   0.100   3.163 -2.2642  0.6951  0.0471
 5464SOL     OW28027   3.803   2.884   2.075 -0.1563 -0.0402  0.5428
 5464SOL    HW128028   3.882   2.928   2.108  1.0914 -0.4797 -1.8224
 5464SOL    HW228029   3.774   2.941   2.004  2.4376 -2.2570 -2.2745
 5465SOL     OW28030   3.215   1.565   4.007 -0.0460 -0.7491 -0.5386
 5465SOL    HW128031   3.236   1.626   4.078  3.7421 -0.0385 -2.2707
 5465SOL    HW228032   3.121   1.582   3.998 -0.1230 -0.7760  0.2296
 5466SOL     OW28033   4.174   1.791   1.136  0.5166  0.2488  0.3092
 5466SOL    HW128034   4.119   1.850   1.084  0.4427 -0.1758 -0.0970
 5466SOL    HW228035   4.116   1.790   1.212  1.8392 -2.2252  1.2866
 5467SOL     OW28036   0.848   1.391   5.555  0.1863  0.5805  0.1551
 5467SOL    HW128037   0.903   1.361   5.483 -0.7321 -0.8333  0.0464
 5467SOL    HW228038   0.851   1.485   5.533  0.0767  0.5971  0.2121
 5468SOL     OW28039   1.735   0.785   7.774  0.1505  0.5302  0.5483
 5468SOL    HW128040   1.801   0.718   7.753  1.0677  1.3331  0.8535
 5468SOL    HW228041   1.769   0.815   7.859 -0.2540  2.2642  0.0999
 5469SOL     OW28042   0.688   4.713   6.350  0.2283  0.0029 -0.3255
 5469SOL    HW128043   0.619   4.690   6.287  1.7631  1.0162 -2.4048
 5469SOL    HW228044   0.660   0.061   6.385 -1.7215  0.0271 -1.9212
 5470SOL     OW28045   2.777   3.383  11.678 -0.0197 -0.6192  0.1427
 5470SOL    HW128046   2.723   3.313  11.715  2.4881 -3.5641 -1.8050
 5470SOL    HW228047   2.859   3.334  11.681  0.0789 -0.3585  2.0378
 5471SOL     OW28048   3.501   0.608   3.813 -0.5416 -0.2723  0.0184
 5471SOL    HW128049   3.551   0.632   3.735 -1.9421  1.7552 -0.2749
 5471SOL    HW228050   3.501   0.513   3.821  0.5224 -0.2318  0.4708
 5472SOL     OW28051   1.810   2.813   2.069  0.4570  0.4727 -0.6113
 5472SOL    HW128052   1.742   2.874   2.099  0.9216  1.7793 -2.1908
 5472SOL    HW228053   1.838   2.786   2.156 -2.5851  0.6185  0.4202
 5473SOL     OW28054   3.480   4.454   5.558  0.5215 -0.3081 -0.1945
 5473SOL    HW128055   3.532   4.492   5.487  0.0426 -0.8402 -0.8278
 5473SOL    HW228056   3.477   4.522   5.624 -1.8564 -0.8350  0.2416
 5474SOL     OW28057   1.652   1.764   0.682  0.2513 -0.0340  0.2507
 5474SOL    HW128058   1.696   1.788   0.763 -2.9304  1.5702  1.4519
 5474SOL    HW228059   1.695   1.680   0.666 -1.3618 -0.6905 -0.6724
 5475SOL     OW28060   3.674   2.651  14.942 -0.5367  0.3182 -0.3296
 5475SOL    HW128061   3.655   2.717  14.874 -1.1929 -1.2078 -1.6161
 5475SOL    HW228062   3.584   2.629  14.963 -1.0803  0.7389 -2.1845
 5476SOL     OW28063   1.904   2.439   2.354  0.2456 -0.2276 -0.3261
 5476SOL    HW128064   1.935   2.407   2.269 -1.6589 -1.4479 -0.5654
 5476SOL    HW228065   1.818   2.397   2.353 -0.2937  0.8638  0.4894
 5477SOL     OW28066   0.260   1.871   9.498 -0.4046 -0.2891  0.2283
 5477SOL    HW128067   0.265   1.965   9.481 -0.1842 -0.2314  0.6064
 5477SOL    HW228068   0.173   1.868   9.536 -1.2439  2.3154 -1.4420
 5478SOL     OW28069   1.583   2.134   4.363  0.0540  0.3111 -0.2831
 5478SOL    HW128070   1.662   2.100   4.406  0.5985  1.1580 -0.6162
 5478SOL    HW228071   1.567   2.215   4.412 -1.0720 -2.1876  3.4980
 5479SOL     OW28072   3.046   1.428  17.448  0.4535  0.5254  0.2519
 5479SOL    HW128073   3.018   1.482  17.374 -1.7203  1.0700  1.4668
 5479SOL    HW228074   3.105   1.365  17.408  2.0949  1.8827  0.5293
 5480SOL     OW28075   0.585   2.896   3.175  0.3747  0.0414  0.0833
 5480SOL    HW128076   0.539   2.963   3.124  0.0774 -0.9807 -0.9925
 5480SOL    HW228077   0.514   2.860   3.228  1.8209  0.6103  2.3760
 5481SOL     OW28078   1.638   2.285   7.320  0.3739  0.2290  0.2211
 5481SOL    HW128079   1.698   2.357   7.299 -1.1625  1.8346  1.3070
 5481SOL    HW228080   1.695   2.210   7.309 -0.3829 -0.3643  0.2966
 5482SOL     OW28081   0.900   2.304  15.875 -0.4830  0.2769 -0.8848
 5482SOL    HW128082   0.855   2.376  15.830 -2.0745  0.2845  0.7090
 5482SOL    HW228083   0.969   2.355  15.916  1.4340 -1.1611 -2.3365
 5483SOL     OW28084   2.235   0.588   5.986 -0.8589  0.5316  0.3448
 5483SOL    HW128085   2.236   0.585   5.891 -1.3675 -0.3159  0.3665
 5483SOL    HW228086   2.264   0.502   6.018  0.0919  0.5173 -0.5585
 5484SOL     OW28087   1.952   2.559   7.079  0.2512 -0.2650 -0.6374
 5484SOL    HW128088   1.951   2.518   6.993 -1.5352 -3.1661  0.8047
 5484SOL    HW228089   2.044   2.572   7.101 -0.5299 -0.9271  2.8953
 5485SOL     OW28090   1.531   2.198  11.758 -0.1744  0.0861 -0.0781
 5485SOL    HW128091   1.591   2.248  11.703 -1.5819 -2.3821 -3.8025
 5485SOL    HW228092   1.508   2.257  11.830 -2.9638 -0.6433 -0.3766
 5486SOL     OW28093   0.661   4.711  12.527 -0.1366 -0.3102  0.0635
 5486SOL    HW128094   0.625   0.040  12.586 -0.7104 -0.0972 -0.5241
 5486SOL    HW228095   0.610   4.636  12.557  1.2490 -0.9257  0.8828
 5487SOL     OW28096   0.071   2.330   5.037 -0.0064  0.2484  0.0911
 5487SOL    HW128097   4.725   2.288   5.012  0.4649  0.1104 -1.2573
 5487SOL    HW228098   0.047   2.395   5.102 -1.3633 -1.0457  0.8797
 5488SOL     OW28099   0.077   2.960   7.850  0.0425  0.4041  0.1433
 5488SOL    HW128100   0.025   2.909   7.912 -0.2581 -0.0972 -0.5171
 5488SOL    HW228101   0.093   2.883   7.795  1.2810  0.9872 -0.3252
 5489SOL     OW28102   0.562   1.949   8.603 -0.1436  0.2750 -0.4550
 5489SOL    HW128103   0.644   1.915   8.567 -1.2299 -1.2952 -1.4276
 5489SOL    HW228104   0.564   2.044   8.596 -4.7751  0.3525 -0.1755
 5490SOL     OW28105   1.046   0.284   9.710  0.2316  0.5224  0.2674
 5490SOL    HW128106   0.957   0.313   9.728 -0.2691  1.0510 -2.9703
 5490SOL    HW228107   1.065   0.206   9.761 -2.3639 -0.0643  0.3118
 5491SOL     OW28108   0.748   4.093   3.730 -0.7840  0.5345  0.1279
 5491SOL    HW128109   0.673   4.041   3.703 -0.9305 -0.2801  2.1203
 5491SOL    HW228110   0.717   4.182   3.717 -0.5582  1.0630  3.2530
 5492SOL     OW28111   4.717   4.096   1.104 -0.8184 -0.6711 -0.1051
 5492SOL    HW128112   4.673   4.139   1.031 -0.2544  0.2948  0.1327
 5492SOL    HW228113   0.037   4.034   1.058  0.1417  2.0233 -2.4670
 5493SOL     OW28114   3.813   0.881   2.159 -0.1531  0.2088 -0.4678
 5493SOL    HW128115   3.877   0.829   2.111 -1.4327 -2.1355  0.3466
 5493SOL    HW228116   3.734   0.825   2.155 -0.8169  1.1902 -1.1624
 5494SOL     OW28117   2.701   0.681  15.111 -0.3276  0.3696  0.2248
 5494SOL    HW128118   2.629   0.654  15.054 -0.6777  1.4211  0.1573
 5494SOL    HW228119   2.655   0.688  15.195  0.2621 -1.6358  0.7018
 5495SOL     OW28120   3.448   2.693  14.274  0.2745  0.2744 -0.3071
 5495SOL    HW128121   3.474   2.674  14.364 -2.4347 -0.2925  0.3476
 5495SOL    HW228122   3.523   2.734  14.230  1.6842  0.7873  2.5408
 5496SOL     OW28123   1.770   4.298  16.423  0.3593 -0.1111  0.0550
 5496SOL    HW128124   1.830   4.372  16.414 -0.0501  0.2172  0.0752
 5496SOL    HW228125   1.686   4.331  16.391  1.1747 -1.1940 -3.2262
 5497SOL     OW28126   2.570   1.723   5.941 -0.0837  0.8263 -0.0526
 5497SOL    HW128127   2.590   1.636   5.975  0.1770  0.9406  0.0854
 5497SOL    HW228128   2.567   1.704   5.848  2.5074  0.9555 -0.1630
 5498SOL     OW28129   3.108   0.849   5.782  0.4915  0.4931  0.8465
 5498SOL    HW128130   3.089   0.855   5.875 -1.5989 -0.9974  0.5042
 5498SOL    HW228131   3.201   0.873   5.775  0.0951  1.5666 -0.6759
 5499SOL     OW28132   3.313   0.249   7.341  0.2485 -0.4975  0.5460
 5499SOL    HW128133   3.334   0.329   7.292  3.4800 -1.1748  0.7952
 5499SOL    HW228134   3.280   0.202   7.265  1.4887 -0.0282 -0.2885
 5500SOL     OW28135   0.743   1.782  11.078  0.0394 -0.0577  1.0846
 5500SOL    HW128136   0.794   1.821  11.150 -0.1073  1.2759  0.4728
 5500SOL    HW228137   0.812   1.776  11.012  0.8508  2.1261  1.7119
 5501SOL     OW28138   3.158   3.402   5.872 -0.0554  0.1184  0.5744
 5501SOL    HW128139   3.148   3.477   5.930 -2.5881 -0.8189  1.3449
 5501SOL    HW228140   3.208   3.349   5.934 -1.2548 -0.0014  1.4415
 5502SOL     OW28141   3.190   3.549  10.775 -0.4147 -0.4115  0.4087
 5502SOL    HW128142   3.230   3.512  10.695  0.3837  1.9370 -0.2796
 5502SOL    HW228143   3.207   3.474  10.832 -1.3362  0.5565  1.9124
 5503SOL     OW28144   2.703   0.621   7.467  0.5767 -0.4764  0.0901
 5503SOL    HW128145   2.681   0.649   7.556 -0.8940 -1.7143  0.1009
 5503SOL    HW228146   2.799   0.616   7.458  0.7004 -0.8278  1.5481
 5504SOL     OW28147   3.936   2.128   0.139 -0.9255  0.4438 -0.4481
 5504SOL    HW128148   3.894   2.072   0.204  1.0744  0.3078  0.7363
 5504SOL    HW228149   3.982   2.195   0.189 -0.5728  0.6946 -1.1114
 5505SOL     OW28150   2.438   4.485   4.955  0.5521 -0.8878 -0.1555
 5505SOL    HW128151   2.491   4.410   4.928  1.2932 -0.6202  0.5580
 5505SOL    HW228152   2.435   4.470   5.050 -0.9099 -0.0829 -0.0712
 5506SOL     OW28153   4.143   1.229   0.751 -0.7143 -0.1820  0.0305
 5506SOL    HW128154   4.158   1.135   0.736  1.0697 -0.2377  2.1238
 5506SOL    HW228155   4.234   1.259   0.756 -1.0166  0.6234  0.5671
 5507SOL     OW28156   0.662   0.261   4.019  0.1434 -0.7928 -0.3043
 5507SOL    HW128157   0.632   0.247   3.930  1.1982  1.0647 -0.9558
 5507SOL    HW228158   0.729   0.193   4.020 -2.1028 -2.9994  0.3103
 5508SOL     OW28159   3.871   1.643   3.992  0.2009  0.4362 -0.1067
 5508SOL    HW128160   3.943   1.615   3.936 -0.8302 -2.6904  0.1089
 5508SOL    HW228161   3.814   1.570   4.017  0.4741  1.2653  2.9837
 5509SOL     OW28162   1.449   2.347   7.898  0.0701 -0.2257  0.2972
 5509SOL    HW128163   1.453   2.285   7.825  0.5589  1.2402 -0.9311
 5509SOL    HW228164   1.496   2.410   7.843  1.3216 -0.9803  0.4977
 5510SOL     OW28165   0.290   2.094   8.036 -0.3549  0.2769 -0.5779
 5510SOL    HW128166   0.237   2.172   8.047 -0.3649  0.1419  0.3537
 5510SOL    HW228167   0.379   2.129   8.039 -0.5716  0.8397 -0.8120
 5511SOL     OW28168   2.449   2.041   7.840  0.1476 -0.6622  0.0132
 5511SOL    HW128169   2.531   2.026   7.887  0.5681 -1.3637 -0.9442
 5511SOL    HW228170   2.389   2.014   7.910 -1.1043  2.5722  0.1921
 5512SOL     OW28171   1.839   3.199  10.826  0.3693  0.0766  0.5069
 5512SOL    HW128172   1.792   3.118  10.847 -0.8427  0.3355 -1.2364
 5512SOL    HW228173   1.850   3.193  10.732 -2.4179 -1.5893  0.2983
 5513SOL     OW28174   0.168   0.787   3.754 -0.6525  0.5020 -0.1848
 5513SOL    HW128175   0.203   0.763   3.669 -3.1852  1.2300 -1.4383
 5513SOL    HW228176   0.246   0.804   3.807  0.2249 -1.9492 -0.6909
 5514SOL     OW28177   4.702   1.268   6.175  0.1677 -0.0651  0.4541
 5514SOL    HW128178   4.721   1.361   6.165 -1.8639  0.4105  0.9976
 5514SOL    HW228179   4.607   1.273   6.174  0.1836  0.1306 -0.2659
 5515SOL     OW28180   2.456   4.509  15.161  0.0760 -0.2106  0.5325
 5515SOL    HW128181   2.451   4.496  15.255 -0.1535 -0.5034  0.4791
 5515SOL    HW228182   2.454   4.605  15.164 -0.6874 -0.2692  1.7111
 5516SOL     OW28183   2.361   4.643   6.427 -0.6346 -0.0943 -0.5729
 5516SOL    HW128184   2.283   4.612   6.474 -1.0968  4.2232  1.4972
 5516SOL    HW228185   2.361   0.001   6.442  0.2783  0.0970 -1.7647
 5517SOL     OW28186   3.461   1.074   5.064 -0.2396  0.2972  0.0997
 5517SOL    HW128187   3.455   0.979   5.071 -1.7310  0.3838 -0.1515
 5517SOL    HW228188   3.379   1.102   5.104 -0.0847 -0.5896  1.0126
 5518SOL     OW28189   0.841   2.512   8.065 -0.0684  0.3668  0.5053
 5518SOL    HW128190   0.929   2.474   8.061 -0.0817  0.3120  0.7304
 5518SOL    HW228191   0.820   2.538   7.976 -1.1198 -0.4866  0.5012
 5519SOL     OW28192   1.386   3.273   3.894  0.2811  0.4750 -0.4719
 5519SOL    HW128193   1.333   3.320   3.829 -0.7583  0.9993  0.7576
 5519SOL    HW228194   1.472   3.292   3.858  0.7448  0.1570  0.4987
 5520SOL     OW28195   3.246   3.569   9.430  0.0270 -0.1341  0.3159
 5520SOL    HW128196   3.339   3.592   9.421 -0.1315 -0.9897 -3.5637
 5520SOL    HW228197   3.201   3.653   9.422  0.2210 -0.3165 -2.5492
 5521SOL     OW28198   1.694   1.805   2.995  0.1396 -0.2893 -0.0504
 5521SOL    HW128199   1.782   1.839   3.013 -0.1543  0.1427  0.5924
 5521SOL    HW228200   1.687   1.819   2.901 -0.8179 -0.3739  0.0113
 5522SOL     OW28201   1.596   0.436   9.051 -0.4034  0.7733 -0.3367
 5522SOL    HW128202   1.647   0.362   9.086 -2.3142 -0.6884 -0.6330
 5522SOL    HW228203   1.650   0.511   9.077 -0.7082  1.8152 -2.7931
 5523SOL     OW28204   4.319   2.193  14.951  0.6324  0.1882 -0.1059
 5523SOL    HW128205   4.371   2.273  14.955  1.2595 -0.0790 -2.7001
 5523SOL    HW228206   4.317   2.165  15.043  0.0210 -2.0377 -0.7969
 5524SOL     OW28207   3.448   2.453   6.928  0.0208  0.7544 -0.5087
 5524SOL    HW128208   3.525   2.405   6.897  0.2336  0.6825  0.1257
 5524SOL    HW228209   3.460   2.531   6.874 -0.3898  2.3455  1.6913
 5525SOL     OW28210   1.131   3.649   4.933 -0.1423  0.3199  0.2276
 5525SOL    HW128211   1.120   3.744   4.927  2.2853  0.7343  1.8569
 5525SOL    HW228212   1.178   3.657   5.017 -1.3807  0.9154  0.8567
 5526SOL     OW28213   3.606   3.059   3.158 -0.1947  0.0232  0.0689
 5526SOL    HW128214   3.663   3.050   3.234 -0.4521 -1.0375  0.1372
 5526SOL    HW228215   3.631   3.143   3.119  0.3100 -1.1431 -2.0667
 5527SOL     OW28216   1.604   0.359   3.459 -0.3186 -0.0727  0.3335
 5527SOL    HW128217   1.608   0.292   3.526 -0.4815  0.9273  1.3512
 5527SOL    HW228218   1.649   0.310   3.391  1.8423  0.8142  1.1102
 5528SOL     OW28219   4.614   2.123   8.294  0.2998 -0.6721 -0.3767
 5528SOL    HW128220   4.611   2.041   8.343  0.1466  0.7438  1.9693
 5528SOL    HW228221   4.578   2.188   8.354 -0.1043 -1.4296  0.1966
 5529SOL     OW28222   2.800   1.813   9.559 -0.3666 -0.1995 -0.4014
 5529SOL    HW128223   2.731   1.827   9.624  1.0179 -1.2991  1.3135
 5529SOL    HW228224   2.876   1.841   9.610  0.8414 -0.4656 -2.0494
 5530SOL     OW28225   3.956   2.241   6.830 -0.0239  0.1981 -0.7006
 5530SOL    HW128226   3.989   2.151   6.826 -1.9347 -0.5609  0.1432
 5530SOL    HW228227   3.997   2.274   6.910  0.4434 -2.2927  0.0887
 5531SOL     OW28228   2.024   0.216   3.868 -0.3003 -0.0286 -0.1801
 5531SOL    HW128229   1.940   0.222   3.913  0.1305 -1.6882  0.8745
 5531SOL    HW228230   2.059   0.305   3.875 -0.9280  0.1933  0.1237
 5532SOL     OW28231   4.623   3.208   3.997 -0.4051  0.0237 -0.1832
 5532SOL    HW128232   4.531   3.207   3.969  0.2488  1.2603 -2.3787
 5532SOL    HW228233   4.675   3.137   3.961 -1.0943 -0.7874  0.4164
 5533SOL     OW28234   0.891   3.647   5.542 -0.1358 -0.1317 -0.2869
 5533SOL    HW128235   0.885   3.589   5.466 -0.9716  0.3453 -0.5867
 5533SOL    HW228236   0.872   3.730   5.499 -1.5124 -0.3554 -0.1071
 5534SOL     OW28237   1.762   4.687   6.190  0.0916  0.2763 -0.6683
 5534SOL    HW128238   1.767   4.657   6.099 -0.4491  0.9689 -0.9262
 5534SOL    HW228239   1.721   4.605   6.219  0.8090  0.0319 -0.3712
 5535SOL     OW28240   0.429   1.364   8.545 -0.0646  0.4228  0.5273
 5535SOL    HW128241   0.368   1.345   8.474  0.1516  0.1991  0.4009
 5535SOL    HW228242   0.366   1.379   8.615 -1.3518  2.0064 -0.9924
 5536SOL     OW28243   0.870   4.568  14.242  0.5439  0.0046  0.2159
 5536SOL    HW128244   0.841   4.570  14.333 -1.9362  0.3687 -0.5714
 5536SOL    HW228245   0.896   4.658  14.222  0.1620  0.3846  1.4035
 5537SOL     OW28246   1.010   2.335  10.950  0.3607  0.2545 -0.3015
 5537SOL    HW128247   0.941   2.401  10.960  1.2693  0.7125  2.7431
 5537SOL    HW228248   1.062   2.350  11.029 -0.6186 -1.8279  0.7369
 5538SOL     OW28249   1.778   3.577   3.537 -0.4155  0.4133  0.4893
 5538SOL    HW128250   1.860   3.530   3.553 -0.1458  0.3117 -1.1865
 5538SOL    HW228251   1.752   3.542   3.452  0.7623 -0.0374  0.3163
 5539SOL     OW28252   2.494   2.951   8.460 -0.1660  0.0393 -0.1522
 5539SOL    HW128253   2.447   2.869   8.476  1.5207 -1.6077 -3.6082
 5539SOL    HW228254   2.548   2.931   8.384 -0.1598 -0.1432 -0.1011
 5540SOL     OW28255   4.524   3.833  14.346  0.5319  0.3006 -0.6764
 5540SOL    HW128256   4.494   3.923  14.356 -1.6023 -0.7357  2.1528
 5540SOL    HW228257   4.502   3.814  14.255  0.7283 -0.6205 -0.5384
 5541SOL     OW28258   0.790   3.191   3.663 -0.4782 -0.0290 -0.1644
 5541SOL    HW128259   0.845   3.136   3.719 -2.6518 -0.5714  1.4331
 5541SOL    HW228260   0.831   3.174   3.578  1.4945  0.6271  0.6480
 5542SOL     OW28261   0.680   4.264  13.983 -0.4872 -0.2323 -0.3338
 5542SOL    HW128262   0.718   4.200  13.923 -3.0527  0.6567 -2.9000
 5542SOL    HW228263   0.613   4.308  13.930 -0.0472  0.5367 -0.2497
 5543SOL     OW28264   0.081   1.955   5.866 -0.4263  0.1680  0.5615
 5543SOL    HW128265   0.174   1.959   5.887 -0.1569  0.6557 -0.7730
 5543SOL    HW228266   0.048   1.956   5.956  0.7703 -0.2216  1.0021
 5544SOL     OW28267   2.070   1.311   6.300  0.4887 -0.8931  0.3975
 5544SOL    HW128268   2.013   1.386   6.285  0.9682 -0.6762 -0.3781
 5544SOL    HW228269   2.008   1.239   6.291 -1.3121  0.4050  2.3740
 5545SOL     OW28270   2.409   1.227   5.439 -0.1016 -0.1928 -0.1715
 5545SOL    HW128271   2.333   1.269   5.480  0.6453 -0.6320  1.6760
 5545SOL    HW228272   2.375   1.138   5.440  1.1888 -0.6788  0.7017
 5546SOL     OW28273   3.003   1.204   4.995  0.1945 -0.0164  0.0432
 5546SOL    HW128274   2.967   1.168   5.076 -0.7970  0.5536 -0.1467
 5546SOL    HW228275   2.995   1.298   5.009 -0.4172 -0.1187  0.3750
 5547SOL     OW28276   0.319   0.734   3.485 -0.3280  0.2544  0.0339
 5547SOL    HW128277   0.270   0.733   3.403  0.3551 -0.1090 -0.3738
 5547SOL    HW228278   0.367   0.815   3.469 -0.1157  0.4502  1.6723
 5548SOL     OW28279   2.987   2.113   4.129 -0.2524  0.9609  0.6063
 5548SOL    HW128280   3.031   2.061   4.196 -0.7460 -2.2283 -1.5320
 5548SOL    HW228281   2.945   2.177   4.185 -1.2837  0.9439 -0.1472
 5549SOL     OW28282   3.165   1.617  17.632  0.0500 -0.1961  0.2891
 5549SOL    HW128283   3.115   1.549  17.586 -0.9308  0.2861  0.6401
 5549SOL    HW228284   3.098   1.628  17.699 -1.4566  1.3557 -1.4636
 5550SOL     OW28285   3.584   3.305   1.783 -0.1740  0.0027 -0.4878
 5550SOL    HW128286   3.527   3.324   1.858  0.3775  0.2175 -0.1171
 5550SOL    HW228287   3.567   3.212   1.773  1.7055 -0.3297 -0.7430
 5551SOL     OW28288   0.293   0.891   9.584 -0.0991  0.1692 -0.3900
 5551SOL    HW128289   0.254   0.976   9.561 -1.3010 -0.2459  0.1016
 5551SOL    HW228290   0.349   0.916   9.658 -2.2337 -0.7356  1.5314
 5552SOL     OW28291   4.445   3.343   2.292 -0.3170  0.0923 -0.2471
 5552SOL    HW128292   4.475   3.252   2.281  0.6029  0.3294  0.3062
 5552SOL    HW228293   4.476   3.363   2.380  0.5796 -3.5827  0.2708
 5553SOL     OW28294   2.290   0.484  13.961  0.8678 -0.0006  0.1592
 5553SOL    HW128295   2.375   0.482  14.006  0.3664  2.4298  1.2053
 5553SOL    HW228296   2.302   0.414  13.897  0.2976 -0.5670  0.6828
 5554SOL     OW28297   3.321   3.787   4.918 -0.2333  0.6051  0.6895
 5554SOL    HW128298   3.304   3.850   4.988  1.2126 -0.4548  1.9895
 5554SOL    HW228299   3.231   3.794   4.885 -0.0387  1.1166  0.2711
 5555SOL     OW28300   1.665   2.011  13.146 -0.0167 -0.0763 -0.5026
 5555SOL    HW128301   1.737   2.020  13.083 -0.1089  0.6761 -0.5008
 5555SOL    HW228302   1.594   1.976  13.091 -1.9554  1.2734  1.1270
 5556SOL     OW28303   0.470   0.851   8.223  0.1493 -0.2837  0.6552
 5556SOL    HW128304   0.559   0.845   8.190  0.2657  0.3672  0.8470
 5556SOL    HW228305   0.439   0.938   8.199  0.4681  0.3287  2.4366
 5557SOL     OW28306   3.471   1.925   3.302  0.4431  0.2017  0.2260
 5557SOL    HW128307   3.422   1.888   3.375  0.9493  0.1480  0.5385
 5557SOL    HW228308   3.559   1.888   3.314 -0.2201 -1.7214 -0.7434
 5558SOL     OW28309   3.635   1.801   8.116  0.3922 -0.7044  0.2413
 5558SOL    HW128310   3.668   1.767   8.200 -0.2987 -2.4162 -0.1877
 5558SOL    HW228311   3.681   1.747   8.052  1.8161 -0.7736  1.3061
 5559SOL     OW28312   3.531   3.612  16.757 -0.0122 -0.6498 -0.5594
 5559SOL    HW128313   3.490   3.529  16.734 -0.2926 -0.4232 -0.8733
 5559SOL    HW228314   3.497   3.666  16.686  1.7881  1.3258  0.0792
 5560SOL     OW28315   1.047   0.467  13.315  0.6001 -0.0934  0.1305
 5560SOL    HW128316   1.012   0.555  13.300  0.1025 -0.4145 -0.5832
 5560SOL    HW228317   1.059   0.451  13.222 -3.4104  1.0744 -0.6209
 5561SOL     OW28318   1.579   1.288  11.245 -0.2052 -0.6965 -0.2528
 5561SOL    HW128319   1.494   1.316  11.279  0.6381  1.0687  0.4398
 5561SOL    HW228320   1.575   1.193  11.249  0.5409 -0.7719 -1.4515
 5562SOL     OW28321   0.087   3.100   2.391 -0.2593 -0.1872  0.1561
 5562SOL    HW128322   0.110   3.177   2.443 -0.8156  2.0573 -2.9211
 5562SOL    HW228323   0.174   3.063   2.375 -0.4881 -0.7776  0.2795
 5563SOL     OW28324   3.612   3.251   4.616  0.1265 -0.2119 -0.1562
 5563SOL    HW128325   3.701   3.240   4.651  0.0184  1.6528  0.7167
 5563SOL    HW228326   3.566   3.288   4.691 -0.3869 -1.2075  0.0206
 5564SOL     OW28327   1.191   1.901   4.164 -0.2655 -0.0354 -0.2040
 5564SOL    HW128328   1.265   1.961   4.176 -0.3920 -0.0733  0.7784
 5564SOL    HW228329   1.162   1.883   4.254  0.3561 -0.1625 -0.0247
 5565SOL     OW28330   0.234   0.217   6.935  0.6503 -0.7247 -0.0074
 5565SOL    HW128331   0.144   0.191   6.953  0.7460  0.0244  1.5491
 5565SOL    HW228332   0.265   0.145   6.881 -0.3803  0.0038 -1.5559
 5566SOL     OW28333   1.664   1.952   7.692  0.0212  0.1790 -0.3343
 5566SOL    HW128334   1.658   1.911   7.778 -0.5533 -0.4435 -0.6748
 5566SOL    HW228335   1.748   1.998   7.686  0.8987 -1.1041  2.3984
 5567SOL     OW28336   4.346   3.098   1.179  0.0125 -0.5013 -0.3715
 5567SOL    HW128337   4.263   3.131   1.212  0.6022  0.3678  0.2225
 5567SOL    HW228338   4.413   3.114   1.246 -0.9731 -0.4501  0.6065
 5568SOL     OW28339   0.268   1.488   2.405 -0.1378  0.0177  0.2791
 5568SOL    HW128340   0.209   1.436   2.458  0.2948 -1.1822 -0.4307
 5568SOL    HW228341   0.209   1.559   2.377  1.1039  0.4155 -1.3410
 5569SOL     OW28342   1.559   1.489   4.354 -0.6221 -0.1115  0.2777
 5569SOL    HW128343   1.536   1.399   4.375 -2.8244  0.6838  1.2640
 5569SOL    HW228344   1.500   1.510   4.281  0.5973 -1.2860 -1.0538
 5570SOL     OW28345   4.543   0.675   8.171  0.1785 -0.2374  0.0016
 5570SOL    HW128346   4.629   0.636   8.182  1.9480  3.2537 -1.5877
 5570SOL    HW228347   4.551   0.718   8.085  0.9145 -0.3908 -0.0016
 5571SOL     OW28348   1.740   1.262   3.019  0.0452  0.1564  0.3142
 5571SOL    HW128349   1.830   1.246   2.989  0.1404 -2.2290  1.9264
 5571SOL    HW228350   1.740   1.358   3.018  0.1655  0.1708  1.2978
 5572SOL     OW28351   1.982   1.304   2.904 -0.2133 -0.9555 -0.0202
 5572SOL    HW128352   2.043   1.372   2.933  0.4801 -0.4580 -2.6498
 5572SOL    HW228353   1.959   1.329   2.815  1.7959 -0.8118 -0.5102
 5573SOL     OW28354   3.959   4.034   7.652 -0.0151  0.2396 -0.6189
 5573SOL    HW128355   3.951   3.976   7.576 -1.0182  1.3731 -1.3876
 5573SOL    HW228356   3.952   3.973   7.725 -2.3277  1.5152  0.2447
 5574SOL     OW28357   2.967   1.175   2.981 -0.0510 -0.2736  0.1682
 5574SOL    HW128358   2.962   1.113   3.053 -3.1027  0.4692  0.5792
 5574SOL    HW228359   2.898   1.138   2.926 -1.8485  0.3772  1.9763
 5575SOL     OW28360   2.557   0.842   2.188 -0.7434  0.0329  0.1334
 5575SOL    HW128361   2.621   0.911   2.176  1.4499 -2.1357 -0.6529
 5575SOL    HW228362   2.576   0.794   2.107 -0.6591 -1.7731  1.2071
 5576SOL     OW28363   0.120   2.720  15.432  0.3241  0.3629  0.5498
 5576SOL    HW128364   0.055   2.783  15.400 -0.6320 -0.4802  0.8165
 5576SOL    HW228365   0.162   2.699  15.349  1.7543  2.1641  0.8275
 5577SOL     OW28366   4.107   2.250  16.900  0.4025  0.2768  0.2514
 5577SOL    HW128367   4.082   2.342  16.901 -2.2969 -0.4318 -0.5093
 5577SOL    HW228368   4.175   2.245  16.834 -1.4760 -2.1171 -1.5284
 5578SOL     OW28369   0.291   4.196   0.961 -0.7526 -0.5253 -0.6677
 5578SOL    HW128370   0.227   4.126   0.970 -2.1011  0.8370  0.3132
 5578SOL    HW228371   0.230   4.270   0.965 -0.6564 -0.3439 -2.7433
 5579SOL     OW28372   3.633   3.032   7.972  0.0490  0.6273  0.3425
 5579SOL    HW128373   3.593   3.027   7.885 -1.7423  1.4427  1.1236
 5579SOL    HW228374   3.632   3.128   7.971 -0.6273  0.6187 -0.3816
 5580SOL     OW28375   1.469   2.083  10.584 -0.3233  0.0708 -0.6218
 5580SOL    HW128376   1.489   2.135  10.506  1.0089 -1.6658 -1.4388
 5580SOL    HW228377   1.500   2.140  10.655 -1.6672 -0.5093  0.4512
 5581SOL     OW28378   2.486   1.437  10.949 -0.1098  0.5860  0.0288
 5581SOL    HW128379   2.502   1.420  10.856  3.5566 -1.2060  0.9945
 5581SOL    HW228380   2.399   1.475  10.938 -0.6642 -0.2137  1.6558
 5582SOL     OW28381   0.850   4.495   1.331  0.0149  0.4111 -0.5450
 5582SOL    HW128382   0.845   4.483   1.236  0.0568  1.7033 -0.7146
 5582SOL    HW228383   0.852   4.408   1.371 -0.1187  0.5461 -0.2506
 5583SOL     OW28384   2.009   3.473  15.280 -0.0147 -0.0077 -0.2245
 5583SOL    HW128385   1.963   3.550  15.314  0.3039  0.2657 -0.4086
 5583SOL    HW228386   1.982   3.473  15.188  3.6417  0.7207 -1.2934
 5584SOL     OW28387   1.968   3.643   7.112 -1.1210 -0.0021 -1.0168
 5584SOL    HW128388   1.931   3.726   7.083 -1.3667  0.5698  0.9336
 5584SOL    HW228389   2.002   3.656   7.201 -1.8596  1.9469 -1.0343
 5585SOL     OW28390   0.193   1.949   5.576  0.2468  0.2791  0.0644
 5585SOL    HW128391   0.129   1.914   5.638 -2.3681 -1.1471 -3.4361
 5585SOL    HW228392   0.135   1.974   5.504  1.8663  1.8843 -0.6729
 5586SOL     OW28393   4.188   2.109   1.111  0.5511 -0.2153  0.2032
 5586SOL    HW128394   4.210   2.189   1.160 -0.7268  0.9339 -1.1167
 5586SOL    HW228395   4.269   2.103   1.060  1.4987 -1.2745  1.8028
 5587SOL     OW28396   1.490   2.538   5.986 -0.2006 -0.1862  0.7029
 5587SOL    HW128397   1.460   2.515   6.074 -2.1150 -1.5146 -0.2950
 5587SOL    HW228398   1.576   2.495   5.991  1.1414  2.5399  0.8289
 5588SOL     OW28399   0.746   2.240   1.886  0.4221 -0.2447 -0.2088
 5588SOL    HW128400   0.761   2.232   1.980  0.2087  0.1537 -0.1385
 5588SOL    HW228401   0.799   2.168   1.854 -0.5704 -0.7339 -0.7532
 5589SOL     OW28402   0.428   1.946  10.731 -0.2738  0.1003  0.2740
 5589SOL    HW128403   0.431   1.894  10.811 -0.2948  0.8818  0.7824
 5589SOL    HW228404   0.411   2.034  10.764  0.5955  0.6576 -0.7359
 5590SOL     OW28405   1.874   1.424   2.034  0.3848 -0.3596 -0.0697
 5590SOL    HW128406   1.877   1.432   1.938 -2.3758 -1.5812 -0.2438
 5590SOL    HW228407   1.950   1.368   2.047 -0.6041 -1.8692 -0.7900
 5591SOL     OW28408   2.168   1.746   9.620  0.3128  0.3671 -0.2330
 5591SOL    HW128409   2.101   1.749   9.551 -2.6897  0.1760  2.6912
 5591SOL    HW228410   2.240   1.691   9.587 -0.1740 -0.9571  0.9032
 5592SOL     OW28411   4.292   3.605   2.518  0.2036 -0.1172  0.0031
 5592SOL    HW128412   4.318   3.638   2.432 -0.4943  0.3842 -0.0121
 5592SOL    HW228413   4.273   3.686   2.566  2.7157 -0.7813  2.1542
 5593SOL     OW28414   1.392   1.837  11.552 -0.3975 -0.0971  0.2688
 5593SOL    HW128415   1.401   1.763  11.491 -0.6075 -0.6036  0.8577
 5593SOL    HW228416   1.298   1.857  11.545 -0.2513 -0.1408 -2.0128
 5594SOL     OW28417   1.620   2.000  15.200 -0.3547  0.1823 -0.3329
 5594SOL    HW128418   1.630   1.934  15.132 -1.5643 -1.7333  1.3491
 5594SOL    HW228419   1.701   2.050  15.191  0.4817 -1.1050 -0.0009
 5595SOL     OW28420   1.852   2.148  15.174 -0.0391  0.3099 -0.0043
 5595SOL    HW128421   1.910   2.082  15.211  0.6683  0.8126 -0.2088
 5595SOL    HW228422   1.897   2.231  15.192  2.3644 -0.5468 -2.0913
 5596SOL     OW28423   4.083   4.074  15.316  0.0797 -0.5242 -0.0021
 5596SOL    HW128424   4.081   4.000  15.256  0.5513 -0.0351 -0.6228
 5596SOL    HW228425   4.131   4.144  15.272 -1.2705  0.2822 -0.1834
 5597SOL     OW28426   2.603   0.875  15.496 -0.0014  0.4002 -0.1992
 5597SOL    HW128427   2.543   0.848  15.427 -0.6702  2.0914 -0.2742
 5597SOL    HW228428   2.588   0.805  15.559 -3.4874 -0.0825 -1.5694
 5598SOL     OW28429   3.794   1.824   5.005 -0.0161  0.0153 -0.0976
 5598SOL    HW128430   3.867   1.821   4.944  0.9548 -0.1313  1.0914
 5598SOL    HW228431   3.723   1.850   4.945  0.5097  2.2008  0.2557
 5599SOL     OW28432   3.501   2.261  16.659  0.3337  0.0769  0.3756
 5599SOL    HW128433   3.552   2.254  16.740  0.2347  0.3492  0.4615
 5599SOL    HW228434   3.505   2.355  16.646  1.1843 -0.3941 -2.6518
 5600SOL     OW28435   0.475   4.545   6.489  0.3788 -0.5815 -0.2648
 5600SOL    HW128436   0.437   4.458   6.478  1.0355 -0.6510 -1.9525
 5600SOL    HW228437   0.453   4.590   6.408  0.9374 -0.7054 -0.4835
 5601SOL     OW28438   2.841   0.215  15.618 -0.0950 -0.3751 -0.4027
 5601SOL    HW128439   2.796   0.254  15.543 -1.8968  0.5594  1.1397
 5601SOL    HW228440   2.912   0.166  15.579  0.1054 -1.3804  1.2287
 5602SOL     OW28441   0.204   2.884  12.133 -0.1429  0.0327 -0.0727
 5602SOL    HW128442   0.163   2.950  12.189  1.7978  0.8199  0.4235
 5602SOL    HW228443   0.287   2.856  12.173 -0.2182  0.9809  0.7276
 5603SOL     OW28444   2.561   3.163   5.091  0.0959  0.5723 -0.5326
 5603SOL    HW128445   2.490   3.132   5.036  1.3136 -1.4559 -0.9363
 5603SOL    HW228446   2.637   3.177   5.035  0.2124 -0.2601 -0.5807
 5604SOL     OW28447   2.466   1.814   3.936  0.5911 -0.1671 -0.1372
 5604SOL    HW128448   2.451   1.907   3.919 -0.0717  0.0412  1.5076
 5604SOL    HW228449   2.388   1.801   3.990  0.2312 -0.6002 -0.7664
 5605SOL     OW28450   2.591   2.281   9.262  0.3268  0.2929 -0.0978
 5605SOL    HW128451   2.562   2.267   9.352  2.5594  0.3476  0.6242
 5605SOL    HW228452   2.521   2.232   9.218  0.2212 -0.7855  1.2589
 5606SOL     OW28453   4.101   3.673   1.191  0.3871 -0.6284  0.3846
 5606SOL    HW128454   4.129   3.760   1.163  0.9584 -0.9473 -0.0314
 5606SOL    HW228455   4.091   3.631   1.106 -0.9554  0.3504  0.0514
 5607SOL     OW28456   0.519   2.996   2.789  0.3162 -0.3102  0.4390
 5607SOL    HW128457   0.464   3.018   2.714  0.5810 -1.0140  0.0450
 5607SOL    HW228458   0.499   3.083   2.824 -1.1587  0.3527 -2.0338
 5608SOL     OW28459   2.051   4.269   6.710  0.0910  0.3523 -0.1627
 5608SOL    HW128460   1.959   4.295   6.710  0.2815  1.0413  0.2984
 5608SOL    HW228461   2.062   4.210   6.785 -4.1732  0.0321  0.2152
 5609SOL     OW28462   1.270   2.451  17.457 -0.2854  0.8820 -0.5848
 5609SOL    HW128463   1.325   2.438  17.535  0.2029 -4.6796 -1.8467
 5609SOL    HW228464   1.193   2.491  17.496 -1.3394 -0.3252 -1.4343
 5610SOL     OW28465   0.413   2.224   4.748  0.5220  0.0222 -0.3972
 5610SOL    HW128466   0.319   2.241   4.751  0.7303  1.2657 -0.7402
 5610SOL    HW228467   0.421   2.147   4.692  1.5471  0.0803 -0.3325
 5611SOL     OW28468   4.725   4.006  14.647  0.3932  0.1627 -0.3205
 5611SOL    HW128469   4.690   4.094  14.657  0.6260  0.1663  0.4579
 5611SOL    HW228470   0.041   4.012  14.567  0.8959 -2.3310 -0.1939
 5612SOL     OW28471   1.196   0.304   5.260 -0.4012 -0.0223 -0.2305
 5612SOL    HW128472   1.194   0.273   5.170 -1.6190 -0.0308 -0.1889
 5612SOL    HW228473   1.233   0.392   5.251  0.0263 -0.1781 -0.0278
 5613SOL     OW28474   3.929   0.264   8.731  0.4778  0.5642 -0.1662
 5613SOL    HW128475   3.953   0.173   8.713  0.0409  0.6093 -0.9778
 5613SOL    HW228476   4.003   0.314   8.697  0.4737 -0.8923 -2.3251
 5614SOL     OW28477   0.485   3.093   6.439  0.3213 -0.0050 -0.0805
 5614SOL    HW128478   0.541   3.148   6.384  0.8660 -0.2780  0.2034
 5614SOL    HW228479   0.557   3.047   6.481 -0.9988 -0.5943  1.5527
 5615SOL     OW28480   2.080   0.084   8.801 -0.1181  0.1183 -0.6552
 5615SOL    HW128481   2.104   0.174   8.779  1.9111 -0.0626  0.7878
 5615SOL    HW228482   2.097   0.087   8.895  1.3330 -1.4710 -0.8674
 5616SOL     OW28483   2.758   4.476  13.449 -0.9597  0.1890  0.0901
 5616SOL    HW128484   2.808   4.463  13.529  0.1252  1.9625 -0.3150
 5616SOL    HW228485   2.817   4.436  13.385 -0.8826  1.4666 -0.6249
 5617SOL     OW28486   4.329   3.247   3.983  0.0152  0.0463  0.3127
 5617SOL    HW128487   4.293   3.218   4.067 -0.7764 -3.6104 -1.3378
 5617SOL    HW228488   4.289   3.184   3.923  1.1643 -0.1972 -0.1893
 5618SOL     OW28489   3.246   4.312   7.160  0.1598  0.6455 -0.8203
 5618SOL    HW128490   3.211   4.398   7.182 -0.8486 -0.3767  1.5697
 5618SOL    HW228491   3.197   4.302   7.078 -1.1526 -2.2220  0.2837
 5619SOL     OW28492   0.271   2.140   4.282  0.5041  0.7966  0.2707
 5619SOL    HW128493   0.367   2.134   4.291  0.6175  1.6757 -0.3590
 5619SOL    HW228494   0.259   2.210   4.346  0.2809  1.8899 -0.9889
 5620SOL     OW28495   2.688   0.501   7.208 -0.2108  0.0929  0.3679
 5620SOL    HW128496   2.673   0.547   7.291  0.5889 -1.8204  1.5852
 5620SOL    HW228497   2.646   0.418   7.231 -2.2254  0.6880 -1.1302
 5621SOL     OW28498   3.405   2.209   5.294  0.7866  0.0399  0.1928
 5621SOL    HW128499   3.351   2.288   5.299  0.2395 -0.1660 -2.2045
 5621SOL    HW228500   3.353   2.164   5.227 -0.0360  2.8587 -1.0420
 5622SOL     OW28501   4.017   2.671   9.368 -0.2466  0.1507 -0.4246
 5622SOL    HW128502   4.109   2.647   9.358  0.0985  1.7586 -1.1629
 5622SOL    HW228503   4.010   2.718   9.452 -0.9374 -2.9723  1.2844
 5623SOL     OW28504   4.453   2.274   7.232  0.1374  0.0420 -0.0590
 5623SOL    HW128505   4.369   2.284   7.187  1.1544  0.5483 -1.8446
 5623SOL    HW228506   4.500   2.265   7.150 -1.1916  0.2799 -0.8508
 5624SOL     OW28507   4.248   1.779  13.836 -0.5426 -0.4943  0.0203
 5624SOL    HW128508   4.265   1.685  13.838 -0.3349 -0.4940 -1.5042
 5624SOL    HW228509   4.334   1.817  13.854 -1.1455  0.1131  1.6056
 5625SOL     OW28510   4.316   3.568   0.417 -0.0032 -0.2112 -0.0511
 5625SOL    HW128511   4.408   3.543   0.410 -0.7554 -2.7796 -0.9573
 5625SOL    HW228512   4.269   3.502   0.366  2.5809 -1.4036 -0.9108
 5626SOL     OW28513   0.713   2.999  14.707 -0.2968 -0.2531  0.2662
 5626SOL    HW128514   0.784   3.049  14.749 -1.3847 -0.8228  2.8088
 5626SOL    HW228515   0.745   2.986  14.618  0.2497 -0.4065  0.4876
 5627SOL     OW28516   4.049   0.967   6.716 -0.3932 -0.3161 -0.0772
 5627SOL    HW128517   3.965   0.922   6.714 -0.2291 -0.6492  0.4363
 5627SOL    HW228518   4.105   0.890   6.720  0.9236  0.5928 -0.9723
 5628SOL     OW28519   3.423   1.873   6.517 -0.0957 -0.3577  0.5145
 5628SOL    HW128520   3.349   1.820   6.489  0.7226 -0.3667 -1.6432
 5628SOL    HW228521   3.385   1.907   6.598 -1.4723  1.6438 -0.9817
 5629SOL     OW28522   2.333   1.902  10.623  0.1772  0.1656 -0.1876
 5629SOL    HW128523   2.374   1.859  10.548 -0.9219  1.0879 -1.3155
 5629SOL    HW228524   2.355   1.831  10.682  0.2708 -0.7601 -1.3430
 5630SOL     OW28525   3.336   1.402   8.093  0.8880  0.1075 -0.4666
 5630SOL    HW128526   3.286   1.421   8.013 -0.2994 -0.6983  0.0946
 5630SOL    HW228527   3.312   1.309   8.101  1.8297 -0.0453  0.4598
 5631SOL     OW28528   4.253   2.459   7.629  0.1901  0.4432  0.0033
 5631SOL    HW128529   4.224   2.459   7.720 -0.1559  2.2956 -0.1151
 5631SOL    HW228530   4.228   2.547   7.601 -0.2380  0.7646  1.4040
 5632SOL     OW28531   2.857   0.265   4.918  0.2057 -0.0187 -0.3285
 5632SOL    HW128532   2.864   0.306   4.832  0.7630  1.3341  0.3691
 5632SOL    HW228533   2.762   0.268   4.911  0.2342  2.0917  0.2817
 5633SOL     OW28534   4.228   1.221  15.515 -0.1569 -0.0626  0.0450
 5633SOL    HW128535   4.280   1.183  15.444  0.8249 -1.9472  1.7686
 5633SOL    HW228536   4.169   1.148  15.531 -2.4111  1.9687  0.9783
 5634SOL     OW28537   3.213   1.929   5.231 -0.2611 -0.4771  0.0415
 5634SOL    HW128538   3.119   1.936   5.251  0.0631 -2.9332  2.4269
 5634SOL    HW228539   3.222   2.018   5.196 -1.3078  1.2599  4.0701
 5635SOL     OW28540   3.596   3.174  13.928  0.2325 -0.0355 -0.0780
 5635SOL    HW128541   3.511   3.161  13.886  0.9555  2.2987 -2.2167
 5635SOL    HW228542   3.603   3.268  13.940  2.4112 -0.1588 -0.2719
 5636SOL     OW28543   4.265   2.586   4.082 -0.3405 -0.1948  0.0322
 5636SOL    HW128544   4.183   2.624   4.114 -0.3268 -0.5590  0.5009
 5636SOL    HW228545   4.319   2.664   4.088 -1.5800  0.6888 -0.2064
 5637SOL     OW28546   1.845   2.703   2.308  0.1888 -0.5878 -0.2166
 5637SOL    HW128547   1.887   2.626   2.346  0.1367  0.0543  1.1542
 5637SOL    HW228548   1.754   2.692   2.337 -0.2371  0.1353 -1.3209
 5638SOL     OW28549   3.079   1.840   9.657 -0.1688 -0.1704  0.2992
 5638SOL    HW128550   3.167   1.864   9.627  0.0632  0.4095  1.4254
 5638SOL    HW228551   3.074   1.749   9.628  1.2261 -0.5454  1.1966
 5639SOL     OW28552   4.272   2.357   5.248 -0.2409  0.2821  0.6306
 5639SOL    HW128553   4.244   2.400   5.329 -0.4706  2.1128 -0.4358
 5639SOL    HW228554   4.328   2.425   5.211 -2.7769  1.2198 -1.5387
 5640SOL     OW28555   4.714   0.218  15.690 -0.4919 -0.1295  0.5903
 5640SOL    HW128556   4.723   0.225  15.785  0.5525  2.2004  0.3113
 5640SOL    HW228557   0.030   0.140  15.673  3.2885  2.8229 -1.1401
 5641SOL     OW28558   4.371   1.504   8.005  0.4614 -0.3395 -0.2307
 5641SOL    HW128559   4.300   1.470   7.950 -0.1033  1.8627 -0.8561
 5641SOL    HW228560   4.326   1.568   8.060  1.1677 -0.2356  0.2098
 5642SOL     OW28561   1.614   0.274   5.819  0.1724 -0.1728  0.4186
 5642SOL    HW128562   1.583   0.193   5.778  1.9477 -1.9926  2.7085
 5642SOL    HW228563   1.586   0.341   5.756  3.2122  0.7669  0.0833
 5643SOL     OW28564   4.107   1.380   4.493 -0.0269  0.0281  0.0261
 5643SOL    HW128565   4.058   1.376   4.411  0.2303  1.2410 -0.1814
 5643SOL    HW228566   4.196   1.364   4.460 -0.1272  1.0617 -0.7292
 5644SOL     OW28567   2.853   2.856   3.216  0.5965  0.1070  0.0292
 5644SOL    HW128568   2.914   2.814   3.154  0.0178 -1.7818  0.7525
 5644SOL    HW228569   2.903   2.862   3.298  0.6294 -0.4801  0.0468
 5645SOL     OW28570   2.769   3.576   5.123  0.3110 -0.1119 -0.0848
 5645SOL    HW128571   2.761   3.577   5.028  2.4584  0.8145 -0.2639
 5645SOL    HW228572   2.696   3.523   5.156 -2.3798  3.0482 -1.0121
 5646SOL     OW28573   2.269   1.328   3.944 -0.0750  0.1581 -0.1115
 5646SOL    HW128574   2.265   1.278   4.025 -0.0607 -0.8192 -0.7116
 5646SOL    HW228575   2.354   1.372   3.947 -0.1078  0.2314 -0.2579
 5647SOL     OW28576   0.637   2.281  16.205 -0.0784  0.4685  0.4457
 5647SOL    HW128577   0.622   2.263  16.112 -0.6679 -1.6653  0.9574
 5647SOL    HW228578   0.686   2.362  16.191 -2.1775  1.3951 -1.6275
 5648SOL     OW28579   0.550   2.115  12.516  0.0458 -0.7124 -0.3895
 5648SOL    HW128580   0.611   2.076  12.453 -0.7733  0.2537 -1.7927
 5648SOL    HW228581   0.468   2.076  12.485 -0.6145 -0.5276  1.1218
 5649SOL     OW28582   2.143   1.087  15.075 -0.3779  0.0398  0.4215
 5649SOL    HW128583   2.119   1.176  15.099 -1.5564 -0.1945  0.1128
 5649SOL    HW228584   2.072   1.072  15.013  0.9092 -1.9853 -0.5620
 5650SOL     OW28585   4.160   3.539   6.438  0.0503 -0.3268 -0.1790
 5650SOL    HW128586   4.207   3.611   6.396  2.5543 -0.1120  2.9699
 5650SOL    HW228587   4.233   3.493   6.479  1.8848  2.5666 -0.1829
 5651SOL     OW28588   1.651   3.282   1.657 -0.3094  0.2777  0.0099
 5651SOL    HW128589   1.718   3.298   1.590  1.8884  0.5571  2.2639
 5651SOL    HW228590   1.697   3.288   1.741 -1.8359 -0.9643  0.9235
 5652SOL     OW28591   2.586   1.699   8.386 -0.2258 -0.2792  0.0555
 5652SOL    HW128592   2.661   1.641   8.376 -0.9000 -1.2966  0.8931
 5652SOL    HW228593   2.612   1.728   8.473 -1.4401  0.5059  0.1573
 5653SOL     OW28594   2.095   2.595   4.845  0.3256 -0.5188 -0.2473
 5653SOL    HW128595   2.033   2.653   4.799 -1.6307 -0.3599  2.5946
 5653SOL    HW228596   2.054   2.558   4.923  2.2152 -0.1593  0.9128
 5654SOL     OW28597   0.049   1.252   8.019 -0.2552  0.1068  0.7132
 5654SOL    HW128598   4.718   1.186   8.039 -1.9458  1.5533 -0.2621
 5654SOL    HW228599   0.126   1.195   8.025  0.0351  0.4648  0.3886
 5655SOL     OW28600   4.062   0.353   7.916 -0.0607  0.2631  0.1056
 5655SOL    HW128601   4.080   0.274   7.966 -0.8957 -0.2567 -0.4235
 5655SOL    HW228602   4.064   0.330   7.823  2.3889  2.1940 -0.3485
 5656SOL     OW28603   3.905   2.029  17.018 -0.3816  0.3773  0.0069
 5656SOL    HW128604   3.962   2.050  17.092  1.1353 -1.1413 -0.7192
 5656SOL    HW228605   3.819   2.038  17.058 -0.6139  2.1035 -0.8934
 5657SOL     OW28606   2.345   3.074   4.923  0.0921  0.6599 -0.2748
 5657SOL    HW128607   2.337   3.055   4.830 -0.9371 -3.5984  0.7119
 5657SOL    HW228608   2.285   3.011   4.962 -2.0045  2.1553 -1.1348
 5658SOL     OW28609   3.231   1.373  10.153  0.0843 -0.0485  0.6579
 5658SOL    HW128610   3.317   1.412  10.137  1.1926 -2.9646 -0.3645
 5658SOL    HW228611   3.187   1.420  10.082 -0.6055 -1.5785  0.0844
 5659SOL     OW28612   1.391   3.856   6.289 -0.4464  0.1899  0.3813
 5659SOL    HW128613   1.424   3.929   6.341  0.1354  0.6141 -0.5959
 5659SOL    HW228614   1.462   3.793   6.302 -0.1024  0.0484 -2.1615
 5660SOL     OW28615   1.319   4.391   2.196 -0.1079 -0.1757  0.0543
 5660SOL    HW128616   1.250   4.367   2.258  0.4859 -1.2261  0.3070
 5660SOL    HW228617   1.404   4.362   2.230 -0.5394 -0.0604  1.2276
 5661SOL     OW28618   1.741   3.346   5.141 -0.7276  0.0122 -0.4548
 5661SOL    HW128619   1.645   3.342   5.145 -0.7790  2.1030  0.3592
 5661SOL    HW228620   1.765   3.254   5.128  0.8126 -0.0810  2.8346
 5662SOL     OW28621   1.268   3.010  12.430  0.1380 -0.1678 -0.0634
 5662SOL    HW128622   1.261   2.966  12.346  0.6308  1.9810 -1.2264
 5662SOL    HW228623   1.357   2.987  12.456 -0.0694 -0.0879  0.7304
 5663SOL     OW28624   1.715   2.837   2.683  0.0010  0.1148  0.1566
 5663SOL    HW128625   1.779   2.766   2.681 -0.9416 -0.7063 -0.7770
 5663SOL    HW228626   1.686   2.827   2.774 -2.6290  1.3850 -0.5450
 5664SOL     OW28627   0.802   1.226   9.026  0.5480 -0.4250 -0.2029
 5664SOL    HW128628   0.774   1.271   9.106  0.4196  0.2072 -0.6087
 5664SOL    HW228629   0.827   1.140   9.061  0.3331  0.3022  1.7430
 5665SOL     OW28630   4.141   4.030  14.856 -0.6675  0.3650 -0.3060
 5665SOL    HW128631   4.162   3.953  14.803 -0.6545 -0.8751  1.4827
 5665SOL    HW228632   4.153   4.103  14.795  0.9815 -0.6952 -1.2528
 5666SOL     OW28633   2.612   2.324   6.028  0.3132 -0.0108 -0.1287
 5666SOL    HW128634   2.618   2.419   6.032 -0.1827 -0.1237  2.9106
 5666SOL    HW228635   2.701   2.289   6.027 -0.1973 -1.3711  1.8625
 5667SOL     OW28636   1.217   3.286   5.265 -0.0034  0.3917  0.8786
 5667SOL    HW128637   1.224   3.281   5.360 -3.0890 -1.7535  1.0023
 5667SOL    HW228638   1.146   3.350   5.252  0.4282  0.4247 -1.3032
 5668SOL     OW28639   0.637   1.960  15.667  0.4347 -0.0646 -0.1352
 5668SOL    HW128640   0.622   2.025  15.598  1.0890 -0.3734 -0.5675
 5668SOL    HW228641   0.619   1.881  15.616 -2.1152 -0.2364  0.9921
 5669SOL     OW28642   3.901   0.424   9.212 -0.1854  0.4673  0.3603
 5669SOL    HW128643   3.826   0.389   9.164  0.3216 -0.2528  0.0844
 5669SOL    HW228644   3.966   0.410   9.142 -2.3100 -0.5386 -1.3992
 5670SOL     OW28645   1.261   1.058   2.997 -0.0263 -0.0455  0.3846
 5670SOL    HW128646   1.343   1.039   3.044  0.5806 -0.9146 -1.0149
 5670SOL    HW228647   1.203   0.995   3.040  1.1995 -0.0268  2.0917
 5671SOL     OW28648   4.684   4.617   9.417 -1.4920  0.1134  0.1063
 5671SOL    HW128649   0.014   4.607   9.485 -2.3386  2.1506  1.2425
 5671SOL    HW228650   4.646   4.697   9.454  0.0795  0.5319  0.8162
 5672SOL     OW28651   4.268   1.673   5.526  0.4108 -0.0093 -0.0583
 5672SOL    HW128652   4.323   1.612   5.575 -0.5356 -2.2486 -1.8220
 5672SOL    HW228653   4.193   1.679   5.586  0.5538 -0.7275  0.1861
 5673SOL     OW28654   2.166   0.165  12.594 -0.3819  0.4425  0.8621
 5673SOL    HW128655   2.156   0.260  12.603  2.1070  0.8612 -0.6521
 5673SOL    HW228656   2.077   0.142  12.568 -0.6338  0.6510  1.5552
 5674SOL     OW28657   2.456   4.436   8.390  0.2257  0.3882 -0.2306
 5674SOL    HW128658   2.495   4.523   8.398 -1.3903  1.1003 -0.0853
 5674SOL    HW228659   2.496   4.410   8.307  0.2233 -0.7178  0.1144
 5675SOL     OW28660   0.379   4.001   1.413  0.5457  0.1502 -0.4734
 5675SOL    HW128661   0.383   3.982   1.319  2.3836 -1.2404 -0.1117
 5675SOL    HW228662   0.317   4.073   1.416  1.9409  1.3419 -0.1516
 5676SOL     OW28663   4.483   3.446   7.702 -0.0011 -0.1860  0.0214
 5676SOL    HW128664   4.558   3.436   7.761  1.4076 -1.0950 -1.9236
 5676SOL    HW228665   4.447   3.358   7.712  0.2583 -0.0873  1.9012
 5677SOL     OW28666   0.521   1.242   3.170  0.1368  0.1984  0.0545
 5677SOL    HW128667   0.553   1.248   3.080 -0.6491 -1.1288 -0.3077
 5677SOL    HW228668   0.447   1.303   3.173 -0.4994 -0.5591 -0.3410
 5678SOL     OW28669   1.551   2.937   6.213 -0.4960 -0.3235  0.5969
 5678SOL    HW128670   1.548   2.846   6.243 -1.6392 -0.9095 -1.2897
 5678SOL    HW228671   1.509   2.975   6.290 -0.2661 -0.5110  0.8159
 5679SOL     OW28672   4.315   0.459   6.965  0.0647  0.3603  0.3103
 5679SOL    HW128673   4.233   0.456   6.916  0.1970  0.1020  0.0977
 5679SOL    HW228674   4.378   0.413   6.908 -0.8876 -1.3311  0.6135
 5680SOL     OW28675   2.831   0.980   5.803  0.3232  0.0306  0.2449
 5680SOL    HW128676   2.757   0.993   5.863 -0.0074 -2.1660  0.2875
 5680SOL    HW228677   2.789   0.977   5.717 -0.0755  2.3575  0.3418
 5681SOL     OW28678   0.758   0.170  10.007 -0.2122 -0.0229 -0.0363
 5681SOL    HW128679   0.714   0.234   9.951 -1.9099 -0.4630  0.7903
 5681SOL    HW228680   0.719   0.084   9.990  1.2178 -0.1954 -2.4187
 5682SOL     OW28681   1.575   3.239   9.796 -0.4402 -0.1096 -0.2658
 5682SOL    HW128682   1.562   3.148   9.771 -1.6181 -0.3608  1.2687
 5682SOL    HW228683   1.518   3.278   9.729 -2.5848 -0.7572  1.1993
 5683SOL     OW28684   0.477   3.986   6.740 -0.5128 -0.3681  0.3229
 5683SOL    HW128685   0.439   3.995   6.653 -1.6273 -1.1555  0.7282
 5683SOL    HW228686   0.401   3.989   6.798 -0.9163 -1.2129 -0.1509
 5684SOL     OW28687   3.413   3.742  16.533  0.2895  0.3756  0.0439
 5684SOL    HW128688   3.354   3.816  16.521 -3.8299 -2.4168  3.0185
 5684SOL    HW228689   3.474   3.756  16.461  0.3959 -3.0609 -0.5440
 5685SOL     OW28690   2.422   0.428   9.915  0.1816 -0.0475 -0.4857
 5685SOL    HW128691   2.442   0.410  10.007 -0.0118 -4.1733 -1.2322
 5685SOL    HW228692   2.474   0.507   9.903  0.8116 -0.2092  1.1348
 5686SOL     OW28693   2.003   1.989   2.547 -0.3829 -0.2971  0.2986
 5686SOL    HW128694   1.953   2.018   2.624 -0.7625  1.4445 -0.5885
 5686SOL    HW228695   2.092   2.011   2.573 -0.5556 -0.5778  1.1379
 5687SOL     OW28696   1.830   1.501  12.557 -0.3412 -0.1391 -0.1704
 5687SOL    HW128697   1.770   1.545  12.617  0.1559 -0.9798  0.9331
 5687SOL    HW228698   1.829   1.571  12.491 -1.0817 -0.4907 -0.5325
 5688SOL     OW28699   0.923   1.149  16.438 -0.6899 -0.4692 -0.0773
 5688SOL    HW128700   0.844   1.168  16.388  0.6106  1.7643 -1.2930
 5688SOL    HW228701   0.938   1.061  16.403  2.2532 -0.2066  0.5334
 5689SOL     OW28702   1.674   4.066  11.823 -0.4427 -0.3848  0.2166
 5689SOL    HW128703   1.633   4.000  11.767 -0.2507 -0.5832  0.3069
 5689SOL    HW228704   1.599   4.110  11.864  0.8767  1.9590  0.0820
 5690SOL     OW28705   3.487   4.076  10.051  0.8339 -0.0831 -0.2304
 5690SOL    HW128706   3.459   4.137  10.120  0.5831  1.5178 -1.7368
 5690SOL    HW228707   3.485   4.132   9.973  1.0326  0.9933  0.5347
 5691SOL     OW28708   0.699   0.922   8.651  0.1482 -0.4815 -0.8591
 5691SOL    HW128709   0.629   0.953   8.593 -1.7757  2.0361  2.7895
 5691SOL    HW228710   0.652   0.918   8.735  0.1698 -0.4777 -0.8468
 5692SOL     OW28711   4.263   3.998  14.325  0.1955  0.7139  0.2203
 5692SOL    HW128712   4.189   3.999  14.386 -0.6417 -1.1150 -0.7522
 5692SOL    HW228713   4.286   3.905  14.331 -1.0590  0.4022  0.1635
 5693SOL     OW28714   4.308   0.919   8.457 -0.8396  0.2818  0.4256
 5693SOL    HW128715   4.355   0.836   8.459 -1.4443 -0.0693  0.0938
 5693SOL    HW228716   4.339   0.942   8.545 -1.3058 -1.1289  0.9698
 5694SOL     OW28717   3.919   0.526   3.572  0.0872  0.4444  0.1295
 5694SOL    HW128718   3.845   0.507   3.630  1.4587 -0.8683  1.4615
 5694SOL    HW228719   3.932   0.443   3.526 -3.5068  0.4040 -0.8186
 5695SOL     OW28720   2.907   4.054   2.926  0.1827 -0.2604 -0.3582
 5695SOL    HW128721   2.879   3.978   2.874  0.8897 -1.5275  1.1357
 5695SOL    HW228722   2.967   4.098   2.866 -0.6070 -1.5613 -2.1034
 5696SOL     OW28723   0.711   1.971   5.046  0.1337 -0.3867  0.2291
 5696SOL    HW128724   0.632   1.964   5.100 -0.3329  1.0347 -0.2716
 5696SOL    HW228725   0.690   1.924   4.965 -2.7607  0.3448  0.5535
 5697SOL     OW28726   0.932   2.230   7.877 -1.1728  0.0259  0.0571
 5697SOL    HW128727   0.861   2.166   7.883 -1.4501  0.5192  2.1744
 5697SOL    HW228728   0.922   2.275   7.794  1.1968  1.2612  0.4387
 5698SOL     OW28729   2.460   0.616   3.233  0.1626 -0.5948 -0.3985
 5698SOL    HW128730   2.403   0.686   3.265  0.2337 -1.6218  1.9764
 5698SOL    HW228731   2.405   0.540   3.215 -0.1260 -0.7184  0.9825
 5699SOL     OW28732   3.698   3.312   0.365 -0.3146 -0.0447 -0.4881
 5699SOL    HW128733   3.724   3.235   0.415 -1.6647  1.0351  1.8450
 5699SOL    HW228734   3.662   3.365   0.435  0.1788  0.5238 -0.6683
 5700SOL     OW28735   0.798   2.821   4.232 -0.4868 -0.2115 -0.1021
 5700SOL    HW128736   0.818   2.914   4.247 -1.3807 -0.3335  1.8586
 5700SOL    HW228737   0.783   2.784   4.319  1.8882 -0.2840  0.2848
 5701SOL     OW28738   2.514   1.744   6.328 -0.4999 -0.1566  0.0834
 5701SOL    HW128739   2.559   1.821   6.293 -1.3375  0.6570  0.7815
 5701SOL    HW228740   2.575   1.731   6.401  1.5423 -0.7200 -1.7247
 5702SOL     OW28741   3.315   3.333   0.506 -0.0030 -0.3595  0.4570
 5702SOL    HW128742   3.366   3.408   0.535  0.3349 -0.8317  1.0869
 5702SOL    HW228743   3.247   3.367   0.448  0.2808 -2.1352 -0.8916
 5703SOL     OW28744   4.019   2.829   9.592  0.2397 -0.4044 -0.2137
 5703SOL    HW128745   4.110   2.850   9.570  0.2687  0.2396  0.5251
 5703SOL    HW228746   3.990   2.902   9.647  1.0777  1.3634 -2.0878
 5704SOL     OW28747   4.056   3.748   4.588  0.0114  0.3888  0.2373
 5704SOL    HW128748   4.142   3.706   4.598  0.0600  1.4722  4.1671
 5704SOL    HW228749   4.058   3.781   4.498  2.9589  2.7658  1.1744
 5705SOL     OW28750   2.895   4.659  16.468  0.4900 -0.0499 -0.0301
 5705SOL    HW128751   2.885   0.016  16.453  0.3996  0.1426  1.1757
 5705SOL    HW228752   2.973   4.640  16.418  0.8244  1.2565 -0.0025
 5706SOL     OW28753   2.289   0.531  15.276 -0.1011 -0.0254 -0.5523
 5706SOL    HW128754   2.321   0.621  15.266  2.0743 -0.8608 -1.1121
 5706SOL    HW228755   2.216   0.535  15.214 -1.3293 -0.3338  0.8665
 5707SOL     OW28756   2.081   1.597   8.318  0.0399  0.3260 -0.2284
 5707SOL    HW128757   2.094   1.597   8.413 -0.2155 -2.0282 -0.1745
 5707SOL    HW228758   2.173   1.583   8.294 -0.1418 -0.5644 -0.4276
 5708SOL     OW28759   3.259   0.450   4.137  0.0419  0.1070 -0.0832
 5708SOL    HW128760   3.198   0.420   4.069  2.3411 -0.9738 -1.6397
 5708SOL    HW228761   3.203   0.521   4.168 -0.5255  0.8040 -2.7310
 5709SOL     OW28762   3.022   1.488   9.011  0.5687 -0.1063  0.2178
 5709SOL    HW128763   2.976   1.421   8.961  1.6393  0.0798 -1.0122
 5709SOL    HW228764   2.977   1.487   9.095 -0.0173  0.6219 -0.0825
 5710SOL     OW28765   0.399   4.594   4.449 -0.2769  1.0193  0.1909
 5710SOL    HW128766   0.321   4.547   4.418  1.7251 -1.6742 -0.7198
 5710SOL    HW228767   0.428   4.618   4.361  0.0146  0.8229  0.2327
 5711SOL     OW28768   4.087   2.354   6.149 -0.2348 -0.6587 -0.3008
 5711SOL    HW128769   4.037   2.309   6.218 -0.1618 -2.4164 -1.3757
 5711SOL    HW228770   4.019   2.391   6.093 -1.3168 -0.6663  0.9954
 5712SOL     OW28771   0.275   0.525   9.232  0.1663 -0.1333  0.6516
 5712SOL    HW128772   0.356   0.484   9.262  0.7791  0.3133 -0.4026
 5712SOL    HW228773   0.268   0.587   9.305  1.6942  0.2997  0.4285
 5713SOL     OW28774   0.915   0.257   8.273 -0.3996  0.5615  0.1004
 5713SOL    HW128775   0.934   0.164   8.273  2.0596  1.0530 -3.0781
 5713SOL    HW228776   0.956   0.271   8.358 -0.1258 -2.5118  0.4624
 5714SOL     OW28777   2.585   4.483   6.505 -0.4672 -0.7485 -1.2881
 5714SOL    HW128778   2.519   4.547   6.479 -3.9081 -2.2001  3.9366
 5714SOL    HW228779   2.614   4.451   6.420  1.0195 -1.5005 -0.4929
 5715SOL     OW28780   4.071   3.801   6.529 -0.1630 -0.2081 -0.3538
 5715SOL    HW128781   4.147   3.831   6.579 -0.3464  1.0502 -0.8202
 5715SOL    HW228782   4.047   3.720   6.573 -1.6240 -0.2124 -1.1706
 5716SOL     OW28783   4.470   2.569   5.921 -0.1175 -0.3904 -0.3721
 5716SOL    HW128784   4.552   2.533   5.886 -0.6793 -1.4385 -0.5857
 5716SOL    HW228785   4.450   2.508   5.992  0.7253 -0.5973 -0.3041
 5717SOL     OW28786   0.552   3.118   1.075 -0.4696 -0.5319  0.4009
 5717SOL    HW128787   0.623   3.056   1.056 -0.5743 -0.9976  1.4707
 5717SOL    HW228788   0.609   3.171   1.132 -2.1623  0.1730  1.4269
 5718SOL     OW28789   2.120   2.574   7.464  0.0080 -0.6203 -0.1004
 5718SOL    HW128790   2.099   2.486   7.433  0.1490  0.3070 -2.8284
 5718SOL    HW228791   2.120   2.571   7.559 -2.0532 -0.3598 -0.1025
 5719SOL     OW28792   3.783   2.605   2.506  0.3281  0.5329 -0.0273
 5719SOL    HW128793   3.744   2.575   2.424 -1.7240  0.2764  1.0458
 5719SOL    HW228794   3.875   2.620   2.482  0.5442  3.1615  2.4098
 5720SOL     OW28795   3.799   3.318  15.665 -0.0907 -0.1699 -0.0092
 5720SOL    HW128796   3.863   3.367  15.614 -1.3457  0.2317 -1.2074
 5720SOL    HW228797   3.737   3.288  15.598 -1.5503  2.3035  0.2506
 5721SOL     OW28798   2.068   0.481   6.201  1.1089  0.2257 -0.0704
 5721SOL    HW128799   2.078   0.550   6.267 -1.0141  2.1272 -1.7363
 5721SOL    HW228800   2.160   0.464   6.182  0.3954 -1.2269 -2.0813
 5722SOL     OW28801   1.998   1.283  12.609 -0.4891  0.1198 -0.2042
 5722SOL    HW128802   1.951   1.363  12.587 -2.1892 -1.1391 -1.0718
 5722SOL    HW228803   2.084   1.303  12.571 -0.1623 -0.9345 -0.0131
 5723SOL     OW28804   3.561   0.710  13.751  0.4509 -0.1370  0.0787
 5723SOL    HW128805   3.519   0.692  13.835  1.3883 -2.9595 -0.0359
 5723SOL    HW228806   3.645   0.664  13.758 -0.2531 -1.4548 -0.0921
 5724SOL     OW28807   2.832   0.361   4.642 -0.6987  0.5267 -0.4510
 5724SOL    HW128808   2.865   0.356   4.552 -0.5344  1.4902 -0.4381
 5724SOL    HW228809   2.738   0.362   4.624 -0.8601  2.7486  0.6088
 5725SOL     OW28810   4.275   1.965  11.841  0.0684  0.4210 -0.0887
 5725SOL    HW128811   4.216   1.988  11.770 -3.1893 -0.1454  2.4551
 5725SOL    HW228812   4.312   1.886  11.802 -0.1840  0.0636  0.3959
 5726SOL     OW28813   3.266   2.926  10.960  0.1095  0.3759  0.1437
 5726SOL    HW128814   3.321   2.848  10.970  0.0477  0.1668 -1.1490
 5726SOL    HW228815   3.217   2.930  11.042 -0.9359 -1.0477 -0.4102
 5727SOL     OW28816   0.276   1.371   9.672  0.6510 -0.0154  0.2813
 5727SOL    HW128817   0.240   1.356   9.759 -0.2502  6.0934  0.9951
 5727SOL    HW228818   0.264   1.466   9.671  1.2556  0.0806  1.5654
 5728SOL     OW28819   4.540   3.438   2.539  0.2144  0.6250 -0.2137
 5728SOL    HW128820   4.592   3.425   2.619 -0.2557 -1.2780 -0.2316
 5728SOL    HW228821   4.464   3.489   2.569  1.0043  0.1078  2.7050
 5729SOL     OW28822   0.146   4.160   8.009  0.4210 -0.1013 -0.0756
 5729SOL    HW128823   0.062   4.170   8.053  1.0447  0.5624  0.9793
 5729SOL    HW228824   0.152   4.245   7.966 -1.5711 -1.1863 -2.4370
 5730SOL     OW28825   4.565   4.133   9.239  0.6930 -0.0620  0.1507
 5730SOL    HW128826   4.601   4.197   9.300  0.1891 -0.7836  1.2203
 5730SOL    HW228827   4.484   4.104   9.281  1.9989 -1.1306  1.9768
 5731SOL     OW28828   4.472   4.162   8.980  0.0816 -0.1964  0.4157
 5731SOL    HW128829   4.446   4.073   8.957 -0.1278 -0.2415  0.8078
 5731SOL    HW228830   4.503   4.154   9.071  1.8780 -3.3994 -0.4962
 5732SOL     OW28831   1.907   1.962  13.732  0.2656  0.5329  0.3151
 5732SOL    HW128832   1.918   2.021  13.658 -1.0715 -0.0373 -0.3408
 5732SOL    HW228833   1.983   1.976  13.789 -0.2205 -2.2330  1.6554
 5733SOL     OW28834   3.159   4.448   5.551 -0.5902  0.1182 -0.1842
 5733SOL    HW128835   3.184   4.472   5.462  0.0975 -0.0071 -0.0265
 5733SOL    HW228836   3.083   4.390   5.552  0.8592 -1.7375  3.0687
 5734SOL     OW28837   0.228   3.815   5.476  0.0425  0.0311 -0.1653
 5734SOL    HW128838   0.233   3.738   5.418  1.6574 -1.4594  1.9427
 5734SOL    HW228839   0.319   3.845   5.477  0.4335 -1.1712  0.8557
 5735SOL     OW28840   0.609   0.567   3.369  0.1429  0.2457 -0.0899
 5735SOL    HW128841   0.617   0.638   3.433  0.6147 -0.6869  0.8873
 5735SOL    HW228842   0.695   0.526   3.365 -0.0793 -0.0446 -1.8870
 5736SOL     OW28843   2.619   0.758   3.737 -0.3276 -0.0999  0.7300
 5736SOL    HW128844   2.613   0.840   3.687 -1.9618 -1.2795 -0.9906
 5736SOL    HW228845   2.550   0.718   3.685 -0.4913  1.1318 -0.0088
 5737SOL     OW28846   0.861   2.605   1.202 -0.1712 -0.4192  0.1245
 5737SOL    HW128847   0.940   2.632   1.155 -0.3198  1.3297  0.8854
 5737SOL    HW228848   0.893   2.522   1.237  1.5702  0.2379  0.0719
 5738SOL     OW28849   0.712   3.867   1.777  0.2096 -0.0364 -0.3011
 5738SOL    HW128850   0.726   3.962   1.769  1.0484  0.0873  2.8746
 5738SOL    HW228851   0.787   3.824   1.738  0.2621 -0.9027  0.7540
 5739SOL     OW28852   2.515   1.060   9.746  0.1270  0.1663 -0.6007
 5739SOL    HW128853   2.424   1.050   9.773 -0.1285  0.7561 -1.2444
 5739SOL    HW228854   2.572   1.060   9.823 -0.3696 -1.1792 -0.2309
 5740SOL     OW28855   2.499   4.372  13.515  0.4296  0.0737 -0.6934
 5740SOL    HW128856   2.481   4.440  13.580  3.3891 -0.2802  0.5201
 5740SOL    HW228857   2.586   4.392  13.480  0.4627 -0.3752 -0.8748
 5741SOL     OW28858   0.152   1.228   5.951  0.5480  0.3255  0.0019
 5741SOL    HW128859   0.072   1.256   5.995  1.5106  0.3532  1.7220
 5741SOL    HW228860   0.207   1.301   5.979 -0.3151  0.6796  0.7595
 5742SOL     OW28861   0.151   3.480   3.156 -0.1375 -0.6611 -0.1297
 5742SOL    HW128862   0.224   3.445   3.105 -0.7736 -0.9650 -0.8354
 5742SOL    HW228863   0.160   3.575   3.159 -1.4858 -0.5628  0.8390
 5743SOL     OW28864   2.300   4.533   2.370  0.3365 -0.6879  0.3182
 5743SOL    HW128865   2.292   4.498   2.459  2.8123  2.1192  1.6575
 5743SOL    HW228866   2.320   4.626   2.387  0.2876 -0.5583 -0.3337
 5744SOL     OW28867   2.815   4.635   6.187  0.2947 -0.1038 -0.2325
 5744SOL    HW128868   2.741   4.585   6.152  0.2367 -2.3506  3.0990
 5744SOL    HW228869   2.828   4.707   6.126  2.0219 -0.3312 -0.1486
 5745SOL     OW28870   1.272   3.041  11.009  0.4555 -0.5153  0.1366
 5745SOL    HW128871   1.214   3.101  10.961  2.4897  1.2908 -0.0221
 5745SOL    HW228872   1.229   3.041  11.095  0.7011  0.6835  0.2556
 5746SOL     OW28873   3.623   0.351   2.704 -0.0757 -0.0667  0.1407
 5746SOL    HW128874   3.678   0.284   2.744 -0.1337  0.3572  0.9324
 5746SOL    HW228875   3.534   0.315   2.708 -0.9885  2.1934  0.7196
 5747SOL     OW28876   4.292   2.644  11.377  0.1451 -0.6400  0.5943
 5747SOL    HW128877   4.231   2.699  11.427  0.6593 -1.0030  1.6291
 5747SOL    HW228878   4.344   2.603  11.446 -2.3769 -0.7376  2.4330
 5748SOL     OW28879   3.114   3.501  12.586 -0.1795 -0.2460 -0.3897
 5748SOL    HW128880   3.026   3.519  12.621 -0.0467 -0.2463 -0.0532
 5748SOL    HW228881   3.097   3.468  12.498 -0.2506 -0.1729 -0.4040
 5749SOL     OW28882   2.285   1.123   9.397  0.1578 -0.1316  0.3116
 5749SOL    HW128883   2.328   1.208   9.410  1.6849 -0.8045 -0.2947
 5749SOL    HW228884   2.287   1.119   9.301 -2.5925  1.0279  0.2008
 5750SOL     OW28885   3.100   2.102  14.459 -0.4900  0.0919  0.1822
 5750SOL    HW128886   3.186   2.093  14.419 -0.6493  0.6876 -0.3005
 5750SOL    HW228887   3.115   2.057  14.542 -0.6570 -0.4832 -0.1000
 5751SOL     OW28888   0.244   1.959   2.751  0.1052  0.4068 -0.0249
 5751SOL    HW128889   0.330   1.915   2.752 -0.0456  0.0878 -0.9862
 5751SOL    HW228890   0.204   1.906   2.820  4.6517 -1.1672  1.4192
 5752SOL     OW28891   0.959   0.916   0.300 -0.0282  0.6590 -1.0947
 5752SOL    HW128892   0.954   0.871   0.385  0.9462  0.9567 -0.8789
 5752SOL    HW228893   0.881   0.872   0.265  0.0090 -0.4635  0.2161
 5753SOL     OW28894   3.894   2.162  16.787 -0.0274 -0.3771 -0.0684
 5753SOL    HW128895   3.965   2.193  16.843 -0.1682  0.8255 -0.5413
 5753SOL    HW228896   3.888   2.076  16.827 -0.8491 -0.1514  0.2907
 5754SOL     OW28897   1.145   0.153   3.827  0.0267 -0.6966 -0.0105
 5754SOL    HW128898   1.051   0.140   3.824 -0.1666  0.3236  1.8250
 5754SOL    HW228899   1.158   0.228   3.768 -0.0086 -1.1997 -0.6657
 5755SOL     OW28900   1.654   3.531  10.450  0.7808 -0.1621  0.0022
 5755SOL    HW128901   1.737   3.566  10.485  0.5721 -0.2969  0.6395
 5755SOL    HW228902   1.591   3.566  10.513 -0.6224 -2.9913  0.1864
 5756SOL     OW28903   0.811   2.393   6.742 -0.8233 -0.4327  0.7768
 5756SOL    HW128904   0.833   2.343   6.821 -1.1551 -2.4286 -0.4129
 5756SOL    HW228905   0.737   2.453   6.757 -0.2148  0.8693 -1.5556
 5757SOL     OW28906   1.674   1.729  15.317 -0.6848 -0.1190  0.0117
 5757SOL    HW128907   1.719   1.694  15.240 -1.0404  0.9286 -0.6732
 5757SOL    HW228908   1.665   1.649  15.367 -0.3975 -0.4518 -0.4599
 5758SOL     OW28909   2.647   2.769   3.999 -0.3348  0.5496  0.6712
 5758SOL    HW128910   2.703   2.697   4.028 -1.2104 -0.2022  0.5122
 5758SOL    HW228911   2.671   2.818   4.078  2.1391  1.3696 -0.5747
 5759SOL     OW28912   4.429   4.703  15.001  0.2754 -0.3598  0.0978
 5759SOL    HW128913   4.372   0.029  14.957 -1.0789 -0.8235  1.1735
 5759SOL    HW228914   4.496   0.025  14.966  0.3190 -0.4147  0.0890
 5760SOL     OW28915   0.739   3.124   8.064 -0.2395 -0.5824  0.1451
 5760SOL    HW128916   0.696   3.133   7.979 -0.4396 -0.0506  0.2966
 5760SOL    HW228917   0.777   3.211   8.080 -1.2132 -0.0559 -0.4140
 5761SOL     OW28918   1.441   4.534   7.112 -0.3675  0.1207  0.5262
 5761SOL    HW128919   1.378   4.465   7.089  0.1955  0.4724 -1.9921
 5761SOL    HW228920   1.524   4.488   7.123  0.3681  1.2140 -0.4978
 5762SOL     OW28921   0.062   1.812   6.785 -0.2306 -0.2714  0.3438
 5762SOL    HW128922   4.727   1.748   6.775 -0.7846  0.6883 -1.8538
 5762SOL    HW228923   0.113   1.767   6.853 -0.0280 -0.9763 -0.2690
 5763SOL     OW28924   4.384   3.140   9.165  0.1447 -0.1802  0.1789
 5763SOL    HW128925   4.360   3.178   9.080 -2.6242 -1.5984  0.2990
 5763SOL    HW228926   4.456   3.200   9.183  1.0415 -1.6529  1.4787
 5764SOL     OW28927   1.062   2.434  14.612  0.3278 -0.2095  0.2747
 5764SOL    HW128928   1.114   2.365  14.654 -0.7095 -0.1293  1.7305
 5764SOL    HW228929   1.049   2.481  14.694 -0.6110 -1.2394  0.7209
 5765SOL     OW28930   1.529   3.532   8.780 -0.3791  0.3404  0.0830
 5765SOL    HW128931   1.566   3.600   8.724 -0.2491 -1.1618 -1.6358
 5765SOL    HW228932   1.468   3.582   8.835  0.7014  3.4504 -1.5745
 5766SOL     OW28933   0.000   4.095   7.484  0.0414 -0.0127  0.4076
 5766SOL    HW128934   4.646   4.064   7.481 -0.5267  1.5457  1.6917
 5766SOL    HW228935   0.000   4.143   7.567 -0.3299 -0.9268  0.9409
 5767SOL     OW28936   1.576   4.492   5.811 -0.0415 -0.3766 -0.0601
 5767SOL    HW128937   1.510   4.556   5.784  1.8481  2.2454  1.4673
 5767SOL    HW228938   1.522   4.418   5.836 -0.6007 -0.7127 -2.2976
 5768SOL     OW28939   4.163   2.038  11.614 -0.1510  0.2184 -0.0394
 5768SOL    HW128940   4.083   2.017  11.567 -0.4130  0.0322  0.4850
 5768SOL    HW228941   4.190   2.124  11.583 -0.2419  1.1142  2.3992
 5769SOL     OW28942   0.116   1.490  11.366  0.2417 -0.5442 -0.1366
 5769SOL    HW128943   0.048   1.555  11.385  1.4038 -0.1037  2.5258
 5769SOL    HW228944   0.140   1.456  11.452  1.8121  0.0833 -0.3190
 5770SOL     OW28945   4.534   0.187   2.723 -0.3832  0.0600 -0.4696
 5770SOL    HW128946   4.616   0.161   2.763 -0.0198  1.7610 -0.1123
 5770SOL    HW228947   4.473   0.189   2.797  0.5649 -2.0174  0.3726
 5771SOL     OW28948   2.851   2.008   2.938 -0.4408  0.3257  0.7942
 5771SOL    HW128949   2.916   2.026   2.870 -0.5921  0.0978  0.5955
 5771SOL    HW228950   2.779   2.043   2.886 -0.4549  0.2406  0.7573
 5772SOL     OW28951   1.681   3.923   6.524 -0.0077  0.1232 -0.3803
 5772SOL    HW128952   1.738   3.847   6.514  0.0011  0.0456  0.2435
 5772SOL    HW228953   1.699   3.943   6.616 -0.8910 -0.1803 -0.1432
 5773SOL     OW28954   3.802   3.791   7.557  0.2220  0.0620 -0.0989
 5773SOL    HW128955   3.817   3.810   7.464  2.8135  2.6732  0.8531
 5773SOL    HW228956   3.713   3.758   7.570 -0.5506  2.5935  0.9543
 5774SOL     OW28957   0.293   3.792   1.582 -0.1623  0.4698 -0.2672
 5774SOL    HW128958   0.324   3.848   1.653  0.5802 -0.6586  0.2947
 5774SOL    HW228959   0.334   3.844   1.513  1.5778 -1.3647 -0.6027
 5775SOL     OW28960   0.030   3.439   0.901 -0.2260  0.2596  0.3207
 5775SOL    HW128961   4.698   3.416   0.838  1.0610 -3.8679  0.4092
 5775SOL    HW228962   4.710   3.479   0.966 -0.9209  1.3796 -0.9635
 5776SOL     OW28963   1.275   3.161   8.008 -0.1055  0.4815  0.6349
 5776SOL    HW128964   1.341   3.207   8.060  0.5314  0.8994 -0.5431
 5776SOL    HW228965   1.200   3.144   8.064  0.3190 -2.8325  0.1980
 5777SOL     OW28966   2.545   3.129  13.721  0.0699  0.6083  0.1038
 5777SOL    HW128967   2.627   3.082  13.737 -0.3842 -0.0453  0.5413
 5777SOL    HW228968   2.502   3.128  13.806 -1.5847 -2.4502 -0.7701
 5778SOL     OW28969   3.849   2.350   8.432  0.3036 -0.0829  0.0869
 5778SOL    HW128970   3.797   2.342   8.512  0.4537 -1.5008  0.0417
 5778SOL    HW228971   3.936   2.316   8.453 -0.7122 -1.9609  1.2742
 5779SOL     OW28972   3.167   1.342  16.522 -0.0330 -0.2386 -0.1259
 5779SOL    HW128973   3.112   1.327  16.599 -2.4104 -1.0533 -2.0115
 5779SOL    HW228974   3.134   1.275  16.463  1.6576  1.1155 -2.5785
 5780SOL     OW28975   3.023   0.576   3.362  0.5278  0.4427 -0.0336
 5780SOL    HW128976   2.953   0.513   3.345  0.2092  0.1918  2.1751
 5780SOL    HW228977   3.101   0.530   3.330 -0.7377 -1.6886 -0.0795
 5781SOL     OW28978   2.066   3.092   8.633 -0.3535  0.2949 -0.0436
 5781SOL    HW128979   1.998   3.141   8.586  0.3102  0.5398 -0.7557
 5781SOL    HW228980   2.041   3.002   8.654 -0.5043  0.6909  1.4860
 5782SOL     OW28981   3.470   4.435  14.493 -0.0759  0.2032  0.2896
 5782SOL    HW128982   3.461   4.463  14.402  2.8343 -0.1172 -0.0919
 5782SOL    HW228983   3.453   4.341  14.483  2.7287 -0.3161  0.2655
 5783SOL     OW28984   3.640   1.502   5.345  0.2546 -0.0430 -0.2136
 5783SOL    HW128985   3.708   1.555   5.302 -0.4714  0.8551 -0.2475
 5783SOL    HW228986   3.623   1.440   5.275 -0.3640 -0.5660  0.4012
 5784SOL     OW28987   0.745   0.070  16.705 -0.4940  0.5160 -0.5606
 5784SOL    HW128988   0.829   0.102  16.738  0.1627 -0.8626 -0.9207
 5784SOL    HW228989   0.682   0.140  16.724 -3.3654 -1.8032 -1.4845
 5785SOL     OW28990   2.239   1.685   7.989 -0.6715  0.0566  0.1083
 5785SOL    HW128991   2.241   1.592   7.963  1.2707 -0.1009  0.8460
 5785SOL    HW228992   2.327   1.693   8.024  0.2296 -0.6005 -2.0170
 5786SOL     OW28993   3.342   1.868   3.829  0.1556  0.4508 -0.1030
 5786SOL    HW128994   3.433   1.898   3.822  0.3902 -0.7008 -2.1613
 5786SOL    HW228995   3.323   1.863   3.922  2.5473 -0.6886  0.3434
 5787SOL     OW28996   3.330   4.486   8.226 -0.7533 -0.0969  0.0761
 5787SOL    HW128997   3.420   4.509   8.203 -0.8709 -0.8633 -1.1496
 5787SOL    HW228998   3.336   4.419   8.294  0.5136  0.5776  0.6242
 5788SOL     OW28999   2.584   3.364   7.712 -0.0549 -0.0547 -0.0328
 5788SOL    HW129000   2.500   3.319   7.701  0.0691 -0.3458  0.2345
 5788SOL    HW229001   2.561   3.438   7.769 -0.4773 -0.4620  0.3263
 5789SOL     OW29002   0.558   3.676   8.707 -0.4262  0.1284  0.6941
 5789SOL    HW129003   0.560   3.656   8.801  2.1287  0.5237  0.7227
 5789SOL    HW229004   0.630   3.738   8.697 -1.5884  1.2390 -0.9285
 5790SOL     OW29005   4.057   0.677   9.810 -0.1615 -0.6817 -0.0044
 5790SOL    HW129006   4.152   0.687   9.813 -0.5325  1.8386  3.2602
 5790SOL    HW229007   4.042   0.721   9.726 -2.2417 -1.4999 -0.0544
 5791SOL     OW29008   1.039   1.734  17.029 -0.0208 -0.4728  0.2597
 5791SOL    HW129009   0.965   1.774  17.075 -1.0158 -1.4310 -0.4934
 5791SOL    HW229010   1.024   1.641  17.045  2.2413 -0.1689  4.2669
 5792SOL     OW29011   3.042   3.845   4.848 -0.1416  0.1025  0.7302
 5792SOL    HW129012   3.043   3.933   4.809  1.5851 -0.1027  0.3102
 5792SOL    HW229013   2.948   3.852   4.867 -0.0385 -0.1949  1.3459
 5793SOL     OW29014   0.004   2.517   2.183 -0.5204  0.5415  0.1875
 5793SOL    HW129015   0.055   2.588   2.221  0.8762 -0.3655  0.0136
 5793SOL    HW229016   0.023   2.453   2.252  2.6545  0.7110 -0.5536
 5794SOL     OW29017   4.172   3.995   4.367 -0.8049  0.0470  0.6611
 5794SOL    HW129018   4.177   4.068   4.429  1.0237  0.4039  0.0925
 5794SOL    HW229019   4.078   3.999   4.345 -0.5537  2.5735 -0.0573
 5795SOL     OW29020   1.558   4.380   8.028 -0.2953  0.4259 -0.6133
 5795SOL    HW129021   1.614   4.442   7.981 -0.0033  0.0811 -0.7160
 5795SOL    HW229022   1.564   4.414   8.117 -2.1362 -2.3176  0.5472
 5796SOL     OW29023   1.684   3.303   6.880  0.2961 -0.6266  0.2592
 5796SOL    HW129024   1.679   3.333   6.789 -0.0408  0.3923  0.6175
 5796SOL    HW229025   1.719   3.382   6.920  0.6733 -0.0773 -1.1606
 5797SOL     OW29026   2.433   0.221   5.187 -0.2488  0.0953  0.1456
 5797SOL    HW129027   2.399   0.221   5.098  2.2496 -0.9192 -0.8087
 5797SOL    HW229028   2.485   0.141   5.178 -0.6792 -0.3082  1.2326
 5798SOL     OW29029   1.748   4.206   7.385  0.2455 -0.1655  0.6030
 5798SOL    HW129030   1.769   4.137   7.322  1.0314  0.0078  0.6718
 5798SOL    HW229031   1.823   4.265   7.379 -1.3531  1.7730 -0.4323
 5799SOL     OW29032   3.312   4.679   7.952  0.2418  0.2592 -0.2457
 5799SOL    HW129033   3.336   0.035   7.950  0.5880  0.1939  0.6288
 5799SOL    HW229034   3.336   4.663   7.861  1.6719  1.8062 -0.1532
 5800SOL     OW29035   4.734   2.448   1.735 -0.6180 -0.4683  0.6910
 5800SOL    HW129036   0.042   2.491   1.662 -0.8028 -0.2399  0.7140
 5800SOL    HW229037   4.706   2.515   1.797 -1.5256  1.0112 -1.2987
 5801SOL     OW29038   3.152   2.679   4.374  0.3537 -0.4274  0.2297
 5801SOL    HW129039   3.175   2.709   4.286 -0.0472 -1.1582 -0.1216
 5801SOL    HW229040   3.063   2.712   4.391  0.6035  0.8250 -0.9136
 5802SOL     OW29041   4.131   2.901   8.701  0.0580 -0.3651  0.4447
 5802SOL    HW129042   4.152   2.847   8.777 -0.7015  1.4611  1.9317
 5802SOL    HW229043   4.086   2.976   8.739 -0.4872 -0.8840  0.8285
 5803SOL     OW29044   2.445   2.787   6.326  0.6796  0.0975  0.3282
 5803SOL    HW129045   2.449   2.708   6.380  1.8293 -1.9586 -2.7126
 5803SOL    HW229046   2.376   2.773   6.261  0.6985  0.5983  0.2005
 5804SOL     OW29047   0.534   0.856   5.036  0.0219 -0.0481  0.9318
 5804SOL    HW129048   0.616   0.900   5.011 -0.0954 -0.2844  0.1265
 5804SOL    HW229049   0.577   0.777   5.069  1.6621  0.2817 -0.4005
 5805SOL     OW29050   3.783   2.979  13.941 -0.5602  0.0090 -0.0841
 5805SOL    HW129051   3.814   3.026  14.019  0.7877  0.3300 -0.8089
 5805SOL    HW229052   3.717   3.043  13.913 -0.4708  0.1584  0.0457
 5806SOL     OW29053   1.233   0.425   4.351  0.2466 -0.6713  0.5521
 5806SOL    HW129054   1.147   0.465   4.346 -0.5155 -2.3433  0.2673
 5806SOL    HW229055   1.241   0.431   4.446 -1.3522  0.3695  0.6089
 5807SOL     OW29056   2.182   3.091   6.057 -0.2709  0.3197 -0.4013
 5807SOL    HW129057   2.178   3.186   6.059 -1.9213  0.2399 -0.0838
 5807SOL    HW229058   2.092   3.067   6.035 -0.3121  0.0924 -0.0009
 5808SOL     OW29059   3.421   0.140   2.894  0.2715 -0.0514 -0.2082
 5808SOL    HW129060   3.330   0.110   2.899 -0.0606  0.9697  0.1246
 5808SOL    HW229061   3.419   0.161   2.801 -0.4285 -2.2285 -0.6688
 5809SOL     OW29062   2.344   0.525   2.811  0.2814 -0.4472 -0.4309
 5809SOL    HW129063   2.276   0.459   2.824 -0.4804 -0.0218 -2.2512
 5809SOL    HW229064   2.425   0.480   2.836  1.5278  3.1074  1.8661
 5810SOL     OW29065   2.066   4.306  11.731 -0.2231 -0.1547 -0.4270
 5810SOL    HW129066   2.053   4.283  11.640  0.8242  1.4778 -0.9918
 5810SOL    HW229067   2.076   4.401  11.724 -4.7635  0.4543  1.6988
 5811SOL     OW29068   0.724   4.286  14.238 -0.5488 -0.1229 -0.4188
 5811SOL    HW129069   0.694   4.277  14.147  1.0224 -0.9299 -0.8552
 5811SOL    HW229070   0.755   4.376  14.246  0.6907 -0.8685  3.1169
 5812SOL     OW29071   2.185   3.984   8.891 -0.2283  0.2700  0.0892
 5812SOL    HW129072   2.095   3.969   8.861  0.0899 -0.9689 -0.2473
 5812SOL    HW229073   2.170   4.052   8.956 -1.0472  0.6466 -0.5060
 5813SOL     OW29074   3.443   1.994  13.111 -0.1745  0.2920 -0.3850
 5813SOL    HW129075   3.451   1.899  13.120  1.8924  0.4856 -0.1332
 5813SOL    HW229076   3.442   2.001  13.015  0.5412  0.8859 -0.3469
 5814SOL     OW29077   3.965   1.357   7.563 -0.2746  0.0716  0.3746
 5814SOL    HW129078   3.976   1.450   7.543  1.6888 -0.2735 -0.1418
 5814SOL    HW229079   3.976   1.329   7.472 -4.6607  0.0419 -0.1563
 5815SOL     OW29080   0.715   4.239   5.329 -0.0550 -0.0320  0.2375
 5815SOL    HW129081   0.681   4.239   5.240 -1.6674 -0.1319  0.8453
 5815SOL    HW229082   0.785   4.303   5.320 -0.2076  0.3149  1.4343
 5816SOL     OW29083   2.470   4.679  16.658  0.4617  0.4925 -0.2741
 5816SOL    HW129084   2.536   4.700  16.724  3.2651  0.3589 -2.9685
 5816SOL    HW229085   2.442   0.030  16.633  1.1036  1.0246  0.9009
 5817SOL     OW29086   0.975   4.387  14.080  0.0230 -0.2523  0.3865
 5817SOL    HW129087   0.931   4.453  14.132  0.7524 -1.0529  2.0167
 5817SOL    HW229088   0.903   4.338  14.040 -1.5951  0.6387  2.2370
 5818SOL     OW29089   3.211   2.348   2.664  0.0709  0.3151  0.0760
 5818SOL    HW129090   3.281   2.320   2.605  0.7943 -0.3037  1.2329
 5818SOL    HW229091   3.266   2.407   2.715 -2.4593  2.6691  0.1181
 5819SOL     OW29092   4.565   4.551   9.073 -0.7106 -0.1472 -0.0048
 5819SOL    HW129093   4.586   4.499   8.996  0.6777 -0.9107  0.8972
 5819SOL    HW229094   4.528   4.630   9.033 -0.8310 -0.2026 -0.0024
 5820SOL     OW29095   3.811   3.459  14.497 -0.7144  0.2395 -0.4482
 5820SOL    HW129096   3.824   3.416  14.582  0.9262  3.0769  0.7426
 5820SOL    HW229097   3.729   3.424  14.462 -0.5471 -1.7756  1.1471
 5821SOL     OW29098   3.516   0.955  14.792  0.0891  0.2710  0.2628
 5821SOL    HW129099   3.576   0.938  14.720 -2.1749  1.2941 -1.8875
 5821SOL    HW229100   3.568   1.011  14.850 -1.1001  1.7392 -0.0940
 5822SOL     OW29101   2.286   0.886   8.436 -0.0509  0.3679  0.0168
 5822SOL    HW129102   2.261   0.818   8.374  0.9232  0.6890 -0.7261
 5822SOL    HW229103   2.342   0.829   8.489  0.8376  1.3290  0.1105
 5823SOL     OW29104   3.688   2.970   9.431  0.9419  0.7570  0.0429
 5823SOL    HW129105   3.614   3.029   9.448  1.2618  0.2862  3.0948
 5823SOL    HW229106   3.699   2.948   9.524 -1.0670  0.0121  0.1136
 5824SOL     OW29107   2.644   2.430   3.704  0.9381  0.0693  0.2536
 5824SOL    HW129108   2.584   2.355   3.706  0.9528  0.0676  0.7781
 5824SOL    HW229109   2.586   2.506   3.713 -0.7527 -1.2637  0.6466
 5825SOL     OW29110   1.755   3.223  15.004  0.1231 -0.3622 -0.1402
 5825SOL    HW129111   1.715   3.307  15.024 -0.1319 -0.4426 -0.3133
 5825SOL    HW229112   1.677   3.178  14.971 -0.4174  0.4552  0.0341
 5826SOL     OW29113   2.577   0.690  11.406 -0.6192  0.4600  0.2960
 5826SOL    HW129114   2.575   0.610  11.354 -0.6918 -0.1229  1.2028
 5826SOL    HW229115   2.663   0.688  11.448  0.5692  0.4338 -2.1150
 5827SOL     OW29116   0.043   4.688   5.584 -0.4588  0.1137  0.0710
 5827SOL    HW129117   0.041   4.698   5.679  2.2815  1.9571 -0.0624
 5827SOL    HW229118   0.003   0.032   5.553  0.0920 -0.7340 -2.9097
 5828SOL     OW29119   2.844   2.288   4.304 -0.3938 -0.2153  0.2016
 5828SOL    HW129120   2.855   2.364   4.362  1.2029 -0.0914 -0.2651
 5828SOL    HW229121   2.753   2.262   4.320 -0.4319  0.2502  0.7542
 5829SOL     OW29122   0.046   0.863   0.833  0.6222  0.0391  0.0810
 5829SOL    HW129123   4.711   0.900   0.885  1.3364  0.1545  0.9890
 5829SOL    HW229124   0.064   0.939   0.777  0.0005 -1.1083 -1.6667
 5830SOL     OW29125   0.467   2.340   0.154 -0.1352 -0.2094  0.0309
 5830SOL    HW129126   0.376   2.366   0.147 -0.2118 -0.8259 -1.3357
 5830SOL    HW229127   0.476   2.345   0.249 -0.0741  1.0269 -0.0459
 5831SOL     OW29128   0.070   0.740   4.241 -0.2209  0.3325 -0.4205
 5831SOL    HW129129   0.129   0.787   4.182  1.8362 -0.5942  0.8659
 5831SOL    HW229130   4.730   0.721   4.188 -1.1603  1.4345  0.5409
 5832SOL     OW29131   2.312   2.724   8.459  0.4363 -0.0800  0.1730
 5832SOL    HW129132   2.310   2.677   8.376  1.6200  1.4256 -0.7149
 5832SOL    HW229133   2.221   2.743   8.482  0.7688  1.2647  0.3962
 5833SOL     OW29134   1.417   3.450   2.366  0.0870  0.2458  0.0859
 5833SOL    HW129135   1.449   3.537   2.390 -1.1880  1.1712 -1.5476
 5833SOL    HW229136   1.388   3.417   2.451 -1.3350  0.7410 -0.2065
 5834SOL     OW29137   1.618   1.549   2.635  0.0258 -0.1904  0.0081
 5834SOL    HW129138   1.566   1.469   2.636 -0.3376  0.0900  3.0495
 5834SOL    HW229139   1.588   1.585   2.719 -1.8793 -1.3490 -0.1750
 5835SOL     OW29140   1.037   3.456   7.357  0.2404  0.4945 -0.6556
 5835SOL    HW129141   1.102   3.387   7.371  1.6115  1.9169 -0.0731
 5835SOL    HW229142   1.018   3.490   7.444  1.3907  1.4649 -0.7897
 5836SOL     OW29143   2.921   1.895   3.826  0.3064  0.0880 -0.2696
 5836SOL    HW129144   2.916   1.874   3.919  0.4846 -2.0732 -0.7626
 5836SOL    HW229145   2.896   1.816   3.779  1.6925 -0.1266 -0.6739
 5837SOL     OW29146   1.764   0.504   6.673  0.2765  0.3056 -0.1832
 5837SOL    HW129147   1.676   0.530   6.646  0.2330  0.2540 -0.0889
 5837SOL    HW229148   1.789   0.574   6.734 -1.1196 -0.5019  1.3044
 5838SOL     OW29149   2.639   2.381   2.411 -0.7332 -0.2407 -0.2408
 5838SOL    HW129150   2.721   2.335   2.430 -0.0079  0.3244 -2.0052
 5838SOL    HW229151   2.656   2.469   2.444  0.8371  0.1019 -1.9765
 5839SOL     OW29152   3.419   0.700  13.984 -0.1433  0.0671 -0.5602
 5839SOL    HW129153   3.370   0.730  14.061 -0.2168 -2.9848  0.5584
 5839SOL    HW229154   3.354   0.695  13.913 -1.3196  1.0352  0.4400
 5840SOL     OW29155   1.245   4.604   1.111  0.0869 -0.3174  0.2079
 5840SOL    HW129156   1.297   4.548   1.053  2.9977  1.0911  1.4616
 5840SOL    HW229157   1.166   4.550   1.117 -0.0589 -0.0670  0.5218
 5841SOL     OW29158   0.500   2.297   2.290  0.0526 -0.0580  0.6930
 5841SOL    HW129159   0.458   2.216   2.321 -0.6205  0.5475  1.3775
 5841SOL    HW229160   0.592   2.286   2.313  0.5221  0.7299 -0.8142
 5842SOL     OW29161   3.485   1.441   1.833  0.0424  0.1991 -0.2928
 5842SOL    HW129162   3.530   1.524   1.816 -0.2026  0.6596  1.3048
 5842SOL    HW229163   3.517   1.417   1.920  0.6726 -0.3733 -0.6752
 5843SOL     OW29164   1.180   2.119  16.601 -0.2417  0.3673 -0.2687
 5843SOL    HW129165   1.118   2.112  16.674  0.2055  2.2307  0.2917
 5843SOL    HW229166   1.254   2.067  16.633 -0.5995 -0.1949 -0.3559
 5844SOL     OW29167   3.068   3.259   0.978  0.6996  0.1117  0.0009
 5844SOL    HW129168   3.025   3.178   0.950 -0.0838  0.8488 -0.9271
 5844SOL    HW229169   3.082   3.307   0.897 -1.7068  0.4012 -0.2532
 5845SOL     OW29170   3.252   1.306   2.173 -0.9392  0.4749 -0.5824
 5845SOL    HW129171   3.257   1.332   2.265  0.2414 -0.3079 -0.4249
 5845SOL    HW229172   3.342   1.309   2.141 -0.6217 -0.2946  0.2235
 5846SOL     OW29173   1.598   1.768   7.878  0.4863 -0.1602 -0.5523
 5846SOL    HW129174   1.646   1.727   7.949  0.2194  0.3186 -0.0990
 5846SOL    HW229175   1.510   1.732   7.885  0.1161  0.9643  0.7127
 5847SOL     OW29176   4.599   1.262   2.424  0.3813  0.0018  0.0061
 5847SOL    HW129177   4.579   1.298   2.337 -0.5828  0.4851  0.4264
 5847SOL    HW229178   4.597   1.167   2.409  1.1049  0.1860 -1.2669
 5848SOL     OW29179   1.745   2.885  16.063 -0.1771 -0.0407  0.4921
 5848SOL    HW129180   1.828   2.852  16.030 -1.3799 -0.3630 -2.1563
 5848SOL    HW229181   1.761   2.910  16.154  3.5120  0.2271 -0.2362
 5849SOL     OW29182   2.738   3.786   1.770  0.0902  0.7197  0.2897
 5849SOL    HW129183   2.742   3.867   1.820  1.3210  0.7594  0.1324
 5849SOL    HW229184   2.718   3.715   1.830  1.8964 -1.3668 -1.5657
 5850SOL     OW29185   2.627   3.120   4.590  0.1783  0.5055  0.3681
 5850SOL    HW129186   2.555   3.183   4.598 -0.3088 -0.0060 -0.0505
 5850SOL    HW229187   2.694   3.161   4.645  1.5795 -0.3016 -0.7578
 5851SOL     OW29188   2.210   0.640   0.793  0.1324 -0.1614  0.0968
 5851SOL    HW129189   2.161   0.593   0.861 -0.5650  0.0234 -0.2742
 5851SOL    HW229190   2.225   0.727   0.828 -0.1029  0.6565 -1.8441
 5852SOL     OW29191   3.445   1.619   2.501  0.2243 -0.3865 -0.1678
 5852SOL    HW129192   3.363   1.651   2.465  0.4747  1.3027  0.7766
 5852SOL    HW229193   3.417   1.572   2.580  1.0928 -0.4646  0.0963
 5853SOL     OW29194   2.994   2.397   8.208 -0.1693  0.1945 -0.1197
 5853SOL    HW129195   3.066   2.345   8.245 -1.0119 -0.9547 -0.1081
 5853SOL    HW229196   2.927   2.398   8.276  0.6473  2.5873  0.6526
 5854SOL     OW29197   2.230   1.269   1.725 -0.2175 -0.1926  0.0858
 5854SOL    HW129198   2.211   1.234   1.812 -2.1260  1.0599  0.1743
 5854SOL    HW229199   2.249   1.361   1.740 -0.9561 -0.3217  1.7804
 5855SOL     OW29200   4.668   2.210   2.244 -0.1282 -0.1252  0.6959
 5855SOL    HW129201   4.730   2.198   2.171 -0.4858  0.2107  0.3390
 5855SOL    HW229202   4.583   2.232   2.205  1.2729 -0.6035 -2.6813
 5856SOL     OW29203   4.654   2.942   7.499  0.1709  0.0742 -0.2453
 5856SOL    HW129204   4.617   2.889   7.569  0.5381 -0.8913 -0.7715
 5856SOL    HW229205   4.597   2.923   7.424 -0.6189 -0.0455  0.3889
 5857SOL     OW29206   1.739   2.043   5.879 -0.2526  0.6114  0.5420
 5857SOL    HW129207   1.692   2.116   5.837  0.2345  0.1004 -0.8630
 5857SOL    HW229208   1.701   2.064   5.965 -0.1361 -0.0098  0.7451
 5858SOL     OW29209   4.391   2.180   1.499 -0.9880  0.2392  0.1271
 5858SOL    HW129210   4.390   2.257   1.556 -0.2029 -0.9672  1.7720
 5858SOL    HW229211   4.474   2.137   1.520 -1.4836 -0.4156  0.7272
 5859SOL     OW29212   0.704   0.578   2.321 -0.1553  0.7190  0.1953
 5859SOL    HW129213   0.659   0.543   2.244 -1.1052  0.6386  0.7776
 5859SOL    HW229214   0.784   0.525   2.323 -0.2655  0.5966  1.5052
 5860SOL     OW29215   0.471   3.814   7.710 -0.1638  0.1299  0.2621
 5860SOL    HW129216   0.430   3.887   7.756  0.8417  0.3401  0.8186
 5860SOL    HW229217   0.532   3.867   7.660 -0.9640 -1.6667 -2.5797
 5861SOL     OW29218   0.328   0.796   1.910  0.4087  0.3511 -0.5290
 5861SOL    HW129219   0.383   0.838   1.843  0.2358  0.7561 -0.4216
 5861SOL    HW229220   0.345   0.704   1.894  1.3285  0.3310  0.5706
 5862SOL     OW29221   1.537   2.979   9.690  0.4792  0.1689  0.0182
 5862SOL    HW129222   1.553   2.885   9.692  1.1032  0.2550 -0.8810
 5862SOL    HW229223   1.618   3.002   9.645  1.1795 -1.7471  0.3009
 5863SOL     OW29224   4.283   2.454   3.821 -0.1754  0.1793  0.1943
 5863SOL    HW129225   4.379   2.456   3.814 -0.1356 -1.9832  0.1364
 5863SOL    HW229226   4.261   2.514   3.892  3.0782  3.0159 -1.1554
 5864SOL     OW29227   3.530   1.912   5.872  0.0228  0.6784  0.5410
 5864SOL    HW129228   3.610   1.879   5.833 -0.6310 -0.8861  0.5100
 5864SOL    HW229229   3.465   1.881   5.808  2.9482 -1.4267 -1.4106
 5865SOL     OW29230   4.538   3.967   5.475 -0.0415 -0.3264  0.3307
 5865SOL    HW129231   4.557   4.008   5.559  0.3318  2.9552 -1.3704
 5865SOL    HW229232   4.556   4.046   5.425  1.6440 -1.2816 -0.5883
 5866SOL     OW29233   4.153   1.603   6.648  0.2564  0.3112  0.0660
 5866SOL    HW129234   4.223   1.538   6.658  0.8710  0.6753 -1.8399
 5866SOL    HW229235   4.167   1.621   6.555  0.4757  0.9604  0.2260
 5867SOL     OW29236   0.930   1.011   5.918 -0.0570 -0.0115  0.5366
 5867SOL    HW129237   0.834   1.005   5.914 -0.0309 -0.8687  1.0802
 5867SOL    HW229238   0.954   1.093   5.875  0.4517  0.6306  2.0549
 5868SOL     OW29239   4.109   1.395  12.858 -0.5976  0.0034 -0.3879
 5868SOL    HW129240   4.105   1.301  12.876 -2.0473 -0.3269 -2.3623
 5868SOL    HW229241   4.141   1.387  12.768  2.3034 -1.1098  0.7634
 5869SOL     OW29242   2.683   3.981   9.017 -0.7665 -0.6729 -0.2129
 5869SOL    HW129243   2.712   3.890   9.020 -1.8755 -1.0971 -2.4078
 5869SOL    HW229244   2.589   3.966   9.031 -1.0613  2.1751  0.8394
 5870SOL     OW29245   3.883   0.810   5.415 -0.0235  0.3251  0.1226
 5870SOL    HW129246   3.818   0.743   5.434 -0.1638  0.1960 -0.8151
 5870SOL    HW229247   3.831   0.852   5.348 -2.1416  0.8401  2.0955
 5871SOL     OW29248   4.414   2.322   2.130  0.2040 -0.5428  0.2441
 5871SOL    HW129249   4.325   2.287   2.134  0.7665 -1.9759  0.3440
 5871SOL    HW229250   4.421   2.324   2.035 -0.3177  1.1123  0.2444
 5872SOL     OW29251   1.498   3.740  12.231 -0.3504  0.0605  0.6007
 5872SOL    HW129252   1.563   3.808  12.215 -0.1235  0.2819  2.4915
 5872SOL    HW229253   1.548   3.659  12.239  0.0102  0.1216 -0.9642
 5873SOL     OW29254   2.927   1.015   3.202 -0.4169 -0.2288  0.7414
 5873SOL    HW129255   2.935   1.103   3.237 -1.2175  0.3431 -0.5329
 5873SOL    HW229256   2.989   0.959   3.249 -0.0802 -0.5915 -0.1291
 5874SOL     OW29257   4.159   1.084   8.722  0.6019  0.0283 -0.4045
 5874SOL    HW129258   4.170   1.169   8.677  1.4076 -0.6496 -1.4889
 5874SOL    HW229259   4.246   1.049   8.702  0.6935 -0.1752  0.3709
 5875SOL     OW29260   4.419   1.005   2.288 -0.4467 -0.0508 -0.1449
 5875SOL    HW129261   4.413   0.968   2.200 -1.9371 -0.4836  0.1419
 5875SOL    HW229262   4.509   0.977   2.308 -0.1193  0.5795 -0.7564
 5876SOL     OW29263   1.303   0.165   9.204  0.2449 -0.0678  0.6635
 5876SOL    HW129264   1.343   0.120   9.278  0.8512 -0.7077 -0.0483
 5876SOL    HW229265   1.261   0.242   9.243 -0.0122  0.0821  0.0994
 5877SOL     OW29266   1.449   2.344  11.980 -0.8898 -0.8044 -0.1674
 5877SOL    HW129267   1.368   2.394  11.986 -0.2531  0.0675  1.2416
 5877SOL    HW229268   1.497   2.415  12.022 -1.9561 -0.2783  0.1650
 5878SOL     OW29269   4.305   1.713   3.875  0.2646 -0.5076 -1.0596
 5878SOL    HW129270   4.295   1.713   3.970 -1.3923  2.0412 -1.2325
 5878SOL    HW229271   4.295   1.806   3.854  1.9218 -0.5163 -1.9522
 5879SOL     OW29272   3.350   1.358   5.412  0.5711  0.3741 -0.1918
 5879SOL    HW129273   3.292   1.381   5.340  1.9844 -1.9141 -2.0498
 5879SOL    HW229274   3.359   1.444   5.454  4.7207 -0.2738  0.2122
 5880SOL     OW29275   4.670   4.472   3.482 -0.4739 -0.2886  0.3742
 5880SOL    HW129276   4.700   4.482   3.392 -0.0307  0.0925  0.5602
 5880SOL    HW229277   4.589   4.424   3.472 -2.8761  3.3651  2.0885
 5881SOL     OW29278   2.279   0.331   9.092  0.0500 -0.1150 -0.2595
 5881SOL    HW129279   2.221   0.406   9.103  1.4116  0.6260  1.8166
 5881SOL    HW229280   2.320   0.333   9.178 -1.2420  0.5892  0.3335
 5882SOL     OW29281   2.757   0.829   0.982  0.1442 -0.0754 -0.0923
 5882SOL    HW129282   2.799   0.908   1.016  0.3081 -1.2759  2.4482
 5882SOL    HW229283   2.815   0.797   0.913  0.2644  1.1963 -0.5880
 5883SOL     OW29284   1.015   0.369  10.608 -0.2332 -0.0268 -0.4244
 5883SOL    HW129285   0.991   0.317  10.685  0.9450  0.0594  0.0008
 5883SOL    HW229286   1.107   0.387  10.625 -0.1965 -0.4847 -0.1399
 5884SOL     OW29287   1.056   4.363   8.658  0.4463  0.1556  0.3373
 5884SOL    HW129288   1.032   4.415   8.581  1.3859 -0.8195 -0.6196
 5884SOL    HW229289   0.990   4.297   8.638  0.6614  0.3633 -1.0911
 5885SOL     OW29290   2.481   0.743   5.698 -0.2459  0.3095 -0.3155
 5885SOL    HW129291   2.422   0.816   5.682  2.0979  2.1233 -0.7552
 5885SOL    HW229292   2.417   0.677   5.724 -2.5118  2.2784 -0.8243
 5886SOL     OW29293   4.072   1.008   5.224 -0.1645 -0.0981 -0.0496
 5886SOL    HW129294   4.073   0.949   5.149  1.9818 -0.5582  0.3380
 5886SOL    HW229295   4.005   1.072   5.199 -0.3984 -0.0982  0.5735
 5887SOL     OW29296   4.562   1.080   8.082  0.1926 -0.2147 -0.4690
 5887SOL    HW129297   4.491   1.020   8.104 -0.3545  0.7799  0.5177
 5887SOL    HW229298   4.560   1.070   7.987  0.4066 -1.1733 -0.3632
 5888SOL     OW29299   2.680   1.137   5.317  0.2406 -0.2818  0.4945
 5888SOL    HW129300   2.594   1.179   5.314  1.5748  2.6530  2.7439
 5888SOL    HW229301   2.669   1.072   5.386 -2.8389 -2.3538 -1.9360
 5889SOL     OW29302   3.619   0.718   7.386 -0.4009  0.0222  0.0956
 5889SOL    HW129303   3.667   0.798   7.405  0.8255 -0.9652  1.2165
 5889SOL    HW229304   3.542   0.749   7.339  0.3278  0.7468 -0.5940
 5890SOL     OW29305   3.688   2.332   6.946  0.0179 -0.3080  0.3064
 5890SOL    HW129306   3.761   2.367   6.894 -0.1838  1.2889  1.1028
 5890SOL    HW229307   3.743   2.278   7.002  1.0144  2.7817  2.3255
 5891SOL     OW29308   4.172   2.733   7.630  0.2302  0.1960  0.0511
 5891SOL    HW129309   4.084   2.708   7.658 -0.2614 -0.7522 -2.3626
 5891SOL    HW229310   4.154   2.820   7.595 -0.0874  0.3646  0.6300
 5892SOL     OW29311   4.058   1.052  16.521  0.2674 -0.2658 -0.3045
 5892SOL    HW129312   4.072   1.035  16.428 -0.3137  1.2700 -0.6688
 5892SOL    HW229313   4.005   1.132  16.522  0.6104 -0.0371 -0.2246
 5893SOL     OW29314   4.453   2.199  16.543 -0.2378  0.1716  0.0853
 5893SOL    HW129315   4.480   2.107  16.535  0.4923  0.6273 -2.7920
 5893SOL    HW229316   4.495   2.247  16.472  1.3795 -0.5576  0.5468
 5894SOL     OW29317   0.106   0.970   4.438 -0.2483  0.1586 -1.0041
 5894SOL    HW129318   0.061   0.910   4.377 -0.6812 -1.4227  0.8733
 5894SOL    HW229319   0.037   1.028   4.470  0.2634 -0.6807  1.5954
 5895SOL     OW29320   1.919   3.469  14.687 -0.9188  0.3902 -0.0937
 5895SOL    HW129321   1.883   3.515  14.611 -1.0439 -1.5364 -1.1998
 5895SOL    HW229322   1.952   3.388  14.649  0.7631  1.3488 -0.6798
 5896SOL     OW29323   2.425   1.431  11.837 -0.4957 -0.6131 -1.2673
 5896SOL    HW129324   2.497   1.427  11.900 -1.6515  0.5653  0.1156
 5896SOL    HW229325   2.466   1.418  11.752  2.3733 -0.5687  0.1011
 5897SOL     OW29326   1.606   4.475   2.410  0.1146 -0.2078 -0.5529
 5897SOL    HW129327   1.592   4.457   2.503 -0.5631 -1.1551 -0.8329
 5897SOL    HW229328   1.585   4.392   2.366  0.7464 -0.5145 -0.2830
 5898SOL     OW29329   2.702   0.779   2.792  0.7795 -0.0470 -0.1417
 5898SOL    HW129330   2.746   0.835   2.727 -1.3493  0.4000 -1.1909
 5898SOL    HW229331   2.611   0.797   2.768  0.9728  0.6004 -0.4146
 5899SOL     OW29332   4.442   1.430   1.161 -0.1053  0.3556 -0.5418
 5899SOL    HW129333   4.386   1.358   1.190  1.1281  0.2350  1.5925
 5899SOL    HW229334   4.509   1.436   1.230 -2.3667 -1.9973  1.8484
 5900SOL     OW29335   1.343   2.751  17.601 -0.0845  0.1262 -0.3521
 5900SOL    HW129336   1.320   2.766  17.693 -1.2634  1.6163 -0.8945
 5900SOL    HW229337   1.265   2.706  17.570 -0.5322 -0.1736  1.1964
 5901SOL     OW29338   3.673   4.494   7.627 -0.2210 -0.4154 -0.1892
 5901SOL    HW129339   3.701   4.403   7.642  0.8176 -0.0650 -0.0172
 5901SOL    HW229340   3.642   4.488   7.537 -0.6603  0.3712 -0.0889
 5902SOL     OW29341   1.778   1.236   7.276 -0.3821 -0.0712  0.0372
 5902SOL    HW129342   1.803   1.325   7.302 -0.5378  0.1167 -0.4500
 5902SOL    HW229343   1.841   1.212   7.208  1.8363 -1.0793  2.4427
 5903SOL     OW29344   1.989   3.360   9.893 -0.5311  0.0016 -0.4067
 5903SOL    HW129345   2.004   3.450   9.920  0.0888  0.8160 -3.4427
 5903SOL    HW229346   1.897   3.359   9.868 -0.6434  0.1308  0.0094
 5904SOL     OW29347   2.020   2.143   8.227 -0.2086  0.5549 -0.4707
 5904SOL    HW129348   1.959   2.084   8.272  0.4861 -2.3517 -3.3855
 5904SOL    HW229349   2.093   2.089   8.259 -0.9356  0.6349  1.3734
 5905SOL     OW29350   2.712   0.151   8.990  0.2136 -0.0979  0.4333
 5905SOL    HW129351   2.670   0.206   8.924  1.8527  2.2282  1.3371
 5905SOL    HW229352   2.712   0.067   8.943  0.1255 -0.1306  0.4916
 5906SOL     OW29353   3.590   4.196   2.300 -0.1526  0.4125 -0.5842
 5906SOL    HW129354   3.569   4.282   2.261  0.1609  0.4066 -0.7585
 5906SOL    HW229355   3.563   4.209   2.391 -1.8432  1.8477 -1.2809
 5907SOL     OW29356   2.822   3.380   8.639  0.0009  0.4435 -0.4399
 5907SOL    HW129357   2.915   3.364   8.654 -0.0985 -0.1118 -0.4065
 5907SOL    HW229358   2.789   3.290   8.632 -0.7804  0.6615  0.3770
 5908SOL     OW29359   3.997   3.648  12.948  0.5415  0.0198 -0.2116
 5908SOL    HW129360   3.931   3.593  12.990  0.7635  0.9108  1.3206
 5908SOL    HW229361   3.939   3.724  12.944  1.4145  0.8137  1.7516
 5909SOL     OW29362   2.101   4.524   6.081 -0.1716 -0.1059  0.2219
 5909SOL    HW129363   2.019   4.570   6.061 -0.7741 -0.8699  0.9133
 5909SOL    HW229364   2.077   4.468   6.155  0.6565 -1.4386 -0.5303
 5910SOL     OW29365   2.302   1.100  17.716 -0.1655 -0.2253 -0.3131
 5910SOL    HW129366   2.349   1.100   0.053 -1.4090  0.3342  0.4033
 5910SOL    HW229367   2.304   1.009  17.687 -3.0650 -0.4899  0.3116
 5911SOL     OW29368   0.761   1.431   0.050 -0.6107  0.8464  0.1306
 5911SOL    HW129369   0.751   1.337   0.064 -1.1380  0.9202  0.2591
 5911SOL    HW229370   0.713   1.457  17.717  1.3829 -0.5673 -1.5528
 5912SOL     OW29371   1.440   1.671   2.207 -0.0223 -0.3192 -0.0247
 5912SOL    HW129372   1.350   1.664   2.174 -0.3192 -2.4919  1.2386
 5912SOL    HW229373   1.466   1.579   2.210  0.9754 -0.0108  0.8307
 5913SOL     OW29374   2.025   0.995   3.177  0.1002  0.1989 -0.2618
 5913SOL    HW129375   2.027   1.090   3.170  0.9837  0.3124  1.4879
 5913SOL    HW229376   2.087   0.971   3.109  1.7939  3.6530  0.0676
 5914SOL     OW29377   0.203   2.284   4.042  0.5933  0.3583 -0.3084
 5914SOL    HW129378   0.183   2.203   3.995 -0.2765  0.7293 -0.5840
 5914SOL    HW229379   0.205   2.245   4.130 -0.3854  1.3556  0.1695
 5915SOL     OW29380   1.532   0.545   8.559 -0.4324 -0.1966  0.1479
 5915SOL    HW129381   1.625   0.537   8.536 -0.2786 -1.7367  1.3427
 5915SOL    HW229382   1.533   0.482   8.631 -0.4653 -0.4012 -0.0280
 5916SOL     OW29383   2.360   4.179   2.490 -0.2094 -0.0498  0.0234
 5916SOL    HW129384   2.333   4.146   2.404  1.4435  1.8464 -1.2360
 5916SOL    HW229385   2.318   4.265   2.498 -1.2075 -0.5112 -0.2531
 5917SOL     OW29386   4.214   2.945   7.026  0.1377  0.0825  0.0162
 5917SOL    HW129387   4.304   2.955   6.993  0.6700 -1.3041  1.0054
 5917SOL    HW229388   4.170   3.022   6.990 -0.4209 -0.8255 -1.2490
 5918SOL     OW29389   4.693   1.484  12.321 -0.3810  0.1799  0.4579
 5918SOL    HW129390   0.041   1.499  12.279  0.2966  0.5836  1.9879
 5918SOL    HW229391   4.652   1.424  12.259  1.4670 -0.2178 -0.4049
 5919SOL     OW29392   2.950   3.402  16.710 -0.5598 -0.0867  0.5077
 5919SOL    HW129393   2.880   3.341  16.688 -0.4826  0.0992 -0.2488
 5919SOL    HW229394   2.893   3.456  16.766 -0.0816  1.3187 -0.3489
 5920SOL     OW29395   2.981   2.303   5.206 -0.2400 -0.3446  0.2457
 5920SOL    HW129396   2.997   2.379   5.150  0.1327 -0.4982  0.1461
 5920SOL    HW229397   2.946   2.342   5.287  0.0557  2.0168 -0.7550
 5921SOL     OW29398   0.708   2.622  15.633 -0.2290  0.3334  0.8478
 5921SOL    HW129399   0.684   2.615  15.726 -2.6441  1.6008  0.3083
 5921SOL    HW229400   0.802   2.602  15.637  0.0644  1.7684  1.3002
 5922SOL     OW29401   0.018   2.068   5.376 -0.7772  0.0258 -0.1508
 5922SOL    HW129402   0.024   2.149   5.426 -0.5755  0.5802 -1.0920
 5922SOL    HW229403   4.670   2.079   5.332  0.1106  2.3555 -1.2692
 5923SOL     OW29404   2.772   4.686   8.813 -0.3263 -0.7487 -0.1376
 5923SOL    HW129405   2.699   4.685   8.751 -1.1358 -0.6958  0.8251
 5923SOL    HW229406   2.843   4.650   8.760 -0.1379 -0.9369  0.2435
 5924SOL     OW29407   1.435   2.257  11.049  0.4828 -0.5263 -0.2007
 5924SOL    HW129408   1.423   2.174  11.094  0.8453  0.1798  1.2081
 5924SOL    HW229409   1.434   2.323  11.118  0.2557 -0.2915 -0.4259
 5925SOL     OW29410   1.922   3.510  16.616 -0.5930 -0.3262 -0.2342
 5925SOL    HW129411   1.917   3.589  16.669 -0.9916 -0.5073  0.0008
 5925SOL    HW229412   1.924   3.545  16.527  0.2116  1.4191  0.4699
 5926SOL     OW29413   4.584   0.470   3.112  0.4446  0.8241 -0.0445
 5926SOL    HW129414   4.520   0.534   3.080  0.5932  0.1535 -1.6724
 5926SOL    HW229415   4.655   0.488   3.050  0.7240  1.0755  0.3506
 5927SOL     OW29416   1.066   1.421   8.483 -0.4805 -0.2311 -0.1977
 5927SOL    HW129417   1.033   1.415   8.573  2.6527  1.8565  1.0723
 5927SOL    HW229418   1.150   1.378   8.498 -0.4185 -0.7501 -2.0235
 5928SOL     OW29419   2.646   4.210  10.289 -0.3440  0.1773  0.1263
 5928SOL    HW129420   2.613   4.134  10.337 -0.7362  0.7263  0.7129
 5928SOL    HW229421   2.738   4.220  10.313  0.0102  0.5458 -1.3965
 5929SOL     OW29422   2.634   0.957   5.084 -0.6603 -0.4693  0.1353
 5929SOL    HW129423   2.674   0.997   5.161 -2.5939  0.6894  0.5292
 5929SOL    HW229424   2.679   0.872   5.086 -0.8879 -0.6311 -1.4024
 5930SOL     OW29425   3.086   4.098   3.148 -0.6585 -0.1206  0.0822
 5930SOL    HW129426   3.023   4.056   3.090  0.1383  0.0000 -0.8657
 5930SOL    HW229427   3.127   4.020   3.185  3.8669  1.3414 -1.8367
 5931SOL     OW29428   3.344   0.445   2.966  0.0935  0.0606 -0.5625
 5931SOL    HW129429   3.421   0.502   2.971  0.1774 -0.2983  2.0431
 5931SOL    HW229430   3.382   0.357   2.958 -2.8615 -1.3251  0.5577
 5932SOL     OW29431   4.254   4.724   3.566  0.4787  0.3542  0.0085
 5932SOL    HW129432   4.241   0.082   3.570 -1.8265  0.1385 -2.4343
 5932SOL    HW229433   4.174   4.700   3.612  0.0446  1.3302 -0.2261
 5933SOL     OW29434   1.471   0.977   2.098  0.0025  0.0694  0.1415
 5933SOL    HW129435   1.419   0.934   2.030 -1.2340 -0.0247  1.1455
 5933SOL    HW229436   1.462   0.909   2.164 -2.2738 -1.6540 -1.9152
 5934SOL     OW29437   4.109   2.481   1.756 -0.0992 -0.5807  0.3603
 5934SOL    HW129438   4.050   2.469   1.681  0.4528 -0.1850 -0.1357
 5934SOL    HW229439   4.060   2.531   1.820 -0.1631 -1.0917  0.7130
 5935SOL     OW29440   4.586   3.937   0.848  0.0342  0.0513 -0.3780
 5935SOL    HW129441   4.644   3.862   0.836 -0.6075 -0.3070 -1.1948
 5935SOL    HW229442   4.533   3.927   0.769 -1.4458  1.8364  0.3875
 5936SOL     OW29443   4.698   1.739  12.085 -0.3420 -0.1566  0.6903
 5936SOL    HW129444   4.640   1.727  12.010 -1.4833  1.1093  1.3669
 5936SOL    HW229445   4.725   1.826  12.053  0.1092 -0.7757 -0.6058
 5937SOL     OW29446   2.033   3.108  12.810  0.0561 -0.0841 -0.5575
 5937SOL    HW129447   2.073   3.134  12.894  2.1765 -1.0887 -1.2615
 5937SOL    HW229448   2.090   3.035  12.788  0.8909  1.5323 -3.7611
 5938SOL     OW29449   4.120   3.801  12.363  0.0189  0.0723  0.3017
 5938SOL    HW129450   4.119   3.776  12.271 -1.3637  1.2197 -0.0073
 5938SOL    HW229451   4.029   3.833  12.358 -0.2416 -0.4086  2.0632
 5939SOL     OW29452   3.781   0.179   2.871 -0.0750  0.5676 -0.0948
 5939SOL    HW129453   3.740   0.114   2.814  0.5457  2.2048 -2.3886
 5939SOL    HW229454   3.838   0.118   2.919 -1.3312  1.2362  2.2545
 5940SOL     OW29455   3.286   0.573   8.762  0.0192 -0.1417 -0.1449
 5940SOL    HW129456   3.382   0.577   8.763  0.0080 -0.3563  1.1445
 5940SOL    HW229457   3.271   0.506   8.828  0.5665 -1.9062 -1.8019
 5941SOL     OW29458   3.085   3.046   5.936  0.1434  0.1440 -0.3198
 5941SOL    HW129459   3.046   2.984   5.997  2.6421  2.0052  3.1752
 5941SOL    HW229460   3.168   3.060   5.982  0.9461  1.5045 -2.2133
 5942SOL     OW29461   1.198   2.787   8.814 -0.2556 -0.1159 -0.2389
 5942SOL    HW129462   1.291   2.778   8.796 -0.1646 -0.0788  0.2166
 5942SOL    HW229463   1.187   2.753   8.903 -2.4247 -0.7265 -0.7408
 5943SOL     OW29464   0.459   4.210   5.780 -0.1124 -0.0430  0.4660
 5943SOL    HW129465   0.532   4.262   5.813  0.2192 -1.0233  1.2786
 5943SOL    HW229466   0.503   4.158   5.714 -0.8077  0.8652 -0.7138
 5944SOL     OW29467   0.558   1.321   1.736  0.3259 -0.3572 -0.0758
 5944SOL    HW129468   0.545   1.388   1.803  0.4482 -0.2650 -0.1445
 5944SOL    HW229469   0.630   1.359   1.686  1.3845 -3.0979 -0.6320
 5945SOL     OW29470   2.064   4.690  11.502  0.5118 -0.3468 -0.6024
 5945SOL    HW129471   2.096   0.032  11.546  0.8196  0.9862 -3.2440
 5945SOL    HW229472   2.032   4.639  11.577 -0.6122 -3.2889 -3.0927
 5946SOL     OW29473   2.162   3.366   5.969 -0.1008 -0.4306  0.4127
 5946SOL    HW129474   2.215   3.377   6.048  0.1945 -2.0368  0.4201
 5946SOL    HW229475   2.081   3.414   5.989  1.9367  2.9110  0.5696
 5947SOL     OW29476   0.842   3.691   2.549 -0.0269  0.7492  0.9061
 5947SOL    HW129477   0.882   3.778   2.537  1.1347  0.0896 -0.0812
 5947SOL    HW229478   0.755   3.714   2.517  0.5231  2.0453  0.3368
 5948SOL     OW29479   2.841   3.350   6.662  0.3729 -0.2058 -0.2706
 5948SOL    HW129480   2.836   3.254   6.658  0.5822 -0.2461  0.3490
 5948SOL    HW229481   2.930   3.350   6.696 -0.2878 -1.3966  1.4614
 5949SOL     OW29482   1.612   2.451   4.889  0.4963 -0.1050 -0.1906
 5949SOL    HW129483   1.667   2.519   4.850  0.6613 -0.4001 -0.4637
 5949SOL    HW229484   1.581   2.485   4.974  3.3446  1.6298  0.1351
 5950SOL     OW29485   1.221   0.761   3.289  0.7401  0.2200  0.0552
 5950SOL    HW129486   1.181   0.803   3.214  1.5930 -1.4640 -1.3414
 5950SOL    HW229487   1.313   0.765   3.262  0.2276  1.3556 -1.4853
 5951SOL     OW29488   2.087   0.324   8.664  0.0171  0.5119  0.5391
 5951SOL    HW129489   2.124   0.410   8.644  0.5982  0.0490 -0.3819
 5951SOL    HW229490   2.142   0.275   8.603 -1.4824 -0.8135  0.2449
 5952SOL     OW29491   1.342   4.554   5.683  0.7327 -0.0543  0.1165
 5952SOL    HW129492   1.294   4.571   5.764 -0.5321  0.0373 -0.6484
 5952SOL    HW229493   1.305   4.472   5.649  2.0600 -0.9932  0.9289
 5953SOL     OW29494   2.460   0.230   1.422  0.1886  0.0384  0.0456
 5953SOL    HW129495   2.467   0.213   1.328  0.8257 -0.9079  0.2556
 5953SOL    HW229496   2.537   0.286   1.435  1.4476 -2.2031  2.4333
 5954SOL     OW29497   0.726   4.056  13.807  0.1101 -0.3810 -0.1492
 5954SOL    HW129498   0.812   4.041  13.769 -0.3430  0.3238 -1.4611
 5954SOL    HW229499   0.675   3.980  13.778  2.1281 -1.1648 -1.6446
 5955SOL     OW29500   0.047   3.683   8.603 -0.0308  0.4949 -0.3626
 5955SOL    HW129501   0.142   3.693   8.614 -0.3291 -0.0750  2.7845
 5955SOL    HW229502   0.015   3.761   8.648  0.7562  0.5680  0.0675
 5956SOL     OW29503   0.495   3.219   7.217  0.0564 -0.4343  0.3122
 5956SOL    HW129504   0.530   3.145   7.168  0.2042  0.3414 -0.7418
 5956SOL    HW229505   0.406   3.200   7.247  0.9723 -2.9049  1.4824
 5957SOL     OW29506   0.062   1.925   6.535  0.5116 -0.0618 -0.3987
 5957SOL    HW129507   0.049   1.884   6.620  0.5508 -1.9714 -1.2909
 5957SOL    HW229508   0.043   1.846   6.484 -1.8702 -0.2439  0.7686
 5958SOL     OW29509   2.534   0.274   7.294  0.2148 -0.8221  0.1034
 5958SOL    HW129510   2.560   0.191   7.334  1.7416 -0.5944 -0.4230
 5958SOL    HW229511   2.450   0.291   7.337  1.1322  2.0482  0.7053
 5959SOL     OW29512   4.180   0.878   4.829  0.0895  0.0412  0.0264
 5959SOL    HW129513   4.112   0.929   4.872  0.1381  0.7995 -0.7730
 5959SOL    HW229514   4.231   0.845   4.903  1.1451  0.0859 -0.6705
 5960SOL     OW29515   1.737   4.441   4.935  0.0536  0.3465 -0.1494
 5960SOL    HW129516   1.786   4.494   4.872  0.8765 -1.1840 -0.7738
 5960SOL    HW229517   1.783   4.358   4.931 -2.2179 -0.9544  0.9853
 5961SOL     OW29518   3.244   1.142   6.908 -0.8364 -0.2661  0.0970
 5961SOL    HW129519   3.266   1.075   6.844 -0.4840  0.7735 -0.8532
 5961SOL    HW229520   3.326   1.153   6.956 -1.3873 -1.0440  1.2087
 5962SOL     OW29521   2.928   2.275  12.407 -0.1920 -0.2520  0.4757
 5962SOL    HW129522   2.946   2.290  12.500 -1.4482  1.1321  0.4939
 5962SOL    HW229523   2.964   2.186  12.401  2.1371  0.6278  1.2905
 5963SOL     OW29524   0.200   0.024   1.100 -0.3595 -0.0277 -0.1593
 5963SOL    HW129525   0.207   0.102   1.156  0.0961 -1.4390  1.7631
 5963SOL    HW229526   0.208   0.064   1.014  0.1664  0.5106  0.1350
 5964SOL     OW29527   3.969   3.838  15.212  0.1687  0.3582  0.0176
 5964SOL    HW129528   4.008   3.801  15.290 -0.0919  1.8910  0.8718
 5964SOL    HW229529   4.042   3.845  15.150  0.9468 -1.7617  0.7009
 5965SOL     OW29530   2.641   0.840   7.313 -0.0530  0.5310 -1.0043
 5965SOL    HW129531   2.734   0.828   7.294 -0.3102 -1.1760 -1.1733
 5965SOL    HW229532   2.636   0.758   7.362  0.4488  1.7683  1.1188
 5966SOL     OW29533   1.942   4.184   5.681 -0.2405  0.9316 -0.7931
 5966SOL    HW129534   1.906   4.116   5.624  0.2219 -0.6412  0.7887
 5966SOL    HW229535   1.865   4.238   5.695 -1.4079 -1.2159  1.0595
 5967SOL     OW29536   4.045   4.415   2.804  0.5126 -0.5794 -0.2243
 5967SOL    HW129537   4.046   4.398   2.709  0.5884  0.9352 -0.4934
 5967SOL    HW229538   4.127   4.464   2.815  0.7285 -0.3793 -2.6747
 5968SOL     OW29539   0.069   0.532   0.624 -0.2498  0.2064 -0.3233
 5968SOL    HW129540   0.059   0.577   0.540 -0.7046  0.9387  0.1219
 5968SOL    HW229541   0.130   0.592   0.667 -0.5048  0.3942 -0.2246
 5969SOL     OW29542   0.041   1.309   9.084 -0.2956  0.5933  0.0969
 5969SOL    HW129543   4.728   1.389   9.066  1.9199  1.8349 -0.5944
 5969SOL    HW229544   0.126   1.344   9.110 -0.1524  0.1731  0.1956
 5970SOL     OW29545   2.847   4.583   7.910  0.1796 -0.2914 -0.1249
 5970SOL    HW129546   2.906   4.604   7.982  1.9740  1.8663 -2.2185
 5970SOL    HW229547   2.880   4.501   7.874 -0.3379 -1.4755  2.1460
 5971SOL     OW29548   1.400   3.953   9.433 -0.5005 -0.1442  0.3556
 5971SOL    HW129549   1.326   3.982   9.486 -0.4314 -0.7800  0.7911
 5971SOL    HW229550   1.436   4.034   9.397  0.0255 -0.3156  0.4939
 5972SOL     OW29551   3.881   3.105  14.946  0.1641 -0.3037 -0.2812
 5972SOL    HW129552   3.898   3.146  15.031 -0.3241 -2.3880  0.8107
 5972SOL    HW229553   3.883   3.014  14.974  1.5408 -0.3700 -0.6150
 5973SOL     OW29554   0.608   0.685   9.260  0.4621 -0.3833  0.8358
 5973SOL    HW129555   0.591   0.592   9.242 -2.0198  0.5222 -1.5438
 5973SOL    HW229556   0.522   0.726   9.268  0.1813 -0.4553 -1.5737
 5974SOL     OW29557   2.964   0.999  13.477  0.9114  0.1846  0.1559
 5974SOL    HW129558   3.002   1.072  13.427  2.6063 -0.5481  0.3797
 5974SOL    HW229559   2.877   1.029  13.502  1.3555 -0.2908  2.2561
 5975SOL     OW29560   3.835   0.393   6.616 -0.7881 -0.9258  0.0518
 5975SOL    HW129561   3.802   0.455   6.681  1.0540 -0.6863  0.7480
 5975SOL    HW229562   3.772   0.322   6.628 -2.4023  0.2357 -1.3994
 5976SOL     OW29563   3.494   4.442  12.837 -0.7639  0.2622  0.3200
 5976SOL    HW129564   3.551   4.520  12.838  0.5814 -0.7334  1.4307
 5976SOL    HW229565   3.556   4.372  12.856 -1.5900 -0.7843 -0.8875
 5977SOL     OW29566   3.588   4.265  11.579  0.4645 -0.0990 -0.2080
 5977SOL    HW129567   3.513   4.269  11.520 -0.6769  0.4128  1.2905
 5977SOL    HW229568   3.645   4.322  11.526  0.1310  1.6203  1.2581
 5978SOL     OW29569   4.481   2.620  11.994  0.5986 -0.1329 -0.1681
 5978SOL    HW129570   4.490   2.552  12.061  1.3138  1.5293  1.4079
 5978SOL    HW229571   4.394   2.591  11.964  1.5345 -2.0009 -1.0756
 5979SOL     OW29572   1.551   0.380   0.717  0.1783 -0.8659 -0.2064
 5979SOL    HW129573   1.484   0.311   0.714 -0.5356 -0.1709 -0.1034
 5979SOL    HW229574   1.529   0.435   0.642  0.7801 -1.8359 -1.0977
 5980SOL     OW29575   4.251   0.061   3.263  0.5162 -0.1961  0.2802
 5980SOL    HW129576   4.272   0.028   3.350  1.9000 -1.8425 -0.6848
 5980SOL    HW229577   4.218   0.149   3.279  0.9136  0.0485 -0.2278
 5981SOL     OW29578   3.577   2.466  16.011 -0.1284 -0.2172  0.3529
 5981SOL    HW129579   3.494   2.475  15.964 -0.8381  0.3739  1.7224
 5981SOL    HW229580   3.568   2.379  16.050  0.1919  0.5168  2.0827
 5982SOL     OW29581   1.283   2.317   0.397 -0.2314 -0.6832 -0.0515
 5982SOL    HW129582   1.351   2.260   0.362  2.2593  1.5813  1.1241
 5982SOL    HW229583   1.201   2.300   0.351  0.1719 -3.0172  0.0961
 5983SOL     OW29584   1.343   3.923   4.702  0.4402  0.6200 -0.0720
 5983SOL    HW129585   1.273   3.858   4.704  0.9949  0.0831  1.2215
 5983SOL    HW229586   1.406   3.886   4.640  0.7912  1.0446  0.0337
 5984SOL     OW29587   3.159   2.998   7.248 -0.1338  0.2735 -0.1125
 5984SOL    HW129588   3.089   3.010   7.184  0.0317 -1.0380 -0.5420
 5984SOL    HW229589   3.143   3.070   7.309 -0.6828  1.2283 -1.3924
 5985SOL     OW29590   1.106   1.220   9.544  0.1132 -0.1792  0.3858
 5985SOL    HW129591   1.046   1.292   9.563  0.8704  0.6399 -0.3490
 5985SOL    HW229592   1.067   1.183   9.465  0.0344 -0.7818  0.7020
 5986SOL     OW29593   4.010   3.282   8.666 -0.3194  0.2696  0.0618
 5986SOL    HW129594   3.940   3.224   8.696 -1.8842  3.0753  1.8603
 5986SOL    HW229595   4.041   3.222   8.599  1.3839  0.9938  0.2038
 5987SOL     OW29596   0.346   0.248   4.937  0.2387 -0.1341  0.2715
 5987SOL    HW129597   0.277   0.202   4.985 -0.8290  0.5469 -0.6285
 5987SOL    HW229598   0.362   0.325   4.992 -0.1708  1.1342 -1.4043
 5988SOL     OW29599   3.584   4.140  17.686  0.4906  0.3055  0.1457
 5988SOL    HW129600   3.615   4.076  17.622  1.4539 -0.9510  1.8781
 5988SOL    HW229601   3.510   4.187  17.647 -0.2456 -1.0756 -0.1331
 5989SOL     OW29602   3.380   1.007   6.711  0.6690  0.2705  0.0712
 5989SOL    HW129603   3.367   1.081   6.651  3.6493  0.7743  0.0343
 5989SOL    HW229604   3.310   0.952   6.675 -0.4227  1.2781  0.6489
 5990SOL     OW29605   3.755   1.368   9.309 -0.6932 -0.0644 -0.1303
 5990SOL    HW129606   3.687   1.413   9.360 -0.6539 -0.4622  0.2777
 5990SOL    HW229607   3.754   1.281   9.348  1.5587  0.3106  0.7376
 5991SOL     OW29608   4.090   1.081   3.471  0.7449 -0.1070 -0.7372
 5991SOL    HW129609   4.139   1.062   3.551  0.4931  1.9256 -0.1207
 5991SOL    HW229610   4.166   1.104   3.418  1.9843 -4.6524 -0.9945
 5992SOL     OW29611   1.968   3.330  14.179 -0.1430  0.3938 -0.0438
 5992SOL    HW129612   2.063   3.342  14.180 -0.2120  0.9502 -0.1205
 5992SOL    HW229613   1.954   3.237  14.197  1.9113 -0.0163 -0.5841
 5993SOL     OW29614   4.321   3.896   0.950 -0.4923 -0.3265  0.1456
 5993SOL    HW129615   4.414   3.914   0.940 -1.0606  4.4082  3.4372
 5993SOL    HW229616   4.306   3.916   1.042 -0.4722 -2.0681  0.5273
 5994SOL     OW29617   3.012   3.095   4.738 -0.4255 -0.1215 -0.4035
 5994SOL    HW129618   3.082   3.095   4.672 -1.7748 -2.3372 -1.7981
 5994SOL    HW229619   2.991   3.005   4.763  1.4779 -0.0605  1.4264
 5995SOL     OW29620   3.661   2.704   1.559 -0.2324  0.3785  0.9323
 5995SOL    HW129621   3.639   2.777   1.501 -0.8351  0.2921  1.0552
 5995SOL    HW229622   3.604   2.634   1.529  1.5076 -0.6423 -0.0042
 5996SOL     OW29623   0.456   4.192   9.148 -0.1276  0.0774 -0.6946
 5996SOL    HW129624   0.395   4.165   9.216  0.7537 -2.7166 -1.0103
 5996SOL    HW229625   0.503   4.110   9.134  3.0100  1.5969  0.6652
 5997SOL     OW29626   0.726   4.424   2.714 -0.0633 -0.0748  0.1198
 5997SOL    HW129627   0.751   4.362   2.644  0.0939  0.7263 -0.5373
 5997SOL    HW229628   0.677   4.374   2.778 -0.8027 -1.2434 -1.3418
 5998SOL     OW29629   4.699   1.964   4.678 -0.0593  0.1734 -0.3680
 5998SOL    HW129630   4.713   1.982   4.771  0.0518 -1.8733  0.0078
 5998SOL    HW229631   4.615   2.004   4.654 -0.1773  0.8058  1.0930
 5999SOL     OW29632   1.169   3.742   2.908  0.1978  0.5521 -0.6028
 5999SOL    HW129633   1.239   3.683   2.880  0.6204  1.5992 -1.7745
 5999SOL    HW229634   1.172   3.722   3.002  2.1938 -0.6538 -0.9135
 6000SOL     OW29635   4.107   0.537  16.697 -0.3467 -0.3887 -0.3039
 6000SOL    HW129636   4.071   0.510  16.781 -0.3872  0.1305 -0.1522
 6000SOL    HW229637   4.068   0.624  16.683  0.4686  0.0959  0.4146
 6001SOL     OW29638   3.478   1.030   5.895 -0.2369  0.0391  0.3666
 6001SOL    HW129639   3.469   0.956   5.835  0.1175  0.7967 -0.6164
 6001SOL    HW229640   3.439   0.985   5.971  0.0903  0.1201  0.5842
 6002SOL     OW29641   2.691   3.254   0.233  0.2123  0.0446 -0.0729
 6002SOL    HW129642   2.656   3.334   0.193 -1.1110 -0.7486 -0.5248
 6002SOL    HW229643   2.781   3.255   0.201  0.0832  0.7776 -0.4108
 6003SOL     OW29644   4.532   3.552  11.519  0.1773 -0.4873  0.3173
 6003SOL    HW129645   4.523   3.463  11.485 -0.7523 -0.7864  1.3569
 6003SOL    HW229646   4.444   3.586  11.528  0.0743 -0.3834 -1.0841
 6004SOL     OW29647   2.188   2.239   9.296 -0.3678  0.3139 -0.0726
 6004SOL    HW129648   2.102   2.202   9.280 -1.1474  1.4344  1.4744
 6004SOL    HW229649   2.237   2.193   9.228  0.3160 -0.6247  1.0509
 6005SOL     OW29650   0.378   2.285   8.623 -0.3207 -0.3660  0.2346
 6005SOL    HW129651   0.382   2.376   8.653  0.8590 -0.9737  1.8801
 6005SOL    HW229652   0.461   2.278   8.576  0.2526  2.7984  0.7449
 6006SOL     OW29653   4.734   1.596   9.439  0.2757 -0.8824  0.0336
 6006SOL    HW129654   0.078   1.552   9.414 -1.0188 -2.9553 -0.5565
 6006SOL    HW229655   4.673   1.524   9.425  0.5330 -1.3823  1.4263
 6007SOL     OW29656   0.988   1.423   7.917 -0.2065 -0.1300  0.1772
 6007SOL    HW129657   1.013   1.391   7.830 -0.1013 -1.8506  0.8495
 6007SOL    HW229658   0.899   1.390   7.930 -0.6093  0.9212  0.1345
 6008SOL     OW29659   3.210   1.388   5.181  0.0414  0.3615  0.1287
 6008SOL    HW129660   3.137   1.445   5.203  0.5254  0.3306  1.7817
 6008SOL    HW229661   3.222   1.391   5.086 -2.5260  0.1796 -0.1993
 6009SOL     OW29662   1.437   0.372   6.016 -0.7353 -0.0055 -0.0502
 6009SOL    HW129663   1.476   0.440   6.071  2.4963 -1.6695 -0.3088
 6009SOL    HW229664   1.505   0.334   5.960  0.5978 -1.8304  2.8400
 6010SOL     OW29665   2.670   0.856   7.977  0.4177 -0.2965  0.4187
 6010SOL    HW129666   2.666   0.839   8.072 -1.4395 -0.3687  0.3162
 6010SOL    HW229667   2.753   0.904   7.976  0.3586 -0.2223 -0.5430
 6011SOL     OW29668   3.872   1.568  14.051 -0.1990  0.1706  0.1247
 6011SOL    HW129669   3.904   1.656  14.074  1.9048 -0.0513 -1.9036
 6011SOL    HW229670   3.799   1.590  13.994 -0.1115 -3.3350 -1.2986
 6012SOL     OW29671   2.695   2.567   8.128 -0.5325  0.2404  0.2435
 6012SOL    HW129672   2.685   2.472   8.123 -0.1600  0.2815 -1.5183
 6012SOL    HW229673   2.610   2.592   8.163  0.1353 -0.7344  2.5362
 6013SOL     OW29674   1.445   3.147   4.133 -0.6549 -0.4031 -0.1372
 6013SOL    HW129675   1.529   3.163   4.175  0.1803 -2.0771 -1.1497
 6013SOL    HW229676   1.436   3.216   4.067 -1.5886  2.0942  2.6536
 6014SOL     OW29677   3.065   2.029  12.308 -0.4321  0.1439 -0.0671
 6014SOL    HW129678   3.116   1.971  12.365 -0.5427  1.5918  1.4854
 6014SOL    HW229679   3.090   1.981  12.229  0.5188  1.4206 -0.5341
 6015SOL     OW29680   3.147   3.431   0.317  0.2997  0.4605 -0.6395
 6015SOL    HW129681   3.220   3.386   0.274 -0.8913 -0.5464 -1.6052
 6015SOL    HW229682   3.080   3.395   0.259 -0.7090  1.2156  0.0540
 6016SOL     OW29683   2.881   1.860   9.280  0.0847  0.6425  0.1028
 6016SOL    HW129684   2.953   1.808   9.245 -1.4683 -1.0286 -0.5706
 6016SOL    HW229685   2.887   1.843   9.375 -2.0333 -0.1972  0.0817
 6017SOL     OW29686   2.165   1.288   3.223 -0.0539  0.1703 -0.3690
 6017SOL    HW129687   2.244   1.317   3.268 -0.7893  0.2419  0.8704
 6017SOL    HW229688   2.189   1.312   3.133 -0.4369 -1.5498 -0.9232
 6018SOL     OW29689   1.133   3.928   6.400 -0.7223  0.5143  0.0909
 6018SOL    HW129690   1.221   3.911   6.368 -1.2325 -0.1265 -0.9703
 6018SOL    HW229691   1.112   3.851   6.453  0.9725  0.4112  0.6173
 6019SOL     OW29692   0.701   3.716   6.484 -0.4888 -0.4846  0.0246
 6019SOL    HW129693   0.743   3.781   6.540  0.8771  0.5825 -2.2645
 6019SOL    HW229694   0.762   3.710   6.410 -0.7126  1.2218 -0.2885
 6020SOL     OW29695   3.493   4.416   4.122  0.1381 -0.4773 -0.1016
 6020SOL    HW129696   3.420   4.435   4.180  1.0439 -0.3683  0.9973
 6020SOL    HW229697   3.452   4.399   4.037  0.4257  1.0214 -0.5442
 6021SOL     OW29698   0.246   2.199   7.062 -0.3499  0.2814 -0.0294
 6021SOL    HW129699   0.332   2.170   7.091 -0.0843 -1.2853 -2.4168
 6021SOL    HW229700   0.241   2.163   6.974 -0.8686 -1.5385  0.7434
 6022SOL     OW29701   1.146   1.418   4.974 -0.4789 -0.1035 -0.0582
 6022SOL    HW129702   1.174   1.355   5.040 -1.1011 -0.0602  0.2524
 6022SOL    HW229703   1.232   1.441   4.939 -1.2736  0.6873 -1.5071
 6023SOL     OW29704   3.812   0.726   2.980 -0.5437  0.2583 -0.6839
 6023SOL    HW129705   3.784   0.742   3.071 -1.4039 -1.7715 -0.5829
 6023SOL    HW229706   3.871   0.799   2.961  1.3843 -1.1246 -0.0715
 6024SOL     OW29707   0.532   3.681   6.780 -0.5348  0.4929 -0.2773
 6024SOL    HW129708   0.533   3.777   6.776 -1.9090  0.4890 -0.6415
 6024SOL    HW229709   0.439   3.662   6.769 -0.4338  0.0707 -0.3990
 6025SOL     OW29710   2.280   3.094   4.280  0.5389  0.6106 -0.4561
 6025SOL    HW129711   2.248   3.057   4.197 -0.1032  1.0075 -0.3773
 6025SOL    HW229712   2.335   3.168   4.255  0.5046  0.9900  0.6238
 6026SOL     OW29713   2.367   3.415   7.126  0.0818  0.0838  0.4358
 6026SOL    HW129714   2.358   3.332   7.174  1.9962 -1.6763 -2.2027
 6026SOL    HW229715   2.391   3.477   7.194  2.9089  0.5030 -0.9598
 6027SOL     OW29716   0.515   1.577   4.966 -0.2862  0.3134  0.5065
 6027SOL    HW129717   0.591   1.632   4.988 -0.6564  1.4715 -1.1256
 6027SOL    HW229718   0.498   1.602   4.875  0.9060 -0.4023  0.0776
 6028SOL     OW29719   1.933   4.148   4.630 -0.1895  0.4588 -0.3396
 6028SOL    HW129720   1.932   4.069   4.684 -0.1110 -0.1507 -1.2235
 6028SOL    HW229721   1.917   4.114   4.542  1.8471 -0.9458 -0.1764
 6029SOL     OW29722   3.587   3.377   2.790  0.1623  0.2213 -0.2980
 6029SOL    HW129723   3.512   3.436   2.806 -0.4638 -0.7024  0.1721
 6029SOL    HW229724   3.660   3.421   2.834  0.6397  0.5056 -1.3729
 6030SOL     OW29725   1.664   3.018   5.987 -0.4297 -0.3383  0.5083
 6030SOL    HW129726   1.608   2.988   6.058 -0.5899 -1.1215  0.0573
 6030SOL    HW229727   1.666   2.934   5.940 -1.8287 -0.4662  0.6821
 6031SOL     OW29728   3.600   1.880  13.919 -0.2293  0.5093 -0.4083
 6031SOL    HW129729   3.687   1.920  13.929  0.2278 -0.4663 -0.4256
 6031SOL    HW229730   3.594   1.831  14.002 -0.9950 -3.3694 -2.7312
 6032SOL     OW29731   0.821   4.590   5.906  0.1144 -0.0763 -0.0148
 6032SOL    HW129732   0.800   4.669   5.955  1.3545  0.7996 -0.9063
 6032SOL    HW229733   0.751   4.591   5.841 -0.9213 -0.8334  1.0664
 6033SOL     OW29734   3.541   1.327   2.763 -0.2980 -0.5870  0.1692
 6033SOL    HW129735   3.467   1.296   2.710 -0.8529 -0.8721  1.1130
 6033SOL    HW229736   3.597   1.251   2.779  1.2068  0.1546 -1.6498
 6034SOL     OW29737   1.739   3.101  12.828  0.2324 -0.2180 -0.2813
 6034SOL    HW129738   1.828   3.134  12.832  0.0291  0.1461  1.2327
 6034SOL    HW229739   1.684   3.170  12.865 -1.0319 -0.4811 -1.6848
 6035SOL     OW29740   2.409   4.434  13.244  0.2076 -0.1537  0.4146
 6035SOL    HW129741   2.422   4.426  13.338 -0.1323 -0.4179  0.4371
 6035SOL    HW229742   2.466   4.507  13.219 -0.8589  0.0911 -1.3552
 6036SOL     OW29743   3.906   3.547   7.809  0.1921  0.9103  1.1228
 6036SOL    HW129744   3.821   3.591   7.805  0.4217  1.1669 -0.7937
 6036SOL    HW229745   3.959   3.602   7.867  2.4017  0.4095 -0.4157
 6037SOL     OW29746   3.318   2.813   8.461  0.3771 -0.2378 -0.1593
 6037SOL    HW129747   3.308   2.844   8.371 -1.3561 -2.3524 -0.7189
 6037SOL    HW229748   3.395   2.863   8.488 -1.3186  1.9283  0.5660
 6038SOL     OW29749   4.385   3.652  15.857  0.1827  0.0168 -0.7130
 6038SOL    HW129750   4.337   3.727  15.823  0.2165 -0.3280 -1.5013
 6038SOL    HW229751   4.437   3.621  15.784 -0.4404 -0.2527 -1.0427
 6039SOL     OW29752   1.699   1.109  17.469  0.6832 -0.0195  0.1062
 6039SOL    HW129753   1.624   1.054  17.449 -1.0167  1.6794  1.7129
 6039SOL    HW229754   1.770   1.085  17.409  1.4438 -0.2998  1.1134
 6040SOL     OW29755   1.252   2.852   6.451  0.3363  0.7388  0.8064
 6040SOL    HW129756   1.267   2.785   6.518 -1.6436  1.5843  2.0810
 6040SOL    HW229757   1.335   2.899   6.461  0.8664 -0.0452  0.1482
 6041SOL     OW29758   4.169   4.054   8.503  0.3869 -0.4260 -0.1486
 6041SOL    HW129759   4.182   4.101   8.421  2.0441 -0.0738  0.3251
 6041SOL    HW229760   4.098   3.991   8.489 -2.2379  2.1539  1.5095
 6042SOL     OW29761   0.096   4.022   9.474 -0.4320 -0.1296  0.1701
 6042SOL    HW129762   0.165   4.076   9.512  1.2796 -1.0811 -1.5263
 6042SOL    HW229763   0.018   4.072   9.497  0.1252  0.9008 -0.1711
 6043SOL     OW29764   2.769   3.864   4.911  0.6824  0.0040 -0.8195
 6043SOL    HW129765   2.747   3.941   4.964 -0.3876 -0.1823 -1.0041
 6043SOL    HW229766   2.704   3.859   4.841 -0.2754 -1.7906  0.2152
 6044SOL     OW29767   2.625   2.190   7.373 -0.0929  0.3624  0.2808
 6044SOL    HW129768   2.707   2.142   7.379 -0.4668 -0.3636 -0.5373
 6044SOL    HW229769   2.651   2.269   7.420 -1.5523  0.4711  0.9258
 6045SOL     OW29770   0.978   3.637  17.483 -0.1651 -0.2653 -0.4679
 6045SOL    HW129771   1.016   3.564  17.532 -1.2135  0.8201  1.9897
 6045SOL    HW229772   0.987   3.699  17.555  1.4601  1.1079 -1.8898
 6046SOL     OW29773   1.458   2.561   6.840 -0.6425  0.0855  0.0538
 6046SOL    HW129774   1.519   2.596   6.904 -1.8408 -0.2971  1.3898
 6046SOL    HW229775   1.426   2.484   6.887  0.8132 -1.0350 -0.7984
 6047SOL     OW29776   1.449   3.397   7.852  0.1447  0.0784 -0.0207
 6047SOL    HW129777   1.399   3.333   7.802 -2.0503  0.7205  1.3700
 6047SOL    HW229778   1.495   3.440   7.780  1.1718 -2.1675 -0.7085
 6048SOL     OW29779   3.848   0.881  14.835  0.3344 -0.2010 -0.4476
 6048SOL    HW129780   3.786   0.919  14.898 -0.2937 -1.0428 -0.5557
 6048SOL    HW229781   3.799   0.803  14.809 -0.1428 -1.2498  3.4623
 6049SOL     OW29782   1.012   0.274  10.038 -0.0035  0.3446  0.0990
 6049SOL    HW129783   1.052   0.192  10.009  1.3599  1.0638 -0.0523
 6049SOL    HW229784   0.922   0.247  10.058  0.2182 -0.5163 -0.0540
 6050SOL     OW29785   1.545   2.783   4.964 -0.1543 -0.4514 -0.3523
 6050SOL    HW129786   1.485   2.840   5.012 -1.0353 -2.9061  1.3866
 6050SOL    HW229787   1.517   2.810   4.876 -1.6906  0.3371  0.3943
 6051SOL     OW29788   1.475   0.256   1.081  0.2165 -0.5553 -0.3184
 6051SOL    HW129789   1.445   0.166   1.093 -0.3743 -0.3768 -0.4823
 6051SOL    HW229790   1.542   0.237   1.015  1.2388  2.8986 -0.2823
 6052SOL     OW29791   1.619   0.686   9.364 -0.6627  0.1457  0.1275
 6052SOL    HW129792   1.568   0.752   9.317 -2.2344 -0.9893  0.2762
 6052SOL    HW229793   1.567   0.650   9.436 -2.4220 -0.3184 -1.3743
 6053SOL     OW29794   1.488   2.354   9.147 -0.2165 -0.1282  0.6546
 6053SOL    HW129795   1.517   2.348   9.238 -1.2976  0.8500  1.0648
 6053SOL    HW229796   1.394   2.363   9.162  0.0281  4.4010 -0.6495
 6054SOL     OW29797   1.419   2.497   7.322 -0.1140  0.2003 -1.0555
 6054SOL    HW129798   1.399   2.516   7.413  1.4479 -0.8931 -0.4917
 6054SOL    HW229799   1.484   2.426   7.319  0.8898  1.0955 -0.6443
 6055SOL     OW29800   2.868   0.499   9.330  0.3316  0.5926  0.2104
 6055SOL    HW129801   2.827   0.570   9.381  0.7262  0.6967  0.3813
 6055SOL    HW229802   2.791   0.480   9.277  0.7855 -1.2630  0.2431
 6056SOL     OW29803   0.350   0.274   9.903 -0.4456 -0.3043 -0.2655
 6056SOL    HW129804   0.358   0.340   9.972 -0.2754 -0.0746 -0.5063
 6056SOL    HW229805   0.293   0.209   9.945 -1.1673  1.4739  1.4996
 6057SOL     OW29806   0.115   1.740  11.609  0.0981  0.5510 -0.6870
 6057SOL    HW129807   0.046   1.693  11.561  0.1110  0.7051 -0.8574
 6057SOL    HW229808   0.120   1.828  11.570 -3.1765  1.6684  1.4680
 6058SOL     OW29809   2.148   2.054   6.218 -0.3944 -0.8102 -0.8378
 6058SOL    HW129810   2.086   1.983   6.200  1.5075 -2.1046 -2.2459
 6058SOL    HW229811   2.201   2.044   6.139  0.0249  0.1968 -0.6783
 6059SOL     OW29812   1.476   0.291   8.037  0.0770 -0.1332  0.2871
 6059SOL    HW129813   1.485   0.203   8.001 -0.8743 -0.5020  0.9449
 6059SOL    HW229814   1.415   0.276   8.109 -0.2363  3.1192  0.6817
 6060SOL     OW29815   3.611   4.341  17.056  0.2464  0.3244  0.1873
 6060SOL    HW129816   3.608   4.248  17.034  0.9709 -0.0113  1.5103
 6060SOL    HW229817   3.608   4.342  17.152 -1.3246  2.0001  0.1323
 6061SOL     OW29818   4.683   4.707   2.247  0.0315 -0.2369  0.0062
 6061SOL    HW129819   4.675   0.064   2.231 -2.7245 -0.2268  1.4280
 6061SOL    HW229820   4.713   4.691   2.337 -1.0399  0.6573  0.5188
 6062SOL     OW29821   1.553   2.330   4.538 -0.4685  0.4447 -0.4246
 6062SOL    HW129822   1.553   2.425   4.551  0.1208  0.2811  0.8161
 6062SOL    HW229823   1.529   2.291   4.622  1.0850  0.2438 -0.0658
 6063SOL     OW29824   2.337   2.486  11.830 -0.3128  0.6705 -0.5740
 6063SOL    HW129825   2.242   2.470  11.835 -0.5134  2.7405  2.1144
 6063SOL    HW229826   2.371   2.398  11.813 -3.9072 -0.8997  0.2482
 6064SOL     OW29827   3.040   2.305   9.917  0.1351  0.0530  0.0340
 6064SOL    HW129828   3.076   2.240   9.977  1.3660  1.8279  1.2176
 6064SOL    HW229829   2.984   2.358   9.974  1.8548 -0.1804  1.9339
 6065SOL     OW29830   0.714   2.286  17.134 -0.5503  0.2537 -0.3330
 6065SOL    HW129831   0.663   2.218  17.090  1.0131 -1.6613  0.7944
 6065SOL    HW229832   0.706   2.264  17.226 -2.5322 -0.6662 -0.7220
 6066SOL     OW29833   1.152   2.238  17.337  0.0147 -0.4384 -0.1796
 6066SOL    HW129834   1.223   2.175  17.335  0.4841  0.0245  2.4645
 6066SOL    HW229835   1.195   2.317  17.370  1.9892 -0.6251 -2.3452
 6067SOL     OW29836   3.651   2.719   4.623  0.3485  0.1769 -0.1404
 6067SOL    HW129837   3.646   2.796   4.567 -0.8094 -1.4775 -2.3271
 6067SOL    HW229838   3.579   2.740   4.684  0.6704  0.7502  0.0449
 6068SOL     OW29839   4.141   1.697   8.622 -0.2989  0.1662  0.1695
 6068SOL    HW129840   4.075   1.629   8.615 -0.4300  0.5936 -2.9954
 6068SOL    HW229841   4.120   1.721   8.712  0.8810  1.2527  0.1670
 6069SOL     OW29842   3.934   2.728   4.728  0.4057  0.1841  0.2637
 6069SOL    HW129843   3.923   2.774   4.646  1.4232  0.1266  0.0897
 6069SOL    HW229844   3.851   2.681   4.739  0.0545  0.5681 -0.7954
 6070SOL     OW29845   4.374   0.085   7.929 -0.6271 -0.1889 -0.7682
 6070SOL    HW129846   4.292   0.105   7.974 -0.5046  0.3954 -0.8051
 6070SOL    HW229847   4.434   0.091   8.003 -0.7111 -0.9242 -0.6391
 6071SOL     OW29848   0.334   2.479   8.162 -0.5053 -0.2707 -0.1762
 6071SOL    HW129849   0.308   2.452   8.074 -0.6647 -0.0089 -0.2092
 6071SOL    HW229850   0.406   2.536   8.136  1.0733 -2.1927  0.0207
 6072SOL     OW29851   4.139   0.190  13.997  0.1979  0.1598  0.2192
 6072SOL    HW129852   4.178   0.103  14.011  2.6582  1.1475 -0.5566
 6072SOL    HW229853   4.221   0.237  13.986  0.2361 -0.3760 -1.7444
 6073SOL     OW29854   2.187   1.970   7.421  0.3857  0.0780  0.1986
 6073SOL    HW129855   2.236   2.047   7.392 -0.6022  0.0591 -1.5299
 6073SOL    HW229856   2.151   1.996   7.505 -1.6022 -1.4744 -0.1859
 6074SOL     OW29857   0.195   1.897   8.951 -0.3138  0.3132  0.2328
 6074SOL    HW129858   0.218   1.805   8.967 -0.7999  0.1453 -0.0113
 6074SOL    HW229859   0.205   1.919   8.858 -0.9027 -0.3863 -0.0071
 6075SOL     OW29860   1.040   4.218  12.540 -0.6836 -0.1363 -0.0252
 6075SOL    HW129861   0.960   4.165  12.542  1.0494 -2.7070  1.3447
 6075SOL    HW229862   1.014   4.298  12.584 -0.8371  1.0089 -2.2195
 6076SOL     OW29863   1.001   4.645   8.015  0.3752 -0.3046 -0.1229
 6076SOL    HW129864   1.016   0.002   8.022  0.4861 -0.2600 -0.9239
 6076SOL    HW229865   0.974   4.645   7.923 -0.2842  1.8357  0.0747
 6077SOL     OW29866   2.297   3.057   6.540 -0.8751 -0.3710  0.2972
 6077SOL    HW129867   2.239   3.012   6.479 -0.2037 -3.5369  2.0232
 6077SOL    HW229868   2.321   2.981   6.593  1.0184  1.8894  2.6529
 6078SOL     OW29869   2.882   4.091   7.474 -0.4365 -0.3815  0.1051
 6078SOL    HW129870   2.844   4.158   7.531  1.5707  0.5723  0.3332
 6078SOL    HW229871   2.826   4.015   7.489 -0.7143 -0.8213 -3.0581
 6079SOL     OW29872   4.477   3.293  14.990  0.2725  0.4990  0.1153
 6079SOL    HW129873   4.530   3.365  15.023  0.7573  1.2433 -2.2600
 6079SOL    HW229874   4.504   3.268  14.901 -1.7646 -1.9863  0.1849
 6080SOL     OW29875   0.796   3.630  11.937 -0.1446 -0.2379  0.0425
 6080SOL    HW129876   0.858   3.659  12.004 -1.1975 -0.5980  1.1714
 6080SOL    HW229877   0.752   3.555  11.977  2.6273 -1.3433  1.0603
 6081SOL     OW29878   0.972   3.460   2.009 -0.1030 -0.3984 -0.4125
 6081SOL    HW129879   0.944   3.552   2.007  2.3281  0.3422 -0.4954
 6081SOL    HW229880   0.909   3.426   1.945 -0.6252  1.9411 -1.1482
 6082SOL     OW29881   2.698   2.694  15.582 -0.4884 -0.1169 -0.2014
 6082SOL    HW129882   2.724   2.784  15.602 -1.4202  0.2030 -0.4291
 6082SOL    HW229883   2.618   2.716  15.533 -0.8482  1.0699  0.9197
 6083SOL     OW29884   3.380   2.321   9.016 -0.6797 -0.4088  0.0330
 6083SOL    HW129885   3.436   2.387   8.975 -1.9202  0.3859 -0.3597
 6083SOL    HW229886   3.413   2.339   9.104  2.5517  0.7079 -1.3982
 6084SOL     OW29887   2.110   2.703   5.500 -0.4210 -0.5134 -0.0757
 6084SOL    HW129888   2.160   2.720   5.580 -1.5797  0.3228  0.4580
 6084SOL    HW229889   2.137   2.615   5.473  0.5465 -0.3756  0.4435
 6085SOL     OW29890   2.510   4.437  15.428  0.0659  0.0239  0.1689
 6085SOL    HW129891   2.605   4.451  15.424 -0.0110  0.3845 -0.3434
 6085SOL    HW229892   2.515   4.342  15.440  0.1543  0.0660  0.4699
 6086SOL     OW29893   4.331   1.513  13.877  0.0864  0.2094 -0.3055
 6086SOL    HW129894   4.395   1.466  13.930 -2.2857 -0.4017  1.9622
 6086SOL    HW229895   4.258   1.504  13.938  0.4670 -0.6788  0.0155
 6087SOL     OW29896   0.923   1.893   6.556  0.8117  0.1860  0.9148
 6087SOL    HW129897   0.909   1.981   6.591  2.0005  1.2150 -1.1988
 6087SOL    HW229898   1.016   1.885   6.576  0.9210  2.7786  1.4952
 6088SOL     OW29899   3.162   3.724   7.761 -0.3453 -0.1701  0.5565
 6088SOL    HW129900   3.102   3.651   7.778 -0.9004  0.1226 -0.1132
 6088SOL    HW229901   3.126   3.752   7.677  0.4558  0.1373  0.3233
 6089SOL     OW29902   3.923   0.956   0.900  0.4004 -0.1835 -0.4293
 6089SOL    HW129903   3.869   0.942   0.822  0.7523 -0.4968 -0.6215
 6089SOL    HW229904   3.876   1.017   0.956  0.4804 -1.0661  0.6023
 6090SOL     OW29905   1.752   2.396   0.981 -0.1693  0.1195 -0.7255
 6090SOL    HW129906   1.733   2.489   0.969 -1.1394 -0.3266 -2.7110
 6090SOL    HW229907   1.843   2.403   1.011  0.0311  0.4807 -1.4103
 6091SOL     OW29908   2.214   4.421   8.537  0.3778  0.0186 -0.5451
 6091SOL    HW129909   2.247   4.461   8.617 -0.4808 -2.4652  1.0315
 6091SOL    HW229910   2.293   4.435   8.485  0.5411 -0.6076 -0.4715
 6092SOL     OW29911   0.551   0.044   6.661  0.0374 -0.4936 -0.1293
 6092SOL    HW129912   0.543   0.085   6.574 -0.3675 -3.0629 -1.3038
 6092SOL    HW229913   0.566   4.690   6.636 -2.5640 -0.8258 -0.4711
 6093SOL     OW29914   2.911   2.526  13.937  0.5626 -0.2095  0.2407
 6093SOL    HW129915   2.832   2.524  13.990  0.7677 -0.8826  0.5221
 6093SOL    HW229916   2.916   2.616  13.906  1.6484 -0.4705 -0.3452
 6094SOL     OW29917   1.210   3.507   4.377  0.6723  0.4249  0.2838
 6094SOL    HW129918   1.208   3.555   4.295  3.0863 -1.2693 -0.7769
 6094SOL    HW229919   1.206   3.415   4.348 -1.5817  0.6940 -0.2494
 6095SOL     OW29920   1.627   2.325   1.679 -0.5090 -0.0125 -0.0699
 6095SOL    HW129921   1.694   2.393   1.667 -2.2591  2.0804  2.1260
 6095SOL    HW229922   1.587   2.323   1.592  0.2268 -1.1006 -0.3812
 6096SOL     OW29923   1.258   1.797   8.071  0.0648 -0.1354 -0.3965
 6096SOL    HW129924   1.328   1.735   8.090 -1.1272 -1.8623 -1.7502
 6096SOL    HW229925   1.194   1.762   8.132 -0.4090  0.9223 -0.2796
 6097SOL     OW29926   1.254   3.745   2.186  0.2832  0.6147 -0.8668
 6097SOL    HW129927   1.162   3.724   2.171 -0.3870  0.1845  3.7135
 6097SOL    HW229928   1.288   3.740   2.097 -0.5266 -1.2657 -1.0707
 6098SOL     OW29929   2.107   0.762   5.260  0.5171  0.1688  0.0590
 6098SOL    HW129930   2.048   0.789   5.191 -0.1551  0.6895  0.8463
 6098SOL    HW229931   2.189   0.788   5.218 -0.9210  0.7461 -2.3783
 6099SOL     OW29932   4.234   3.011  15.308  0.2783  0.3619 -0.3559
 6099SOL    HW129933   4.306   3.073  15.321 -0.4270  0.9426  0.7526
 6099SOL    HW229934   4.271   2.960  15.236  0.0165 -2.8694  1.8333
 6100SOL     OW29935   3.165   3.925   4.288  0.0172  0.3038 -1.1776
 6100SOL    HW129936   3.227   3.854   4.304  1.4082  1.8502  0.3173
 6100SOL    HW229937   3.173   3.947   4.195  1.0009 -1.3308 -1.4727
 6101SOL     OW29938   0.100   2.757   3.589 -0.2733 -0.0991 -0.3113
 6101SOL    HW129939   0.136   2.751   3.500  0.2606  1.1240 -0.1656
 6101SOL    HW229940   0.137   2.687   3.643 -1.2916 -1.0736 -0.8798
 6102SOL     OW29941   4.237   0.227  13.073  0.2291  0.1433  0.0579
 6102SOL    HW129942   4.193   0.291  13.130 -0.7888 -0.4582 -0.0531
 6102SOL    HW229943   4.296   0.185  13.136 -0.0513 -0.4839 -0.1049
 6103SOL     OW29944   1.758   0.474   2.895  0.2924 -0.8709  0.4634
 6103SOL    HW129945   1.772   0.434   2.981  1.3335 -1.2138  0.1430
 6103SOL    HW229946   1.753   0.568   2.915 -0.2866 -1.0469  1.1301
 6104SOL     OW29947   2.447   4.408   9.039 -0.2049 -0.2696  0.2737
 6104SOL    HW129948   2.405   4.473   9.095  0.4362  0.5576 -0.2006
 6104SOL    HW229949   2.390   4.336   9.064 -1.3832  0.0845 -1.3588
 6105SOL     OW29950   2.457   1.986   3.087  0.0576 -0.4760  0.0937
 6105SOL    HW129951   2.434   1.959   2.998  3.4560 -0.3812 -0.8179
 6105SOL    HW229952   2.538   2.035   3.070  0.4535 -1.0108  0.4381
 6106SOL     OW29953   3.787   3.682   1.985 -0.3602 -0.2760  0.2429
 6106SOL    HW129954   3.798   3.610   1.923  1.3429 -0.8483  1.2181
 6106SOL    HW229955   3.813   3.642   2.068 -0.7793 -0.6759  0.1788
 6107SOL     OW29956   3.221   3.404  15.984  0.3551 -0.4947 -0.1274
 6107SOL    HW129957   3.154   3.444  15.929  1.1166 -1.4908 -1.7810
 6107SOL    HW229958   3.248   3.488  16.021  1.8097 -0.7361 -0.6649
 6108SOL     OW29959   1.244   3.187   5.861  0.4988 -0.4305  0.2417
 6108SOL    HW129960   1.210   3.273   5.886 -1.1212 -0.5917 -1.3914
 6108SOL    HW229961   1.283   3.164   5.946 -0.3058 -0.4062  0.6186
 6109SOL     OW29962   0.399   3.736  12.089 -0.5555  1.0802 -0.7594
 6109SOL    HW129963   0.339   3.810  12.081  0.2801  1.7214 -1.1453
 6109SOL    HW229964   0.370   3.696  12.171  2.7527 -1.1253 -0.6538
 6110SOL     OW29965   3.704   1.437   4.065  0.3065  0.3961  0.0262
 6110SOL    HW129966   3.625   1.383   4.058  0.8067 -0.1695 -1.2508
 6110SOL    HW229967   3.708   1.428   4.160  0.3267  0.8633  0.0717
 6111SOL     OW29968   3.526   4.433   5.928 -0.4216 -0.7744  0.0478
 6111SOL    HW129969   3.452   4.374   5.912 -1.0570 -0.3656  1.4894
 6111SOL    HW229970   3.496   4.519   5.898  0.0902 -1.4809 -2.5249
 6112SOL     OW29971   3.773   0.939  16.370  0.3182  0.1129  0.1359
 6112SOL    HW129972   3.843   0.919  16.308  1.2472  0.9794  0.9051
 6112SOL    HW229973   3.766   0.858  16.421  0.0739 -0.3073 -0.5672
 6113SOL     OW29974   3.297   2.893  13.811 -0.1549  0.2218  0.5092
 6113SOL    HW129975   3.329   2.831  13.877  1.2576 -0.1239 -0.4980
 6113SOL    HW229976   3.332   2.846  13.735 -0.1593  1.4095 -0.2267
 6114SOL     OW29977   3.161   4.460   9.453  0.0910  0.3727 -0.1285
 6114SOL    HW129978   3.075   4.497   9.432 -0.7193 -0.2827  1.9994
 6114SOL    HW229979   3.193   4.453   9.364  1.7829 -1.8514  0.6564
 6115SOL     OW29980   4.466   0.800  12.888  0.5351  0.0311  0.5406
 6115SOL    HW129981   4.516   0.728  12.848  0.0495 -0.1959  0.3319
 6115SOL    HW229982   4.531   0.826  12.953  1.6647 -0.3035 -0.4454
 6116SOL     OW29983   2.752   3.037   6.733 -0.1459  0.0541 -0.0779
 6116SOL    HW129984   2.834   2.992   6.752  0.0865  0.3265 -0.4106
 6116SOL    HW229985   2.720   2.977   6.666  0.1208 -0.0343 -0.1264
 6117SOL     OW29986   3.264   0.280   4.517  0.2079  0.2733 -0.3030
 6117SOL    HW129987   3.193   0.301   4.577 -0.4355 -0.7141 -0.7210
 6117SOL    HW229988   3.248   0.187   4.528  2.0072  0.3562  2.9809
 6118SOL     OW29989   4.253   0.073   4.188  0.3661  0.6447  0.2318
 6118SOL    HW129990   4.313   4.735   4.190 -0.1170  0.2312 -0.5608
 6118SOL    HW229991   4.233   0.095   4.279  1.5770 -0.9918  0.9007
 6119SOL     OW29992   1.690   0.652   2.083  0.5025  0.1112 -0.0464
 6119SOL    HW129993   1.665   0.657   1.991 -1.2335 -1.2974  0.3249
 6119SOL    HW229994   1.782   0.676   2.080  0.7839 -1.0573 -0.5368
 6120SOL     OW29995   1.679   2.924  13.252 -0.0945 -0.1610 -0.5995
 6120SOL    HW129996   1.721   2.897  13.171  0.7224 -1.2179  0.1731
 6120SOL    HW229997   1.738   2.942  13.325  1.4287 -1.5776 -1.4736
 6121SOL     OW29998   1.480   0.713  11.938 -0.1081  0.0907 -1.0950
 6121SOL    HW129999   1.435   0.718  12.022  1.4299  0.6685 -0.3037
 6121SOL    HW230000   1.530   0.632  11.943 -0.8431 -0.3985 -1.7473
 6122SOL     OW30001   0.898   0.543  10.080  1.0231 -0.0329 -0.7944
 6122SOL    HW130002   0.954   0.469  10.056  0.2409 -0.9582  0.2373
 6122SOL    HW230003   0.957   0.596  10.134  0.9711  0.5064 -1.2581
 6123SOL     OW30004   2.160   0.176   7.996 -0.3761 -0.2860  0.1259
 6123SOL    HW130005   2.190   0.147   7.910 -1.3874  1.2634 -0.7689
 6123SOL    HW230006   2.179   0.270   8.001  2.0369 -0.6823 -2.0786
 6124SOL     OW30007   2.620   1.366  12.012  0.7297  0.0602  0.0346
 6124SOL    HW130008   2.711   1.360  12.043 -0.1446  0.6019  2.6879
 6124SOL    HW230009   2.580   1.411  12.086  1.8601 -1.1861  1.4133
 6125SOL     OW30010   0.278   0.242   8.397 -0.3118 -0.2593 -0.2077
 6125SOL    HW130011   0.263   0.269   8.306 -0.4000  3.7098  0.9777
 6125SOL    HW230012   0.289   0.148   8.381 -1.3620 -0.6816  1.5278
 6126SOL     OW30013   4.721   2.843   2.127 -0.2082 -0.3250 -0.2855
 6126SOL    HW130014   0.065   2.881   2.091 -0.2838 -0.4977 -0.6310
 6126SOL    HW230015   4.677   2.923   2.157  1.0234  0.4083 -0.4213
 6127SOL     OW30016   2.352   1.757   1.722 -0.3277  0.3222 -0.8154
 6127SOL    HW130017   2.297   1.793   1.792 -0.2082  0.5826 -0.8582
 6127SOL    HW230018   2.426   1.721   1.770  0.1075 -0.6367 -2.2081
 6128SOL     OW30019   2.334   0.182   3.596 -0.1887  0.1088 -0.0000
 6128SOL    HW130020   2.360   0.225   3.678  0.7238 -1.0448  0.3032
 6128SOL    HW230021   2.358   0.093   3.622 -0.9537 -0.0035  0.2977
 6129SOL     OW30022   4.722   3.880   4.062 -0.0970 -0.0058 -0.1047
 6129SOL    HW130023   0.076   3.868   4.035  1.0031 -0.7290  3.9624
 6129SOL    HW230024   4.736   3.925   4.145 -0.0150 -0.1058 -0.0642
 6130SOL     OW30025   3.832   0.848   9.517  0.5576  0.3372  0.0277
 6130SOL    HW130026   3.854   0.788   9.445  0.2159  1.2672 -0.8468
 6130SOL    HW230027   3.914   0.845   9.567  0.1102  1.4976  0.8333
 6131SOL     OW30028   3.582   0.105  16.900 -0.6308 -0.1366 -0.1246
 6131SOL    HW130029   3.505   0.085  16.847  0.3133 -0.4641 -1.3664
 6131SOL    HW230030   3.588   0.198  16.879  1.1308 -0.0925  0.5460
 6132SOL     OW30031   1.970   4.019   0.132 -0.0945 -1.0339  0.0371
 6132SOL    HW130032   2.034   4.085   0.159 -1.0126 -0.5003  0.9437
 6132SOL    HW230033   2.016   3.972   0.063  1.9092  0.1626  0.5709
 6133SOL     OW30034   3.556   2.306   2.660  0.2842 -0.0737 -0.8873
 6133SOL    HW130035   3.501   2.269   2.729  2.2686 -1.2978  0.0088
 6133SOL    HW230036   3.620   2.237   2.646  0.2920 -0.1224 -0.6129
 6134SOL     OW30037   3.351   2.455  14.287  0.0966  0.1558 -0.1909
 6134SOL    HW130038   3.397   2.539  14.292  0.2787 -0.1183  3.3294
 6134SOL    HW230039   3.261   2.481  14.307 -0.3056 -2.0842  1.0100
 6135SOL     OW30040   3.199   1.786   4.554  0.0001 -0.1720  0.6486
 6135SOL    HW130041   3.190   1.729   4.478  1.0753  0.7303 -0.1634
 6135SOL    HW230042   3.162   1.743   4.632  0.2107 -1.3994  0.0628
 6136SOL     OW30043   0.471   2.885   8.967  0.0572  0.9976  0.0239
 6136SOL    HW130044   0.458   2.979   8.953 -0.0820  0.8971 -0.5313
 6136SOL    HW230045   0.550   2.876   8.914  1.0862  0.5285  1.6402
 6137SOL     OW30046   4.273   1.894   0.177  0.4532 -0.4560  0.3838
 6137SOL    HW130047   4.341   1.947   0.136  1.4688 -2.0189  0.0640
 6137SOL    HW230048   4.247   1.839   0.103 -1.1720  0.5776  0.1861
 6138SOL     OW30049   1.972   1.783  16.993  0.4688  0.3821  1.0516
 6138SOL    HW130050   1.963   1.760  16.900 -1.0331  0.0200  1.2887
 6138SOL    HW230051   2.045   1.722  17.002  1.2569  1.2473  0.5118
 6139SOL     OW30052   1.334   1.663   5.633 -0.4976 -0.5086  0.5369
 6139SOL    HW130053   1.241   1.681   5.645 -0.5688  0.7357 -1.7765
 6139SOL    HW230054   1.368   1.724   5.698 -0.1413 -1.4189  1.1895
 6140SOL     OW30055   1.678   2.603   1.910 -0.1512 -0.1359 -0.3840
 6140SOL    HW130056   1.738   2.629   1.841 -0.5830 -0.1960 -0.7876
 6140SOL    HW230057   1.697   2.644   1.994  2.2801 -1.3714 -0.3323
 6141SOL     OW30058   0.750   1.454   2.070  0.2740  0.0198  0.1348
 6141SOL    HW130059   0.714   1.372   2.034 -0.0447  0.4236 -0.4760
 6141SOL    HW230060   0.795   1.493   1.994  1.3679  0.6358  1.1020
 6142SOL     OW30061   4.201   2.835   5.157  0.0469 -0.1742  0.0711
 6142SOL    HW130062   4.268   2.781   5.115  1.9027  0.7384  1.8424
 6142SOL    HW230063   4.126   2.843   5.098 -1.5927  0.8063  2.2911
 6143SOL     OW30064   3.488   2.751   6.093  0.1594  0.4685 -0.2366
 6143SOL    HW130065   3.431   2.827   6.087  1.0386  1.4128  3.3455
 6143SOL    HW230066   3.560   2.772   6.034  0.0426  1.2731 -0.0814
 6144SOL     OW30067   1.329   1.327   8.440 -0.2144  0.3230 -0.6789
 6144SOL    HW130068   1.369   1.398   8.490  2.8435 -0.5979 -1.8302
 6144SOL    HW230069   1.368   1.344   8.355  1.1159  0.4405 -0.0458
 6145SOL     OW30070   0.975   3.102  11.604  0.1015  0.6271  0.0967
 6145SOL    HW130071   1.048   3.127  11.660  1.4739 -2.2377 -0.4178
 6145SOL    HW230072   0.930   3.185  11.591  1.2396  1.4543  1.4777
 6146SOL     OW30073   0.096   2.843  13.049 -0.4981  0.3968 -0.0710
 6146SOL    HW130074   0.077   2.750  13.052  0.1554  0.3229  1.8199
 6146SOL    HW230075   0.013   2.870  13.010 -0.5784 -0.7177 -0.6730
 6147SOL     OW30076   3.722   2.111   2.575 -0.0674  0.2606 -0.0977
 6147SOL    HW130077   3.728   2.025   2.534 -0.5290 -0.6186  1.6654
 6147SOL    HW230078   3.778   2.169   2.523 -3.0080  2.3785 -0.9092
 6148SOL     OW30079   0.415   2.008   4.577 -0.1469 -0.0874 -0.2729
 6148SOL    HW130080   0.489   1.947   4.574 -0.5268 -0.6444  1.5857
 6148SOL    HW230081   0.458   2.072   4.521 -0.3255 -0.5562 -0.9367
 6149SOL     OW30082   3.455   0.028  17.146  0.5198 -0.1132  0.1340
 6149SOL    HW130083   3.482   0.029  17.054 -0.8879 -0.5199 -0.2854
 6149SOL    HW230084   3.452   0.123  17.156  1.3312  0.1628 -2.0874
 6150SOL     OW30085   0.329   1.716   6.450  0.1909  0.4280  0.7016
 6150SOL    HW130086   0.332   1.723   6.355  2.4267  0.8090  0.8056
 6150SOL    HW230087   0.315   1.622   6.465  0.4923  0.3231  0.3126
 6151SOL     OW30088   4.294   3.852   2.616 -0.1907 -0.0987 -0.1680
 6151SOL    HW130089   4.295   3.911   2.540  0.2318  0.0844 -0.0227
 6151SOL    HW230090   4.246   3.897   2.685  0.6340  1.3769 -0.5486
 6152SOL     OW30091   4.399   0.015   8.728 -0.0522 -0.4519 -0.1789
 6152SOL    HW130092   4.399   0.030   8.823 -1.4312 -1.2467 -0.0507
 6152SOL    HW230093   4.411   4.658   8.718  1.2932 -0.3907  0.9451
 6153SOL     OW30094   3.321   4.255   3.182 -0.0313 -0.2576  0.4191
 6153SOL    HW130095   3.260   4.194   3.224  0.5416 -0.0639  1.5295
 6153SOL    HW230096   3.339   4.314   3.255  2.5672 -0.1966 -0.2774
 6154SOL     OW30097   1.147   4.267   6.592  0.2655  0.4165  0.4713
 6154SOL    HW130098   1.137   4.356   6.558  1.6385 -0.6211 -2.6352
 6154SOL    HW230099   1.083   4.216   6.543  1.8888 -1.0660 -0.0986
 6155SOL     OW30100   3.255   0.832   2.246 -0.5601 -0.1546 -0.5816
 6155SOL    HW130101   3.329   0.891   2.261 -1.3058  0.3023  1.3288
 6155SOL    HW230102   3.228   0.815   2.336  0.3031 -2.8174 -0.8217
 6156SOL     OW30103   2.751   0.779   0.352 -0.5641  0.3717  0.7360
 6156SOL    HW130104   2.791   0.703   0.310 -0.0454  1.7422 -1.2705
 6156SOL    HW230105   2.680   0.731   0.395  1.4945 -2.2879  1.1896
 6157SOL     OW30106   3.312   2.000   7.735  0.2931 -0.1257  0.4435
 6157SOL    HW130107   3.340   2.069   7.675  1.8702 -3.3023 -2.4489
 6157SOL    HW230108   3.393   1.959   7.764 -0.7163 -3.0198 -0.8123
 6158SOL     OW30109   3.854   2.538  17.051  0.1899 -0.2423 -0.1392
 6158SOL    HW130110   3.940   2.507  17.081 -0.0385  1.4383  2.2427
 6158SOL    HW230111   3.882   2.546  16.960 -0.5588 -0.1562 -0.3604
 6159SOL     OW30112   0.625   4.331   6.201 -0.4427  0.1170  0.1057
 6159SOL    HW130113   0.645   4.238   6.211  0.6018  0.6573  2.9747
 6159SOL    HW230114   0.530   4.336   6.193 -0.6198 -2.1313  0.6952
 6160SOL     OW30115   0.525   1.931   6.174  0.1270 -0.2929 -0.0347
 6160SOL    HW130116   0.496   1.976   6.254 -1.9439 -0.3447 -0.7661
 6160SOL    HW230117   0.616   1.959   6.170  0.9420 -2.8189  0.6956
 6161SOL     OW30118   0.348   3.747  11.646 -0.3282  0.2027  0.0214
 6161SOL    HW130119   0.370   3.667  11.599  1.6925  1.1864 -0.7147
 6161SOL    HW230120   0.404   3.737  11.724 -2.2361 -0.6841  1.2867
 6162SOL     OW30121   3.234   0.705   5.310 -0.4964  0.2844  0.1461
 6162SOL    HW130122   3.138   0.701   5.306 -0.4312 -1.3916 -0.0288
 6162SOL    HW230123   3.251   0.626   5.258  0.0603 -0.4862  1.4871
 6163SOL     OW30124   4.468   2.967   4.438  0.0958  0.0206  0.1223
 6163SOL    HW130125   4.559   2.940   4.437  0.0291 -0.2386  1.0737
 6163SOL    HW230126   4.437   2.907   4.506  2.3519  0.5701  1.6481
 6164SOL     OW30127   1.319   4.330  10.193 -0.2503 -0.2719 -0.2099
 6164SOL    HW130128   1.402   4.369  10.222 -0.4572  0.2206 -0.2753
 6164SOL    HW230129   1.357   4.256  10.145  4.7935  1.8170  0.6199
 6165SOL     OW30130   0.130   0.052  15.422  0.1648 -0.0302  0.1108
 6165SOL    HW130131   0.068   0.091  15.359 -0.1607 -1.8671 -0.7215
 6165SOL    HW230132   0.140   0.101  15.503 -2.7755  0.3603  0.2319
 6166SOL     OW30133   0.737   2.779   0.133  0.0062  0.1079  0.0660
 6166SOL    HW130134   0.705   2.776   0.223 -0.9960  1.8405 -0.2286
 6166SOL    HW230135   0.660   2.774   0.076  0.8715 -0.9023 -1.0213
 6167SOL     OW30136   0.638   3.614   7.800 -0.4296 -0.5875  0.3340
 6167SOL    HW130137   0.684   3.677   7.857 -1.1910  0.6287 -0.4105
 6167SOL    HW230138   0.586   3.691   7.780 -1.1606 -1.6516 -1.8431
 6168SOL     OW30139   0.425   1.320   2.575  0.1587 -0.2008 -0.4048
 6168SOL    HW130140   0.426   1.363   2.489 -2.4665  3.4293  1.3612
 6168SOL    HW230141   0.356   1.255   2.564 -0.4700  0.5924 -1.1537
 6169SOL     OW30142   1.228   0.106   6.365 -0.3431 -0.5733  0.0098
 6169SOL    HW130143   1.135   0.101   6.344 -0.4167 -0.3237  0.2893
 6169SOL    HW230144   1.273   0.023   6.346 -1.2729 -1.1234  0.1835
 6170SOL     OW30145   2.612   0.413  14.322 -0.0486 -0.3268 -0.0119
 6170SOL    HW130146   2.597   0.357  14.245 -0.1325 -1.0634  0.5445
 6170SOL    HW230147   2.530   0.458  14.340  0.3675 -0.2183  1.6053
 6171SOL     OW30148   4.193   2.577   3.192  0.1722  0.7026  0.0900
 6171SOL    HW130149   4.245   2.552   3.115 -0.6579 -1.3283  0.1974
 6171SOL    HW230150   4.117   2.519   3.190 -0.9926  2.1328  3.1106
 6172SOL     OW30151   3.595   0.221  10.050  0.1930 -0.1511  0.3291
 6172SOL    HW130152   3.571   0.313  10.057 -0.9366 -0.4233  0.0325
 6172SOL    HW230153   3.569   0.190  10.137 -0.2760  2.0834  0.9976
 6173SOL     OW30154   2.201   4.163   0.104 -0.2839  0.5192  0.4907
 6173SOL    HW130155   2.260   4.225   0.063  2.1158 -0.9959  1.6439
 6173SOL    HW230156   2.246   4.079   0.101  1.3750  1.4866 -1.4067
 6174SOL     OW30157   3.119   1.705   3.403  0.4346  0.4657  0.0193
 6174SOL    HW130158   3.215   1.698   3.401  0.3835 -0.5484  0.9857
 6174SOL    HW230159   3.115   1.788   3.449  1.4799  1.2078 -1.2426
 6175SOL     OW30160   2.231   0.935   1.398 -0.1023 -0.3430 -0.0249
 6175SOL    HW130161   2.325   0.948   1.414  0.0356 -1.5510  0.1410
 6175SOL    HW230162   2.230   0.879   1.320 -3.2476 -0.5089  0.1154
 6176SOL     OW30163   0.844   4.241   1.482  0.3604  0.3458  0.4492
 6176SOL    HW130164   0.757   4.204   1.499 -0.9128  2.7368 -0.8986
 6176SOL    HW230165   0.862   4.278   1.568  0.3425  0.8021  0.2536
 6177SOL     OW30166   0.095   0.808   8.438 -0.1853  0.0816  0.5592
 6177SOL    HW130167   0.114   0.861   8.361 -0.2876  3.1389  2.6208
 6177SOL    HW230168   0.121   0.867   8.509 -1.4626  0.1472  0.9845
 6178SOL     OW30169   0.766   4.695   8.471  0.7471  1.1572  0.0370
 6178SOL    HW130170   0.823   4.618   8.481 -4.2272 -2.5450 -0.1577
 6178SOL    HW230171   0.725   4.670   8.388 -0.0698 -0.0040  0.7873
 6179SOL     OW30172   0.759   1.469   3.893  0.2176 -0.3317 -0.4869
 6179SOL    HW130173   0.685   1.516   3.933  1.3918  2.0561 -1.1275
 6179SOL    HW230174   0.718   1.382   3.901 -1.2744  0.4039 -0.0287
 6180SOL     OW30175   1.842   2.745  15.301 -0.4875  0.0820 -0.1335
 6180SOL    HW130176   1.867   2.751  15.393 -1.2543 -1.2004  0.1677
 6180SOL    HW230177   1.748   2.761  15.309 -0.7728 -1.2748 -0.7354
 6181SOL     OW30178   2.532   2.411   6.542 -0.2305  0.1125 -0.6621
 6181SOL    HW130179   2.573   2.334   6.582 -0.4967  0.9063  1.1035
 6181SOL    HW230180   2.607   2.470   6.541 -1.1331  1.2885  1.1328
 6182SOL     OW30181   3.854   4.093   9.749  0.3758 -0.0485  0.3105
 6182SOL    HW130182   3.904   4.118   9.827  0.6998 -1.1745  0.4778
 6182SOL    HW230183   3.794   4.165   9.730  0.9891  0.7698  1.4590
 6183SOL     OW30184   4.058   2.982  14.739 -0.4329  0.1152 -0.4820
 6183SOL    HW130185   4.026   3.049  14.800  0.3253 -0.3605  0.4418
 6183SOL    HW230186   4.144   2.956  14.771 -1.5704 -2.0086  0.8521
 6184SOL     OW30187   4.439   1.509   5.616 -0.1476  0.1254  0.1041
 6184SOL    HW130188   4.508   1.533   5.554  0.5949 -0.9969  0.4921
 6184SOL    HW230189   4.457   1.418   5.642 -0.1242  0.1045  0.0144
 6185SOL     OW30190   3.370   2.292  12.008 -0.1909  0.0001  0.4135
 6185SOL    HW130191   3.302   2.344  11.965 -0.5538 -0.6774  0.1725
 6185SOL    HW230192   3.321   2.240  12.072  0.2638 -0.2565  0.5504
 6186SOL     OW30193   2.907   4.571  13.817  0.1208  0.0262  0.0325
 6186SOL    HW130194   2.873   4.583  13.907 -1.6484  2.8181 -0.9974
 6186SOL    HW230195   2.986   4.623  13.831  0.9645 -2.1258  3.3027
 6187SOL     OW30196   0.053   1.024   8.233 -0.1807  0.0580 -0.6175
 6187SOL    HW130197   4.714   1.057   8.186 -0.7327  0.3062  0.4440
 6187SOL    HW230198   0.123   1.014   8.169 -1.1926  1.5706 -1.9570
 6188SOL     OW30199   0.513   2.171   4.400  0.5611 -0.0728 -0.0386
 6188SOL    HW130200   0.558   2.245   4.440 -0.0996 -0.9030  2.2433
 6188SOL    HW230201   0.566   2.143   4.326  2.6440 -0.0421  1.4198
 6189SOL     OW30202   4.438   1.777   9.371 -0.3038  0.2171 -0.1127
 6189SOL    HW130203   4.425   1.717   9.445  2.3839  0.0642  0.2552
 6189SOL    HW230204   4.415   1.865   9.400  0.1204  0.4351 -0.4317
 6190SOL     OW30205   0.381   1.748   8.552 -0.5714  1.1081 -0.1918
 6190SOL    HW130206   0.434   1.827   8.554 -1.5890  1.8021 -0.2051
 6190SOL    HW230207   0.294   1.788   8.543 -0.4104  1.4608 -0.1828
 6191SOL     OW30208   1.006   0.083  14.177  0.0128  0.2075 -0.3321
 6191SOL    HW130209   1.044   0.142  14.112 -0.0370  0.9512  0.3183
 6191SOL    HW230210   1.048   0.123  14.254 -0.5825  0.6881 -0.2552
 6192SOL     OW30211   3.546   2.424   2.403 -0.5698  0.2163  0.1834
 6192SOL    HW130212   3.564   2.340   2.362 -1.5920  1.0287 -1.9288
 6192SOL    HW230213   3.558   2.396   2.494  1.9289  2.1351  0.4707
 6193SOL     OW30214   1.517   1.912   2.108  0.3146 -0.2324 -0.4485
 6193SOL    HW130215   1.513   1.828   2.155  1.6118  0.3168  0.6504
 6193SOL    HW230216   1.546   1.973   2.176  1.6860 -0.4031 -0.8903
 6194SOL     OW30217   3.650   3.631  10.899  0.0983  0.0247  0.0737
 6194SOL    HW130218   3.631   3.688  10.825 -1.3614 -0.2291  0.2658
 6194SOL    HW230219   3.689   3.556  10.855 -0.1392 -0.2000  0.2455
 6195SOL     OW30220   2.549   1.957   6.685  0.4427  0.1841  0.5866
 6195SOL    HW130221   2.603   1.998   6.617 -0.3359 -1.5864 -1.1022
 6195SOL    HW230222   2.483   1.919   6.627  2.6991 -0.2983 -1.6852
 6196SOL     OW30223   3.728   3.472  13.394 -0.3407  0.3588  0.1955
 6196SOL    HW130224   3.703   3.381  13.409  2.3952 -0.4693 -0.3011
 6196SOL    HW230225   3.651   3.519  13.424 -1.1094 -0.9798  0.3303
 6197SOL     OW30226   3.926   4.090   7.243 -0.3236 -0.6681 -0.2033
 6197SOL    HW130227   3.997   4.077   7.180  0.3124 -1.1234  0.6172
 6197SOL    HW230228   3.881   4.005   7.241  1.8550 -1.8475  1.2058
 6198SOL     OW30229   0.702   0.022   5.286 -0.5193  0.0821  0.5611
 6198SOL    HW130230   0.762   0.021   5.211  0.6839  0.5109  1.5231
 6198SOL    HW230231   0.615   0.015   5.248 -0.7821  0.6289  1.0757
 6199SOL     OW30232   2.913   1.629   2.019 -0.7609 -0.2266 -0.1425
 6199SOL    HW130233   2.907   1.650   1.926 -0.1303  1.2767  0.1513
 6199SOL    HW230234   2.876   1.541   2.015 -0.0168 -0.4232 -2.2691
 6200SOL     OW30235   0.069   4.209   6.417 -0.3242  0.2269  0.2133
 6200SOL    HW130236   0.001   4.198   6.483  0.9848 -1.2962  1.3193
 6200SOL    HW230237   0.081   4.302   6.435  2.1191 -0.4376  2.1464
 6201SOL     OW30238   0.343   2.722   7.283 -0.0192  0.3445 -0.5255
 6201SOL    HW130239   0.288   2.768   7.347  1.0890 -0.9228  1.3352
 6201SOL    HW230240   0.429   2.737   7.323 -0.9678 -2.0183  2.4209
 6202SOL     OW30241   1.754   4.736   7.151  0.1006 -0.5036 -0.0657
 6202SOL    HW130242   1.849   0.003   7.144  0.3000 -0.1119  2.6105
 6202SOL    HW230243   1.732   4.705   7.064 -1.2896 -0.8474  0.4093
 6203SOL     OW30244   3.412   4.043   3.965  0.4500 -0.4267 -0.7766
 6203SOL    HW130245   3.407   4.135   3.941  0.3289 -0.3996 -0.6470
 6203SOL    HW230246   3.318   4.025   3.965  0.1552  1.1126 -1.6783
 6204SOL     OW30247   2.749   2.006   3.613  0.1938 -0.0237  0.0112
 6204SOL    HW130248   2.776   1.969   3.697 -0.9445  0.8129  0.7412
 6204SOL    HW230249   2.673   2.061   3.630  0.3515 -0.1793  1.1934
 6205SOL     OW30250   2.876   1.838   1.527  0.3140 -0.0028  0.4519
 6205SOL    HW130251   2.902   1.910   1.469 -0.9323  0.7191  0.8041
 6205SOL    HW230252   2.939   1.847   1.599 -0.9608 -1.2238  1.7341
 6206SOL     OW30253   4.204   0.346   2.992  0.1025  0.1974 -0.1773
 6206SOL    HW130254   4.211   0.353   2.897 -1.0616  2.0137 -0.1324
 6206SOL    HW230255   4.109   0.337   3.000  0.1498 -0.1686 -0.0234
 6207SOL     OW30256   2.889   2.687  10.226 -0.1562 -0.1237  0.1931
 6207SOL    HW130257   2.856   2.748  10.160  0.6539  0.5514  0.4232
 6207SOL    HW230258   2.964   2.734  10.261  0.0626 -0.3345  0.0071
 6208SOL     OW30259   3.763   1.318   6.014 -0.3706 -0.3453  0.3928
 6208SOL    HW130260   3.783   1.374   5.939 -4.6174  0.3080 -0.2600
 6208SOL    HW230261   3.752   1.379   6.087  2.2719  0.5699  0.0168
 6209SOL     OW30262   1.357   3.614   1.950 -0.7192  0.1312  0.2382
 6209SOL    HW130263   1.302   3.536   1.939 -1.5456  0.9638 -1.4637
 6209SOL    HW230264   1.436   3.563   1.966  0.0483  1.9590  2.1968
 6210SOL     OW30265   4.318   0.815   0.951 -0.2726  0.1772  0.0199
 6210SOL    HW130266   4.382   0.744   0.948  0.6244  0.8861  3.2560
 6210SOL    HW230267   4.236   0.772   0.979 -0.3324  2.8107  3.7434
 6211SOL     OW30268   0.721   2.247   5.536 -0.6892 -0.4267 -0.3122
 6211SOL    HW130269   0.810   2.250   5.572 -0.8204 -1.9867  0.1781
 6211SOL    HW230270   0.687   2.323   5.582 -0.0459  0.0887 -0.6845
 6212SOL     OW30271   3.213   3.851   7.010 -0.1631 -0.4055  1.1895
 6212SOL    HW130272   3.138   3.862   7.068 -0.4422  0.3909  0.6700
 6212SOL    HW230273   3.184   3.890   6.927 -1.2170  0.8446  2.1592
 6213SOL     OW30274   2.229   3.257   5.705 -0.6983  0.3498  0.5797
 6213SOL    HW130275   2.149   3.304   5.683  0.6547  2.2281 -0.3056
 6213SOL    HW230276   2.236   3.294   5.793  2.5909  2.8168 -0.7257
 6214SOL     OW30277   1.267   0.941   8.466 -0.2054 -0.3847 -0.6249
 6214SOL    HW130278   1.196   1.003   8.483 -0.6583 -1.4423  1.3365
 6214SOL    HW230279   1.292   0.913   8.554  3.4445  2.9362 -0.5914
 6215SOL     OW30280   2.462   2.650  15.947 -0.1191  0.5424  0.3023
 6215SOL    HW130281   2.427   2.681  15.863  0.7317 -0.7613 -0.5509
 6215SOL    HW230282   2.514   2.727  15.971  0.1307  0.2081  0.8340
 6216SOL     OW30283   1.846   0.069   2.238  0.4342  0.1240  0.1372
 6216SOL    HW130284   1.837   0.002   2.170 -4.2281  0.3197  0.5264
 6216SOL    HW230285   1.762   0.114   2.247  0.7999  0.8595 -0.1932
 6217SOL     OW30286   3.731   2.079   5.358  0.2161 -0.3299 -0.6342
 6217SOL    HW130287   3.782   2.097   5.279 -0.2700  0.9650 -0.6446
 6217SOL    HW230288   3.642   2.094   5.327 -0.0449  1.4731  1.0023
 6218SOL     OW30289   1.890   2.420  13.385  0.0667 -0.0543 -0.3201
 6218SOL    HW130290   1.885   2.516  13.389 -0.0695 -0.0921  0.4013
 6218SOL    HW230291   1.837   2.402  13.308 -3.7320  0.7230  2.0844
 6219SOL     OW30292   1.116   2.491   2.812 -0.2286 -0.4357  0.5782
 6219SOL    HW130293   1.111   2.503   2.906  2.4121 -2.2421  0.9526
 6219SOL    HW230294   1.077   2.576   2.793 -2.9305 -1.8656 -0.2823
 6220SOL     OW30295   0.251   0.584  12.910 -0.0124  0.4186  0.6169
 6220SOL    HW130296   0.223   0.563  12.820 -1.5635  2.2140  0.6715
 6220SOL    HW230297   0.340   0.612  12.892  0.2556 -0.6120  0.3368
 6221SOL     OW30298   1.504   1.263   5.283  0.0142 -0.2990  0.0156
 6221SOL    HW130299   1.424   1.227   5.246 -0.4889 -0.2643  1.0746
 6221SOL    HW230300   1.506   1.345   5.235 -2.3683 -1.6149 -2.3332
 6222SOL     OW30301   3.445   0.274   2.179  0.1500  0.0745  0.3116
 6222SOL    HW130302   3.360   0.230   2.176 -1.1378  2.5629  0.1674
 6222SOL    HW230303   3.505   0.200   2.173  0.0597 -0.0263  0.6901
 6223SOL     OW30304   2.898   0.735   5.632 -0.0063  0.5852  0.2991
 6223SOL    HW130305   2.952   0.658   5.616  0.6482  1.1938 -0.4449
 6223SOL    HW230306   2.948   0.774   5.704 -1.6588  3.3184 -0.0370
 6224SOL     OW30307   4.660   3.611   2.345 -0.1628  0.1195  0.8319
 6224SOL    HW130308   4.605   3.576   2.415  0.4677 -1.0756  0.7285
 6224SOL    HW230309   0.007   3.582   2.379  1.1178  2.3041 -0.4946
 6225SOL     OW30310   3.161   1.154   6.612 -0.3173 -0.1051 -0.1812
 6225SOL    HW130311   3.194   1.238   6.643  1.3571 -0.7112 -0.3364
 6225SOL    HW230312   3.070   1.164   6.639 -0.9308 -2.4193 -1.3926
 6226SOL     OW30313   0.140   1.365   5.666 -0.3577  0.0824 -0.8155
 6226SOL    HW130314   0.098   1.401   5.587  0.1022  0.5428 -0.8522
 6226SOL    HW230315   0.087   1.286   5.675  0.8138 -0.6479 -0.4704
 6227SOL     OW30316   0.793   0.211   5.455  0.6585  0.4546 -0.2632
 6227SOL    HW130317   0.702   0.240   5.466  0.2172 -2.0325  2.5525
 6227SOL    HW230318   0.773   0.139   5.394 -2.8813 -1.4891  3.2006
 6228SOL     OW30319   0.064   3.020   5.029  0.1904 -0.3328  0.2823
 6228SOL    HW130320   4.709   2.999   5.043 -0.7796  2.8183 -1.2146
 6228SOL    HW230321   0.101   3.030   5.117 -1.7043  3.0958  0.6858
 6229SOL     OW30322   0.075   2.997   1.604 -0.3184 -0.1407  0.2625
 6229SOL    HW130323   0.122   3.080   1.617  0.2060 -0.3732 -0.1814
 6229SOL    HW230324   0.098   2.985   1.512  0.1911 -0.9727  0.4963
 6230SOL     OW30325   4.447   2.868   2.475  0.4050 -0.2018 -0.1793
 6230SOL    HW130326   4.441   2.811   2.399  0.3938 -0.7047  0.1939
 6230SOL    HW230327   4.499   2.820   2.539  1.9136  1.7047  0.0036
 6231SOL     OW30328   3.122   1.234   1.203  0.4435 -0.1377  0.1031
 6231SOL    HW130329   3.159   1.146   1.206  2.4902  0.7151 -0.4729
 6231SOL    HW230330   3.143   1.271   1.289  1.7343 -0.5791 -0.0249
 6232SOL     OW30331   1.065   2.937   2.453 -0.4995  0.0151 -0.1014
 6232SOL    HW130332   1.011   3.002   2.498 -1.1551 -1.6534  1.5050
 6232SOL    HW230333   1.090   2.992   2.378 -0.6059 -1.8496 -1.5073
 6233SOL     OW30334   1.554   3.459  16.456  0.3960  0.5147 -0.3851
 6233SOL    HW130335   1.603   3.381  16.431  1.2331  0.5524  1.1529
 6233SOL    HW230336   1.599   3.526  16.404 -0.7837 -0.4864 -2.6636
 6234SOL     OW30337   1.476   2.002  12.170 -0.1004  0.2854 -0.1657
 6234SOL    HW130338   1.413   2.024  12.102  0.0055  0.5431 -0.1805
 6234SOL    HW230339   1.440   2.053  12.242  2.1265 -0.6029  1.5931
 6235SOL     OW30340   1.400   3.151   6.957  0.2662  0.2389 -0.2472
 6235SOL    HW130341   1.395   3.084   6.889 -1.7674 -2.6651  2.7617
 6235SOL    HW230342   1.316   3.195   6.945 -0.4977 -0.9870  0.5250
 6236SOL     OW30343   0.656   3.511   8.487 -0.2577 -0.0475  0.6678
 6236SOL    HW130344   0.610   3.572   8.546  1.4165  1.1429  0.7279
 6236SOL    HW230345   0.707   3.572   8.434 -0.7109  0.2783  0.6021
 6237SOL     OW30346   1.982   1.178   8.267  0.4169  0.1029 -0.6618
 6237SOL    HW130347   1.944   1.264   8.246 -0.4626  0.4126  2.1816
 6237SOL    HW230348   2.066   1.174   8.221  1.1054  0.7979  0.5352
 6238SOL     OW30349   0.763   0.330   3.000 -0.7993  0.3562 -0.1384
 6238SOL    HW130350   0.734   0.389   2.930  2.0310 -0.4958 -2.0265
 6238SOL    HW230351   0.840   0.378   3.032 -0.3080  0.4796 -1.5066
 6239SOL     OW30352   2.913   2.926   2.253 -0.2222  0.5189  0.5008
 6239SOL    HW130353   2.997   2.917   2.207 -0.1265  1.0967  0.5589
 6239SOL    HW230354   2.884   2.835   2.252  1.0379  0.1257 -0.7812
 6240SOL     OW30355   1.705   4.414   9.576  0.3396  0.1279 -0.9509
 6240SOL    HW130356   1.755   4.448   9.651 -0.8164  1.3840 -0.7577
 6240SOL    HW230357   1.729   4.321   9.576  0.9477  0.2563  1.8404
 6241SOL     OW30358   1.540   3.669  16.971 -0.0639  0.2534 -0.1210
 6241SOL    HW130359   1.534   3.577  16.942 -1.8866 -0.0601  1.3159
 6241SOL    HW230360   1.614   3.710  16.926 -0.1406  0.3061 -0.1990
 6242SOL     OW30361   2.561   1.739   5.636 -0.1098 -0.4518 -0.4051
 6242SOL    HW130362   2.591   1.814   5.585  0.6742  0.1917  1.0007
 6242SOL    HW230363   2.564   1.661   5.581  2.2961 -1.3699  1.0651
 6243SOL     OW30364   1.407   2.238   2.103  0.1659  0.6682 -0.1253
 6243SOL    HW130365   1.455   2.260   2.023  0.1290  0.7127 -0.1353
 6243SOL    HW230366   1.369   2.324   2.119 -3.0622 -0.6890 -0.5191
 6244SOL     OW30367   3.878   3.153   6.026 -0.5918 -0.4204  0.3238
 6244SOL    HW130368   3.964   3.153   6.066 -0.1877  0.4760 -0.5452
 6244SOL    HW230369   3.902   3.166   5.934 -1.1108  0.7080  0.3430
 6245SOL     OW30370   0.628   4.285   4.549  0.0035 -0.1116 -0.6596
 6245SOL    HW130371   0.661   4.211   4.600 -0.3209  0.3898  0.2842
 6245SOL    HW230372   0.650   4.261   4.459 -1.6636 -2.1284 -0.5431
 6246SOL     OW30373   0.598   2.386   1.723 -0.2715  0.0660  0.0903
 6246SOL    HW130374   0.579   2.460   1.781 -0.4066 -1.0912  1.5069
 6246SOL    HW230375   0.639   2.325   1.784 -0.6752 -0.3086 -0.0167
 6247SOL     OW30376   1.223   3.317   6.819  0.0039  0.1489  0.2659
 6247SOL    HW130377   1.220   3.405   6.856  0.3751  1.0159 -1.7427
 6247SOL    HW230378   1.128   3.307   6.806 -0.3521  0.4370  2.6848
 6248SOL     OW30379   3.002   1.774   8.211 -0.4799 -0.2031 -0.3830
 6248SOL    HW130380   3.088   1.761   8.171 -0.4088  2.3352 -1.0502
 6248SOL    HW230381   3.010   1.869   8.210 -0.1483 -0.2342 -0.5529
 6249SOL     OW30382   2.187   3.195   4.517  0.2840  0.0612 -0.0539
 6249SOL    HW130383   2.195   3.116   4.571 -0.9217  0.0527  0.1198
 6249SOL    HW230384   2.225   3.161   4.436  0.4394 -0.8749  0.4100
 6250SOL     OW30385   3.030   2.852   3.421 -0.0687  0.1630  0.2607
 6250SOL    HW130386   3.062   2.775   3.373  0.4359  0.5783 -0.0749
 6250SOL    HW230387   3.048   2.831   3.512 -1.9098 -1.3157  0.2742
 6251SOL     OW30388   3.297   3.902   6.533  0.1089 -0.6504  0.4894
 6251SOL    HW130389   3.277   3.840   6.463  1.3701  0.5740 -0.9438
 6251SOL    HW230390   3.322   3.976   6.478  0.9923 -1.6849 -0.4912
 6252SOL     OW30391   0.459   1.615   6.197 -0.3743 -0.1518  0.3787
 6252SOL    HW130392   0.486   1.563   6.272  0.5360 -1.6076 -0.9559
 6252SOL    HW230393   0.525   1.683   6.184 -0.8197  0.6916  2.5975
 6253SOL     OW30394   1.442   0.336   6.792  0.2383  0.2630  0.6889
 6253SOL    HW130395   1.528   0.364   6.824  1.5341 -1.5679 -1.1782
 6253SOL    HW230396   1.476   0.277   6.725  1.4365  1.7894 -0.0752
 6254SOL     OW30397   0.099   2.128  17.508 -0.2725 -0.0960 -0.4505
 6254SOL    HW130398   0.171   2.186  17.481  0.2295 -0.3710  0.2824
 6254SOL    HW230399   0.053   2.113  17.426  1.5300  0.4503 -1.5657
 6255SOL     OW30400   0.461   1.290   9.980 -0.0399 -0.0281  0.0528
 6255SOL    HW130401   0.495   1.220  10.035 -0.7756  0.0076  0.5483
 6255SOL    HW230402   0.504   1.273   9.896  3.1510  0.7567  1.4855
 6256SOL     OW30403   3.524   2.773   7.658 -0.6362 -0.5870 -0.0871
 6256SOL    HW130404   3.576   2.699   7.629 -0.5049  0.0874 -1.5572
 6256SOL    HW230405   3.474   2.727   7.726  1.9681 -1.0737  1.5110
 6257SOL     OW30406   1.394   3.736  14.439 -0.1227 -0.1951 -0.0667
 6257SOL    HW130407   1.350   3.783  14.509  1.5399  0.8275  0.2780
 6257SOL    HW230408   1.469   3.691  14.478  1.4239 -0.3874 -3.1893
 6258SOL     OW30409   1.505   0.066   5.674  0.4558  0.6264  0.3225
 6258SOL    HW130410   1.435   0.001   5.661  0.8644  0.7098 -2.2364
 6258SOL    HW230411   1.503   0.099   5.584 -1.9890 -1.8071 -0.5362
 6259SOL     OW30412   1.829   4.416   6.842 -0.2098 -0.3056  0.2483
 6259SOL    HW130413   1.895   4.415   6.911  1.5320  2.1569 -1.3685
 6259SOL    HW230414   1.784   4.494   6.873  1.8390  1.2291 -0.6207
 6260SOL     OW30415   1.501   1.882   8.505 -0.0396  0.0248  0.2446
 6260SOL    HW130416   1.490   1.943   8.433 -1.9650 -0.1092  0.4393
 6260SOL    HW230417   1.477   1.920   8.590 -2.5182 -0.4124 -0.2714
 6261SOL     OW30418   0.844   4.548   7.137 -0.0671 -0.2152  0.1163
 6261SOL    HW130419   0.778   4.479   7.132  0.9331 -1.2592  1.4653
 6261SOL    HW230420   0.788   4.615   7.179 -0.1160  0.8411 -1.6528
 6262SOL     OW30421   3.949   0.525   6.409  0.0374 -0.5267  0.9144
 6262SOL    HW130422   3.891   0.485   6.343 -0.2866 -1.4958  1.7731
 6262SOL    HW230423   3.916   0.482   6.488  2.6190 -0.3283  2.0946
 6263SOL     OW30424   1.478   1.713   1.036  0.2377 -0.0291  0.3136
 6263SOL    HW130425   1.524   1.650   0.981 -0.6697  0.0504 -0.5401
 6263SOL    HW230426   1.503   1.688   1.125  1.7025 -0.6598 -0.2822
 6264SOL     OW30427   0.788   4.197   2.528  0.2479  0.0174 -0.3647
 6264SOL    HW130428   0.859   4.234   2.475 -0.7278  0.5828 -1.2610
 6264SOL    HW230429   0.808   4.104   2.534  0.8803  0.2258  0.9137
 6265SOL     OW30430   2.285   1.361  12.557  0.3531  0.4071 -0.3613
 6265SOL    HW130431   2.265   1.304  12.482 -0.2899  1.7211 -1.1920
 6265SOL    HW230432   2.350   1.421  12.522 -0.6732  1.6658 -0.1126
 6266SOL     OW30433   2.752   0.548   6.950 -0.1005 -0.0450  0.4324
 6266SOL    HW130434   2.774   0.455   6.960  0.9774  0.5011  3.1724
 6266SOL    HW230435   2.720   0.561   7.039  0.6044  1.4715  0.4518
 6267SOL     OW30436   0.550   2.294   5.343 -0.6168  0.1609 -0.1499
 6267SOL    HW130437   0.474   2.242   5.369 -2.2730  3.2080  1.1786
 6267SOL    HW230438   0.613   2.279   5.413  0.4473  3.0673 -0.4733
 6268SOL     OW30439   3.025   0.378   6.473 -0.1399 -0.3097 -0.0575
 6268SOL    HW130440   3.056   0.451   6.526  1.4092 -1.9364  1.2787
 6268SOL    HW230441   3.004   0.309   6.536 -1.0875  0.7472  0.7908
 6269SOL     OW30442   2.116   2.358  11.864  0.1435  0.4835 -0.1278
 6269SOL    HW130443   2.104   2.363  11.769  0.8695  0.6419 -0.2100
 6269SOL    HW230444   2.092   2.267  11.878  0.6496  0.6685  1.9302
 6270SOL     OW30445   2.541   1.834  13.845  0.5984 -0.0530  0.2017
 6270SOL    HW130446   2.635   1.830  13.862  0.6604  1.5715  0.2316
 6270SOL    HW230447   2.546   1.903  13.779  0.5896 -1.3732 -1.1724
 6271SOL     OW30448   1.162   3.051   0.634  0.1187  0.0176 -0.5650
 6271SOL    HW130449   1.228   2.983   0.645  2.0093  1.4673 -2.7643
 6271SOL    HW230450   1.169   3.090   0.721 -0.5185  0.4439 -0.7032
 6272SOL     OW30451   0.660   1.360   0.362 -0.1444  0.3156 -0.1759
 6272SOL    HW130452   0.754   1.361   0.344 -0.2122  0.5509 -0.5138
 6272SOL    HW230453   0.651   1.410   0.443 -0.7000 -0.5073  0.2749
 6273SOL     OW30454   2.392   1.617   4.302 -0.5917 -0.4866 -0.3151
 6273SOL    HW130455   2.345   1.542   4.337 -1.2749 -0.0629 -0.3159
 6273SOL    HW230456   2.402   1.677   4.376 -1.2254 -1.8332  0.8671
 6274SOL     OW30457   1.083   1.905   3.011  0.0966  0.2094  0.2923
 6274SOL    HW130458   1.084   1.824   2.961  0.1198  0.6101 -0.3552
 6274SOL    HW230459   1.090   1.975   2.946 -0.2530 -1.7426 -1.8192
 6275SOL     OW30460   2.115   3.701   2.140  0.0718 -0.1395 -0.0757
 6275SOL    HW130461   2.115   3.796   2.150  1.1541 -0.3167  1.5555
 6275SOL    HW230462   2.094   3.659   2.223  2.6781  0.9862  1.1529
 6276SOL     OW30463   3.672   3.203  13.427  0.7737  0.1769  0.2425
 6276SOL    HW130464   3.673   3.185  13.333 -0.2455 -0.7229  0.4053
 6276SOL    HW230465   3.594   3.149  13.440 -0.8504  2.6766  0.9549
 6277SOL     OW30466   4.166   1.274  14.554 -0.0009 -0.3323  0.7699
 6277SOL    HW130467   4.126   1.359  14.567  1.8595  0.9238 -1.8163
 6277SOL    HW230468   4.222   1.292  14.479 -1.5604  0.6361 -0.1540
 6278SOL     OW30469   3.733   2.141  10.316  0.1439 -0.1178  0.1134
 6278SOL    HW130470   3.765   2.067  10.368  1.1222 -0.9807 -1.7176
 6278SOL    HW230471   3.733   2.202  10.389 -1.5164  0.9705 -0.8118
 6279SOL     OW30472   2.313   0.128   4.105 -0.2822 -0.0718  0.1189
 6279SOL    HW130473   2.238   0.183   4.128  0.8960  1.5624  0.0861
 6279SOL    HW230474   2.261   0.069   4.051  0.4834 -1.0491  0.4508
 6280SOL     OW30475   0.048   3.361   6.070  0.2994 -0.1304  0.3904
 6280SOL    HW130476   0.018   3.398   6.153 -0.2079  0.2834  0.0176
 6280SOL    HW230477   4.720   3.292   6.059  1.5963 -1.5138  1.4290
 6281SOL     OW30478   3.871   2.341   9.008 -0.1290  0.0100 -0.1069
 6281SOL    HW130479   3.942   2.358   8.947 -0.2523 -0.8927 -0.5053
 6281SOL    HW230480   3.879   2.416   9.067 -0.4200  1.7205 -2.2434
 6282SOL     OW30481   0.061   3.750  14.318  0.2585  0.4846 -0.2116
 6282SOL    HW130482   0.145   3.793  14.338  1.1793 -0.8369 -1.2685
 6282SOL    HW230483   4.733   3.819  14.302 -0.7594 -0.8521 -1.7676
 6283SOL     OW30484   0.903   1.325   6.486 -0.4250 -0.7205 -0.1081
 6283SOL    HW130485   0.984   1.300   6.530  0.8187  2.2562 -0.7177
 6283SOL    HW230486   0.903   1.421   6.480 -0.5800 -0.7179 -0.0755
 6284SOL     OW30487   3.825   0.919   7.270 -0.2863  0.3671  0.1470
 6284SOL    HW130488   3.878   0.859   7.218  0.9853  0.2473  1.5836
 6284SOL    HW230489   3.891   0.988   7.280  0.4308 -0.2536 -0.2818
 6285SOL     OW30490   2.081   2.247   7.032 -0.1894  0.2688  0.0164
 6285SOL    HW130491   2.154   2.210   6.982 -0.8852  0.2878 -1.0371
 6285SOL    HW230492   2.128   2.305   7.092 -0.1920  0.5960 -0.2973
 6286SOL     OW30493   0.673   1.006   6.109  0.2136  0.1866  0.5374
 6286SOL    HW130494   0.583   0.980   6.090  0.0972  1.0051 -0.0491
 6286SOL    HW230495   0.706   0.918   6.091  0.5562  0.0359  1.9744
 6287SOL     OW30496   4.605   1.802   3.863  0.2754  0.2975  0.0130
 6287SOL    HW130497   4.646   1.779   3.780 -1.0144 -0.6678 -0.3381
 6287SOL    HW230498   4.521   1.760   3.847  1.1762 -0.7692 -1.8129
 6288SOL     OW30499   4.007   2.771   7.015  0.0800 -0.0154  0.0917
 6288SOL    HW130500   3.945   2.836   7.049  1.2988  0.0586  2.1642
 6288SOL    HW230501   4.089   2.816   6.997 -0.1753  0.6921  0.7065
 6289SOL     OW30502   4.439   3.201  15.338  0.0909  0.2739  0.3165
 6289SOL    HW130503   4.516   3.212  15.282 -0.6106 -0.0278 -0.7165
 6289SOL    HW230504   4.469   3.136  15.402  0.9303 -1.4883 -1.8774
 6290SOL     OW30505   4.571   2.864   0.033 -0.4492 -0.3261 -0.4575
 6290SOL    HW130506   4.494   2.915   0.008 -0.8840 -0.9256 -0.3604
 6290SOL    HW230507   4.628   2.925   0.079 -0.4286  0.8763 -2.0611
 6291SOL     OW30508   3.708   3.668  13.101 -0.2598  0.1260 -0.2749
 6291SOL    HW130509   3.634   3.633  13.152  0.1804  0.0408  0.3081
 6291SOL    HW230510   3.674   3.757  13.090  1.3582  0.8984  0.8653
 6292SOL     OW30511   0.475   0.193   6.210 -0.1625 -0.1444 -0.1388
 6292SOL    HW130512   0.514   0.164   6.128 -0.0615  2.1756 -0.9064
 6292SOL    HW230513   0.382   0.190   6.186 -0.0699  1.4781 -0.6559
 6293SOL     OW30514   4.387   3.194   0.128 -0.2931  0.3462  0.4826
 6293SOL    HW130515   4.292   3.195   0.122 -0.0570  1.0577 -3.0685
 6293SOL    HW230516   4.416   3.161   0.043 -0.7067 -1.8892  1.2180
 6294SOL     OW30517   0.469   0.759   4.139  0.1348  0.3632 -0.9577
 6294SOL    HW130518   0.553   0.748   4.183 -0.2536  3.4111  0.5898
 6294SOL    HW230519   0.427   0.679   4.170  1.9909 -0.5327 -0.7781
 6295SOL     OW30520   1.975   0.667  14.600 -0.4095  0.7396  0.3753
 6295SOL    HW130521   1.891   0.706  14.578 -0.1468  1.2848  0.3440
 6295SOL    HW230522   1.977   0.595  14.536  1.2928  0.0599  1.1781
 6296SOL     OW30523   3.545   2.862   2.225  0.1879 -0.0605 -0.1070
 6296SOL    HW130524   3.619   2.863   2.164 -0.0098  1.4678 -0.3337
 6296SOL    HW230525   3.589   2.867   2.310 -1.1061 -0.5736  0.5876
 6297SOL     OW30526   1.858   0.190   6.229 -0.1053  0.1246 -0.3464
 6297SOL    HW130527   1.838   0.217   6.140  0.8456  2.3596  0.1122
 6297SOL    HW230528   1.828   0.099   6.231 -1.1196  0.4768  0.2290
 6298SOL     OW30529   3.855   1.268   5.145  0.3635 -0.5183 -0.7782
 6298SOL    HW130530   3.907   1.315   5.080 -0.9659 -0.0532 -1.4875
 6298SOL    HW230531   3.764   1.287   5.125 -0.1301 -3.5793 -1.5126
 6299SOL     OW30532   3.686   1.589   7.908 -0.1319  0.1418  0.0850
 6299SOL    HW130533   3.755   1.596   7.843 -0.6999 -0.7116 -0.6110
 6299SOL    HW230534   3.611   1.622   7.859  0.5381  1.4631 -0.0461
 6300SOL     OW30535   3.567   4.266  15.199 -1.0241 -0.1204 -0.3326
 6300SOL    HW130536   3.555   4.172  15.214 -0.0561 -0.4438 -1.5726
 6300SOL    HW230537   3.540   4.299  15.285 -0.6427 -1.0231  0.1401
 6301SOL     OW30538   1.735   1.685  10.271 -0.6620  0.2627 -0.1469
 6301SOL    HW130539   1.707   1.630  10.198  0.1164 -0.7085  0.3043
 6301SOL    HW230540   1.829   1.672  10.275 -0.9415 -1.9573 -1.3966
 6302SOL     OW30541   3.878   2.875  16.903  0.7491  0.2602  0.5457
 6302SOL    HW130542   3.831   2.874  16.987  0.7578  1.3366  0.5716
 6302SOL    HW230543   3.862   2.786  16.872  0.1621  0.2501  0.8730
 6303SOL     OW30544   0.482   2.476  16.826  0.1554  0.8421 -0.1920
 6303SOL    HW130545   0.451   2.566  16.835  1.8206  1.4323 -0.2261
 6303SOL    HW230546   0.569   2.490  16.864  0.6348 -2.7465  0.0430
 6304SOL     OW30547   2.971   0.017   9.574 -0.0826  0.2006 -0.0279
 6304SOL    HW130548   3.065   0.009   9.565 -0.4384 -1.4471 -2.0998
 6304SOL    HW230549   2.957   4.698   9.650  2.3661 -0.4462 -0.0596
 6305SOL     OW30550   3.559   1.067   4.255 -0.0248 -0.1397  0.4364
 6305SOL    HW130551   3.533   1.128   4.186  0.4594 -0.0839  0.3030
 6305SOL    HW230552   3.524   1.113   4.331 -0.9827  0.7507 -0.5519
 6306SOL     OW30553   3.294   2.524   6.062 -0.0365  0.1006 -0.2548
 6306SOL    HW130554   3.205   2.553   6.041 -0.9940 -1.4203  1.7070
 6306SOL    HW230555   3.344   2.605   6.053 -1.5539  1.2466  1.6766
 6307SOL     OW30556   1.095   2.320   6.941 -0.2415  0.1489  0.3143
 6307SOL    HW130557   1.133   2.308   7.028  1.3815 -1.0211 -0.5568
 6307SOL    HW230558   1.128   2.254   6.879  0.2479  1.4781 -0.8478
 6308SOL     OW30559   3.550   4.063   3.072 -0.0476 -0.4504 -0.1700
 6308SOL    HW130560   3.623   4.124   3.064  0.8511 -1.6815 -1.4476
 6308SOL    HW230561   3.514   4.083   3.159 -0.5855 -1.0400 -0.2544
 6309SOL     OW30562   4.050   0.291   8.301  0.4080  0.2858  0.6498
 6309SOL    HW130563   4.000   0.249   8.371 -0.2123 -0.0383  0.0199
 6309SOL    HW230564   4.114   0.221   8.288  0.2553  0.4427 -0.9897
 6310SOL     OW30565   0.405   3.288   4.513  0.3771 -0.5364 -0.2463
 6310SOL    HW130566   0.353   3.210   4.494  1.8170 -1.9389  1.5447
 6310SOL    HW230567   0.495   3.258   4.524 -0.2180 -2.1095  0.3793
 6311SOL     OW30568   4.585   0.977   1.038 -0.1376 -0.4804 -0.7094
 6311SOL    HW130569   4.554   0.952   1.125 -1.3792 -3.2728 -1.9373
 6311SOL    HW230570   4.502   0.992   0.992 -0.1105 -0.8648 -0.8881
 6312SOL     OW30571   0.785   1.616   9.431  0.1946  0.5110 -0.4871
 6312SOL    HW130572   0.723   1.674   9.475 -0.6991  0.7772 -2.1127
 6312SOL    HW230573   0.826   1.682   9.376  1.8960  1.6727  2.1392
 6313SOL     OW30574   3.271   1.171  15.694 -0.8446 -0.1342  0.7251
 6313SOL    HW130575   3.236   1.195  15.779 -2.4082  1.6282 -0.4318
 6313SOL    HW230576   3.359   1.189  15.726  0.3886  1.5418 -3.5515
 6314SOL     OW30577   0.921   4.034   4.289 -0.0344  0.7556  0.0291
 6314SOL    HW130578   0.861   4.107   4.294 -0.1982  0.6338 -0.1554
 6314SOL    HW230579   0.892   3.976   4.218 -1.1102  0.8789  0.3679
 6315SOL     OW30580   0.342   3.934   4.809  0.3546  0.2567  0.6383
 6315SOL    HW130581   0.364   3.920   4.717 -0.1217  0.8008  0.4415
 6315SOL    HW230582   0.384   3.861   4.855  1.8996  1.0242  0.4379
 6316SOL     OW30583   2.448   0.471   0.804  0.1062 -0.0620 -0.2225
 6316SOL    HW130584   2.390   0.546   0.792  1.3160  0.8694 -0.1608
 6316SOL    HW230585   2.493   0.468   0.720 -1.4717 -0.9873 -1.0283
 6317SOL     OW30586   1.678   0.142   3.310 -0.4370  0.0904  0.6332
 6317SOL    HW130587   1.636   0.059   3.288 -0.9329  0.7195 -0.8059
 6317SOL    HW230588   1.762   0.107   3.338 -1.4644 -2.9598 -0.0845
 6318SOL     OW30589   3.295   4.524   1.327  0.2959  0.6727  0.5240
 6318SOL    HW130590   3.385   4.522   1.359  0.6361  1.5557 -0.3430
 6318SOL    HW230591   3.289   4.609   1.283  1.4384  0.3646 -0.2284
 6319SOL     OW30592   0.196   4.214   1.330  0.4464  0.1001  0.6556
 6319SOL    HW130593   0.220   4.295   1.286 -0.9767  0.1957  0.0676
 6319SOL    HW230594   0.101   4.211   1.343  0.7226  0.2842  2.7597
 6320SOL     OW30595   0.462   4.736   3.118 -0.0326  0.8049 -0.1224
 6320SOL    HW130596   0.483   4.645   3.096 -0.9589  0.7822 -0.9232
 6320SOL    HW230597   0.425   4.718   3.204 -2.6628  0.1707 -1.3918
 6321SOL     OW30598   4.047   1.034  14.751  0.2317 -0.8021 -0.5802
 6321SOL    HW130599   3.964   0.992  14.773 -0.0067 -1.0185 -1.8857
 6321SOL    HW230600   4.023   1.125  14.735  1.1576 -0.3650  0.5244
 6322SOL     OW30601   2.201   1.081   7.868 -0.4554 -0.5506 -0.1405
 6322SOL    HW130602   2.288   1.060   7.832  0.1277 -0.5729  1.3089
 6322SOL    HW230603   2.161   1.120   7.790  0.0877 -0.0049 -0.1464
 6323SOL     OW30604   0.367   3.966   1.790 -0.5786 -0.6146 -0.0640
 6323SOL    HW130605   0.318   4.043   1.761 -0.8349  0.2184  2.6048
 6323SOL    HW230606   0.450   4.004   1.821 -0.1360 -0.2286 -1.7006
 6324SOL     OW30607   2.052   1.213   0.509 -0.2395  0.1208 -0.0815
 6324SOL    HW130608   2.008   1.270   0.446 -0.1993 -0.7666 -0.9010
 6324SOL    HW230609   2.011   1.244   0.590 -2.2864  0.1060 -1.1239
 6325SOL     OW30610   1.811   1.083   2.047 -0.3497  0.2320  0.6805
 6325SOL    HW130611   1.743   1.051   1.988  0.7596 -0.2797 -0.3365
 6325SOL    HW230612   1.884   1.027   2.018 -0.2619 -0.2173  1.7722
 6326SOL     OW30613   0.008   0.106  11.730 -0.2025 -0.6926  0.0233
 6326SOL    HW130614   4.656   0.124  11.698 -0.4068 -0.3780  0.7553
 6326SOL    HW230615   0.056   0.172  11.680 -0.5622 -0.6681 -0.2948
 6327SOL     OW30616   3.433   0.278   3.692  0.0223 -0.2299 -0.6717
 6327SOL    HW130617   3.361   0.221   3.663  1.3833 -1.7270 -1.1422
 6327SOL    HW230618   3.496   0.248   3.627  0.4590 -3.0465  1.0283
 6328SOL     OW30619   2.245   3.106   8.347  0.6708 -0.2023  0.0313
 6328SOL    HW130620   2.333   3.121   8.381  0.7201 -0.7801  0.1484
 6328SOL    HW230621   2.225   3.033   8.406  1.8146  1.5615  2.6037
 6329SOL     OW30622   2.122   1.145   5.906  0.2815 -0.6728 -0.2586
 6329SOL    HW130623   2.118   1.107   5.994  1.7894  0.7491  0.4277
 6329SOL    HW230624   2.055   1.214   5.907  2.1277  1.1136 -0.1313
 6330SOL     OW30625   4.232   1.322   1.978  0.1340 -0.0639  0.5476
 6330SOL    HW130626   4.145   1.360   1.983  0.6210  0.8077  2.3665
 6330SOL    HW230627   4.246   1.333   2.072 -0.4203  0.2939  0.5865
 6331SOL     OW30628   1.468   1.434   5.644  0.2959 -0.2636  0.0296
 6331SOL    HW130629   1.545   1.467   5.692  0.7849  1.4542 -1.8961
 6331SOL    HW230630   1.404   1.505   5.653  1.9008  0.8387  2.8005
 6332SOL     OW30631   1.575   2.904   2.213  0.4869  0.6146  0.0476
 6332SOL    HW130632   1.536   2.984   2.178  2.3110  0.5416 -2.1506
 6332SOL    HW230633   1.560   2.914   2.307  2.8871 -2.2287  0.7282
 6333SOL     OW30634   2.548   3.819   3.960  0.3552  0.3710  0.1047
 6333SOL    HW130635   2.547   3.914   3.959  1.4596  0.3599 -0.9096
 6333SOL    HW230636   2.631   3.808   4.006  0.6867 -2.3834 -1.1361
 6334SOL     OW30637   2.655   0.635   6.510  0.1834  0.2294 -0.4056
 6334SOL    HW130638   2.603   0.583   6.572 -0.4072 -0.2909 -1.3431
 6334SOL    HW230639   2.600   0.708   6.484 -0.3131  0.4960  1.3819
 6335SOL     OW30640   3.291   3.981   8.928 -0.4774 -0.3379  0.0923
 6335SOL    HW130641   3.201   3.952   8.919 -0.5885 -0.0126  0.1433
 6335SOL    HW230642   3.342   3.900   8.930  1.5060  0.8910  0.0028
 6336SOL     OW30643   0.815   3.374  10.896 -0.0721 -0.0110 -0.6636
 6336SOL    HW130644   0.901   3.415  10.889 -0.0435  0.2119  0.8801
 6336SOL    HW230645   0.765   3.441  10.942  2.8235  0.2328  2.1533
 6337SOL     OW30646   4.663   4.156  15.612 -0.2831  0.2652  0.0398
 6337SOL    HW130647   4.659   4.187  15.702  2.9280  3.1403 -0.8353
 6337SOL    HW230648   4.616   4.224  15.564  0.3361 -0.7226 -1.9572
 6338SOL     OW30649   2.114   0.012   9.394  0.3517 -0.3940 -0.0593
 6338SOL    HW130650   2.134   0.026   9.487 -0.0288 -0.2326 -0.0027
 6338SOL    HW230651   2.019   0.024   9.396  0.5546  1.4798 -1.8121
 6339SOL     OW30652   3.983   4.515   0.661  0.4715 -0.1531 -0.2152
 6339SOL    HW130653   3.928   4.437   0.648  0.8772 -0.5573  0.4697
 6339SOL    HW230654   3.973   4.566   0.581  1.0401 -0.2611 -0.3500
 6340SOL     OW30655   0.108   3.609  11.703 -0.3427 -0.4507 -0.1040
 6340SOL    HW130656   0.192   3.650  11.681 -0.0575 -0.0926  1.6908
 6340SOL    HW230657   0.099   3.600  11.798  0.6574 -0.6273 -0.0309
 6341SOL     OW30658   3.231   4.207   4.293  0.0297 -0.3057  0.1561
 6341SOL    HW130659   3.200   4.117   4.305  0.0463 -0.8058 -3.5966
 6341SOL    HW230660   3.210   4.221   4.201 -0.6517 -0.2408  0.3171
 6342SOL     OW30661   2.081   3.492   6.340 -0.1508  0.0019 -0.0211
 6342SOL    HW130662   2.150   3.443   6.296  0.3329 -0.1141  0.8632
 6342SOL    HW230663   2.106   3.471   6.430 -1.0577  0.7846  0.4158
 6343SOL     OW30664   1.801   0.107   5.005  0.0005 -0.1400  0.4190
 6343SOL    HW130665   1.895   0.125   5.002 -0.3503  1.3948 -1.6137
 6343SOL    HW230666   1.792   0.021   5.047 -0.8634 -0.0473  0.4245
 6344SOL     OW30667   3.171   0.978  15.555  0.3960  0.1838  0.1630
 6344SOL    HW130668   3.205   1.023  15.633  0.3707 -1.5936  1.2035
 6344SOL    HW230669   3.091   1.026  15.531  0.2070  0.1261  0.6730
 6345SOL     OW30670   1.723   1.772   3.885  0.2875  0.4769 -0.0406
 6345SOL    HW130671   1.692   1.690   3.923 -1.8896  2.1698  1.8248
 6345SOL    HW230672   1.722   1.745   3.793 -0.7258 -0.4109  0.2307
 6346SOL     OW30673   2.458   3.661   8.861 -0.0832 -0.0339  0.1242
 6346SOL    HW130674   2.376   3.648   8.812  0.8361  0.5714 -1.5908
 6346SOL    HW230675   2.528   3.668   8.796  1.3530 -2.0839  1.4698
 6347SOL     OW30676   3.161   3.777   5.365 -0.3239  0.2923  0.1790
 6347SOL    HW130677   3.157   3.865   5.404 -2.2833  0.3919 -0.2749
 6347SOL    HW230678   3.071   3.762   5.340 -0.3651  1.4347 -0.3504
 6348SOL     OW30679   0.421   3.814   2.140 -0.3350  0.2568 -0.0145
 6348SOL    HW130680   0.362   3.889   2.134 -0.7395  0.3415  5.1974
 6348SOL    HW230681   0.500   3.848   2.099 -0.7493  0.9477 -0.2378
 6349SOL     OW30682   2.903   2.351  17.416 -0.1074  0.2098 -0.3867
 6349SOL    HW130683   2.869   2.371  17.329  1.9453 -0.2209 -1.2725
 6349SOL    HW230684   2.823   2.351  17.468  0.6971 -2.6359  0.8147
 6350SOL     OW30685   1.076   2.680   1.008 -0.0172  0.6260 -0.1915
 6350SOL    HW130686   1.119   2.595   1.005 -0.3314  0.4707 -0.2222
 6350SOL    HW230687   1.156   2.733   1.013  0.0427  0.4069  1.2937
 6351SOL     OW30688   2.443   2.151   5.705 -0.1944  0.0332 -0.1645
 6351SOL    HW130689   2.433   2.063   5.740 -0.5503 -0.4880 -1.6179
 6351SOL    HW230690   2.539   2.148   5.700 -0.2067  0.2728 -0.5792
 6352SOL     OW30691   4.595   2.232   6.990  0.1056  0.2098 -0.1678
 6352SOL    HW130692   4.547   2.283   6.924  0.1748 -0.6371 -0.8717
 6352SOL    HW230693   4.663   2.191   6.935 -0.1658  0.4959 -0.7202
 6353SOL     OW30694   4.440   0.539   3.519 -0.0380 -0.2753  0.1860
 6353SOL    HW130695   4.357   0.581   3.541  1.3333  1.7590  1.5281
 6353SOL    HW230696   4.459   0.498   3.603 -0.5419  1.8990  1.3683
 6354SOL     OW30697   3.447   2.181   1.274 -0.0631 -0.2186  0.7183
 6354SOL    HW130698   3.395   2.231   1.212  1.4787  0.1189 -0.3208
 6354SOL    HW230699   3.394   2.102   1.276  0.3250 -0.5150 -0.4712
 6355SOL     OW30700   4.151   3.412   1.026  0.1162  0.2495 -0.3345
 6355SOL    HW130701   4.166   3.318   1.020  0.0056  0.0905  1.7163
 6355SOL    HW230702   4.208   3.422   1.102 -0.3761 -0.3465  0.1135
 6356SOL     OW30703   0.567   4.039   9.537  0.1572 -0.1939 -0.0295
 6356SOL    HW130704   0.495   4.050   9.476  1.4431 -0.2948 -1.5832
 6356SOL    HW230705   0.609   3.958   9.508  1.1817  0.4309 -0.2902
 6357SOL     OW30706   1.364   2.486  11.199  0.0352  0.1824  0.1566
 6357SOL    HW130707   1.307   2.461  11.271 -0.6567  0.1896 -0.3853
 6357SOL    HW230708   1.417   2.547  11.251  0.8841 -0.5789  0.1735
 6358SOL     OW30709   1.633   0.677   3.275 -0.2488  0.0314  0.0696
 6358SOL    HW130710   1.720   0.674   3.236 -0.5840 -1.3833 -0.5462
 6358SOL    HW230711   1.649   0.690   3.369  0.0379  0.7145 -0.0723
 6359SOL     OW30712   4.461   3.534   5.045  0.6761  0.2367 -0.7089
 6359SOL    HW130713   4.512   3.461   5.082  0.4555  1.1562  1.3924
 6359SOL    HW230714   4.477   3.606   5.106  1.1608 -1.2498  0.9164
 6360SOL     OW30715   1.046   1.326   8.743  0.2426 -0.0096  0.2275
 6360SOL    HW130716   1.062   1.347   8.835  2.0390 -1.1876  0.1838
 6360SOL    HW230717   1.046   1.230   8.746  1.5896  0.0638  2.3206
 6361SOL     OW30718   0.939   3.449   5.056 -0.1112  0.5078 -0.3842
 6361SOL    HW130719   0.966   3.358   5.047 -1.9501 -0.0605 -0.2261
 6361SOL    HW230720   1.005   3.504   5.014 -0.3245  1.4378  0.4869
 6362SOL     OW30721   0.411   0.008   8.723 -0.3757 -0.3282 -0.6070
 6362SOL    HW130722   0.341   4.697   8.769 -0.1516  0.9388  1.0524
 6362SOL    HW230723   0.488   4.694   8.749 -0.1892 -0.2296 -0.9694
 6363SOL     OW30724   0.347   4.394   2.253  0.1495  0.0375 -0.2730
 6363SOL    HW130725   0.394   4.373   2.334 -0.1343  2.0121  0.4166
 6363SOL    HW230726   0.372   4.316   2.204  1.3087 -0.2260  0.7437
 6364SOL     OW30727   3.481   1.979  14.566 -0.4762  0.1983  0.0678
 6364SOL    HW130728   3.568   2.016  14.554 -0.8438  1.3123  0.8095
 6364SOL    HW230729   3.424   2.051  14.537 -0.1629  0.2453 -0.4314
 6365SOL     OW30730   1.053   3.639   7.102 -0.0758 -0.2890 -0.1185
 6365SOL    HW130731   1.052   3.578   7.175 -2.1652 -0.7080 -0.4986
 6365SOL    HW230732   0.971   3.635   7.053 -0.1199 -0.4401 -0.0319
 6366SOL     OW30733   2.754   4.203   7.691 -0.0447 -0.6595  0.1339
 6366SOL    HW130734   2.677   4.208   7.748  1.6716  0.3507  2.3604
 6366SOL    HW230735   2.776   4.296   7.688 -0.0889 -0.6356  0.6297
 6367SOL     OW30736   1.712   0.150   4.627  0.4589  0.8187 -0.2424
 6367SOL    HW130737   1.665   0.220   4.582 -0.7880  0.1188 -0.0268
 6367SOL    HW230738   1.643   0.094   4.663 -0.4260  1.4212 -0.9985
 6368SOL     OW30739   4.497   0.056   5.940 -0.2843  0.1917 -0.5638
 6368SOL    HW130740   4.480   4.705   5.905  0.9154 -0.9656  1.7627
 6368SOL    HW230741   4.431   0.102   5.888 -0.0874 -1.3883 -2.2284
 6369SOL     OW30742   3.736   2.614   3.401 -0.1100  0.0672 -0.6687
 6369SOL    HW130743   3.704   2.557   3.331 -1.2299 -0.8898  0.6212
 6369SOL    HW230744   3.649   2.641   3.432 -0.5350  1.1550 -2.7583
 6370SOL     OW30745   3.104   2.649   5.327 -0.5465 -0.5389 -0.2073
 6370SOL    HW130746   3.142   2.653   5.239 -2.9146  2.2191 -1.0993
 6370SOL    HW230747   3.017   2.687   5.316 -0.2861 -0.0734 -0.6878
 6371SOL     OW30748   2.689   0.403   8.416  0.1385  0.3145  0.3745
 6371SOL    HW130749   2.710   0.393   8.509  1.9084 -2.9568 -0.3653
 6371SOL    HW230750   2.696   0.309   8.398  1.2707  0.7525 -1.3877
 6372SOL     OW30751   1.343   2.572   7.562  0.2155 -0.1465  0.2739
 6372SOL    HW130752   1.358   2.665   7.580 -2.4396 -0.0732  2.1551
 6372SOL    HW230753   1.297   2.542   7.641 -0.9201  2.4250  0.5939
 6373SOL     OW30754   4.219   2.336   7.060 -0.1721 -0.7241 -0.4233
 6373SOL    HW130755   4.168   2.400   7.010  1.5513  1.8199  1.0472
 6373SOL    HW230756   4.296   2.337   7.004  0.3722 -2.5409  0.2880
 6374SOL     OW30757   0.950   1.037   0.877  0.2608  0.1510  0.4168
 6374SOL    HW130758   0.970   0.946   0.854  0.1594  0.3994 -0.6813
 6374SOL    HW230759   0.937   1.050   0.971 -1.2456  0.4781  0.1673
 6375SOL     OW30760   0.621   1.866   3.982 -0.1463 -0.5609 -0.2325
 6375SOL    HW130761   0.565   1.792   3.959 -0.4805 -0.4465  0.2094
 6375SOL    HW230762   0.678   1.827   4.049 -0.2431 -1.9318 -0.9506
 6376SOL     OW30763   4.339   2.027   2.171 -0.0671  0.1512 -0.1247
 6376SOL    HW130764   4.279   2.067   2.234 -0.0449 -2.5142  1.5856
 6376SOL    HW230765   4.406   1.988   2.226  1.0972  0.9360 -0.9740
 6377SOL     OW30766   0.244   4.667   9.558  0.1991  0.7625 -0.1408
 6377SOL    HW130767   0.283   4.588   9.521  0.9126  1.2238 -0.3777
 6377SOL    HW230768   0.325   4.711   9.586  0.5269  0.7323 -1.0413
 6378SOL     OW30769   1.459   4.325  11.837 -0.3041 -0.1874  0.2172
 6378SOL    HW130770   1.524   4.349  11.771 -0.8378 -3.4597 -1.4775
 6378SOL    HW230771   1.385   4.281  11.795  2.1688 -3.9731 -0.0998
 6379SOL     OW30772   0.153   0.051   7.364 -0.3401 -0.0806 -0.5014
 6379SOL    HW130773   0.083   0.013   7.418 -0.4412  0.0449 -0.5472
 6379SOL    HW230774   0.215   0.067   7.436  0.2962 -0.8992 -0.8602
 6380SOL     OW30775   1.114   2.558   9.091  0.1262  0.2688  0.3866
 6380SOL    HW130776   1.144   2.625   9.153 -0.8499 -0.5520  1.7575
 6380SOL    HW230777   1.155   2.481   9.130 -1.7897 -0.9574  0.0024
 6381SOL     OW30778   3.573   3.711  13.929  0.3677 -0.0528 -0.1915
 6381SOL    HW130779   3.509   3.758  13.876  0.9297  0.8195 -0.0942
 6381SOL    HW230780   3.613   3.662  13.857  1.4187  0.9112 -0.2673
 6382SOL     OW30781   4.567   4.165   6.586 -0.1666 -0.4179 -0.9442
 6382SOL    HW130782   4.590   4.097   6.649  1.4586  0.3219 -0.7517
 6382SOL    HW230783   4.496   4.120   6.539 -1.0910 -1.3432  1.3452
 6383SOL     OW30784   1.004   2.222  17.076  0.2782  0.1907 -0.2227
 6383SOL    HW130785   0.909   2.227  17.076  0.1489 -2.1752 -2.0656
 6383SOL    HW230786   1.030   2.193  17.163  1.2838  2.5364  0.2600
 6384SOL     OW30787   1.138   1.536   1.804  0.0005  0.1750 -0.0528
 6384SOL    HW130788   1.113   1.628   1.806  0.8956  0.3524  3.0059
 6384SOL    HW230789   1.233   1.540   1.813  0.1211 -0.7591 -0.9338
 6385SOL     OW30790   1.159   2.385   2.114  0.2424  0.3894  0.3578
 6385SOL    HW130791   1.169   2.428   2.029 -2.4128  1.8488  0.7778
 6385SOL    HW230792   1.209   2.436   2.178  0.0368 -0.9510  1.5858
 6386SOL     OW30793   3.279   2.993   6.234 -0.1597  0.3694 -0.0751
 6386SOL    HW130794   3.280   3.088   6.246  0.9787  0.2455  0.8321
 6386SOL    HW230795   3.345   2.946   6.285 -0.9864 -1.1362 -0.3847
 6387SOL     OW30796   3.004   2.331   7.657  0.2725 -0.2051  0.4953
 6387SOL    HW130797   2.974   2.348   7.747 -1.3699  1.2828 -0.3293
 6387SOL    HW230798   3.056   2.410   7.643  1.6443 -1.3135 -0.6169
 6388SOL     OW30799   0.627   1.561  12.824  0.3409 -0.3359 -0.1744
 6388SOL    HW130800   0.665   1.645  12.797 -1.0160  0.0058 -1.0198
 6388SOL    HW230801   0.639   1.520  12.739 -1.6732 -1.1340 -0.0526
 6389SOL     OW30802   3.183   0.219   9.702 -0.4088  0.2813  0.3007
 6389SOL    HW130803   3.118   0.149   9.693 -0.1019  0.3447 -2.5320
 6389SOL    HW230804   3.258   0.186   9.751  0.3796 -3.0599 -3.1453
 6390SOL     OW30805   2.632   4.200  15.517 -0.0713  0.0121  0.0555
 6390SOL    HW130806   2.699   4.154  15.467 -1.2294 -0.7027 -0.8172
 6390SOL    HW230807   2.686   4.246  15.581 -1.3053  0.6745  0.6086
 6391SOL     OW30808   2.052   2.129   6.549  0.0590 -0.2197  0.9792
 6391SOL    HW130809   2.061   2.211   6.599 -1.1121  0.7756 -0.4354
 6391SOL    HW230810   2.046   2.172   6.464  1.7681  0.6624  1.2952
 6392SOL     OW30811   2.387   1.282   0.545 -0.7614  0.0223  0.3312
 6392SOL    HW130812   2.364   1.205   0.492 -0.4582 -0.3116  0.6855
 6392SOL    HW230813   2.460   1.311   0.491 -0.9334 -1.0290 -0.4773
 6393SOL     OW30814   0.029   1.767   4.486  0.3797  0.0129 -0.0919
 6393SOL    HW130815   4.735   1.823   4.557 -1.2517 -0.2292 -0.6126
 6393SOL    HW230816   0.042   1.826   4.411  0.3720 -0.2276 -0.2832
 6394SOL     OW30817   1.789   0.495  11.128  1.3661  0.1711 -0.0431
 6394SOL    HW130818   1.732   0.419  11.141 -0.3445  1.1724 -1.7058
 6394SOL    HW230819   1.878   0.463  11.139  1.7410  1.2606  0.0093
 6395SOL     OW30820   3.514   3.799   6.163 -0.1961 -0.1882 -0.1197
 6395SOL    HW130821   3.554   3.743   6.096  2.1726  1.9708 -0.5194
 6395SOL    HW230822   3.531   3.888   6.131  1.5337  0.4451  2.5963
 6396SOL     OW30823   0.207   0.737   9.883 -0.2071 -0.4138 -0.4284
 6396SOL    HW130824   0.275   0.804   9.888  0.6803 -1.2343 -1.8129
 6396SOL    HW230825   0.143   0.790   9.835  1.6509  1.1932 -1.1354
 6397SOL     OW30826   3.798   4.206   3.076 -0.0303  0.4386 -0.2619
 6397SOL    HW130827   3.811   4.145   3.004 -0.7235  2.2626 -1.9460
 6397SOL    HW230828   3.873   4.185   3.132 -0.4832 -0.2037  0.1078
 6398SOL     OW30829   3.893   3.427  12.780 -0.0134  0.0882 -0.3214
 6398SOL    HW130830   3.846   3.383  12.851 -0.2242 -0.2551 -0.6722
 6398SOL    HW230831   3.829   3.429  12.709 -2.2413  3.6259  1.7701
 6399SOL     OW30832   1.588   0.656   2.432  0.1451  0.2885  0.1049
 6399SOL    HW130833   1.629   0.570   2.444  0.4044  0.2865 -0.7748
 6399SOL    HW230834   1.659   0.709   2.396 -0.7868  2.5033  1.5568
 6400SOL     OW30835   0.729   0.460   8.638 -0.0540  0.2443  0.0018
 6400SOL    HW130836   0.716   0.416   8.554  0.5413 -0.5882  0.3395
 6400SOL    HW230837   0.660   0.526   8.644 -0.9803 -0.8165  1.2788
 6401SOL     OW30838   3.638   2.263   1.576  0.3549  0.8980 -0.2414
 6401SOL    HW130839   3.630   2.290   1.485  0.7592 -3.0803 -1.4551
 6401SOL    HW230840   3.576   2.319   1.622 -1.3843 -1.3327  0.1140
 6402SOL     OW30841   0.251   0.136   2.255  0.6563 -0.3341 -0.3171
 6402SOL    HW130842   0.249   0.109   2.347 -1.9572  1.9220  0.3066
 6402SOL    HW230843   0.299   0.062   2.218  0.1962 -0.1037 -1.3745
 6403SOL     OW30844   4.192   2.190   3.094  0.6781 -0.6298 -0.4636
 6403SOL    HW130845   4.238   2.150   3.168  3.7035  3.4213 -0.1891
 6403SOL    HW230846   4.143   2.118   3.054  0.1212  0.5456 -1.8742
 6404SOL     OW30847   2.869   3.332   7.141 -0.0427 -0.5338  0.0334
 6404SOL    HW130848   2.826   3.412   7.171  1.1805 -0.1197  0.7092
 6404SOL    HW230849   2.795   3.294   7.093  0.6277  0.4946 -1.8236
 6405SOL     OW30850   3.058   4.370   2.972  0.3709  0.1046  0.0640
 6405SOL    HW130851   2.993   4.397   3.036  0.0917  0.4858 -0.3845
 6405SOL    HW230852   3.113   4.319   3.031 -0.9241 -1.7687 -0.3409
 6406SOL     OW30853   2.346   4.573  11.548 -0.3474 -0.0026 -0.1894
 6406SOL    HW130854   2.281   4.644  11.553 -0.7299 -0.4540  1.0621
 6406SOL    HW230855   2.326   4.536  11.462  1.2400  0.7893 -0.9200
 6407SOL     OW30856   4.544   4.531   1.272  0.3807  0.0498 -0.1460
 6407SOL    HW130857   4.505   4.592   1.209  0.3501 -0.6203 -0.7683
 6407SOL    HW230858   4.625   4.573   1.301  1.1093 -1.3902 -0.0871
 6408SOL     OW30859   0.704   1.273   6.666  0.1079  0.5272  0.2989
 6408SOL    HW130860   0.722   1.255   6.574  0.7997  1.1583  0.3105
 6408SOL    HW230861   0.646   1.348   6.656  0.3268  0.4975 -1.2262
 6409SOL     OW30862   3.449   0.968   9.770  0.0657  0.6680 -0.2379
 6409SOL    HW130863   3.492   1.053   9.761 -0.1769  0.7164 -0.9385
 6409SOL    HW230864   3.358   0.988   9.751  0.1381  2.4515  1.3985
 6410SOL     OW30865   1.139   1.898   2.423 -0.1380 -0.0943 -0.4764
 6410SOL    HW130866   1.074   1.905   2.494  1.9359 -1.0226  1.5147
 6410SOL    HW230867   1.204   1.843   2.467  0.7082  1.3268  0.0167
 6411SOL     OW30868   0.113   3.201   2.093 -0.4602 -0.3921  0.1670
 6411SOL    HW130869   0.123   3.283   2.142 -1.0122 -0.6483  0.6990
 6411SOL    HW230870   0.172   3.154   2.152 -0.0888  2.5594  2.1622
 6412SOL     OW30871   2.625   2.115   8.927  0.1182  0.4628  0.5127
 6412SOL    HW130872   2.694   2.088   8.988  0.7769 -0.7573 -0.7496
 6412SOL    HW230873   2.676   2.149   8.854  0.6035 -2.0591 -0.3234
 6413SOL     OW30874   0.895   3.067  13.276  0.6157 -0.1318 -0.3073
 6413SOL    HW130875   0.806   3.091  13.253  0.9013 -0.5992 -1.9110
 6413SOL    HW230876   0.908   3.141  13.335 -0.8595 -2.2885  2.7189
 6414SOL     OW30877   2.480   3.052  14.800 -0.1497 -0.3767  0.0367
 6414SOL    HW130878   2.561   3.100  14.817 -0.2974 -0.7805  1.9284
 6414SOL    HW230879   2.466   3.065  14.707 -1.3992  1.9324  0.5437
 6415SOL     OW30880   1.328   2.842   3.381 -0.1927 -0.4430  0.5982
 6415SOL    HW130881   1.412   2.800   3.361  0.8260  1.4699  0.9006
 6415SOL    HW230882   1.297   2.853   3.291 -2.2375 -0.8208  1.2570
 6416SOL     OW30883   4.643   3.981  14.968  0.2807 -0.2374 -0.3982
 6416SOL    HW130884   4.687   4.020  14.893  0.5836 -2.6523 -1.4724
 6416SOL    HW230885   4.575   4.045  14.987  0.5666  0.0540 -0.3642
 6417SOL     OW30886   0.636   1.837   4.515  0.3644  0.4182 -0.3237
 6417SOL    HW130887   0.649   1.751   4.475  0.7413  0.1774  0.3073
 6417SOL    HW230888   0.712   1.851   4.572 -0.1255 -0.2094  0.4786
 6418SOL     OW30889   1.526   2.357  12.621 -0.5588 -0.1632  0.0252
 6418SOL    HW130890   1.509   2.429  12.560  0.8011 -2.1675 -2.7170
 6418SOL    HW230891   1.621   2.348  12.619 -0.4318  1.0642  0.6856
 6419SOL     OW30892   1.937   2.515   8.495 -0.1919  0.2242  0.7974
 6419SOL    HW130893   1.904   2.471   8.416 -2.7439  1.8572  0.9456
 6419SOL    HW230894   2.024   2.478   8.483 -0.2687  0.5019 -0.5783
 6420SOL     OW30895   4.515   2.487   4.679 -0.3476 -0.3345 -0.3668
 6420SOL    HW130896   4.429   2.499   4.638  1.1964  1.1555 -3.1667
 6420SOL    HW230897   4.559   2.437   4.610 -2.6316  0.9094 -2.7393
 6421SOL     OW30898   0.833   1.780   2.411 -0.2503  0.0028  0.4283
 6421SOL    HW130899   0.865   1.703   2.365  0.1954  1.2751 -1.4110
 6421SOL    HW230900   0.739   1.765   2.405 -0.0353 -1.2682  0.2728
 6422SOL     OW30901   0.607   1.014   4.129 -0.4549  0.2873 -0.2133
 6422SOL    HW130902   0.514   1.006   4.152  0.1505 -0.8375  1.8167
 6422SOL    HW230903   0.631   0.922   4.139  1.3468  0.6720 -0.9185
 6423SOL     OW30904   3.686   2.836  14.151 -0.6582  0.3704 -0.1683
 6423SOL    HW130905   3.768   2.830  14.199 -0.5607 -0.3647 -0.4349
 6423SOL    HW230906   3.707   2.890  14.075  2.2479 -0.2950  0.1827
 6424SOL     OW30907   0.953   0.719  13.206  0.8146 -0.2758 -0.1428
 6424SOL    HW130908   1.002   0.792  13.243  1.4807 -1.4474  1.2909
 6424SOL    HW230909   0.877   0.749  13.157  0.9123 -0.0252 -0.1394
 6425SOL     OW30910   1.616   1.637  11.147 -0.1733  0.9303 -0.3560
 6425SOL    HW130911   1.594   1.729  11.154 -0.8779  0.8511 -1.4401
 6425SOL    HW230912   1.538   1.594  11.181 -2.0334  2.4490 -2.7082
 6426SOL     OW30913   3.709   3.067  14.498 -0.4802 -0.1436  0.1833
 6426SOL    HW130914   3.737   2.994  14.554  0.0609 -0.8964 -1.0735
 6426SOL    HW230915   3.733   3.144  14.550 -2.4945 -0.5925  1.7774
 6427SOL     OW30916   0.919   1.520   5.326  0.0474  0.0375 -0.0555
 6427SOL    HW130917   0.866   1.516   5.246  0.3073  0.0358 -0.2270
 6427SOL    HW230918   0.870   1.592   5.366  1.9772  1.4139 -0.2068
 6428SOL     OW30919   1.623   3.236   7.135 -0.4652 -0.0410  0.4079
 6428SOL    HW130920   1.545   3.180   7.143  0.1725 -1.3626 -2.5869
 6428SOL    HW230921   1.628   3.252   7.041 -0.3692  2.3046  0.8178
 6429SOL     OW30922   1.229   3.689   1.074  0.4056 -0.5619 -0.6336
 6429SOL    HW130923   1.169   3.748   1.121  3.0557  1.3320  0.3499
 6429SOL    HW230924   1.309   3.736   1.097  1.7740 -2.9802 -0.4562
 6430SOL     OW30925   0.065   1.012  13.843  0.1269 -0.3429  0.5033
 6430SOL    HW130926   0.128   1.033  13.913  1.1776 -0.1327 -0.4973
 6430SOL    HW230927   0.080   0.922  13.815  1.2014  0.9495 -3.0458
 6431SOL     OW30928   0.073   2.721  11.942  0.2735 -0.0583 -0.3723
 6431SOL    HW130929   0.116   2.777  12.007 -0.1724 -0.9628  0.7052
 6431SOL    HW230930   4.720   2.756  11.941  1.3778  2.7575 -1.4648
 6432SOL     OW30931   2.229   2.623   7.119  0.0161  0.2832 -0.4750
 6432SOL    HW130932   2.280   2.560   7.170 -0.2030  0.0899 -0.4928
 6432SOL    HW230933   2.290   2.697   7.123  2.2954 -1.5924 -0.5552
 6433SOL     OW30934   1.357   4.594   6.309 -0.0411 -0.5340 -0.1026
 6433SOL    HW130935   1.436   4.615   6.358 -0.2156 -0.9811  0.3777
 6433SOL    HW230936   1.380   4.510   6.269  0.3767 -0.5932  0.2712
 6434SOL     OW30937   0.310   1.747   7.274 -0.9176  0.1360 -0.1796
 6434SOL    HW130938   0.288   1.827   7.322 -1.6613 -0.5129  0.5286
 6434SOL    HW230939   0.398   1.774   7.246 -1.4154  0.7173 -1.1962
 6435SOL     OW30940   1.969   1.931  17.209  0.3236 -0.5382  0.4656
 6435SOL    HW130941   2.064   1.934  17.198  0.3958 -0.6461  1.0799
 6435SOL    HW230942   1.951   1.885  17.127  1.4341 -1.3558  0.6801
 6436SOL     OW30943   1.925   3.168   9.686 -0.1143 -0.1740  0.1346
 6436SOL    HW130944   1.890   3.255   9.670  2.7364  1.1594  1.0587
 6436SOL    HW230945   1.994   3.182   9.752 -1.0959  0.4861  1.0165
 6437SOL     OW30946   2.721   0.985  10.557  0.0685  0.0316  0.3876
 6437SOL    HW130947   2.676   0.905  10.529  0.4099 -1.2919  3.6255
 6437SOL    HW230948   2.754   1.030  10.479  1.2448 -2.1921 -0.4022
 6438SOL     OW30949   1.222   1.263   4.165 -0.2629  0.5569  0.1446
 6438SOL    HW130950   1.275   1.306   4.098 -0.3422  1.1481  0.4598
 6438SOL    HW230951   1.137   1.248   4.122  0.0061 -0.3386 -0.0779
 6439SOL     OW30952   2.199   0.628  10.219  0.0908 -0.0001  0.0206
 6439SOL    HW130953   2.161   0.703  10.174  0.6281 -0.3327 -0.9727
 6439SOL    HW230954   2.131   0.609  10.283  0.5259  0.1945  0.5451
 6440SOL     OW30955   2.112   1.991   4.599  0.4388 -0.3703  0.1071
 6440SOL    HW130956   2.172   1.936   4.649  1.0951  0.2567  0.0145
 6440SOL    HW230957   2.031   1.994   4.649 -0.4947  1.3077 -1.5121
 6441SOL     OW30958   1.813   1.528   4.420 -0.3561  0.4716  0.2126
 6441SOL    HW130959   1.851   1.497   4.338 -0.0951 -1.3161  1.0278
 6441SOL    HW230960   1.722   1.526   4.391  0.1449 -2.9346 -1.0842
 6442SOL     OW30961   4.068   0.471   6.843  0.0452  0.3292 -0.2117
 6442SOL    HW130962   4.047   0.381   6.868  2.0027  0.5558  2.2812
 6442SOL    HW230963   3.982   0.505   6.817 -0.1061  0.5069  0.5321
 6443SOL     OW30964   3.693   4.170   4.896 -0.1817 -0.0375  0.7111
 6443SOL    HW130965   3.692   4.080   4.861 -1.1410  1.5560 -3.3821
 6443SOL    HW230966   3.603   4.176   4.928 -0.8742 -0.9712 -1.0314
 6444SOL     OW30967   1.112   3.575   2.436 -0.3821 -0.2432  0.2153
 6444SOL    HW130968   1.019   3.598   2.441 -0.4486 -0.3089 -0.6978
 6444SOL    HW230969   1.145   3.633   2.367 -1.8544  2.0644  1.4435
 6445SOL     OW30970   0.057   2.753   6.181 -0.0087 -0.3521 -0.0365
 6445SOL    HW130971   0.023   2.812   6.113  0.1811  0.9442  0.9899
 6445SOL    HW230972   0.024   2.795   6.261 -0.8375 -1.4856  0.2143
 6446SOL     OW30973   3.286   1.034   7.228 -0.5671  0.3309  0.2189
 6446SOL    HW130974   3.381   1.023   7.217 -0.3991 -0.2201  2.2758
 6446SOL    HW230975   3.260   0.987   7.149 -1.1984 -0.3008  0.8015
 6447SOL     OW30976   2.889   3.646   4.719 -0.3152  0.6062 -0.6157
 6447SOL    HW130977   2.909   3.711   4.786  1.6131 -0.8130  0.1799
 6447SOL    HW230978   2.819   3.598   4.764  0.0957 -1.4516 -2.1754
 6448SOL     OW30979   0.558   0.702  13.781  0.2199  0.4164  0.3012
 6448SOL    HW130980   0.629   0.717  13.844  1.6595 -0.2785 -1.1682
 6448SOL    HW230981   0.505   0.782  13.781 -0.7657 -0.2317  1.8491
 6449SOL     OW30982   1.857   3.231  16.933 -0.0347  0.2273 -0.4996
 6449SOL    HW130983   1.825   3.229  16.843 -0.6147 -2.9448 -0.2280
 6449SOL    HW230984   1.924   3.299  16.925 -1.2364  1.4807  0.1079
 6450SOL     OW30985   1.208   2.355   5.105 -0.0823  0.5548  0.3071
 6450SOL    HW130986   1.225   2.292   5.176  0.1354  0.5952  0.2892
 6450SOL    HW230987   1.182   2.287   5.042  3.7239  0.2276 -0.8694
 6451SOL     OW30988   2.022   0.551   6.555 -0.1636 -0.0053 -0.0659
 6451SOL    HW130989   1.970   0.531   6.632  2.2352  0.3270  1.6584
 6451SOL    HW230990   1.955   0.535   6.489 -0.4856  2.4822 -0.3435
 6452SOL     OW30991   1.045   3.042   5.126 -0.1148 -0.0525 -0.2041
 6452SOL    HW130992   1.087   3.016   5.207 -0.2661  1.2196  0.2842
 6452SOL    HW230993   0.965   3.081   5.160 -0.3410 -0.1464 -0.6201
 6453SOL     OW30994   4.553   2.676   4.373  0.3519  0.7017 -0.3545
 6453SOL    HW130995   4.628   2.674   4.433  0.9007 -0.5757 -1.0593
 6453SOL    HW230996   4.592   2.685   4.286  0.3085 -0.3415 -0.4853
 6454SOL     OW30997   0.579   0.854   7.383  0.0557  0.3746 -0.1448
 6454SOL    HW130998   0.635   0.930   7.369 -1.6814  1.7125  0.2959
 6454SOL    HW230999   0.625   0.788   7.435  1.2113  1.8080  0.6399
 6455SOL     OW31000   3.465   2.720  13.670  0.0840  0.0972 -0.1786
 6455SOL    HW131001   3.550   2.760  13.688 -0.3950  1.3462 -0.7288
 6455SOL    HW231002   3.487   2.640  13.622 -1.5677  0.2016 -1.1007
 6456SOL     OW31003   4.045   1.329   7.309  0.3465  0.0399 -0.6225
 6456SOL    HW131004   3.975   1.362   7.253 -1.0854 -0.8149  0.6728
 6456SOL    HW231005   4.113   1.392   7.284  1.0066 -0.7513 -0.8424
 6457SOL     OW31006   1.318   4.454  14.905 -0.4914  0.6449  0.0308
 6457SOL    HW131007   1.263   4.532  14.906 -0.3847  0.6857  3.2455
 6457SOL    HW231008   1.373   4.490  14.975  1.4846 -0.3816 -1.0018
 6458SOL     OW31009   4.084   1.039  12.928  0.2801  0.4204  0.5368
 6458SOL    HW131010   4.054   1.084  13.007  1.6777  1.5938  0.4031
 6458SOL    HW231011   4.148   0.979  12.968  1.2042  2.3488  1.9384
 6459SOL     OW31012   1.161   0.349   9.435  0.6158  0.0612  0.9663
 6459SOL    HW131013   1.139   0.442   9.432 -2.0464 -0.6243 -0.2254
 6459SOL    HW231014   1.154   0.339   9.530 -1.0189  1.4653  0.9988
 6460SOL     OW31015   3.960   2.457   3.203 -0.5675  0.0954  0.1829
 6460SOL    HW131016   3.957   2.466   3.299  0.5740  1.4091  0.0971
 6460SOL    HW231017   3.878   2.497   3.174  0.1989  2.0432  0.6717
 6461SOL     OW31018   4.507   1.430  11.246  0.3029  0.0344  0.6376
 6461SOL    HW131019   4.454   1.504  11.217 -1.1332 -1.6487 -1.0526
 6461SOL    HW231020   4.596   1.456  11.223 -0.4207  0.5290 -1.6682
 6462SOL     OW31021   3.154   1.669   2.134 -0.1831 -0.3236  0.1522
 6462SOL    HW131022   3.087   1.644   2.071  0.3686  0.5446 -0.7780
 6462SOL    HW231023   3.124   1.756   2.161 -0.2970 -1.1669  2.7987
 6463SOL     OW31024   3.963   2.463  10.698  0.1192 -0.0304 -0.0098
 6463SOL    HW131025   4.022   2.536  10.678 -0.3079  0.0148 -1.1437
 6463SOL    HW231026   4.033   2.398  10.703 -1.4382 -1.4594  2.7578
 6464SOL     OW31027   3.014   2.307   5.882  0.1527 -0.1610  0.1959
 6464SOL    HW131028   3.098   2.268   5.857  0.6860  1.3034 -0.2838
 6464SOL    HW231029   2.998   2.379   5.822 -1.6298  0.2976  1.2287
 6465SOL     OW31030   1.505   0.865   6.038 -0.1024  0.0641  0.2298
 6465SOL    HW131031   1.502   0.917   5.957 -0.3096 -0.0053  0.1932
 6465SOL    HW231032   1.599   0.862   6.059 -0.3106  2.6602  1.5312
 6466SOL     OW31033   0.024   2.557   6.790 -0.3962  0.4413  0.3173
 6466SOL    HW131034   0.026   2.464   6.812  0.1315  0.4595  0.3369
 6466SOL    HW231035   0.041   2.610   6.868 -1.3632 -0.1376  0.9103
 6467SOL     OW31036   3.882   4.408   8.945 -0.3439 -0.4703  0.0936
 6467SOL    HW131037   3.959   4.463   8.937  0.0904 -1.0415  0.3403
 6467SOL    HW231038   3.843   4.408   8.858 -1.8747  0.9738  0.7744
 6468SOL     OW31039   0.939   3.600  16.428  0.3220 -0.3108  0.2085
 6468SOL    HW131040   0.975   3.533  16.370  0.4726 -2.0189  2.2848
 6468SOL    HW231041   0.958   3.567  16.515  2.0131  3.4715  1.2514
 6469SOL     OW31042   0.425   3.389   3.849 -0.1719 -0.6187  0.5840
 6469SOL    HW131043   0.467   3.305   3.829 -0.1880  0.1308 -2.6848
 6469SOL    HW231044   0.494   3.426   3.904 -1.9030  1.0853  1.6067
 6470SOL     OW31045   3.981   2.177   3.318  0.4675  0.4608 -0.7233
 6470SOL    HW131046   4.012   2.253   3.268 -0.4268  1.3049  0.0187
 6470SOL    HW231047   3.925   2.218   3.384  1.0018 -0.8466  0.5493
 6471SOL     OW31048   2.790   1.593  17.314  0.0226 -0.2117  0.8965
 6471SOL    HW131049   2.813   1.674  17.360 -0.8255  0.7022 -0.2868
 6471SOL    HW231050   2.825   1.617  17.228  1.1487  0.9454  1.6848
 6472SOL     OW31051   0.903   2.392   0.887  0.1092 -0.3859 -0.3452
 6472SOL    HW131052   0.974   2.429   0.939 -1.0670  2.1687 -0.5837
 6472SOL    HW231053   0.889   2.307   0.931 -1.8216 -0.8903 -1.9238
 6473SOL     OW31054   1.674   1.856  15.828  0.5033 -0.1039 -0.2981
 6473SOL    HW131055   1.674   1.875  15.921  1.5577  1.0444 -0.5401
 6473SOL    HW231056   1.641   1.941  15.798  0.9034  0.7117  1.6096
 6474SOL     OW31057   3.843   3.595   9.342  0.0868  0.5339  0.5958
 6474SOL    HW131058   3.873   3.625   9.256 -1.3149  0.7968  0.2000
 6474SOL    HW231059   3.797   3.517   9.312  2.9636 -1.1336  0.5230
 6475SOL     OW31060   3.364   1.775  14.340  0.6664 -0.0150 -0.6038
 6475SOL    HW131061   3.425   1.845  14.317  1.5430 -0.5376  0.1542
 6475SOL    HW231062   3.292   1.790  14.279 -0.8986 -0.0238  1.2416
 6476SOL     OW31063   4.395   2.908   5.587  0.2088 -0.6713  0.3872
 6476SOL    HW131064   4.487   2.928   5.607  0.5119  0.5002 -2.1413
 6476SOL    HW231065   4.401   2.944   5.499  4.4280 -1.7019  0.2309
 6477SOL     OW31066   0.734   2.431   7.599  0.2681 -0.2885 -0.1158
 6477SOL    HW131067   0.769   2.438   7.510  2.2514 -1.9147  0.5439
 6477SOL    HW231068   0.811   2.454   7.651  0.6071 -0.6115 -0.4843
 6478SOL     OW31069   0.025   1.201   1.023  0.0184 -0.0213 -0.3858
 6478SOL    HW131070   0.054   1.201   1.114 -0.0311 -0.7804 -0.3679
 6478SOL    HW231071   4.719   1.115   1.017  1.8097 -0.8988 -0.6296
 6479SOL     OW31072   2.513   1.671   8.031  0.3405 -0.1055 -0.0321
 6479SOL    HW131073   2.507   1.611   7.956 -0.7999  0.8230 -0.6878
 6479SOL    HW231074   2.606   1.658   8.052 -0.2445 -1.3148  1.7009
 6480SOL     OW31075   1.456   0.833  14.547 -0.2478 -0.0130 -0.8428
 6480SOL    HW131076   1.411   0.760  14.505  1.1321 -0.8101 -0.9630
 6480SOL    HW231077   1.428   0.815  14.637 -1.7358  1.9818 -0.9242
 6481SOL     OW31078   3.780   2.811   6.800 -0.4046 -0.2852  0.4222
 6481SOL    HW131079   3.846   2.748   6.774 -0.5035  0.7925 -2.4666
 6481SOL    HW231080   3.715   2.781   6.736  0.4756 -2.1955  0.4446
 6482SOL     OW31081   3.849   0.595   7.635  0.0998 -0.0425 -0.3358
 6482SOL    HW131082   3.840   0.509   7.594 -0.2276 -0.0057 -0.3380
 6482SOL    HW231083   3.845   0.575   7.729 -3.6611 -3.6420 -1.2956
 6483SOL     OW31084   1.319   3.612  15.068 -0.1826  0.4771 -1.1858
 6483SOL    HW131085   1.274   3.545  15.016  0.6018 -2.0213  1.3334
 6483SOL    HW231086   1.247   3.669  15.092  0.4407  1.3221 -1.3266
 6484SOL     OW31087   2.236   1.632   3.121 -0.3188  0.1420 -0.2528
 6484SOL    HW131088   2.221   1.726   3.105 -0.3776 -0.4189 -3.4358
 6484SOL    HW231089   2.323   1.624   3.159  0.1195 -0.9645 -1.5082
 6485SOL     OW31090   2.390   3.466   3.573 -0.2253  0.3674 -0.4614
 6485SOL    HW131091   2.395   3.484   3.667 -0.4984  0.4446 -0.4636
 6485SOL    HW231092   2.412   3.373   3.583 -2.1518  0.1672  1.7646
 6486SOL     OW31093   4.583   1.536   4.066 -0.0408 -0.2905  0.4416
 6486SOL    HW131094   4.489   1.542   4.077 -0.4697 -4.0367 -1.4081
 6486SOL    HW231095   4.607   1.622   4.032 -0.3697 -1.0539 -1.7277
 6487SOL     OW31096   2.653   4.011  16.615 -0.4637 -0.7552  0.8520
 6487SOL    HW131097   2.618   3.924  16.628  0.2346 -1.0981  0.4574
 6487SOL    HW231098   2.668   4.003  16.521 -1.0508  0.0320  0.6885
 6488SOL     OW31099   3.635   0.676   6.694  0.3198 -0.2778  0.0332
 6488SOL    HW131100   3.630   0.661   6.599 -0.4173  1.1045 -0.1483
 6488SOL    HW231101   3.695   0.750   6.689  0.1819 -0.0964  1.1798
 6489SOL     OW31102   1.934   1.022   2.824 -0.6096 -0.3629  0.6070
 6489SOL    HW131103   1.983   1.104   2.818 -0.8293 -0.3311 -0.6915
 6489SOL    HW231104   1.995   0.963   2.780  0.3596 -0.3641  1.9692
 6490SOL     OW31105   3.433   1.136  10.402  0.4274  0.0395 -0.7002
 6490SOL    HW131106   3.493   1.171  10.336  0.8116 -1.1065 -0.9672
 6490SOL    HW231107   3.399   1.056  10.363  2.6636  0.0288 -2.6514
 6491SOL     OW31108   1.580   4.722   2.800  0.5470  0.4610 -0.3440
 6491SOL    HW131109   1.597   0.058   2.740 -1.2241  0.9743 -0.2423
 6491SOL    HW231110   1.650   0.001   2.863 -0.8897  1.5765  0.9790
 6492SOL     OW31111   3.184   4.584   5.318 -0.3697 -0.0997 -0.1340
 6492SOL    HW131112   3.244   4.656   5.336  1.5928 -1.5427 -0.8084
 6492SOL    HW231113   3.159   4.601   5.228 -1.3424  0.5980  0.2776
 6493SOL     OW31114   0.213   4.732   3.936  0.2639  0.0100 -0.2445
 6493SOL    HW131115   0.149   0.065   3.942  1.4966  0.8238  3.4014
 6493SOL    HW231116   0.229   4.735   3.842  0.0355 -0.4242 -0.2968
 6494SOL     OW31117   0.436   0.776  12.703  0.4206  0.6464 -0.1449
 6494SOL    HW131118   0.451   0.689  12.741  0.4937  1.7947  2.4635
 6494SOL    HW231119   0.485   0.831  12.763 -2.4866  1.7565  1.2292
 6495SOL     OW31120   3.816   1.552  16.432  0.3623 -0.2802  0.4134
 6495SOL    HW131121   3.797   1.608  16.357 -1.0922 -1.2652  0.0434
 6495SOL    HW231122   3.815   1.613  16.505 -0.2887  0.8660 -0.5531
 6496SOL     OW31123   1.846   1.441   6.141  0.0744 -0.2799 -0.2401
 6496SOL    HW131124   1.819   1.354   6.112  1.5657 -0.6964 -0.3563
 6496SOL    HW231125   1.802   1.441   6.226 -0.4955  2.8862 -0.5443
 6497SOL     OW31126   2.440   1.768   9.097  0.3886 -1.1273  0.3074
 6497SOL    HW131127   2.415   1.753   9.188 -1.8654 -4.5997 -0.9067
 6497SOL    HW231128   2.524   1.814   9.106 -0.0085 -0.1668 -0.8230
 6498SOL     OW31129   2.254   0.186   9.917 -0.1725 -0.3800 -0.5420
 6498SOL    HW131130   2.254   0.277   9.947 -0.8999  0.7338 -3.9267
 6498SOL    HW231131   2.344   0.180   9.885 -0.0303  2.9558 -0.7197
 6499SOL     OW31132   0.693   2.272   2.533  0.1213  0.1490  0.0956
 6499SOL    HW131133   0.623   2.336   2.520  2.0752  2.2901  0.2550
 6499SOL    HW231134   0.775   2.316   2.513  0.6144  1.0644  4.2273
 6500SOL     OW31135   1.975   3.398   5.285  0.5059 -0.2471 -0.4917
 6500SOL    HW131136   1.989   3.490   5.261 -2.1911  1.2030  3.3884
 6500SOL    HW231137   1.904   3.384   5.222 -0.6862  0.5598  0.6635
 6501SOL     OW31138   0.036   3.650  15.531 -0.1668  0.3067  0.0827
 6501SOL    HW131139   0.050   3.679  15.620  0.3397  0.3949 -0.0295
 6501SOL    HW231140   4.733   3.727  15.489 -1.4794 -0.2843  0.2323
 6502SOL     OW31141   2.376   4.137   9.148 -0.3268 -0.1433  0.4140
 6502SOL    HW131142   2.383   4.063   9.089 -2.6947  0.2417 -0.3559
 6502SOL    HW231143   2.466   4.149   9.176 -0.2408  0.4763 -0.1121
 6503SOL     OW31144   2.195   2.370  14.741  0.1056  0.3256 -0.2135
 6503SOL    HW131145   2.187   2.341  14.832 -1.8314  0.0138 -0.4819
 6503SOL    HW231146   2.265   2.314  14.706  2.5943  1.8905  2.2469
 6504SOL     OW31147   3.207   1.414   1.917 -0.3177  0.4108 -0.3496
 6504SOL    HW131148   3.189   1.410   2.011  0.3358  0.6517 -0.2117
 6504SOL    HW231149   3.301   1.435   1.914 -1.0924  4.1889  2.0976
 6505SOL     OW31150   3.449   2.935   2.976 -0.7020  0.2984 -0.3791
 6505SOL    HW131151   3.463   3.008   2.915  1.4982  0.1133 -0.0807
 6505SOL    HW231152   3.506   2.970   3.044 -2.1096  2.2245 -0.1755
 6506SOL     OW31153   2.888   1.175  15.334 -0.0908 -0.2088 -0.0133
 6506SOL    HW131154   2.964   1.228  15.311 -0.8133  0.2829 -1.2425
 6506SOL    HW231155   2.832   1.165  15.257 -2.0572  0.1699  1.3662
 6507SOL     OW31156   4.582   4.650   6.178 -0.6166 -0.4680  0.0065
 6507SOL    HW131157   4.525   4.619   6.249 -0.4007  0.2054  0.4711
 6507SOL    HW231158   4.519   4.689   6.116  1.9804 -0.8710 -2.8851
 6508SOL     OW31159   1.186   0.928  11.657  0.2915 -0.2840  0.3336
 6508SOL    HW131160   1.117   0.876  11.616 -0.3754  0.5236  0.4371
 6508SOL    HW231161   1.147   1.014  11.672  1.9105  0.4682  0.2908
 6509SOL     OW31162   2.351   2.882   2.942 -0.2216 -0.0101  0.6969
 6509SOL    HW131163   2.272   2.881   2.996  0.8526  0.5885  2.2528
 6509SOL    HW231164   2.420   2.890   3.007  1.6480  1.0981 -1.4088
 6510SOL     OW31165   0.574   3.871   3.720 -0.4755  0.2264 -0.2552
 6510SOL    HW131166   0.484   3.844   3.736 -1.0570  1.4460 -1.4585
 6510SOL    HW231167   0.617   3.809   3.780 -1.1650  1.6006  1.6756
 6511SOL     OW31168   2.234   3.080  11.302  0.6352 -0.1021 -0.8782
 6511SOL    HW131169   2.310   3.033  11.268 -0.5261 -1.1190 -2.0619
 6511SOL    HW231170   2.176   3.007  11.325  1.6209 -1.0653 -1.4840
 6512SOL     OW31171   2.052   1.087   9.539 -0.1515 -0.6453 -0.1444
 6512SOL    HW131172   1.981   1.061   9.480  1.2562 -0.5108 -1.9217
 6512SOL    HW231173   2.129   1.086   9.481  0.3036  3.2146  0.4333
 6513SOL     OW31174   2.828   1.137   8.233  0.3056 -0.3711 -0.0397
 6513SOL    HW131175   2.921   1.146   8.211 -0.0623  1.0869 -0.9909
 6513SOL    HW231176   2.796   1.210   8.181  2.1187 -0.2591 -0.9891
 6514SOL     OW31177   3.948   4.492  17.245  0.4388  0.1993 -0.7881
 6514SOL    HW131178   3.897   4.535  17.177  0.1276 -0.3602 -0.9065
 6514SOL    HW231179   3.938   4.550  17.320  2.1638  0.0988 -0.4667
 6515SOL     OW31180   1.232   1.182  12.440 -0.4280  0.3749 -1.0017
 6515SOL    HW131181   1.276   1.227  12.513 -1.2674  0.1836 -0.3788
 6515SOL    HW231182   1.158   1.240  12.422 -0.3748  0.2588 -1.5918
 6516SOL     OW31183   3.390   0.874   6.101  0.4121 -0.5217 -0.2788
 6516SOL    HW131184   3.360   0.894   6.190 -0.7864  1.1211 -1.0682
 6516SOL    HW231185   3.366   0.781   6.102 -0.8701 -0.1644  2.6524
 6517SOL     OW31186   3.333   4.620  14.905  0.1734 -0.2377  0.2148
 6517SOL    HW131187   3.375   4.537  14.881  0.5088 -0.0335  0.1020
 6517SOL    HW231188   3.408   4.679  14.897  2.5522 -2.9516  2.4135
 6518SOL     OW31189   1.235   1.997   3.801 -0.6693  0.4805  0.2409
 6518SOL    HW131190   1.197   1.983   3.714  1.7090  0.6424 -0.8056
 6518SOL    HW231191   1.157   1.990   3.857 -0.9075 -0.2628 -0.1846
 6519SOL     OW31192   3.860   2.013   6.644 -0.0713  0.4684 -0.0232
 6519SOL    HW131193   3.766   2.026   6.650  0.2345  1.3362  2.8361
 6519SOL    HW231194   3.869   1.969   6.728 -1.9284  2.1903  1.0704
 6520SOL     OW31195   3.277   3.312   4.209  0.6913  0.6879  0.0232
 6520SOL    HW131196   3.358   3.312   4.261  0.4208 -2.1361  0.4626
 6520SOL    HW231197   3.270   3.405   4.186  0.9827  0.5394 -0.6610
 6521SOL     OW31198   1.506   4.246   8.876  0.2249 -0.1729  0.1119
 6521SOL    HW131199   1.586   4.247   8.825  0.0810 -1.7053 -0.1484
 6521SOL    HW231200   1.471   4.335   8.870  0.8037 -0.0799 -1.6761
 6522SOL     OW31201   4.693   0.198   5.512  0.1391 -0.0249  0.8989
 6522SOL    HW131202   0.001   0.264   5.459  1.5971 -0.4623  1.5728
 6522SOL    HW231203   4.660   0.252   5.583 -1.6280  0.9709 -0.6883
 6523SOL     OW31204   1.653   1.163   6.005  0.3254 -0.0248 -0.0784
 6523SOL    HW131205   1.722   1.102   6.033  0.7259  0.4147 -0.1089
 6523SOL    HW231206   1.612   1.176   6.090 -0.1481  0.8974 -0.4537
 6524SOL     OW31207   2.377   3.174  14.296 -0.0502  0.5706  0.1474
 6524SOL    HW131208   2.306   3.236  14.313  0.3573  1.1885 -0.3539
 6524SOL    HW231209   2.449   3.232  14.269  0.8170 -1.5876 -2.2122
 6525SOL     OW31210   1.931   1.881   6.460  0.0812  0.5076 -0.2522
 6525SOL    HW131211   1.873   1.889   6.536  0.2543  2.8471 -0.3885
 6525SOL    HW231212   1.995   1.947   6.486 -1.0864  0.6061  2.3926
 6526SOL     OW31213   2.604   0.473   8.167  0.3083  0.3977  0.4725
 6526SOL    HW131214   2.512   0.482   8.191 -0.0201  0.6485 -0.8629
 6526SOL    HW231215   2.654   0.465   8.248  1.1338  1.7129  0.0891
 6527SOL     OW31216   4.383   4.688  16.775  0.8817  0.1663 -0.5343
 6527SOL    HW131217   4.393   0.045  16.789  1.6575 -0.2794  1.9238
 6527SOL    HW231218   4.349   4.657  16.860  0.8093  0.2071 -0.5483
 6528SOL     OW31219   3.318   4.136   0.553 -0.1556  0.3812  0.4406
 6528SOL    HW131220   3.408   4.142   0.586  0.5556  1.9508 -1.8190
 6528SOL    HW231221   3.270   4.179   0.624  1.6107  0.4848  1.5888
 6529SOL     OW31222   1.181   0.694   3.578  0.1291 -0.2849  0.3853
 6529SOL    HW131223   1.220   0.726   3.496 -0.2051 -2.2625 -0.5341
 6529SOL    HW231224   1.165   0.774   3.628 -1.3669  0.4444 -1.2565
 6530SOL     OW31225   3.282   0.918   4.103 -0.2007 -0.3137  0.1257
 6530SOL    HW131226   3.370   0.908   4.065  0.4215  1.6147  1.0846
 6530SOL    HW231227   3.219   0.955   4.042 -0.8426 -0.6832  0.5704
 6531SOL     OW31228   3.259   1.056   4.336 -0.3372  0.1297  0.4809
 6531SOL    HW131229   3.247   1.033   4.244 -0.9646 -2.3176  1.1799
 6531SOL    HW231230   3.215   0.986   4.384 -0.0185  1.0582  2.1070
 6532SOL     OW31231   3.797   1.774   2.143 -0.2314  0.0523 -0.8206
 6532SOL    HW131232   3.830   1.828   2.215 -2.6125 -0.1502  0.4089
 6532SOL    HW231233   3.806   1.836   2.071  0.3668  0.2548 -0.5726
 6533SOL     OW31234   2.502   3.761   8.496 -0.0508 -0.1934  0.1158
 6533SOL    HW131235   2.553   3.826   8.546  0.1300  0.4763 -0.9421
 6533SOL    HW231236   2.536   3.680   8.534 -1.2157 -1.3112 -1.2584
 6534SOL     OW31237   1.236   0.722   0.387  0.2114  0.0327 -0.8706
 6534SOL    HW131238   1.159   0.774   0.365 -1.3745 -1.2518  1.6577
 6534SOL    HW231239   1.308   0.783   0.405 -0.7842  0.3410  2.2316
 6535SOL     OW31240   3.785   2.109   7.142 -0.2035  0.5190 -0.9805
 6535SOL    HW131241   3.732   2.143   7.214  1.2957  1.1433 -0.1457
 6535SOL    HW231242   3.877   2.115   7.171 -1.4627  1.0284  2.8917
 6536SOL     OW31243   2.358   1.481   0.905 -0.1491 -0.1619 -0.4977
 6536SOL    HW131244   2.272   1.514   0.879 -0.5855  0.3469  1.5706
 6536SOL    HW231245   2.329   1.395   0.938 -1.9499  1.8377  3.1383
 6537SOL     OW31246   0.531   1.702   8.338 -0.3638 -0.0366 -0.0486
 6537SOL    HW131247   0.490   1.729   8.256 -1.3063  2.1909  1.1872
 6537SOL    HW231248   0.467   1.714   8.408 -2.4739 -2.6423 -1.5338
 6538SOL     OW31249   3.910   4.081   0.103 -0.2070 -0.5962 -0.3081
 6538SOL    HW131250   3.884   4.172   0.116 -0.8415 -0.9562  0.9500
 6538SOL    HW231251   3.961   4.060   0.181  0.1384 -3.4888 -1.3086
 6539SOL     OW31252   2.017   0.631   2.968 -0.0387 -0.0126  0.2934
 6539SOL    HW131253   2.062   0.716   2.961 -1.8408  0.9470  0.4762
 6539SOL    HW231254   1.936   0.645   3.017 -0.7255 -0.9323 -0.5809
 6540SOL     OW31255   2.523   3.184   3.515 -0.4833  0.1269  0.1492
 6540SOL    HW131256   2.524   3.095   3.480  1.0650 -0.5451  1.9098
 6540SOL    HW231257   2.598   3.229   3.476  1.1973 -2.5947  0.2396
 6541SOL     OW31258   4.338   0.099   7.664  0.2316 -0.4570 -0.6897
 6541SOL    HW131259   4.423   0.090   7.620  0.4087 -0.2601 -0.3840
 6541SOL    HW231260   4.355   0.088   7.757  2.3180  1.9552 -0.7815
 6542SOL     OW31261   3.933   3.068   3.833  1.0311  0.3251 -0.6107
 6542SOL    HW131262   3.989   3.080   3.757  1.7558  3.6252  0.4547
 6542SOL    HW231263   3.996   3.013   3.880  1.0757 -0.4521 -1.5821
 6543SOL     OW31264   3.936   2.922   4.932 -0.2249 -0.2355  0.3881
 6543SOL    HW131265   3.935   2.851   4.867 -0.8993  0.0714  0.0590
 6543SOL    HW231266   4.006   2.978   4.897  0.2068 -1.4043 -0.6362
 6544SOL     OW31267   1.215   1.575   6.473 -0.1221 -0.1698  0.1694
 6544SOL    HW131268   1.154   1.580   6.399  0.5075 -0.8593 -0.3961
 6544SOL    HW231269   1.300   1.565   6.431 -0.6775  0.4666 -1.1167
 6545SOL     OW31270   0.136   0.947  13.436  0.2651  0.3666  0.1919
 6545SOL    HW131271   0.211   0.898  13.402 -0.1605 -0.3860  0.3292
 6545SOL    HW231272   0.179   0.995  13.507  0.1168 -2.3313  2.1116
 6546SOL     OW31273   2.636   0.048  16.821  0.0595  0.2933  0.3782
 6546SOL    HW131274   2.595   0.026  16.905 -2.1054  1.7428 -0.2829
 6546SOL    HW231275   2.622   0.143  16.825 -0.1139  0.2475  0.8135
 6547SOL     OW31276   1.788   3.417   9.646  0.5061  0.3659  0.5959
 6547SOL    HW131277   1.767   3.481   9.578 -0.1280 -0.1619  0.2988
 6547SOL    HW231278   1.704   3.372   9.656  0.6731 -0.1422 -0.3283
 6548SOL     OW31279   4.070   1.467   3.334 -0.0900 -0.5317  0.3364
 6548SOL    HW131280   4.110   1.434   3.415  0.5061  3.3079  1.6373
 6548SOL    HW231281   4.074   1.561   3.354  2.2920 -0.4826 -0.4313
 6549SOL     OW31282   2.788   0.073  13.647  0.0916 -0.2776  0.0302
 6549SOL    HW131283   2.831   0.041  13.726  1.4638  1.0999 -0.1790
 6549SOL    HW231284   2.730   0.005  13.613 -1.0111  0.1153  1.1008
 6550SOL     OW31285   2.625   3.498   6.735 -0.1981 -0.3999 -0.4913
 6550SOL    HW131286   2.579   3.443   6.798 -0.4590  1.9112  1.3441
 6550SOL    HW231287   2.697   3.439   6.713 -1.1051 -0.7594 -2.5065
 6551SOL     OW31288   0.146   2.030  16.800  0.1674  0.6136 -0.1422
 6551SOL    HW131289   0.055   2.060  16.804 -0.2194 -0.5609 -0.1646
 6551SOL    HW231290   0.182   2.109  16.761  0.8119  0.1692 -0.4416
 6552SOL     OW31291   2.738   2.639   4.545  0.2983 -0.2964 -0.0962
 6552SOL    HW131292   2.728   2.582   4.622  1.8236 -1.5149 -0.7993
 6552SOL    HW231293   2.664   2.698   4.559  1.0988  1.2984 -2.4818
 6553SOL     OW31294   4.198   3.527   4.945  0.5978  0.2657 -0.2707
 6553SOL    HW131295   4.255   3.533   5.022 -0.3674  0.8265  0.4125
 6553SOL    HW231296   4.235   3.592   4.886 -1.1326 -0.0057 -1.6584
 6554SOL     OW31297   2.999   4.061  12.917 -0.6932 -0.3766  0.7662
 6554SOL    HW131298   3.050   4.125  12.966  0.8133  0.4701 -1.9460
 6554SOL    HW231299   3.064   4.041  12.850  1.2225  0.1931  2.4244
 6555SOL     OW31300   1.222   4.636   5.928  0.4334 -0.2988 -0.0668
 6555SOL    HW131301   1.243   4.729   5.939  1.7945 -0.5964 -0.0978
 6555SOL    HW231302   1.178   4.606   6.007 -1.1026  2.7284  0.2416
 6556SOL     OW31303   4.519   3.396   7.139  0.1121 -0.4606 -0.4814
 6556SOL    HW131304   4.449   3.330   7.133  0.0194 -0.5167  1.1556
 6556SOL    HW231305   4.525   3.405   7.235  1.1695  1.4465 -0.7252
 6557SOL     OW31306   1.054   1.348   7.659  0.0569  0.3118 -0.0628
 6557SOL    HW131307   0.992   1.367   7.588  1.6034  0.1839 -1.4647
 6557SOL    HW231308   1.133   1.325   7.610 -0.1086  0.3451 -0.3446
 6558SOL     OW31309   2.720   4.262  16.723  0.4895 -0.1445 -0.6660
 6558SOL    HW131310   2.692   4.180  16.683  0.0674 -0.3356  0.0287
 6558SOL    HW231311   2.814   4.248  16.723  0.8940  2.6585  0.1740
 6559SOL     OW31312   0.796   0.246   1.634  0.6107  0.2820  0.1262
 6559SOL    HW131313   0.714   0.216   1.594  1.7798 -0.2146 -1.8916
 6559SOL    HW231314   0.757   0.318   1.684  1.1480  0.9184 -0.3767
 6560SOL     OW31315   4.403   0.272  13.952 -0.0487  0.3313 -0.4758
 6560SOL    HW131316   4.486   0.234  13.923  0.7256  1.9265 -0.3539
 6560SOL    HW231317   4.431   0.303  14.039 -0.7613 -0.2524 -0.0331
 6561SOL     OW31318   2.193   4.130  12.958 -0.1330 -0.2270  0.1637
 6561SOL    HW131319   2.232   4.149  13.043 -0.0251 -0.3646  0.1446
 6561SOL    HW231320   2.144   4.052  12.983  1.0135 -0.7851  0.6353
 6562SOL     OW31321   2.600   4.688  13.476 -0.4239 -0.1339  0.0241
 6562SOL    HW131322   2.584   4.715  13.386 -1.0604  3.8169  1.3155
 6562SOL    HW231323   2.653   4.610  13.456  0.9015  0.9272 -0.6743
 6563SOL     OW31324   1.122   1.667  14.807  0.3675 -0.1905 -0.2218
 6563SOL    HW131325   1.193   1.725  14.836  0.7217 -1.3747  1.2704
 6563SOL    HW231326   1.134   1.657  14.712 -0.0263  1.2776 -0.4203
 6564SOL     OW31327   2.298   2.003  14.876 -0.4151  0.2998 -0.4527
 6564SOL    HW131328   2.311   1.937  14.808 -2.9711  1.1012 -1.7355
 6564SOL    HW231329   2.242   1.951  14.935  0.2788 -0.5992 -0.5917
 6565SOL     OW31330   2.713   1.706   9.102 -0.1725 -0.3710  0.6743
 6565SOL    HW131331   2.660   1.677   9.176 -3.5732  1.7040 -0.9297
 6565SOL    HW231332   2.797   1.713   9.147 -0.6614 -0.7700  1.6335
 6566SOL     OW31333   0.504   3.643   8.981  0.6610 -0.4246 -0.3589
 6566SOL    HW131334   0.417   3.618   9.013  1.6659 -1.6751  1.3741
 6566SOL    HW231335   0.545   3.556   8.987  2.6912  0.5550 -0.1554
 6567SOL     OW31336   0.589   4.198   2.777 -0.0653  0.6851  0.1378
 6567SOL    HW131337   0.589   4.104   2.791 -2.5515  0.7587  0.7175
 6567SOL    HW231338   0.648   4.196   2.702 -0.0007 -1.3271  0.2459
 6568SOL     OW31339   2.177   3.919  13.524  0.0255 -0.3120 -0.5816
 6568SOL    HW131340   2.149   3.996  13.474 -0.0133 -1.5351 -2.4213
 6568SOL    HW231341   2.264   3.921  13.485  0.5868  0.4504  0.7016
 6569SOL     OW31342   2.337   0.796   0.457  0.0427  0.0650  0.1478
 6569SOL    HW131343   2.315   0.795   0.551 -2.0615 -1.0041 -0.3668
 6569SOL    HW231344   2.322   0.885   0.424 -1.2161 -0.4230 -0.5965
 6570SOL     OW31345   2.844   2.415   8.429  0.6651 -0.7296 -0.2283
 6570SOL    HW131346   2.764   2.467   8.444  0.7352 -1.1320  1.5704
 6570SOL    HW231347   2.913   2.468   8.469  0.2741 -1.2484  1.1255
 6571SOL     OW31348   3.905   1.988   6.196  0.4427  0.3422 -0.9257
 6571SOL    HW131349   3.847   2.042   6.251  0.9437 -2.0424  1.9642
 6571SOL    HW231350   3.886   2.029   6.112  0.1058  0.5236 -0.7619
 6572SOL     OW31351   3.444   2.074   4.130 -0.2786 -0.8250  0.8208
 6572SOL    HW131352   3.420   2.164   4.153  0.4292 -0.3280 -0.3835
 6572SOL    HW231353   3.512   2.050   4.192 -2.5331 -2.1428  2.7821
 6573SOL     OW31354   2.304   0.720   3.807 -0.1295  0.1187  0.2445
 6573SOL    HW131355   2.297   0.812   3.831  1.3164  0.1673  0.4879
 6573SOL    HW231356   2.234   0.718   3.742 -0.4678  0.6473  0.5940
 6574SOL     OW31357   1.227   3.115  14.039 -0.2586 -0.2628 -0.7131
 6574SOL    HW131358   1.275   3.140  14.117 -1.6724  0.2390 -0.0096
 6574SOL    HW231359   1.297   3.136  13.976  0.2271  1.5444  0.4273
 6575SOL     OW31360   0.379   4.286   6.454  0.3326 -0.4516  0.2254
 6575SOL    HW131361   0.342   4.202   6.481 -1.8829  0.9875  1.6782
 6575SOL    HW231362   0.342   4.296   6.366 -1.1383 -5.1931  0.3037
 6576SOL     OW31363   3.698   3.899   4.419 -0.5393  0.2247  0.1278
 6576SOL    HW131364   3.671   3.811   4.445  0.7008  0.7693  3.2438
 6576SOL    HW231365   3.663   3.949   4.492  0.4048  1.6685 -0.4092
 6577SOL     OW31366   2.770   4.170   6.195  0.3823 -0.3608  0.2499
 6577SOL    HW131367   2.819   4.251   6.205  0.2551 -0.1242 -1.0323
 6577SOL    HW231368   2.824   4.108   6.244  1.0003  2.1290  2.7101
 6578SOL     OW31369   3.577   3.038   1.646  0.0202 -0.1356  0.0849
 6578SOL    HW131370   3.544   2.994   1.568  2.1177  0.4556 -1.1488
 6578SOL    HW231371   3.622   3.110   1.602 -2.1607  0.8755 -0.4640
 6579SOL     OW31372   0.423   2.413   4.129 -0.0909  0.0107 -0.1342
 6579SOL    HW131373   0.345   2.378   4.085 -1.3938  2.6143  0.1326
 6579SOL    HW231374   0.409   2.507   4.130 -0.4158 -0.0378  0.1896
 6580SOL     OW31375   3.965   3.207  12.968  0.3488  0.1863 -0.4106
 6580SOL    HW131376   3.942   3.288  13.015 -1.4005 -0.3031 -0.4088
 6580SOL    HW231377   3.940   3.139  13.030 -1.7041 -0.0624 -1.4979
 6581SOL     OW31378   4.126   4.505   1.881 -0.6752  0.3802  0.2276
 6581SOL    HW131379   4.165   4.439   1.824 -2.8583  2.0948 -3.2738
 6581SOL    HW231380   4.081   4.446   1.941 -0.7614 -1.3657 -1.5600
 6582SOL     OW31381   1.096   3.766   5.764 -0.2607  0.0383 -0.0631
 6582SOL    HW131382   1.141   3.843   5.730  2.3273 -0.5633  2.0507
 6582SOL    HW231383   1.084   3.706   5.690  0.2700  1.7056 -1.4992
 6583SOL     OW31384   1.136   3.738   6.040  0.1153 -0.8208 -0.0755
 6583SOL    HW131385   1.105   3.731   5.950  0.4955  0.3152 -0.2933
 6583SOL    HW231386   1.174   3.826   6.041  0.8201 -1.1137 -0.9286
 6584SOL     OW31387   4.092   3.053   4.736 -0.1090 -0.2771  0.3530
 6584SOL    HW131388   4.178   3.093   4.750  0.6022 -0.6676 -2.7316
 6584SOL    HW231389   4.103   3.011   4.650  0.3433 -0.2057  0.3734
 6585SOL     OW31390   0.728   3.258   1.545 -0.1696  0.4009  0.1255
 6585SOL    HW131391   0.803   3.263   1.487 -0.9607  3.7541 -0.6124
 6585SOL    HW231392   0.752   3.181   1.596  1.8146  1.2655  0.4893
 6586SOL     OW31393   0.930   2.968   3.031  0.0155  0.3410 -0.5239
 6586SOL    HW131394   1.025   2.958   3.028  0.0167  0.0482  0.6440
 6586SOL    HW231395   0.915   2.958   3.125  0.6398 -1.4491 -0.6057
 6587SOL     OW31396   2.242   3.591   8.701 -0.0711 -0.3969 -0.2077
 6587SOL    HW131397   2.189   3.660   8.661 -1.1590 -0.2833  1.4500
 6587SOL    HW231398   2.177   3.541   8.751 -1.0173  0.0880 -0.9551
 6588SOL     OW31399   0.071   1.527  13.202  0.4763 -0.0680  0.3013
 6588SOL    HW131400   0.139   1.595  13.194 -0.2133  0.6995  0.8989
 6588SOL    HW231401   0.106   1.461  13.143  2.0835  0.2956  0.8386
 6589SOL     OW31402   4.594   3.460   8.542  0.1517  0.2584 -0.0157
 6589SOL    HW131403   4.635   3.545   8.553 -0.1440  0.3880  0.0817
 6589SOL    HW231404   4.538   3.479   8.467 -0.7197  0.5562  0.7210
 6590SOL     OW31405   2.762   4.033   5.939 -0.0085  0.3810  0.1106
 6590SOL    HW131406   2.692   3.975   5.968 -1.2301  1.4446 -0.6783
 6590SOL    HW231407   2.783   4.067   6.026  0.6546 -1.1745  0.5581
 6591SOL     OW31408   3.518   3.108   7.295  0.1837  0.2028  0.1828
 6591SOL    HW131409   3.537   3.015   7.298 -1.5844 -0.1497  0.8893
 6591SOL    HW231410   3.605   3.143   7.276  0.3148  0.2661  0.9231
 6592SOL     OW31411   0.750   2.522  16.199 -0.3919  0.5085  0.2047
 6592SOL    HW131412   0.693   2.581  16.249 -0.5988  1.2682 -0.9191
 6592SOL    HW231413   0.838   2.548  16.227 -0.1587 -0.2347  0.1455
 6593SOL     OW31414   0.713   4.131   6.429  0.7089  0.9275 -0.3716
 6593SOL    HW131415   0.657   4.104   6.356  0.9881  0.0508 -0.2664
 6593SOL    HW231416   0.793   4.083   6.406  0.6408  0.4245  0.4427
 6594SOL     OW31417   1.215   1.494   0.132 -0.5449 -0.8588 -0.5480
 6594SOL    HW131418   1.282   1.541   0.082 -1.3721 -0.6305 -1.4510
 6594SOL    HW231419   1.260   1.468   0.212  0.9064  0.4837 -0.9238
 6595SOL     OW31420   1.576   2.329  13.859  0.5679  0.2117  0.1233
 6595SOL    HW131421   1.494   2.324  13.808  0.9098  0.7385 -0.4845
 6595SOL    HW231422   1.585   2.236  13.881  0.3272  0.3470  0.7966
 6596SOL     OW31423   2.299   3.368   6.226 -0.2293 -0.3140  0.7662
 6596SOL    HW131424   2.345   3.315   6.292  1.5606  1.3946  0.8867
 6596SOL    HW231425   2.376   3.414   6.193  0.0637  0.3039  2.2919
 6597SOL     OW31426   1.867   1.491   7.316  0.7474 -0.1423 -0.0680
 6597SOL    HW131427   1.795   1.543   7.352  1.9483  0.1697  1.8804
 6597SOL    HW231428   1.911   1.565   7.274 -0.7702 -0.0148 -1.4483
 6598SOL     OW31429   2.668   2.525   1.392 -0.0820  0.0297  0.2403
 6598SOL    HW131430   2.573   2.536   1.393 -0.4003 -2.5363 -1.4258
 6598SOL    HW231431   2.683   2.564   1.478 -2.7570  0.4407  0.5107
 6599SOL     OW31432   2.126   1.559  11.824  0.0792 -0.9994 -0.1528
 6599SOL    HW131433   2.144   1.588  11.735  1.0962 -1.6972 -0.1757
 6599SOL    HW231434   2.207   1.509  11.833  0.1802 -0.5298  1.5020
 6600SOL     OW31435   3.015   2.198   3.564  0.1979 -0.0493 -0.3852
 6600SOL    HW131436   2.957   2.128   3.596  0.1917  0.4123  0.6269
 6600SOL    HW231437   3.060   2.222   3.645  1.1929  1.1401 -1.3044
 6601SOL     OW31438   3.023   4.585  11.121 -0.3218 -0.4094 -0.1677
 6601SOL    HW131439   2.942   4.615  11.080  1.4371  1.0366 -2.5598
 6601SOL    HW231440   2.996   4.511  11.176  0.1092  0.6027  1.3947
 6602SOL     OW31441   2.041   1.511   9.780  0.1273 -0.8746 -0.4083
 6602SOL    HW131442   2.060   1.443   9.715  1.4173  0.8077 -1.7909
 6602SOL    HW231443   2.099   1.577   9.742 -0.8029 -0.1444 -0.5802
 6603SOL     OW31444   1.008   3.152  12.485 -0.0664  0.5004  0.6699
 6603SOL    HW131445   1.100   3.130  12.472 -0.0299  2.2336 -2.0836
 6603SOL    HW231446   0.977   3.168  12.396  0.1034  0.0906  0.5375
 6604SOL     OW31447   0.322   0.915   2.177  0.6570 -0.6895 -0.3251
 6604SOL    HW131448   0.315   0.999   2.133  0.0418  0.3631  1.7513
 6604SOL    HW231449   0.320   0.850   2.107  0.0849  0.0669 -0.9940
 6605SOL     OW31450   1.356   0.029   1.313  0.1290 -0.1222 -0.3540
 6605SOL    HW131451   1.316   4.715   1.243 -2.9957  0.7347  0.7979
 6605SOL    HW231452   1.349   4.708   1.389  1.7199  0.2530  0.0901
 6606SOL     OW31453   2.690   2.005  10.732  0.0140 -0.4897 -0.6158
 6606SOL    HW131454   2.665   2.081  10.784  2.4043  1.4723 -2.3508
 6606SOL    HW231455   2.605   1.988  10.691 -0.9577 -1.0931  1.6789
 6607SOL     OW31456   3.753   0.998   8.213 -0.4432  0.6633 -0.4431
 6607SOL    HW131457   3.787   1.087   8.207  1.0514  0.0890 -0.4410
 6607SOL    HW231458   3.694   1.009   8.288 -0.2266  2.3889 -0.5305
 6608SOL     OW31459   0.343   1.041   4.339 -0.3994 -0.2705 -0.5307
 6608SOL    HW131460   0.312   1.028   4.249 -0.8310  0.2011 -0.4512
 6608SOL    HW231461   0.262   1.016   4.385 -0.3924  0.1098 -0.3166
 6609SOL     OW31462   1.358   2.266   8.142 -0.1422  0.3928  0.0032
 6609SOL    HW131463   1.413   2.290   8.068  0.3392  1.1779  0.6282
 6609SOL    HW231464   1.294   2.215   8.091  0.7552  0.4290 -1.1723
 6610SOL     OW31465   0.066   4.451  11.978 -0.3152 -0.3490  0.0910
 6610SOL    HW131466   0.058   4.498  11.895  2.1040 -0.5976 -0.3009
 6610SOL    HW231467   4.712   4.433  12.002  0.3493 -1.0342  2.0542
 6611SOL     OW31468   2.346   3.092   0.805 -0.4290 -0.1644 -0.9490
 6611SOL    HW131469   2.397   3.061   0.731  0.0373  0.0314 -0.7104
 6611SOL    HW231470   2.415   3.113   0.868 -1.0892 -0.4778 -0.1302
 6612SOL     OW31471   3.512   1.564  13.335  0.1228  0.2497  0.4029
 6612SOL    HW131472   3.444   1.507  13.370  1.6612 -0.7049  1.8134
 6612SOL    HW231473   3.592   1.533  13.378 -0.2033 -0.6488  0.3515
 6613SOL     OW31474   2.943   1.271   8.860  0.0865 -0.1665  0.2408
 6613SOL    HW131475   2.883   1.208   8.901  0.5462  1.0963  2.8347
 6613SOL    HW231476   2.880   1.305   8.796 -0.8339 -1.3371  0.5245
 6614SOL     OW31477   3.879   4.397   6.890  0.0150  0.2769 -0.2860
 6614SOL    HW131478   3.921   4.482   6.905  0.0513 -0.0886  1.7016
 6614SOL    HW231479   3.857   4.362   6.977  0.4650 -1.3030 -0.8019
 6615SOL     OW31480   3.135   4.710  13.876 -0.2952  0.1014 -0.4836
 6615SOL    HW131481   3.221   4.673  13.893  0.7457  0.6663 -4.4864
 6615SOL    HW231482   3.158   0.066  13.876 -0.0928  0.0503 -1.8404
 6616SOL     OW31483   1.826   3.743   5.304 -0.1987  0.2457 -0.3000
 6616SOL    HW131484   1.781   3.679   5.359 -0.5399 -0.3661 -1.2821
 6616SOL    HW231485   1.772   3.744   5.225  0.4031  0.6476 -0.6984
 6617SOL     OW31486   1.775   1.816   4.164  0.1351 -0.0750  0.5653
 6617SOL    HW131487   1.730   1.735   4.140  1.9422 -0.5674 -1.0946
 6617SOL    HW231488   1.717   1.879   4.121 -0.0623 -2.0261 -2.0356
 6618SOL     OW31489   2.138   1.685   5.391 -0.3749  0.0862  0.2606
 6618SOL    HW131490   2.225   1.670   5.354  0.2167 -0.7322  1.9667
 6618SOL    HW231491   2.135   1.598   5.430 -1.2221  0.2252  0.5046
 6619SOL     OW31492   3.690   2.887   9.697 -0.0064  0.1339 -0.2019
 6619SOL    HW131493   3.740   2.959   9.735  2.7649 -1.0134 -1.6675
 6619SOL    HW231494   3.686   2.826   9.771 -0.7861 -1.5501 -1.6447
 6620SOL     OW31495   3.957   0.269   3.419  0.6595 -0.2650  0.4075
 6620SOL    HW131496   3.863   0.254   3.411  0.7628 -2.0205  2.5231
 6620SOL    HW231497   3.988   0.281   3.329 -0.7985  0.6660  0.0300
 6621SOL     OW31498   2.928   4.110  16.758  0.3831 -0.4659 -0.5026
 6621SOL    HW131499   2.961   4.103  16.668  2.5236  0.9048  0.1809
 6621SOL    HW231500   2.997   4.059  16.801  0.7224  0.4715  0.0476
 6622SOL     OW31501   2.218   1.555   4.680  0.1594 -0.4452 -0.3423
 6622SOL    HW131502   2.143   1.502   4.653  0.5387 -0.9217 -0.4715
 6622SOL    HW231503   2.207   1.569   4.774  0.4306 -1.2115 -0.1960
 6623SOL     OW31504   1.083   0.955   2.161  0.2606  0.0252 -0.1380
 6623SOL    HW131505   1.097   0.965   2.255  2.9021  0.6201 -0.5939
 6623SOL    HW231506   1.156   0.898   2.133 -3.2891 -2.2186 -4.8561
 6624SOL     OW31507   0.437   1.696   1.907  0.2947  0.1468 -0.1076
 6624SOL    HW131508   0.469   1.695   1.997  1.9367 -0.4803 -0.6970
 6624SOL    HW231509   0.517   1.690   1.854  0.5252  0.7788  0.1659
 6625SOL     OW31510   0.762   3.095   4.697  0.1221  0.1768 -0.4351
 6625SOL    HW131511   0.746   3.019   4.753  1.0265  1.4193  1.5103
 6625SOL    HW231512   0.717   3.164   4.744 -0.3810 -0.6570  0.2945
 6626SOL     OW31513   2.313   1.139   7.083 -0.4223  0.2670  0.5499
 6626SOL    HW131514   2.298   1.107   6.994 -2.3856  1.0699  0.6021
 6626SOL    HW231515   2.390   1.089   7.113 -1.3601 -1.7483 -0.4015
 6627SOL     OW31516   4.022   0.961   2.683 -0.1968  0.2940  0.1814
 6627SOL    HW131517   4.031   0.871   2.717 -1.5401  0.2245  0.3406
 6627SOL    HW231518   3.944   0.955   2.628  0.6980 -3.3465 -0.7531
 6628SOL     OW31519   4.136   3.310   7.804  0.0766 -0.0612 -0.4987
 6628SOL    HW131520   4.075   3.356   7.746 -1.4382 -0.4035  0.8552
 6628SOL    HW231521   4.097   3.225   7.823 -0.0539  0.0094 -0.4556
 6629SOL     OW31522   2.074   3.320  13.312 -0.1229  0.1998  0.3935
 6629SOL    HW131523   2.099   3.267  13.387 -1.3034 -2.0585 -0.8363
 6629SOL    HW231524   1.983   3.296  13.297 -0.4447  0.0864  2.4931
 6630SOL     OW31525   2.877   3.735   5.319 -0.1434 -0.1555 -0.4582
 6630SOL    HW131526   2.813   3.704   5.383 -0.6655  0.3368 -0.7425
 6630SOL    HW231527   2.850   3.680   5.245 -0.8138  1.0193 -1.0878
 6631SOL     OW31528   2.089   2.874   7.184 -0.5013  0.4519 -0.1009
 6631SOL    HW131529   2.146   2.870   7.260 -0.4143  0.6912 -0.1539
 6631SOL    HW231530   2.115   2.792   7.142 -1.4038  0.4956 -0.7470
 6632SOL     OW31531   3.452   4.663   5.816 -0.8879 -0.0864  0.1879
 6632SOL    HW131532   3.402   0.000   5.782 -0.3092  0.8362  1.3162
 6632SOL    HW231533   3.531   4.705   5.851 -0.1836 -1.4968  0.2989
 6633SOL     OW31534   3.046   3.240  11.624  0.1455  0.0393 -0.3524
 6633SOL    HW131535   3.128   3.213  11.666 -2.2640 -1.6967  3.3582
 6633SOL    HW231536   3.021   3.155  11.587 -0.9706  0.0218  0.4349
 6634SOL     OW31537   1.519   0.600  17.597 -0.1866 -0.4759  0.2216
 6634SOL    HW131538   1.468   0.591  17.517  2.5131  0.2123 -1.5868
 6634SOL    HW231539   1.439   0.619  17.646 -1.8745  2.5874 -3.7053
 6635SOL     OW31540   3.143   0.543   7.091 -0.3606 -0.3757 -0.0535
 6635SOL    HW131541   3.082   0.512   7.158  1.4420 -1.8030  0.9429
 6635SOL    HW231542   3.211   0.477   7.102 -0.5077 -0.4890  0.1812
 6636SOL     OW31543   2.800   2.172  12.900 -0.2268 -0.2542 -0.4786
 6636SOL    HW131544   2.838   2.233  12.962  0.7012  1.4268 -2.6926
 6636SOL    HW231545   2.705   2.170  12.911 -0.1111  1.3830  0.6275
 6637SOL     OW31546   1.821   2.840   3.186  0.4867  1.3822  0.2217
 6637SOL    HW131547   1.747   2.781   3.202 -0.1254  2.1472  0.1902
 6637SOL    HW231548   1.884   2.768   3.178 -0.8414  0.3789 -1.1422
 6638SOL     OW31549   4.226   1.887   1.988  0.1185  0.4552 -0.2933
 6638SOL    HW131550   4.159   1.945   1.952 -0.5773 -1.2374 -1.6775
 6638SOL    HW231551   4.268   1.950   2.047 -0.3313  0.8172 -0.3562
 6639SOL     OW31552   2.998   0.490   2.149 -0.0701 -0.4902  0.0908
 6639SOL    HW131553   3.067   0.434   2.186 -1.0855 -1.0442  1.1297
 6639SOL    HW231554   3.027   0.482   2.058  0.1788 -0.6554  0.1840
 6640SOL     OW31555   2.322   4.722   4.810 -0.6492 -0.7396  0.1588
 6640SOL    HW131556   2.248   4.695   4.756  0.8582 -1.7166 -1.4070
 6640SOL    HW231557   2.336   4.639   4.856 -2.2878 -0.7436  0.6352
 6641SOL     OW31558   1.544   3.749   9.306  0.4392  0.1011 -0.4285
 6641SOL    HW131559   1.592   3.802   9.242 -0.0671 -0.3789 -1.1993
 6641SOL    HW231560   1.483   3.815   9.340 -2.1499 -2.6252  0.1398
 6642SOL     OW31561   3.534   2.056   3.860 -0.5028  0.3654  0.5037
 6642SOL    HW131562   3.498   2.064   3.948 -1.0894  2.2929  0.0774
 6642SOL    HW231563   3.577   2.141   3.853 -1.1602  0.7810  1.3888
 6643SOL     OW31564   0.801   1.682   5.512 -0.0684  0.0814 -0.9241
 6643SOL    HW131565   0.810   1.777   5.505 -1.3007  0.1460 -1.6150
 6643SOL    HW231566   0.736   1.688   5.581  0.5670  2.6535 -0.5365
 6644SOL     OW31567   0.202   3.689   4.606 -0.8649  0.2521  0.4477
 6644SOL    HW131568   0.291   3.707   4.576 -0.3495 -2.2602  0.4182
 6644SOL    HW231569   0.199   3.599   4.639 -2.7058  0.5841  1.1740
 6645SOL     OW31570   0.370   0.358   7.479 -0.3957 -0.4778  0.3883
 6645SOL    HW131571   0.399   0.403   7.399  0.0371  1.3388  1.5504
 6645SOL    HW231572   0.381   0.430   7.541  1.5076 -0.2774 -0.1751
 6646SOL     OW31573   3.453   3.444  13.513  0.0395 -0.0974  0.1151
 6646SOL    HW131574   3.457   3.400  13.429  1.3540 -1.8842  1.0931
 6646SOL    HW231575   3.496   3.381  13.571  3.3361  1.2477 -0.8516
 6647SOL     OW31576   3.609   2.447   5.868  0.0354 -0.5715  0.0116
 6647SOL    HW131577   3.565   2.388   5.929  0.8557  1.4331  2.4898
 6647SOL    HW231578   3.542   2.507   5.835 -0.8328 -1.6405 -0.1818
 6648SOL     OW31579   1.160   0.035  12.079  0.1300  0.3026  0.6772
 6648SOL    HW131580   1.097   4.704  12.104 -0.7602  1.3940  1.4106
 6648SOL    HW231581   1.246   0.012  12.114 -0.2493 -3.4833 -0.8187
 6649SOL     OW31582   2.270   4.724  14.828 -0.3454  0.5778 -0.7911
 6649SOL    HW131583   2.332   4.652  14.844 -1.5393 -0.6339 -1.6745
 6649SOL    HW231584   2.293   0.014  14.739  0.3552  0.0846 -0.7644
 6650SOL     OW31585   4.022   3.915   3.154  0.2733 -0.3091 -0.3390
 6650SOL    HW131586   3.981   3.998   3.179  0.3643 -0.0160 -1.1731
 6650SOL    HW231587   3.960   3.854   3.192 -0.3602 -0.7311 -2.0472
 6651SOL     OW31588   2.532   0.614   1.418  0.1198  0.1680  0.0676
 6651SOL    HW131589   2.578   0.530   1.426  0.5571  0.4516  0.5960
 6651SOL    HW231590   2.446   0.590   1.385  0.8454 -0.4482 -1.3657
 6652SOL     OW31591   1.280   2.009   5.668  0.5089 -0.1926  0.8311
 6652SOL    HW131592   1.255   2.055   5.748  0.4920  1.4274 -0.1099
 6652SOL    HW231593   1.198   1.961   5.654  1.5962 -1.9977  0.6363
 6653SOL     OW31594   2.992   2.794  13.984 -0.0751  0.2768 -0.1599
 6653SOL    HW131595   2.951   2.797  14.071 -0.6816  0.4284 -0.4547
 6653SOL    HW231596   3.010   2.887  13.972 -1.7145  0.5293 -0.6299
 6654SOL     OW31597   3.722   1.595   4.790 -0.0783 -0.0890  0.1836
 6654SOL    HW131598   3.643   1.596   4.844 -0.3340 -1.0180 -0.1647
 6654SOL    HW231599   3.685   1.534   4.726  2.4919 -2.2105  0.7343
 6655SOL     OW31600   0.584   0.291   8.869 -0.2088 -0.2422  0.2701
 6655SOL    HW131601   0.582   0.259   8.778  1.4649 -1.1156  0.5293
 6655SOL    HW231602   0.496   0.327   8.874  0.3203  0.6946  2.9515
 6656SOL     OW31603   0.511   2.151   9.925  1.0589 -0.3094  0.3708
 6656SOL    HW131604   0.606   2.160   9.933  1.1271  0.3932 -1.3749
 6656SOL    HW231605   0.497   2.061   9.953 -0.7319 -0.5985 -1.4870
 6657SOL     OW31606   0.290   0.443   6.460  0.5790  0.2638 -0.4681
 6657SOL    HW131607   0.257   0.505   6.394 -1.3099  1.6986  1.8484
 6657SOL    HW231608   0.238   0.459   6.538  0.2665  0.8672 -0.7986
 6658SOL     OW31609   4.400   4.384   4.031  0.5628 -0.2367  0.7701
 6658SOL    HW131610   4.439   4.390   3.944 -0.8182  2.5822  0.3485
 6658SOL    HW231611   4.338   4.311   4.032  0.9480 -0.5528  2.4419
 6659SOL     OW31612   4.667   4.680   4.308 -0.0668  0.1141  0.4976
 6659SOL    HW131613   4.582   4.694   4.350 -0.6670  1.7616 -1.2791
 6659SOL    HW231614   4.631   4.680   4.219  1.0847 -0.6517  0.0410
 6660SOL     OW31615   4.104   3.072   3.617  0.6546 -1.1149  0.3095
 6660SOL    HW131616   4.076   3.010   3.550  2.4453 -0.8815 -0.6544
 6660SOL    HW231617   4.138   3.153   3.581 -0.7093  0.4458  2.4778
 6661SOL     OW31618   4.634   0.319   0.785 -0.4141 -0.2230  0.3768
 6661SOL    HW131619   4.662   0.362   0.703 -2.8749  0.7563  0.0480
 6661SOL    HW231620   4.703   0.341   0.847 -0.3986  1.6265 -0.2873
 6662SOL     OW31621   1.155   3.149   7.199 -0.2589 -0.0325 -0.7542
 6662SOL    HW131622   1.095   3.111   7.262 -0.3793 -0.2502 -0.9974
 6662SOL    HW231623   1.109   3.165   7.116 -1.2129 -1.8252 -0.5667
 6663SOL     OW31624   0.649   2.153  15.468  0.2672  0.4895  0.3045
 6663SOL    HW131625   0.704   2.217  15.513  0.9792 -0.3516  0.6399
 6663SOL    HW231626   0.698   2.151  15.386  0.3583 -1.9381  0.4185
 6664SOL     OW31627   3.415   1.059  14.163 -0.1470 -0.0734  0.3294
 6664SOL    HW131628   3.346   1.019  14.111 -0.0204 -1.3870  1.1885
 6664SOL    HW231629   3.478   1.087  14.096 -2.2752  1.0121 -1.2262
 6665SOL     OW31630   3.803   1.900   3.932 -0.9095  0.1760  0.2728
 6665SOL    HW131631   3.707   1.897   3.928 -0.7552 -2.5393 -0.9330
 6665SOL    HW231632   3.822   1.810   3.957 -0.4708  0.5863  1.4494
 6666SOL     OW31633   4.703   2.908  15.328 -0.0130  0.2023  0.0405
 6666SOL    HW131634   4.643   2.883  15.258  1.2730  1.8631 -1.6516
 6666SOL    HW231635   4.640   2.955  15.383  1.0391  0.5523  0.9632
 6667SOL     OW31636   2.574   1.419   9.279  0.6193 -0.3528 -0.4846
 6667SOL    HW131637   2.576   1.346   9.340  2.7833 -0.7407 -1.0059
 6667SOL    HW231638   2.646   1.473   9.311  1.3983 -0.8567 -1.3847
 6668SOL     OW31639   0.125   0.550  10.134  0.8145  0.5300 -0.4819
 6668SOL    HW131640   0.215   0.532  10.161  0.5176  0.2952  0.3505
 6668SOL    HW231641   0.146   0.626  10.080  0.0123 -0.0897 -1.6645
 6669SOL     OW31642   1.368   1.199  11.745  0.4245  0.4913  0.2160
 6669SOL    HW131643   1.422   1.188  11.823 -2.4057  1.0832  2.2475
 6669SOL    HW231644   1.326   1.112  11.752 -0.4827  0.8723 -0.4109
 6670SOL     OW31645   3.320   4.493   2.758 -0.0365 -0.4313 -0.0070
 6670SOL    HW131646   3.301   4.575   2.804 -0.1258 -0.4436 -0.0238
 6670SOL    HW231647   3.252   4.490   2.691 -1.1660 -1.0653  1.1926
 6671SOL     OW31648   1.433   1.601   8.053  0.2822 -0.3265 -0.2667
 6671SOL    HW131649   1.462   1.562   7.970 -0.5871 -0.3312 -0.5717
 6671SOL    HW231650   1.500   1.573   8.115 -2.3550  1.4495  3.3385
 6672SOL     OW31651   0.348   1.075   2.713 -0.1450 -0.2973 -0.6930
 6672SOL    HW131652   0.392   1.035   2.638  2.2628  1.6913 -0.3659
 6672SOL    HW231653   0.305   1.004   2.759 -0.1190 -0.5984 -1.1303
 6673SOL     OW31654   0.966   4.504   0.209 -0.3651 -0.1877 -0.1661
 6673SOL    HW131655   1.005   4.531   0.293 -0.1117 -1.6785  0.1850
 6673SOL    HW231656   0.875   4.490   0.237 -0.7480 -0.9069 -1.8131
 6674SOL     OW31657   2.608   1.187  13.710 -0.0116 -0.2481 -0.4779
 6674SOL    HW131658   2.548   1.254  13.677  2.2075  2.0296  0.0741
 6674SOL    HW231659   2.684   1.235  13.743 -0.4751 -0.7578  1.2783
 6675SOL     OW31660   2.303   4.496  15.915  0.6532  0.2360  0.3510
 6675SOL    HW131661   2.284   4.426  15.852  0.2279  0.3759  0.3220
 6675SOL    HW231662   2.398   4.484  15.921  0.5537 -0.4968  0.5055
 6676SOL     OW31663   2.356   3.729   4.109  0.2026  0.2490 -0.0325
 6676SOL    HW131664   2.422   3.766   4.051  0.6153  1.1761  1.0026
 6676SOL    HW231665   2.286   3.790   4.084  1.2664  1.0595 -1.0059
 6677SOL     OW31666   1.982   3.117  15.003 -0.1748 -0.4265  0.7525
 6677SOL    HW131667   1.952   3.048  14.944  1.7502  2.3266 -3.4671
 6677SOL    HW231668   1.909   3.179  15.001 -0.0366 -0.2953 -0.4285
 6678SOL     OW31669   3.590   1.522   3.284  0.0168  0.0843  0.1353
 6678SOL    HW131670   3.578   1.501   3.376 -1.4406 -2.2080 -0.5697
 6678SOL    HW231671   3.613   1.452   3.223  0.7432 -0.6955  1.3214
 6679SOL     OW31672   4.196   2.784   8.944  0.8499  0.2344 -0.1753
 6679SOL    HW131673   4.269   2.742   8.990  1.1233  1.0818  0.1488
 6679SOL    HW231674   4.190   2.855   9.008 -0.1438 -1.5358  1.7178
 6680SOL     OW31675   4.225   3.403  11.043  0.2038  0.4244  0.3297
 6680SOL    HW131676   4.279   3.329  11.070  1.3925  1.3151  0.3912
 6680SOL    HW231677   4.256   3.417  10.954 -1.1325 -0.8471 -0.3476
 6681SOL     OW31678   3.855   0.815   8.948 -0.5593  0.1249  0.6608
 6681SOL    HW131679   3.767   0.842   8.974 -0.5090 -1.0973  2.0987
 6681SOL    HW231680   3.882   0.898   8.910 -2.2491  0.2484 -0.2650
 6682SOL     OW31681   0.211   1.073  10.049 -0.4280  0.1468  0.4852
 6682SOL    HW131682   0.294   1.101  10.010 -0.0512  1.5528  2.2674
 6682SOL    HW231683   0.189   1.148  10.105  2.2376  1.8080 -0.6990
 6683SOL     OW31684   4.393   4.005   6.447  0.3917 -0.1499  0.0190
 6683SOL    HW131685   4.398   3.962   6.361  2.3892  1.4273 -0.6575
 6683SOL    HW231686   4.357   3.939   6.506  1.2785 -1.6163 -1.0737
 6684SOL     OW31687   0.896   0.381   7.794  0.2305 -0.1618  0.2301
 6684SOL    HW131688   0.859   0.376   7.882 -0.8382 -0.7528 -0.2607
 6684SOL    HW231689   0.956   0.456   7.795 -0.4456  0.3893 -0.1855
 6685SOL     OW31690   2.286   0.289   5.607 -0.3700  0.1134  0.3497
 6685SOL    HW131691   2.265   0.207   5.563 -0.2645 -0.7230  1.8711
 6685SOL    HW231692   2.262   0.256   5.693 -0.6549 -3.2743 -1.0253
 6686SOL     OW31693   4.441   2.246  12.008  0.2872  0.0490  0.2803
 6686SOL    HW131694   4.482   2.287  12.085  0.0440  0.2313  0.3122
 6686SOL    HW231695   4.381   2.183  12.048  1.6229 -2.7925 -2.2230
 6687SOL     OW31696   2.768   1.720   4.698 -0.3051  0.4048 -0.2599
 6687SOL    HW131697   2.790   1.807   4.733 -0.6988  0.1860  0.5264
 6687SOL    HW231698   2.674   1.720   4.712 -0.1788 -1.2389  0.5731
 6688SOL     OW31699   4.363   2.930   3.516  0.2111 -0.1025 -0.2516
 6688SOL    HW131700   4.297   2.954   3.451  0.9121 -1.2163 -1.3559
 6688SOL    HW231701   4.448   2.963   3.487  0.4481  1.3302  2.0155
 6689SOL     OW31702   2.535   4.005  15.730 -0.1708 -0.4648  0.1850
 6689SOL    HW131703   2.517   3.912  15.717 -0.0996 -0.5510  0.7250
 6689SOL    HW231704   2.571   4.028  15.644 -5.3505  3.3530 -0.9542
 6690SOL     OW31705   1.122   1.224   4.433  0.2653 -0.4748 -0.0423
 6690SOL    HW131706   1.039   1.262   4.404  0.6075  0.9353  0.7984
 6690SOL    HW231707   1.177   1.234   4.355 -2.5369 -2.2293 -2.2124
 6691SOL     OW31708   1.388   4.282  17.064  0.4258 -0.0900  0.1142
 6691SOL    HW131709   1.366   4.236  17.145  1.8033  0.8846  1.0464
 6691SOL    HW231710   1.460   4.342  17.086 -1.0537  0.8184  2.4840
 6692SOL     OW31711   1.270   2.177   2.569  0.2792 -0.1053 -0.1253
 6692SOL    HW131712   1.324   2.135   2.502  1.1929  1.1570 -0.1822
 6692SOL    HW231713   1.223   2.106   2.612 -1.8217  1.2434 -0.1719
 6693SOL     OW31714   2.788   1.555   7.289 -0.0107  0.1548  0.0483
 6693SOL    HW131715   2.773   1.645   7.259 -0.4835 -0.0847 -0.4230
 6693SOL    HW231716   2.734   1.509   7.226  0.2402  0.8404 -0.6674
 6694SOL     OW31717   4.468   3.713   8.831 -0.1744 -0.4845  0.3802
 6694SOL    HW131718   4.410   3.639   8.846 -0.4294 -0.4995 -0.6554
 6694SOL    HW231719   4.403   3.783   8.820  1.3380  1.0967  1.5769
 6695SOL     OW31720   1.941   0.091  12.479  0.4848 -0.4470 -0.4574
 6695SOL    HW131721   1.968   0.030  12.410  0.9661  0.3746 -0.9925
 6695SOL    HW231722   1.896   0.152  12.421 -0.7630  0.3819  1.3945
 6696SOL     OW31723   2.379   0.666   8.226  0.2107 -0.2235 -0.3817
 6696SOL    HW131724   2.427   0.747   8.242  1.7708 -1.3541  0.7151
 6696SOL    HW231725   2.372   0.685   8.133  0.2905 -2.0157 -0.7430
 6697SOL     OW31726   4.379   0.309   6.430  0.1256 -0.3392 -0.1100
 6697SOL    HW131727   4.332   0.391   6.446  0.8190  0.1892 -0.7532
 6697SOL    HW231728   4.316   0.248   6.391 -0.4504 -0.7131  1.4307
 6698SOL     OW31729   1.767   1.788   1.339 -0.1928  0.2591 -0.0264
 6698SOL    HW131730   1.673   1.774   1.328 -0.0153 -0.5135 -0.6374
 6698SOL    HW231731   1.775   1.742   1.423  0.1119 -0.1076 -0.2506
 6699SOL     OW31732   0.224   1.850   4.753  0.3064 -0.0167 -0.1569
 6699SOL    HW131733   0.153   1.913   4.765  0.7004  0.5657 -0.8337
 6699SOL    HW231734   0.282   1.895   4.691  0.0816  0.3838 -0.0786
 6700SOL     OW31735   0.820   3.768  16.763 -0.0035  0.1657 -0.1542
 6700SOL    HW131736   0.771   3.706  16.817 -0.3491  0.8258  0.3000
 6700SOL    HW231737   0.896   3.778  16.819  0.4201 -2.7393 -0.2501
 6701SOL     OW31738   1.531   0.157   4.043  0.0852 -0.1965  0.3206
 6701SOL    HW131739   1.495   0.102   3.973  0.9921 -0.3973  0.0151
 6701SOL    HW231740   1.454   0.211   4.061 -0.0946 -1.6002  3.7682
 6702SOL     OW31741   1.402   0.764   6.330  0.5067 -0.2093 -0.2360
 6702SOL    HW131742   1.352   0.687   6.356  2.4441 -1.2965  0.3241
 6702SOL    HW231743   1.458   0.721   6.265 -0.0526 -1.6001  0.2084
 6703SOL     OW31744   2.857   1.913   8.574  0.1065 -0.1837  0.1347
 6703SOL    HW131745   2.817   1.976   8.514 -1.1118 -1.3477 -0.2493
 6703SOL    HW231746   2.872   1.960   8.657 -2.2336  0.2604  0.2876
 6704SOL     OW31747   3.854   2.065   5.920 -0.1827 -0.2680  0.1670
 6704SOL    HW131748   3.821   1.976   5.906  0.2756 -0.2406 -1.1015
 6704SOL    HW231749   3.888   2.088   5.834 -1.2025  0.8196  0.0469
 6705SOL     OW31750   1.816   0.550   9.216 -0.3250  0.3306 -0.2144
 6705SOL    HW131751   1.764   0.610   9.270 -2.2681 -1.3050 -0.2738
 6705SOL    HW231752   1.871   0.610   9.166 -0.1606  0.6873  0.3912
 6706SOL     OW31753   3.039   0.436   5.596  0.2077 -0.0600 -0.3783
 6706SOL    HW131754   3.089   0.360   5.566  2.3065  1.9780 -2.0798
 6706SOL    HW231755   2.968   0.388   5.638  1.5390 -0.1577  1.7135
 6707SOL     OW31756   4.195   1.318   2.492 -0.4765  0.0435 -0.3018
 6707SOL    HW131757   4.261   1.362   2.545  2.1867 -3.3226 -0.7977
 6707SOL    HW231758   4.149   1.395   2.459  0.0193  0.8997  1.0156
 6708SOL     OW31759   0.881   3.257  12.712  0.3301 -0.0082 -0.2167
 6708SOL    HW131760   0.933   3.209  12.648  0.4688  1.8157 -1.4759
 6708SOL    HW231761   0.793   3.227  12.693  0.5334 -0.6702 -0.1362
 6709SOL     OW31762   0.463   3.622   0.943 -0.3670 -0.5787  0.6934
 6709SOL    HW131763   0.414   3.594   0.865  1.3051 -2.3253  0.2773
 6709SOL    HW231764   0.397   3.663   0.998  1.2602  2.0227  0.6742
 6710SOL     OW31765   0.036   3.980   1.455  0.1710 -0.0268  0.2560
 6710SOL    HW131766   0.118   3.963   1.500  0.2101 -1.6347 -0.4142
 6710SOL    HW231767   4.721   3.983   1.535 -0.3174  0.2648 -0.0722
 6711SOL     OW31768   4.402   1.209   5.690  0.1659 -0.4023 -0.4396
 6711SOL    HW131769   4.342   1.219   5.615  0.8559 -2.0049 -1.2030
 6711SOL    HW231770   4.363   1.143   5.747 -2.3438  0.7012 -0.8433
 6712SOL     OW31771   2.002   3.387   4.486  0.5534  0.1454  0.1377
 6712SOL    HW131772   1.960   3.333   4.419 -1.4307  3.2753 -1.1615
 6712SOL    HW231773   2.077   3.328   4.493  0.4085  0.1057  1.3415
 6713SOL     OW31774   3.634   0.639   5.941 -0.6137 -0.0672  0.3007
 6713SOL    HW131775   3.714   0.590   5.920 -0.3055  1.3153 -1.7003
 6713SOL    HW231776   3.648   0.716   5.887  0.3409 -0.0998  0.4894
 6714SOL     OW31777   3.085   3.947   9.371  0.8887 -0.0033  0.2021
 6714SOL    HW131778   3.156   3.898   9.330 -0.6070 -1.2956 -0.8354
 6714SOL    HW231779   3.130   4.006   9.432  0.2353  0.5396  0.1642
 6715SOL     OW31780   4.028   2.973   3.083  0.6056  0.0937  0.0511
 6715SOL    HW131781   4.095   2.908   3.063  0.7246  0.1843  0.1569
 6715SOL    HW231782   3.973   2.913   3.134 -0.1501  0.4240 -0.3637
 6716SOL     OW31783   2.717   0.239   1.669  0.4546  0.2557 -0.3256
 6716SOL    HW131784   2.753   0.160   1.629  1.6785  0.1105  1.1047
 6716SOL    HW231785   2.626   0.209   1.675  0.7014 -0.3098  0.5337
 6717SOL     OW31786   4.314   0.973   9.722  0.3504 -0.6204 -0.1667
 6717SOL    HW131787   4.331   0.883   9.747 -1.0088 -0.6482  0.6526
 6717SOL    HW231788   4.321   1.035   9.795 -2.6585  0.7482 -1.0400
 6718SOL     OW31789   2.612   3.683  10.879  0.6106 -0.0382  0.0829
 6718SOL    HW131790   2.676   3.642  10.820  0.7125 -1.1722  0.9738
 6718SOL    HW231791   2.649   3.772  10.881  3.4234 -1.1505 -2.5332
 6719SOL     OW31792   2.933   2.012  14.071  0.5196 -0.0925  1.2930
 6719SOL    HW131793   2.922   2.024  13.977 -2.5934  0.7601  1.7587
 6719SOL    HW231794   2.890   2.086  14.113 -0.6930 -0.8307  1.3603
 6720SOL     OW31795   3.992   1.712  14.744  0.1703  0.3059  0.1924
 6720SOL    HW131796   4.014   1.791  14.694  2.2367  0.0843  0.7730
 6720SOL    HW231797   4.045   1.714  14.823 -0.0041 -0.8042  0.3341
 6721SOL     OW31798   3.026   3.768   7.504  0.1775  0.3811 -0.0071
 6721SOL    HW131799   2.932   3.784   7.508  0.3043  1.3357 -0.9727
 6721SOL    HW231800   3.027   3.672   7.507  1.4845  0.4035  0.3708
 6722SOL     OW31801   2.125   3.704   9.729  0.1820 -0.0695  0.1719
 6722SOL    HW131802   2.072   3.738   9.657  1.5121 -0.9397 -1.2173
 6722SOL    HW231803   2.153   3.619   9.696 -2.3021 -0.4946 -0.8896
 6723SOL     OW31804   0.288   3.729  15.546 -0.0967 -0.2685  0.2723
 6723SOL    HW131805   0.325   3.651  15.504 -0.1238 -0.7585  1.1380
 6723SOL    HW231806   0.198   3.714  15.519 -0.3374  0.9676  0.3882
 6724SOL     OW31807   1.218   2.883   4.257  0.3676 -0.7664  0.6009
 6724SOL    HW131808   1.234   2.946   4.187 -4.4320 -1.5722 -1.2798
 6724SOL    HW231809   1.125   2.903   4.267  0.2778  0.1338 -2.0155
 6725SOL     OW31810   0.727   1.600   3.422 -0.3647  0.1284  0.7232
 6725SOL    HW131811   0.698   1.669   3.363 -1.2089 -0.2922  0.6483
 6725SOL    HW231812   0.730   1.642   3.508 -4.9887  2.6748 -0.3643
 6726SOL     OW31813   2.275   1.062  11.576  0.2019 -0.2887  0.2075
 6726SOL    HW131814   2.363   1.030  11.559 -0.0280 -0.8920  0.1612
 6726SOL    HW231815   2.290   1.127  11.645 -0.4855 -1.5900  1.5694
 6727SOL     OW31816   4.102   4.453  16.880  0.1610 -0.4704  0.3345
 6727SOL    HW131817   4.054   4.536  16.887 -1.6656 -1.4992  0.0255
 6727SOL    HW231818   4.190   4.489  16.886 -0.5125  1.3148 -0.5469
 6728SOL     OW31819   3.340   2.669  13.990 -0.5598  0.2053  0.1658
 6728SOL    HW131820   3.274   2.604  14.012  2.4946 -1.8280  3.3965
 6728SOL    HW231821   3.366   2.696  14.078  0.3058 -0.2617  0.0584
 6729SOL     OW31822   3.092   1.135   6.021 -0.2194 -0.2173 -0.3309
 6729SOL    HW131823   3.184   1.142   6.049 -0.1587  0.7187 -0.7490
 6729SOL    HW231824   3.046   1.211   6.058  2.2583  0.7407  0.8092
 6730SOL     OW31825   4.499   3.323  11.346  0.2986 -0.3387 -0.2502
 6730SOL    HW131826   4.459   3.298  11.263  2.2383  2.5879 -2.0588
 6730SOL    HW231827   4.523   3.241  11.390  1.9596  1.3163  1.9033
 6731SOL     OW31828   1.854   3.479   0.891 -0.4121  0.3847 -0.6948
 6731SOL    HW131829   1.804   3.409   0.850  2.9166 -1.0080 -2.3289
 6731SOL    HW231830   1.824   3.551   0.835 -0.0836 -2.0639 -4.0029
 6732SOL     OW31831   4.206   3.915  15.113 -0.0660 -0.3260 -0.0313
 6732SOL    HW131832   4.294   3.897  15.148  0.1067 -1.0954 -0.8880
 6732SOL    HW231833   4.215   3.936  15.020  1.8797  1.1395  0.4843
 6733SOL     OW31834   0.327   0.208   0.560  0.2117 -0.1197 -0.1669
 6733SOL    HW131835   0.339   0.273   0.491 -1.6302  0.2456 -0.1429
 6733SOL    HW231836   0.233   0.209   0.578  0.0724 -0.3191 -0.9023
 6734SOL     OW31837   0.668   2.849   8.777 -0.2550  0.5998  0.2497
 6734SOL    HW131838   0.710   2.806   8.703 -0.6336  0.5191  0.0857
 6734SOL    HW231839   0.622   2.913   8.723  0.0789  2.6395  2.3443
 6735SOL     OW31840   1.138   3.892   8.501  0.2509  0.0541 -0.2543
 6735SOL    HW131841   1.132   3.804   8.464 -1.5131  0.2789 -0.5189
 6735SOL    HW231842   1.064   3.925   8.450 -0.1528 -1.9855 -0.9715
 6736SOL     OW31843   3.864   4.055  15.481 -0.0835  0.3234  0.1433
 6736SOL    HW131844   3.840   4.021  15.395  1.0266 -0.4582  0.1506
 6736SOL    HW231845   3.951   4.087  15.458  0.5925 -2.0581 -0.5829
 6737SOL     OW31846   1.802   0.893  15.374 -0.1003  0.0601  0.5842
 6737SOL    HW131847   1.810   0.875  15.280 -0.3322  1.7755  0.2297
 6737SOL    HW231848   1.890   0.873  15.406  0.8457  2.4656 -0.5268
 6738SOL     OW31849   0.381   2.793   2.906 -0.0817 -0.0448 -0.0953
 6738SOL    HW131850   0.440   2.853   2.860  1.0299 -1.1658 -0.1266
 6738SOL    HW231851   0.346   2.749   2.829  0.9975 -1.2492  0.1137
 6739SOL     OW31852   4.073   3.623   7.386  0.6498  0.4424 -0.0454
 6739SOL    HW131853   4.153   3.612   7.335  0.2565 -1.7622 -0.2139
 6739SOL    HW231854   4.012   3.626   7.312 -1.2904 -1.1346  1.4815
 6740SOL     OW31855   3.804   0.626  13.839 -0.5723  0.0481  0.4399
 6740SOL    HW131856   3.822   0.544  13.883 -2.9092 -1.9317 -2.3037
 6740SOL    HW231857   3.893   0.660  13.847  0.1991 -1.9685  0.3427
 6741SOL     OW31858   4.127   0.429  17.388  0.2497  0.0226 -0.1430
 6741SOL    HW131859   4.117   0.344  17.430 -2.0583  1.2668  1.8138
 6741SOL    HW231860   4.188   0.478  17.444  2.2365 -1.2062 -1.2172
 6742SOL     OW31861   2.374   2.247   1.870 -0.4436  0.1993 -0.3945
 6742SOL    HW131862   2.343   2.279   1.786 -2.7711  0.8804  0.7260
 6742SOL    HW231863   2.303   2.188   1.897  1.1715 -2.1742 -1.3377
 6743SOL     OW31864   3.412   2.571  11.849 -0.0560  0.3408 -0.0030
 6743SOL    HW131865   3.388   2.657  11.816  2.4426  0.8058 -0.6033
 6743SOL    HW231866   3.321   2.551  11.872  0.0343 -3.4137 -2.8280
 6744SOL     OW31867   1.364   3.575   8.033 -0.2045  0.5241  0.0552
 6744SOL    HW131868   1.440   3.618   7.994  0.2515  0.7800  1.2226
 6744SOL    HW231869   1.367   3.487   7.997  2.2692  0.0326  1.5016
 6745SOL     OW31870   1.413   2.638   5.287 -0.2929 -0.1788 -0.2060
 6745SOL    HW131871   1.349   2.593   5.343 -1.7795  0.1847 -1.6017
 6745SOL    HW231872   1.472   2.563   5.287 -0.4159 -0.2763 -0.2199
 6746SOL     OW31873   1.527   3.545   0.934 -0.0909 -0.0519  0.2468
 6746SOL    HW131874   1.443   3.589   0.932 -1.1060 -2.0531 -0.8999
 6746SOL    HW231875   1.573   3.590   0.863 -0.8577 -0.0987 -0.2798
 6747SOL     OW31876   0.370   2.341   0.644  0.1680  0.7001  0.1619
 6747SOL    HW131877   0.278   2.367   0.651 -0.1287 -1.4382  4.1215
 6747SOL    HW231878   0.399   2.349   0.735 -0.5690 -1.7207  0.5927
 6748SOL     OW31879   2.824   3.742  15.486 -0.0669 -1.0128  0.2941
 6748SOL    HW131880   2.807   3.833  15.459 -0.5443  0.0063  4.0238
 6748SOL    HW231881   2.867   3.701  15.411 -0.8697 -0.2151 -0.6084
 6749SOL     OW31882   2.583   1.123  13.134  1.0436 -0.0404 -0.3269
 6749SOL    HW131883   2.671   1.096  13.108  1.1661 -0.4877  0.5505
 6749SOL    HW231884   2.603   1.190  13.200  1.4689 -1.2992  0.8161
 6750SOL     OW31885   2.872   4.602   4.089 -0.1478 -0.1815  0.3760
 6750SOL    HW131886   2.966   4.585   4.103  0.6184  2.3635 -1.5679
 6750SOL    HW231887   2.833   4.515   4.095 -1.9313  0.5327 -0.8437
 6751SOL     OW31888   4.525   2.880  10.111 -0.1354 -0.1349 -0.5199
 6751SOL    HW131889   4.528   2.863  10.017  2.6170 -2.5976 -0.0134
 6751SOL    HW231890   4.565   2.803  10.152  0.1030  0.0614 -0.3819
 6752SOL     OW31891   3.403   2.978   3.973 -0.1354 -0.2341  0.3697
 6752SOL    HW131892   3.490   3.015   3.987  0.4402 -1.2846 -0.4656
 6752SOL    HW231893   3.385   3.000   3.882 -1.3985 -4.0634 -0.2829
 6753SOL     OW31894   2.198   0.312   5.207 -0.2130 -0.0035 -0.1637
 6753SOL    HW131895   2.293   0.298   5.199 -0.0693  0.8490  0.0637
 6753SOL    HW231896   2.186   0.378   5.139  1.2087 -0.2207 -0.6337
 6754SOL     OW31897   2.532   3.974   9.408 -0.3671 -0.2202  0.0251
 6754SOL    HW131898   2.519   4.064   9.378 -0.1484  1.1231  4.0462
 6754SOL    HW231899   2.625   3.978   9.387 -0.4551  1.2336 -0.1002
 6755SOL     OW31900   3.355   4.003  16.846 -0.1461  0.4213 -0.3976
 6755SOL    HW131901   3.274   3.979  16.801  1.2662 -1.3561 -1.9891
 6755SOL    HW231902   3.309   4.070  16.896  0.4456  0.3399  0.2571
 6756SOL     OW31903   0.630   2.285   8.494 -0.1278  0.2005  0.0721
 6756SOL    HW131904   0.634   2.273   8.399 -3.1841 -1.1351  0.1007
 6756SOL    HW231905   0.714   2.253   8.527 -0.1069 -0.3147 -0.4826
 6757SOL     OW31906   3.503   4.279   2.589  0.3205  0.1786  0.9980
 6757SOL    HW131907   3.419   4.324   2.576 -0.6579 -2.0836 -0.6052
 6757SOL    HW231908   3.523   4.305   2.679 -0.6337  0.7269  1.0587
 6758SOL     OW31909   2.751   1.384  17.013 -0.4562 -0.3362 -0.2471
 6758SOL    HW131910   2.784   1.457  17.066 -2.7931  0.3036  0.3200
 6758SOL    HW231911   2.671   1.420  16.974 -1.3879  0.2807  2.2487
 6759SOL     OW31912   4.150   4.647   7.184  0.1809 -0.0081  0.6996
 6759SOL    HW131913   4.104   4.575   7.227 -1.4433  1.1592  0.8932
 6759SOL    HW231914   4.164   4.712   7.254 -1.0815  2.6774 -1.5682
 6760SOL     OW31915   4.622   2.505  17.016 -0.8182  0.2799  0.2350
 6760SOL    HW131916   4.668   2.562  16.955 -0.7822 -0.4706 -0.4358
 6760SOL    HW231917   4.689   2.438  17.030 -0.7627  0.3364  0.2353
 6761SOL     OW31918   3.600   1.491  10.889 -0.2096 -0.1879 -0.1603
 6761SOL    HW131919   3.514   1.526  10.910 -0.5007  0.0623 -1.7867
 6761SOL    HW231920   3.656   1.508  10.965 -1.7020  0.3699  0.8086
 6762SOL     OW31921   0.593   3.980  16.784  0.1290 -0.5834 -0.1534
 6762SOL    HW131922   0.647   3.910  16.749 -1.7334 -2.7625  1.3421
 6762SOL    HW231923   0.631   3.988  16.871  0.1698 -0.0926 -0.2137
 6763SOL     OW31924   2.463   3.748   2.863 -0.1762 -0.0225  0.3019
 6763SOL    HW131925   2.505   3.733   2.778  1.5279  0.0993  1.1069
 6763SOL    HW231926   2.377   3.785   2.845 -1.1954 -1.4420  2.2124
 6764SOL     OW31927   4.667   2.789   8.100 -0.3409  0.0860 -0.2437
 6764SOL    HW131928   4.650   2.744   8.183  0.2360  1.0662  0.4026
 6764SOL    HW231929   4.640   2.879   8.114  0.2932 -0.0288  1.6843
 6765SOL     OW31930   2.097   0.044  10.808  0.3570 -0.4571  0.3727
 6765SOL    HW131931   2.082   0.121  10.863 -2.6718 -0.3810 -0.5455
 6765SOL    HW231932   2.077   4.715  10.875 -0.3501  0.0133  0.6239
 6766SOL     OW31933   0.233   3.631   5.271  0.2757  0.0118  0.1979
 6766SOL    HW131934   0.181   3.568   5.221 -0.7342  0.1932  1.0268
 6766SOL    HW231935   0.256   3.692   5.201 -1.7097  0.1852 -0.2925
 6767SOL     OW31936   1.514   2.755   6.615  0.5770 -0.0282 -0.6750
 6767SOL    HW131937   1.487   2.829   6.668  1.4970  2.5099 -3.7584
 6767SOL    HW231938   1.515   2.688   6.684  1.3225 -2.3682 -2.9358
 6768SOL     OW31939   0.999   1.220   5.757 -0.2595  0.2871 -0.3105
 6768SOL    HW131940   0.917   1.266   5.735 -0.0251  0.6114 -0.4973
 6768SOL    HW231941   1.063   1.256   5.697  1.7216 -1.1088  0.9881
 6769SOL     OW31942   2.402   0.791   6.986  0.3116 -0.1105 -0.4431
 6769SOL    HW131943   2.445   0.835   6.913 -0.2787  3.9577  1.6659
 6769SOL    HW231944   2.319   0.757   6.954 -1.1295  0.9733  2.1962
 6770SOL     OW31945   1.721   1.430   6.386  0.0375 -0.8339  0.0869
 6770SOL    HW131946   1.769   1.451   6.466 -2.5837 -1.0002  1.7073
 6770SOL    HW231947   1.663   1.359   6.413 -1.7662  0.6701  0.1212
 6771SOL     OW31948   4.286   3.897   3.910  0.1584  0.9751 -0.5752
 6771SOL    HW131949   4.334   3.825   3.951  1.2790  1.4906 -0.9893
 6771SOL    HW231950   4.362   3.955   3.911  0.2773  0.7234  2.6465
 6772SOL     OW31951   1.244   3.778   7.621 -0.3572 -0.1458 -0.3601
 6772SOL    HW131952   1.243   3.834   7.699 -3.6975  0.5815 -0.9418
 6772SOL    HW231953   1.173   3.718   7.645 -1.0119  0.2593 -1.3356
 6773SOL     OW31954   2.325   0.401   6.189 -0.1865  0.0612  0.2740
 6773SOL    HW131955   2.381   0.338   6.144  2.4193  0.1431  3.3534
 6773SOL    HW231956   2.389   0.434   6.252  1.4746 -0.0946 -1.3247
 6774SOL     OW31957   3.043   0.963  16.170 -0.4737  0.3742  1.4215
 6774SOL    HW131958   2.963   0.962  16.118  0.7186  0.8439 -0.4042
 6774SOL    HW231959   3.070   0.872  16.174 -2.4511 -0.4797 -4.1205
 6775SOL     OW31960   2.164   0.399  10.096  0.2297 -0.8399 -0.1851
 6775SOL    HW131961   2.180   0.488  10.128 -0.3783 -0.0239 -2.1503
 6775SOL    HW231962   2.165   0.344  10.175 -1.1608  2.0871  1.8766
 6776SOL     OW31963   2.682   0.768   3.429  0.1732 -0.2031  0.0092
 6776SOL    HW131964   2.673   0.798   3.338  4.2746  2.7868  0.6054
 6776SOL    HW231965   2.776   0.748   3.432  0.4819  0.5056 -4.2647
 6777SOL     OW31966   1.663   0.186  13.198  0.1767 -0.3501  0.1905
 6777SOL    HW131967   1.684   0.129  13.124 -0.8367  0.4125 -0.6877
 6777SOL    HW231968   1.749   0.199  13.239 -0.0651  0.8372  0.3105
 6778SOL     OW31969   0.779   2.168   3.169  0.1132  0.2209 -0.2564
 6778SOL    HW131970   0.700   2.113   3.169  1.0269 -1.1131  2.8600
 6778SOL    HW231971   0.754   2.256   3.143  1.8845  0.5060 -0.9520
 6779SOL     OW31972   2.929   2.313   0.020  0.1110 -0.0211  0.2128
 6779SOL    HW131973   2.894   2.261   0.093 -0.7063 -1.1058 -0.9477
 6779SOL    HW231974   2.941   2.250  17.694 -2.2916 -0.8645  0.5292
 6780SOL     OW31975   0.450   1.665   5.405  0.0061  0.2940 -0.2174
 6780SOL    HW131976   0.546   1.657   5.407 -0.2045 -1.9509  0.5946
 6780SOL    HW231977   0.446   1.761   5.409 -0.5632  0.2133  0.8832
 6781SOL     OW31978   2.947   1.543   4.997 -0.3731 -0.5626  0.4742
 6781SOL    HW131979   2.910   1.631   4.990  0.5885 -0.1436  0.5837
 6781SOL    HW231980   2.893   1.501   4.931  0.5096  0.3187 -0.8035
 6782SOL     OW31981   3.879   3.032  16.681  0.1550 -0.1133  0.0116
 6782SOL    HW131982   3.858   2.997  16.767 -1.1966  0.9836  0.1332
 6782SOL    HW231983   3.944   3.096  16.710 -1.3847  0.3816  2.3318
 6783SOL     OW31984   0.459   1.462   3.425  0.9111  0.1651  0.4489
 6783SOL    HW131985   0.493   1.418   3.503 -0.9087 -4.2511 -1.2762
 6783SOL    HW231986   0.540   1.498   3.388  0.1686 -0.8163 -2.1276
 6784SOL     OW31987   3.620   0.576   3.570  0.6454 -0.2889  0.2745
 6784SOL    HW131988   3.642   0.662   3.535  2.1284 -1.9869 -2.9403
 6784SOL    HW231989   3.557   0.553   3.503  1.1093  2.4298 -1.0954
 6785SOL     OW31990   3.178   2.709   8.728  0.3038 -0.1147 -0.3314
 6785SOL    HW131991   3.268   2.708   8.759  0.1177  0.4221  0.2306
 6785SOL    HW231992   3.193   2.743   8.640 -0.6804 -0.5664 -0.6732
 6786SOL     OW31993   1.446   2.158   7.121 -0.2364  0.2349 -0.4979
 6786SOL    HW131994   1.482   2.212   7.192 -0.3751 -2.8639  1.9337
 6786SOL    HW231995   1.382   2.114   7.177  0.5859  0.7958  0.8988
 6787SOL     OW31996   0.455   3.798  17.370  0.0936  0.5058 -0.3882
 6787SOL    HW131997   0.546   3.816  17.395  0.5088 -2.9144  0.6190
 6787SOL    HW231998   0.411   3.816  17.452  0.0126 -2.6617  0.2542
 6788SOL     OW31999   3.808   3.126   7.275  0.1548  0.6907 -0.8177
 6788SOL    HW132000   3.800   3.119   7.180 -1.0658 -2.0775 -0.5214
 6788SOL    HW232001   3.880   3.064   7.283 -2.3295 -2.0348  0.3687
 6789SOL     OW32002   2.190   1.940   8.257 -0.2074 -0.0299 -0.1646
 6789SOL    HW132003   2.100   1.911   8.244 -0.1481 -1.3599  2.4588
 6789SOL    HW232004   2.217   1.892   8.335  0.9055 -1.3327 -1.3480
 6790SOL     OW32005   4.408   3.962   6.169  0.3029  0.5784 -0.1439
 6790SOL    HW132006   4.502   3.960   6.149  1.0785  1.8537  3.3034
 6790SOL    HW232007   4.376   3.931   6.085  1.0679 -0.7104  0.0382
 6791SOL     OW32008   1.302   3.476   6.288  0.0282 -0.3993 -0.4314
 6791SOL    HW132009   1.309   3.421   6.366 -2.5870 -0.0200  0.0568
 6791SOL    HW232010   1.274   3.555   6.333 -3.9488 -2.6456  1.0559
 6792SOL     OW32011   0.453   2.449  16.353 -0.5422 -0.0902  0.1451
 6792SOL    HW132012   0.537   2.422  16.316 -0.6265 -2.2715  1.5371
 6792SOL    HW232013   0.387   2.429  16.287  0.8727 -2.0540 -0.6634
 6793SOL     OW32014   2.264   4.034   4.439  0.0761  0.3041  1.0071
 6793SOL    HW132015   2.236   4.067   4.353 -0.0482 -1.3159  0.4098
 6793SOL    HW232016   2.360   4.037   4.437  0.0501  1.1748  1.4252
 6794SOL     OW32017   4.603   3.764   0.548  0.4549 -0.3579 -0.7271
 6794SOL    HW132018   4.667   3.829   0.577 -0.6191  0.7591 -0.8417
 6794SOL    HW232019   4.644   3.713   0.478  1.3212  0.0408 -0.5060
 6795SOL     OW32020   1.298   4.641  13.027  0.2672 -0.8769 -0.1544
 6795SOL    HW132021   1.329   4.728  13.055  0.1421 -1.5211  1.9644
 6795SOL    HW232022   1.301   4.664  12.934 -0.0002 -1.7572 -0.3804
 6796SOL     OW32023   0.767   0.767   3.732  0.0251 -0.0367  0.4071
 6796SOL    HW132024   0.703   0.696   3.731  0.8224 -0.7686  0.9007
 6796SOL    HW232025   0.799   0.755   3.643  0.4612  0.0197  0.5561
 6797SOL     OW32026   4.019   2.436   3.847  0.1974 -0.0012 -0.3077
 6797SOL    HW132027   4.115   2.432   3.848  0.1969  0.3527  1.3879
 6797SOL    HW232028   4.005   2.394   3.763  1.0601  0.3724 -0.6446
 6798SOL     OW32029   4.664   1.790   5.124 -0.1633 -0.0994 -0.0331
 6798SOL    HW132030   4.616   1.733   5.184  0.3529  0.7289  1.1692
 6798SOL    HW232031   4.682   1.739   5.046 -3.2159  0.1748 -0.9034
 6799SOL     OW32032   4.387   1.718   8.509 -0.1281 -0.0116 -0.2393
 6799SOL    HW132033   4.299   1.737   8.542 -0.7898  0.4370 -2.2987
 6799SOL    HW232034   4.430   1.665   8.577 -0.3984 -0.5477 -0.4813
 6800SOL     OW32035   4.036   3.646   5.156 -0.0957 -0.7489 -0.5732
 6800SOL    HW132036   4.129   3.667   5.159 -0.0707 -0.8220 -0.8054
 6800SOL    HW232037   3.988   3.726   5.178 -1.4932 -1.5365 -0.7180
 6801SOL     OW32038   2.624   2.420  14.830 -0.0279  0.2291  0.1767
 6801SOL    HW132039   2.714   2.387  14.824 -0.6644 -1.4577 -0.2564
 6801SOL    HW232040   2.566   2.344  14.837  1.4136 -0.9110 -0.2168
 6802SOL     OW32041   2.799   3.343   1.751  0.2970  0.3642  0.1573
 6802SOL    HW132042   2.849   3.283   1.696 -1.5116  0.3686 -1.4926
 6802SOL    HW232043   2.783   3.421   1.700  0.2666  1.6530  2.1304
 6803SOL     OW32044   4.037   0.157   2.681  0.1563 -0.7423 -0.0319
 6803SOL    HW132045   4.128   0.132   2.664  1.3629  2.2020  2.0403
 6803SOL    HW232046   3.987   0.134   2.603 -0.7115  0.2116  0.2430
 6804SOL     OW32047   3.801   0.387  14.721 -0.0542  0.2962  0.3278
 6804SOL    HW132048   3.732   0.442  14.684 -0.0883  0.9559  1.3907
 6804SOL    HW232049   3.882   0.419  14.681  0.4709 -3.0425 -1.2379
 6805SOL     OW32050   3.715   1.870   3.017  0.3065  0.7747 -0.4371
 6805SOL    HW132051   3.628   1.834   2.998  1.3894 -0.7265 -2.5309
 6805SOL    HW232052   3.746   1.923   2.944 -0.2533 -0.0429 -1.2693
 6806SOL     OW32053   1.308   1.358  12.631 -0.3288 -0.1703  0.3145
 6806SOL    HW132054   1.331   1.449  12.649  0.5015 -0.5097  0.9602
 6806SOL    HW232055   1.378   1.308  12.672  0.3442 -0.7909 -1.6026
 6807SOL     OW32056   2.935   4.400   6.229 -0.2300 -0.3237 -0.0461
 6807SOL    HW132057   2.897   4.408   6.317 -2.4578 -2.5826 -0.7972
 6807SOL    HW232058   2.903   4.481   6.190  0.6553 -1.4946 -3.1651
 6808SOL     OW32059   3.810   2.347   5.224 -0.4130 -0.2533  0.0302
 6808SOL    HW132060   3.876   2.407   5.258  0.2494 -0.6082 -0.6281
 6808SOL    HW232061   3.850   2.263   5.204 -1.6288 -0.6814 -0.6095
 6809SOL     OW32062   3.120   1.591   5.972  0.1889 -0.0118 -0.2472
 6809SOL    HW132063   3.033   1.583   5.932 -0.3349 -2.0912  1.2982
 6809SOL    HW232064   3.170   1.538   5.909 -0.3450  0.2602 -0.9047
 6810SOL     OW32065   2.804   2.210  14.590  0.0228 -0.6547  0.4625
 6810SOL    HW132066   2.712   2.234  14.600  0.1696 -0.3275  1.0076
 6810SOL    HW232067   2.812   2.176  14.679  0.5935 -2.5362 -0.3147
 6811SOL     OW32068   0.184   0.996   7.981  0.2649  0.1077 -0.0757
 6811SOL    HW132069   0.200   0.987   7.887 -6.6919 -2.1488 -1.0739
 6811SOL    HW232070   0.206   0.906   8.003 -0.7398  0.1762  1.2419
 6812SOL     OW32071   0.351   2.381  16.596 -0.4453 -0.1322  0.2735
 6812SOL    HW132072   0.391   2.406  16.513  0.3515  1.2968  1.0903
 6812SOL    HW232073   0.414   2.419  16.658 -0.7509  1.4571 -0.3812
 6813SOL     OW32074   0.385   4.624   6.260  0.0264 -0.1284  0.0594
 6813SOL    HW132075   0.300   4.664   6.278 -0.3418 -0.9039  0.0669
 6813SOL    HW232076   0.388   4.640   6.165 -0.4831 -0.2101  0.0287
 6814SOL     OW32077   3.870   1.496   8.861 -0.3465 -0.4685  0.0878
 6814SOL    HW132078   3.856   1.408   8.897  1.0600 -0.9548 -0.5227
 6814SOL    HW232079   3.881   1.550   8.938  0.4557  2.1388 -1.8754
 6815SOL     OW32080   1.921   1.826   7.458 -0.3875 -0.4367  0.3452
 6815SOL    HW132081   2.013   1.801   7.465 -0.4633 -0.6312  0.6638
 6815SOL    HW232082   1.877   1.779   7.528 -0.5989 -0.4677  0.1908
 6816SOL     OW32083   1.813   1.471  11.172  0.2422 -0.1972  0.4537
 6816SOL    HW132084   1.742   1.412  11.197 -1.1234  2.0453  1.8345
 6816SOL    HW232085   1.757   1.544  11.146 -0.5054 -0.3521  1.6396
 6817SOL     OW32086   3.109   0.039  14.206 -0.3289 -0.0771  0.6633
 6817SOL    HW132087   3.068   0.003  14.128 -0.3628  0.5581  0.3833
 6817SOL    HW232088   3.159   4.696  14.224 -0.3050 -0.1030  0.4852
 6818SOL     OW32089   3.170   1.062   9.351 -0.0726  0.0902 -0.7339
 6818SOL    HW132090   3.248   1.071   9.406 -1.0784 -0.7420  0.8281
 6818SOL    HW232091   3.216   1.040   9.270 -0.5340 -0.8053 -0.7529
 6819SOL     OW32092   3.495   2.124   6.867  0.3543 -0.8494  0.2614
 6819SOL    HW132093   3.548   2.194   6.906  0.5310 -1.4431  1.0807
 6819SOL    HW232094   3.495   2.067   6.943 -1.5565  1.0549  1.6763
 6820SOL     OW32095   4.268   4.204  15.497 -0.1702  0.0089 -0.4577
 6820SOL    HW132096   4.223   4.249  15.569 -0.3474  1.1074 -1.2606
 6820SOL    HW232097   4.196   4.141  15.488 -2.0828  2.3744 -1.7115
 6821SOL     OW32098   1.460   4.209   5.103 -0.3642 -0.3107 -0.7056
 6821SOL    HW132099   1.464   4.173   5.192 -0.6397  1.9804  0.2164
 6821SOL    HW232100   1.515   4.287   5.110 -0.7722  0.1878 -2.8683
 6822SOL     OW32101   0.213   3.584   3.922  0.3087 -0.2517 -0.1535
 6822SOL    HW132102   0.130   3.550   3.891  0.8635  1.0702 -3.0449
 6822SOL    HW232103   0.269   3.509   3.900  1.5753  1.3871 -2.5433
 6823SOL     OW32104   3.329   4.023   2.913 -0.4912  0.0543  0.5660
 6823SOL    HW132105   3.402   4.058   2.964  0.7738 -0.1214 -1.1100
 6823SOL    HW232106   3.290   3.965   2.978 -0.8541  0.7434  0.9600
 6824SOL     OW32107   4.581   3.981   1.940 -0.1251  0.3257  0.1439
 6824SOL    HW132108   4.569   3.908   2.001 -0.8386  0.0741 -0.2923
 6824SOL    HW232109   4.563   4.052   2.002  1.4788 -1.2483  2.3904
 6825SOL     OW32110   1.920   3.856   8.351 -0.0732 -0.1252  0.2431
 6825SOL    HW132111   1.880   3.943   8.351  1.0703  0.3980 -1.6421
 6825SOL    HW232112   1.963   3.863   8.266  2.4004  0.5556  1.5507
 6826SOL     OW32113   4.713   2.441   9.464 -0.0931 -0.4540  0.3036
 6826SOL    HW132114   4.726   2.390   9.385  1.3067  2.3130 -1.2662
 6826SOL    HW232115   0.066   2.473   9.475  0.4353 -1.5220 -0.9682
 6827SOL     OW32116   3.944   3.331   6.711 -0.5782  0.7690 -0.3573
 6827SOL    HW132117   3.882   3.262   6.733  0.0543  0.5153  0.5883
 6827SOL    HW232118   3.950   3.328   6.615 -0.1192 -1.7860 -0.2385
 6828SOL     OW32119   4.504   4.438   9.327  0.3064 -0.2967  0.0818
 6828SOL    HW132120   4.554   4.519   9.338 -0.8726  0.6924 -1.8562
 6828SOL    HW232121   4.493   4.432   9.232 -1.3378 -0.1200  0.2763
 6829SOL     OW32122   4.277   0.699   6.230 -0.2079 -0.6824  0.3379
 6829SOL    HW132123   4.269   0.786   6.267  2.2632  0.1019 -0.9784
 6829SOL    HW232124   4.215   0.703   6.157  1.3650 -0.8779 -1.0085
 6830SOL     OW32125   2.516   0.730   4.071  0.2352  0.0430  0.4410
 6830SOL    HW132126   2.566   0.654   4.100  0.2788  0.6802  2.0827
 6830SOL    HW232127   2.465   0.692   4.000 -0.9173  3.4372 -0.5270
 6831SOL     OW32128   1.729   1.337   8.445 -0.3493  0.1581 -0.3925
 6831SOL    HW132129   1.733   1.265   8.382 -0.8788 -1.7624  1.7958
 6831SOL    HW232130   1.794   1.311   8.509 -0.9260 -0.0640  0.0962
 6832SOL     OW32131   3.892   1.344   6.557  0.8714 -0.2776 -0.3176
 6832SOL    HW132132   3.972   1.297   6.580  0.4496  0.3855  2.5320
 6832SOL    HW232133   3.907   1.437   6.576  0.0793 -0.1458 -0.3224
 6833SOL     OW32134   0.623   3.940   2.038 -0.5246 -0.3435  0.1314
 6833SOL    HW132135   0.646   3.906   1.952  1.6237  0.6360  0.3060
 6833SOL    HW232136   0.711   3.963   2.068 -0.2142 -0.0416 -1.0202
 6834SOL     OW32137   0.445   2.849   5.018  0.5385  0.3952  0.1045
 6834SOL    HW132138   0.379   2.815   5.078  1.2481 -0.5110  0.3666
 6834SOL    HW232139   0.524   2.813   5.058  0.4553  1.1245  0.9547
 6835SOL     OW32140   3.082   3.654   3.120 -0.1935 -0.2667  0.1823
 6835SOL    HW132141   3.146   3.708   3.073  0.6352 -0.7296  0.7903
 6835SOL    HW232142   3.046   3.592   3.056  0.1057  0.4935 -0.7280
 6836SOL     OW32143   4.544   3.184   1.330  0.6973 -0.0435 -0.1326
 6836SOL    HW132144   4.635   3.192   1.302  0.2759  1.0178 -1.2092
 6836SOL    HW232145   4.554   3.226   1.415  1.3070  0.3744 -0.4194
 6837SOL     OW32146   4.679   2.291   8.571 -0.4826 -0.4049 -0.0649
 6837SOL    HW132147   0.022   2.250   8.538 -0.9035 -0.0130 -1.5479
 6837SOL    HW232148   4.711   2.332   8.652  0.4099 -1.5351  0.1427
 6838SOL     OW32149   2.706   2.415  16.210 -0.2253 -0.5909 -0.6803
 6838SOL    HW132150   2.731   2.446  16.297 -0.2664 -2.2383 -0.0872
 6838SOL    HW232151   2.782   2.445  16.161  1.4449 -0.4322  1.9799
 6839SOL     OW32152   2.998   0.435   3.006 -0.0072 -0.1576  0.0316
 6839SOL    HW132153   3.071   0.479   2.964  0.4622 -0.9698 -0.0069
 6839SOL    HW232154   2.953   0.502   3.058 -0.8476 -1.6321  1.2448
 6840SOL     OW32155   2.953   0.212   2.144 -0.0885  0.6421  0.5523
 6840SOL    HW132156   2.929   0.278   2.078 -3.2286  2.1372  3.1786
 6840SOL    HW232157   2.878   0.154   2.152 -0.9796  1.8640  1.0496
 6841SOL     OW32158   4.519   0.599  16.535  0.1673 -0.2132 -0.0339
 6841SOL    HW132159   4.554   0.591  16.446 -1.7783  1.0807 -0.9289
 6841SOL    HW232160   4.449   0.662  16.518  1.0500  0.7662 -0.0296
 6842SOL     OW32161   1.377   1.373  17.458 -0.7552 -0.1326 -0.0727
 6842SOL    HW132162   1.375   1.380  17.363 -0.5558  0.8145 -0.0008
 6842SOL    HW232163   1.330   1.449  17.492 -0.6219 -0.5951  1.1684
 6843SOL     OW32164   3.961   0.986  12.699  0.1261  0.2833 -0.4073
 6843SOL    HW132165   4.030   0.933  12.659  1.5391  1.7449  0.0914
 6843SOL    HW232166   4.014   1.026  12.768 -1.7159  1.0951  0.5529
 6844SOL     OW32167   0.167   4.575  15.090  0.0508 -0.0664  0.4042
 6844SOL    HW132168   0.143   4.624  15.011  0.8386 -0.6005 -0.1629
 6844SOL    HW232169   0.220   4.504  15.055 -0.3199 -0.2214  0.1671
 6845SOL     OW32170   2.254   2.129   6.842  0.1213 -0.2178 -0.2121
 6845SOL    HW132171   2.343   2.100   6.861 -0.4913 -2.1141 -0.1887
 6845SOL    HW232172   2.268   2.206   6.787  1.2487  0.6437  1.2712
 6846SOL     OW32173   1.594   0.275   4.903 -0.3848 -0.1193 -0.3361
 6846SOL    HW132174   1.663   0.233   4.954 -0.5392 -1.4520 -1.2173
 6846SOL    HW232175   1.636   0.257   4.819 -3.3824  0.6489 -1.9936
 6847SOL     OW32176   2.752   0.383  11.266  0.0724 -0.0586 -0.4127
 6847SOL    HW132177   2.759   0.352  11.356 -1.3745 -1.6277 -0.8436
 6847SOL    HW232178   2.785   0.312  11.210 -0.6641  0.3717 -1.3877
 6848SOL     OW32179   0.749   4.492  16.288 -0.7704 -0.1514 -0.0767
 6848SOL    HW132180   0.797   4.555  16.340  0.8947 -0.4103 -1.2932
 6848SOL    HW232181   0.767   4.407  16.328 -1.2708  0.5228  1.5603
 6849SOL     OW32182   1.378   2.081   2.329  0.3832  0.4294 -0.2732
 6849SOL    HW132183   1.402   2.134   2.253  1.3777  2.4124  1.4272
 6849SOL    HW232184   1.299   2.030   2.308  1.5485 -1.2766 -0.5255
 6850SOL     OW32185   3.807   3.666   4.732 -0.1475 -0.1622 -0.1282
 6850SOL    HW132186   3.744   3.665   4.659 -2.0032 -1.6972  1.4944
 6850SOL    HW232187   3.887   3.695   4.688 -0.3907  0.5090 -0.1236
 6851SOL     OW32188   2.619   2.855   6.566  0.3970 -0.4793 -0.2418
 6851SOL    HW132189   2.542   2.881   6.617  0.9139  0.7365 -0.0764
 6851SOL    HW232190   2.574   2.821   6.489 -0.5425 -0.1238  0.1513
 6852SOL     OW32191   0.840   1.990  17.648  0.3200  0.1216 -0.4019
 6852SOL    HW132192   0.826   1.984  17.554 -1.6516 -0.0596 -0.1031
 6852SOL    HW232193   0.764   1.946  17.685  1.6721 -0.4196  1.7667
 6853SOL     OW32194   2.750   1.329   8.645  0.1799  0.0261 -0.2373
 6853SOL    HW132195   2.677   1.324   8.583 -1.0463 -1.4718  1.3100
 6853SOL    HW232196   2.803   1.390   8.594  1.9077 -0.2866  1.1946
 6854SOL     OW32197   4.052   4.274  15.685  0.2330  0.2012  0.1920
 6854SOL    HW132198   3.979   4.326  15.652  0.1805 -0.1573 -0.2555
 6854SOL    HW232199   4.076   4.328  15.760  1.2609 -1.2127  0.8991
 6855SOL     OW32200   1.659   4.660   9.405 -0.7833 -0.0612  0.2306
 6855SOL    HW132201   1.667   4.594   9.475  2.8306  1.7414  1.5116
 6855SOL    HW232202   1.739   4.710   9.421 -0.4762  0.0563 -1.6787
 6856SOL     OW32203   3.014   0.209   5.309  0.3336 -0.3703  0.8600
 6856SOL    HW132204   3.085   0.212   5.373  0.9865  3.2184 -0.0294
 6856SOL    HW232205   2.967   0.130   5.335 -1.0050  1.0765  2.8309
 6857SOL     OW32206   3.172   4.382   9.154  0.2160 -0.0381  0.4737
 6857SOL    HW132207   3.112   4.315   9.120 -0.1014  0.6790 -0.4052
 6857SOL    HW232208   3.238   4.370   9.086 -1.2961 -1.4137 -0.7763
 6858SOL     OW32209   1.970   4.494  15.634  0.6163  0.1673  0.1831
 6858SOL    HW132210   2.055   4.510  15.593  0.8877 -0.3148  0.5473
 6858SOL    HW232211   1.951   4.417  15.580 -0.5406  0.4666  0.1731
 6859SOL     OW32212   3.328   4.049  10.527  0.5949 -0.2176 -0.4405
 6859SOL    HW132213   3.338   3.967  10.575  0.7520  0.5355  0.8189
 6859SOL    HW232214   3.373   4.102  10.592  0.7708 -1.2314  0.2581
 6860SOL     OW32215   3.157   3.272   2.995 -0.2061 -0.1831  0.1694
 6860SOL    HW132216   3.106   3.195   3.022 -0.4090 -0.1393 -0.0887
 6860SOL    HW232217   3.219   3.274   3.068 -1.0935  0.1823  0.9152
 6861SOL     OW32218   2.845   2.917   2.736  0.3492 -0.3096 -0.2285
 6861SOL    HW132219   2.898   2.877   2.667 -0.0498 -1.1631 -0.0359
 6861SOL    HW232220   2.791   2.840   2.752  2.0342 -1.5268 -0.4384
 6862SOL     OW32221   1.607   2.631   2.401 -0.0926  0.0357  0.3932
 6862SOL    HW132222   1.553   2.592   2.470 -0.8233  0.7323  0.2278
 6862SOL    HW232223   1.563   2.716   2.391 -0.4397  0.0571  2.0196
 6863SOL     OW32224   0.987   2.135   3.333 -0.0829  0.0340 -0.0303
 6863SOL    HW132225   0.899   2.139   3.295 -0.4955  0.0894  0.9385
 6863SOL    HW232226   1.028   2.057   3.296  1.5737  0.1878  1.4917
 6864SOL     OW32227   0.822   4.507   4.500  0.1501 -0.5009  0.3672
 6864SOL    HW132228   0.765   4.432   4.519 -2.9596  1.3306 -1.6852
 6864SOL    HW232229   0.760   4.577   4.522  1.1022  0.1674  0.9178
 6865SOL     OW32230   3.267   4.159   8.430  0.0108  0.3233  0.4808
 6865SOL    HW132231   3.255   4.064   8.436  0.8526  0.1834 -0.1408
 6865SOL    HW232232   3.305   4.168   8.342  0.1246 -0.7166  0.4232
 6866SOL     OW32233   4.699   0.813   9.521  0.6601 -0.3198  0.1445
 6866SOL    HW132234   4.654   0.896   9.509 -0.3826 -0.9334 -0.1419
 6866SOL    HW232235   0.047   0.825   9.478  0.1207  1.1805 -0.4703
 6867SOL     OW32236   1.749   1.636  12.916 -0.5337  0.6342 -0.0608
 6867SOL    HW132237   1.757   1.728  12.892  1.1543  0.4808 -0.0534
 6867SOL    HW232238   1.694   1.613  12.841  1.6970 -0.1281 -1.4425
 6868SOL     OW32239   4.059   3.437  11.875 -0.1417  0.1381  0.2345
 6868SOL    HW132240   4.023   3.436  11.786  0.6291 -0.6062 -0.0748
 6868SOL    HW232241   4.005   3.511  11.902 -2.3022 -2.1479  2.1898
 6869SOL     OW32242   1.464   4.677   6.644  0.5834 -0.2343 -0.0769
 6869SOL    HW132243   1.509   4.592   6.644 -0.2326 -0.6623  0.3359
 6869SOL    HW232244   1.536   0.004   6.636  0.0461  0.1387 -1.7548
 6870SOL     OW32245   0.318   0.740  17.548 -0.1306 -0.1768  0.4393
 6870SOL    HW132246   0.260   0.743  17.472  2.0458  0.6670 -1.2066
 6870SOL    HW232247   0.311   0.830  17.580  1.7775  0.2958 -0.4290
 6871SOL     OW32248   3.746   3.373   3.843  0.7341 -0.1550 -0.0615
 6871SOL    HW132249   3.696   3.434   3.789  1.7551  0.5153 -0.2521
 6871SOL    HW232250   3.830   3.378   3.797 -0.5300 -0.5160 -2.3855
 6872SOL     OW32251   1.313   2.841   7.235 -0.1625 -0.0410  0.3250
 6872SOL    HW132252   1.352   2.825   7.320  1.1862  0.1513 -0.2622
 6872SOL    HW232253   1.310   2.937   7.232 -1.9187 -0.1562 -1.5349
 6873SOL     OW32254   2.354   1.417   2.371  0.2405 -0.8973  0.5672
 6873SOL    HW132255   2.402   1.463   2.440 -0.3018 -1.5111  1.3584
 6873SOL    HW232256   2.281   1.381   2.421  0.6851 -2.0149  0.4193
 6874SOL     OW32257   0.955   3.773  12.104 -0.5530  0.0101  0.5636
 6874SOL    HW132258   1.046   3.767  12.133 -0.6093 -2.0639  0.2606
 6874SOL    HW232259   0.945   3.868  12.108  1.0806  0.2424 -0.9279
 6875SOL     OW32260   4.045   0.520   2.238  0.0915 -0.1982 -0.2185
 6875SOL    HW132261   4.048   0.578   2.315 -1.2842  2.4993 -2.1918
 6875SOL    HW232262   4.048   0.594   2.177 -2.8195  0.0431 -0.0548
 6876SOL     OW32263   3.211   0.650  10.185 -0.1114 -0.5494  0.5713
 6876SOL    HW132264   3.170   0.598  10.254 -2.1787 -1.2932 -1.1894
 6876SOL    HW232265   3.139   0.649  10.121  0.9832 -1.0541 -0.6503
 6877SOL     OW32266   3.177   1.974  12.965  0.2245  0.2173  0.2100
 6877SOL    HW132267   3.176   2.058  13.011 -1.5996  2.6610 -4.2575
 6877SOL    HW232268   3.250   1.987  12.904 -0.4197  2.1304 -0.1585
 6878SOL     OW32269   0.789   2.106   0.765 -0.5073 -0.1590  0.2460
 6878SOL    HW132270   0.721   2.159   0.806  0.3027  0.7452  0.4305
 6878SOL    HW232271   0.838   2.073   0.840 -0.7243 -0.5645  0.2081
 6879SOL     OW32272   1.530   2.913   2.487 -0.3596  0.0907  0.2056
 6879SOL    HW132273   1.469   2.967   2.537 -0.6882  0.4208 -0.5567
 6879SOL    HW232274   1.593   2.879   2.551 -2.3407  0.5126  2.3738
 6880SOL     OW32275   1.021   1.155  10.824 -1.0006 -0.6807 -0.3200
 6880SOL    HW132276   1.025   1.170  10.919 -2.5304  0.2485 -0.4019
 6880SOL    HW232277   0.968   1.222  10.781 -0.4054  0.5048  0.8060
 6881SOL     OW32278   0.291   1.477  10.096 -0.0729  0.8920 -0.0851
 6881SOL    HW132279   0.342   1.408  10.055 -1.7112  0.1569 -0.8828
 6881SOL    HW232280   0.210   1.465  10.047  1.4140  0.3846 -2.3938
 6882SOL     OW32281   1.481   1.081   4.166  0.4648  0.1134 -0.0337
 6882SOL    HW132282   1.385   1.079   4.156  0.8996 -1.5502 -4.0534
 6882SOL    HW232283   1.496   0.991   4.139 -1.6368 -0.1325 -0.3812
 6883SOL     OW32284   3.335   0.692   7.342 -0.3226 -0.0204  0.3197
 6883SOL    HW132285   3.313   0.746   7.266 -0.4922 -1.9072 -0.9675
 6883SOL    HW232286   3.291   0.728   7.419  3.7040  1.9044  1.7543
 6884SOL     OW32287   0.398   2.168   6.399  0.1292  0.8619 -0.1202
 6884SOL    HW132288   0.414   2.105   6.469  2.7075  0.7993 -0.7522
 6884SOL    HW232289   0.420   2.256   6.428  1.7118  0.0476  1.1126
 6885SOL     OW32290   3.324   3.811   3.080 -0.6642  0.0333 -0.1662
 6885SOL    HW132291   3.414   3.798   3.049 -0.8036  0.9686 -0.9886
 6885SOL    HW232292   3.329   3.811   3.175 -1.3764 -1.2507 -0.1260
 6886SOL     OW32293   2.895   3.563   8.068  0.3873 -0.0052 -0.0296
 6886SOL    HW132294   2.885   3.648   8.025  0.4325  0.7720  1.4647
 6886SOL    HW232295   2.823   3.565   8.132  0.3695 -0.0226 -0.0492
 6887SOL     OW32296   1.536   3.883  13.055 -0.0454  0.1108  0.5297
 6887SOL    HW132297   1.549   3.977  13.042 -3.2287  0.6176  1.0959
 6887SOL    HW232298   1.610   3.855  13.002 -1.3786 -0.9597 -0.7647
 6888SOL     OW32299   2.763   1.123   9.528 -0.3013  0.2124  0.5366
 6888SOL    HW132300   2.784   1.055   9.464  0.4251  0.4395  0.5413
 6888SOL    HW232301   2.758   1.070   9.607 -1.5286  0.6220  0.7433
 6889SOL     OW32302   0.965   1.753   7.937 -0.3014  0.4342 -0.0621
 6889SOL    HW132303   0.959   1.826   7.998 -0.6023  0.1516  0.2522
 6889SOL    HW232304   0.971   1.682   8.002  0.1132  1.1459  0.6677
 6890SOL     OW32305   1.788   4.007   1.018 -0.6434 -0.5119 -0.7591
 6890SOL    HW132306   1.847   4.069   0.977  0.8219 -1.6661 -0.4017
 6890SOL    HW232307   1.824   3.996   1.105 -1.7365  0.0330 -0.2344
 6891SOL     OW32308   3.362   3.229   7.689 -0.0039  0.0288  0.1478
 6891SOL    HW132309   3.436   3.170   7.681  0.0817  0.1792 -0.1858
 6891SOL    HW232310   3.405   3.312   7.671  1.2127 -0.0179  3.0014
 6892SOL     OW32311   2.951   2.013   5.246 -0.6631 -0.0805  0.2223
 6892SOL    HW132312   2.933   1.987   5.336  0.6072  0.9542  0.7721
 6892SOL    HW232313   2.945   2.108   5.254 -0.9221  0.0763 -1.7907
 6893SOL     OW32314   0.562   0.849   7.852  0.2176  0.1252 -0.5300
 6893SOL    HW132315   0.622   0.776   7.869  1.8294  1.3597 -0.8763
 6893SOL    HW232316   0.607   0.920   7.897  1.3655 -1.1453  0.3651
 6894SOL     OW32317   2.611   0.504   9.235  0.8372  0.0945 -0.1011
 6894SOL    HW132318   2.533   0.461   9.270 -0.7668 -0.0865 -3.8954
 6894SOL    HW232319   2.568   0.563   9.172  0.2120  1.0352  1.2093
 6895SOL     OW32320   4.385   3.939   0.533  0.4104  0.2200  0.1594
 6895SOL    HW132321   4.448   3.870   0.518  0.2513  0.2691 -0.6922
 6895SOL    HW232322   4.302   3.893   0.522 -1.0011  2.6444  0.5110
 6896SOL     OW32323   4.482   3.778   4.128  0.7108 -0.0747  0.5508
 6896SOL    HW132324   4.576   3.794   4.124  0.5285  0.7158 -0.6873
 6896SOL    HW232325   4.485   3.683   4.131  2.3738 -0.0273 -0.0062
 6897SOL     OW32326   0.611   3.287   5.109  0.2377 -0.0362  0.4493
 6897SOL    HW132327   0.531   3.234   5.102  0.2795  0.0169 -0.3505
 6897SOL    HW232328   0.576   3.365   5.153  0.6764  1.2540 -1.4950
 6898SOL     OW32329   1.223   0.694   4.175  0.0556 -0.2642  0.0895
 6898SOL    HW132330   1.208   0.724   4.265 -0.4875 -0.7907  0.1699
 6898SOL    HW232331   1.208   0.779   4.132 -2.2374  0.1735  1.7739
 6899SOL     OW32332   1.826   0.919  11.090 -0.6433  0.1920 -0.5917
 6899SOL    HW132333   1.797   0.930  11.181  0.0195 -1.8884 -0.1250
 6899SOL    HW232334   1.795   1.001  11.051  2.0754  1.0518 -0.9578
 6900SOL     OW32335   1.557   4.518   0.850 -0.1041 -0.5873 -0.4763
 6900SOL    HW132336   1.651   4.500   0.853  0.1910  1.0383 -0.2419
 6900SOL    HW232337   1.569   4.599   0.800  1.3742 -0.0794  0.6962
 6901SOL     OW32338   3.787   3.788   3.948  0.0016 -0.0440 -0.2388
 6901SOL    HW132339   3.712   3.783   4.007 -0.7898  0.5256 -1.2166
 6901SOL    HW232340   3.830   3.707   3.976 -0.5547 -0.1430  0.3234
 6902SOL     OW32341   4.047   0.671  12.891  0.0033  0.7655  0.2131
 6902SOL    HW132342   4.105   0.690  12.818  0.1696 -0.0476  0.1342
 6902SOL    HW232343   4.099   0.638  12.965  1.1404 -1.9966 -1.8153
 6903SOL     OW32344   0.114   2.283   0.806  0.1272 -0.2041  0.5772
 6903SOL    HW132345   0.110   2.223   0.881  0.2564  0.4494  1.0988
 6903SOL    HW232346   0.056   2.347   0.848  1.4536  0.2486  1.6979
 6904SOL     OW32347   1.500   2.773   8.885  0.1128  0.0773  0.5828
 6904SOL    HW132348   1.584   2.808   8.916  0.0476 -0.2312  1.0988
 6904SOL    HW232349   1.500   2.685   8.922  1.8427  0.0218  0.4744
 6905SOL     OW32350   0.498   1.409   6.545  0.3205  0.4335  0.3547
 6905SOL    HW132351   0.408   1.387   6.518  0.5397 -0.2376  0.1520
 6905SOL    HW232352   0.548   1.390   6.465 -0.7798 -0.7161 -0.0648
 6906SOL     OW32353   1.411   4.491   7.723 -0.2645  0.8024 -0.1475
 6906SOL    HW132354   1.447   4.562   7.776  2.9449 -0.5587 -0.4508
 6906SOL    HW232355   1.348   4.545   7.675 -0.0777 -0.7475 -2.1783
 6907SOL     OW32356   2.516   1.745   9.367 -0.1895  0.7527 -0.4505
 6907SOL    HW132357   2.572   1.786   9.433  0.7255  0.9315 -1.3463
 6907SOL    HW232358   2.457   1.689   9.417  0.2516  0.1165 -0.6488
 6908SOL     OW32359   3.331   4.156   0.277 -0.0554  0.1949 -0.4332
 6908SOL    HW132360   3.245   4.197   0.288  0.0078  0.0324  0.7191
 6908SOL    HW232361   3.339   4.135   0.370  1.7174  1.2933 -0.3394
 6909SOL     OW32362   2.170   3.176   3.146 -0.2190 -1.0662  0.1477
 6909SOL    HW132363   2.191   3.241   3.213 -0.8499 -0.1378 -0.5471
 6909SOL    HW232364   2.247   3.189   3.092  0.0650 -2.8545  0.1294
 6910SOL     OW32365   1.615   1.470   7.609 -0.6268  0.1604  0.0773
 6910SOL    HW132366   1.614   1.375   7.597 -0.7788  0.3630 -1.5146
 6910SOL    HW232367   1.540   1.490   7.553 -0.7332  0.3207  0.2773
 6911SOL     OW32368   4.202   3.459   0.192 -0.2123 -0.2365  0.0409
 6911SOL    HW132369   4.111   3.478   0.213  0.2884 -0.3599  2.2429
 6911SOL    HW232370   4.183   3.409   0.112 -2.3729  1.8932 -0.7765
 6912SOL     OW32371   3.748   3.125   2.453  0.5864 -0.4583  0.1540
 6912SOL    HW132372   3.680   3.189   2.472 -0.1119 -0.7604 -1.3821
 6912SOL    HW232373   3.819   3.179   2.420 -0.6951  1.7764  1.0397
 6913SOL     OW32374   3.630   0.397  10.284  0.3840  0.3545  0.0301
 6913SOL    HW132375   3.710   0.399  10.231  0.8997 -3.5266  0.7209
 6913SOL    HW232376   3.591   0.481  10.257 -0.9928 -0.4998 -0.6068
 6914SOL     OW32377   1.051   1.641   7.382 -0.2657 -0.3389  0.2147
 6914SOL    HW132378   0.982   1.651   7.448  0.3356  0.6489  0.6856
 6914SOL    HW232379   1.097   1.721   7.406  0.0693 -0.0799 -1.3135
 6915SOL     OW32380   1.824   3.905   4.705  0.6054 -0.2398 -0.2599
 6915SOL    HW132381   1.764   3.940   4.770  1.8557 -0.2323  0.9010
 6915SOL    HW232382   1.770   3.872   4.633  0.3994 -1.5318  0.4793
 6916SOL     OW32383   2.382   3.521  11.337 -0.3817 -1.2380 -0.3553
 6916SOL    HW132384   2.349   3.610  11.345  1.1634 -0.5924 -1.1082
 6916SOL    HW232385   2.469   3.541  11.302 -0.8013 -1.3219 -1.4489
 6917SOL     OW32386   1.216   0.760   2.026  0.3139 -0.6533 -0.0690
 6917SOL    HW132387   1.272   0.743   2.102  1.7798  1.1028 -0.7664
 6917SOL    HW232388   1.286   0.782   1.965 -0.1450  1.7207  0.2542
 6918SOL     OW32389   1.069   0.153   7.963  0.3002 -0.6148  0.4479
 6918SOL    HW132390   1.108   0.157   7.875 -0.1331  0.4854  0.3066
 6918SOL    HW232391   1.066   0.245   7.989 -0.9008 -0.7200  0.6760
 6919SOL     OW32392   0.206   2.211  11.336 -0.2507  0.0997 -0.0759
 6919SOL    HW132393   0.209   2.193  11.430 -0.1952 -0.4338 -0.1808
 6919SOL    HW232394   0.180   2.122  11.314 -0.8946  0.1097  0.6678
 6920SOL     OW32395   3.856   4.729   3.102 -0.2790 -0.0590 -0.0205
 6920SOL    HW132396   3.898   4.665   3.044 -0.9353 -1.4476  1.0196
 6920SOL    HW232397   3.798   4.678   3.158 -1.8095  0.8145 -0.8191
 6921SOL     OW32398   4.581   2.578   3.531 -0.6330  0.5317  0.5577
 6921SOL    HW132399   4.522   2.607   3.600 -0.3450 -1.4965  1.6471
 6921SOL    HW232400   4.641   2.513   3.567 -1.1647 -0.5809 -0.5910
 6922SOL     OW32401   1.282   1.132  17.568  0.3631 -0.2456  0.5009
 6922SOL    HW132402   1.258   1.160  17.656  2.2734 -2.2134  1.6792
 6922SOL    HW232403   1.285   1.219  17.529 -0.5369 -1.0514 -1.3689
 6923SOL     OW32404   4.418   1.065   4.573  0.4525  0.2364 -0.2520
 6923SOL    HW132405   4.354   1.112   4.627  0.5481  1.9287 -1.6120
 6923SOL    HW232406   4.430   0.991   4.632  0.4769  0.8313  0.4841
 6924SOL     OW32407   2.069   0.846   8.708 -0.1191 -0.1026  0.1623
 6924SOL    HW132408   1.988   0.800   8.686 -1.2881  0.9573  2.2466
 6924SOL    HW232409   2.065   0.921   8.649  0.9724 -0.2510 -0.1067
 6925SOL     OW32410   1.524   2.004   6.425 -0.0971 -0.3688 -0.0716
 6925SOL    HW132411   1.612   1.974   6.403 -0.9714 -2.1748 -1.0618
 6925SOL    HW232412   1.499   1.951   6.500  0.2398  0.2427  0.4673
 6926SOL     OW32413   1.268   2.499  14.430  0.4274 -0.9487 -0.8001
 6926SOL    HW132414   1.230   2.443  14.363 -1.6479  0.4150 -0.7514
 6926SOL    HW232415   1.205   2.488  14.501  1.0335  2.2727  0.2736
 6927SOL     OW32416   2.559   0.327  16.843  0.6559 -0.4185  0.0685
 6927SOL    HW132417   2.481   0.377  16.818  0.4715 -1.6054 -1.7652
 6927SOL    HW232418   2.528   0.310  16.933 -0.6308 -0.4652 -0.3827
 6928SOL     OW32419   0.721   0.994   8.330 -0.8462 -0.7791 -0.6986
 6928SOL    HW132420   0.652   1.046   8.290 -0.4105 -0.3586 -0.8921
 6928SOL    HW232421   0.745   1.067   8.386  0.3927 -2.0104  0.3940
 6929SOL     OW32422   3.613   2.327   7.904 -0.1096  0.7534 -0.6787
 6929SOL    HW132423   3.642   2.387   7.973 -0.0694 -0.0337 -0.0115
 6929SOL    HW232424   3.624   2.248   7.958 -1.2247  1.3979  0.5085
 6930SOL     OW32425   1.626   2.347   2.323 -0.2495  0.5359  0.1250
 6930SOL    HW132426   1.596   2.318   2.409  1.5914 -0.2407  0.5081
 6930SOL    HW232427   1.605   2.440   2.319 -1.4800  0.2929  1.1557
 6931SOL     OW32428   3.989   3.665  12.593 -0.5778  0.1912  0.2338
 6931SOL    HW132429   4.027   3.752  12.581  1.5524 -0.3895  2.6299
 6931SOL    HW232430   3.962   3.655  12.502  0.7837 -0.1222 -0.1441
 6932SOL     OW32431   1.702   1.706   8.400 -0.0140  0.4116 -0.2617
 6932SOL    HW132432   1.716   1.677   8.490 -1.3949  0.3272 -0.0746
 6932SOL    HW232433   1.617   1.749   8.412 -0.3407 -0.7799  1.8317
 6933SOL     OW32434   0.015   4.082  13.707 -0.0519 -0.2390  0.6663
 6933SOL    HW132435   0.038   4.007  13.653 -1.1519 -1.1577  1.4659
 6933SOL    HW232436   4.667   4.089  13.663  2.2000  1.7716 -3.3689
 6934SOL     OW32437   2.408   4.330   4.255 -0.1373 -0.0937 -0.3512
 6934SOL    HW132438   2.464   4.332   4.178 -0.3970  1.1135 -0.4987
 6934SOL    HW232439   2.330   4.282   4.224 -0.2342  0.2232 -0.5958
 6935SOL     OW32440   3.234   3.628   3.899  0.5076 -0.2142 -0.0015
 6935SOL    HW132441   3.243   3.619   3.804 -0.4121 -0.4649 -0.0634
 6935SOL    HW232442   3.180   3.549   3.912 -0.0653  0.6721  3.0664
 6936SOL     OW32443   2.641   4.279  11.362 -0.2257  0.6008  0.1034
 6936SOL    HW132444   2.568   4.243  11.312  0.7942  0.4381 -1.2553
 6936SOL    HW232445   2.627   4.241  11.449  1.4814  1.2405  0.6488
 6937SOL     OW32446   1.484   0.959  17.521  0.1495  0.4973  0.7904
 6937SOL    HW132447   1.429   0.892  17.480 -0.8036  2.2650 -0.8158
 6937SOL    HW232448   1.411   1.019  17.536  0.5817  0.4572  3.0229
 6938SOL     OW32449   2.824   2.647   6.712  0.0021  0.2628 -0.0354
 6938SOL    HW132450   2.749   2.690   6.672  0.5842  0.3100 -1.0658
 6938SOL    HW232451   2.873   2.612   6.638  0.4948 -0.7358  0.7637
 6939SOL     OW32452   0.674   1.254   9.478  0.0678  0.1463 -0.6033
 6939SOL    HW132453   0.707   1.303   9.402 -3.2186  1.4157 -1.2544
 6939SOL    HW232454   0.622   1.319   9.525 -0.0266 -0.3797  0.0090
 6940SOL     OW32455   1.486   2.095   0.753  0.1178  0.6405  0.1512
 6940SOL    HW132456   1.556   2.160   0.749  0.8590 -0.0530  1.7334
 6940SOL    HW232457   1.418   2.147   0.711 -0.2902 -0.0321 -0.0202
 6941SOL     OW32458   1.431   3.698   2.976  0.1740 -0.0320 -0.0752
 6941SOL    HW132459   1.412   3.667   3.064 -2.4281 -0.3671 -0.7370
 6941SOL    HW232460   1.447   3.620   2.924 -1.5034 -0.5375  0.1565
 6942SOL     OW32461   3.914   4.638   7.547 -0.0505 -0.2330  0.0960
 6942SOL    HW132462   3.832   4.665   7.588  0.9014  0.7338  1.4087
 6942SOL    HW232463   3.977   4.621   7.618 -0.1356 -0.4438  0.1202
 6943SOL     OW32464   0.309   3.956  12.439  0.0017 -0.0827 -0.0896
 6943SOL    HW132465   0.385   3.906  12.409 -0.2151 -0.6825  0.3487
 6943SOL    HW232466   0.332   3.975  12.529 -1.2989  1.9175 -0.1710
 6944SOL     OW32467   1.368   0.639   9.473  0.5403 -0.0787 -0.4475
 6944SOL    HW132468   1.321   0.713   9.435 -1.1595 -0.3711  1.0416
 6944SOL    HW232469   1.300   0.592   9.523 -0.2708  0.8658 -0.6579
 6945SOL     OW32470   0.972   3.046   8.423 -0.1749 -0.0076  0.3306
 6945SOL    HW132471   1.008   3.000   8.499 -0.8492  0.0554  0.6883
 6945SOL    HW232472   0.879   3.023   8.419  0.1016 -0.6864 -2.2185
 6946SOL     OW32473   3.864   3.962   8.720 -0.6837  0.3362  0.4066
 6946SOL    HW132474   3.790   4.022   8.717 -1.7027 -0.9571 -0.3652
 6946SOL    HW232475   3.811   3.885   8.742 -0.1371  0.0392  0.7134
 6947SOL     OW32476   4.288   4.485   3.227  0.1024 -0.2245  0.2922
 6947SOL    HW132477   4.308   4.396   3.199  1.8647  0.0242  0.7398
 6947SOL    HW232478   4.209   4.507   3.177  0.9658  1.2768 -0.4218
 6948SOL     OW32479   4.376   4.289  14.953 -0.1313 -0.1268 -0.3226
 6948SOL    HW132480   4.303   4.343  14.921 -1.1710 -1.0259  0.5214
 6948SOL    HW232481   4.395   4.231  14.879 -0.6841 -0.5220 -0.1553
 6949SOL     OW32482   2.164   3.617   5.745 -0.1260  0.1744 -0.9140
 6949SOL    HW132483   2.119   3.545   5.700 -2.5206  0.2952  1.2748
 6949SOL    HW232484   2.106   3.690   5.722 -0.2688  0.5360  0.6155
 6950SOL     OW32485   2.252   3.740   7.538 -0.7742 -0.0502 -0.5084
 6950SOL    HW132486   2.207   3.683   7.475 -1.8337  2.3541 -1.9678
 6950SOL    HW232487   2.200   3.722   7.616 -1.0424 -0.7391 -0.8477
 6951SOL     OW32488   0.944   1.925   6.187  0.2063  0.5637 -0.1214
 6951SOL    HW132489   0.867   1.961   6.232 -0.7826 -1.0204 -0.5673
 6951SOL    HW232490   0.914   1.845   6.145 -2.3955  2.0646 -1.1655
 6952SOL     OW32491   0.193   3.349  13.433 -0.3604 -0.0021 -0.0497
 6952SOL    HW132492   0.173   3.311  13.518 -2.2449  1.3107  0.0770
 6952SOL    HW232493   0.265   3.290  13.410  0.7884  0.8354  1.3408
 6953SOL     OW32494   0.670   1.247  12.071  0.1525 -0.2670 -0.5127
 6953SOL    HW132495   0.754   1.229  12.028  0.7562 -1.9334  1.4010
 6953SOL    HW232496   0.650   1.159  12.103  0.1210 -0.1574 -0.2344
 6954SOL     OW32497   0.067   1.848   2.926  0.0353 -0.1987  0.2553
 6954SOL    HW132498   0.088   1.760   2.955  0.3815  0.5237  2.2023
 6954SOL    HW232499   4.713   1.866   2.949 -1.3032 -2.9891 -2.9235
 6955SOL     OW32500   4.675   4.481   8.564 -0.0156  0.1008 -0.1142
 6955SOL    HW132501   4.594   4.491   8.614  0.4036  0.0247  0.5718
 6955SOL    HW232502   0.000   4.470   8.636 -0.6481 -3.6079 -0.1163
 6956SOL     OW32503   1.432   4.272   5.631 -0.0909 -0.2949  0.1942
 6956SOL    HW132504   1.524   4.264   5.607  0.2579 -1.1072  1.7810
 6956SOL    HW232505   1.437   4.249   5.724  2.1231  0.9273  0.3610
 6957SOL     OW32506   4.493   0.099  12.731 -0.6489 -0.1767 -0.7070
 6957SOL    HW132507   4.402   0.118  12.706 -1.1594 -0.1757  1.1245
 6957SOL    HW232508   4.488   0.044  12.809  0.4609  0.7555  0.0083
 6958SOL     OW32509   0.737   4.045   5.965  0.8340 -0.4182  0.0494
 6958SOL    HW132510   0.766   3.978   5.904 -0.0325 -2.7266  2.1864
 6958SOL    HW232511   0.739   4.123   5.909 -1.7175 -0.5601 -0.2551
 6959SOL     OW32512   1.826   3.321   2.167  0.0236 -0.3950 -0.1612
 6959SOL    HW132513   1.743   3.286   2.201  0.4267  1.0211  2.3260
 6959SOL    HW232514   1.807   3.412   2.191 -1.6005 -0.5957 -0.6466
 6960SOL     OW32515   1.721   1.076   7.733  0.2478 -0.4911  0.2476
 6960SOL    HW132516   1.767   0.993   7.748  0.1123 -0.6061  0.0188
 6960SOL    HW232517   1.765   1.095   7.650 -0.0036 -1.8092 -0.1908
 6961SOL     OW32518   1.223   2.366  10.775 -0.2279  0.4364  0.8542
 6961SOL    HW132519   1.307   2.322  10.783 -1.1924 -1.4975  0.5349
 6961SOL    HW232520   1.167   2.310  10.828 -1.4675 -1.7949 -2.7438
 6962SOL     OW32521   4.638   3.674   6.012  0.4609 -0.2703 -0.4736
 6962SOL    HW132522   4.626   3.646   6.103 -1.0772 -3.5131 -1.6800
 6962SOL    HW232523   4.546   3.652   5.998  0.5841 -2.5717  2.1262
 6963SOL     OW32524   2.304   1.497   2.094  0.0785 -0.0511  0.4824
 6963SOL    HW132525   2.373   1.563   2.084 -0.7940  0.6403 -0.9069
 6963SOL    HW232526   2.303   1.489   2.190 -0.4069  1.3961  0.6012
 6964SOL     OW32527   0.600   0.350   8.417  0.7127 -0.1720 -0.2276
 6964SOL    HW132528   0.591   0.306   8.502 -0.0568 -0.8599 -0.6654
 6964SOL    HW232529   0.529   0.315   8.364  1.7593  0.5369 -2.0832
 6965SOL     OW32530   1.161   1.443  16.463 -0.3055 -0.0207  0.3733
 6965SOL    HW132531   1.104   1.520  16.456 -0.8693 -0.6605 -1.9401
 6965SOL    HW232532   1.243   1.492  16.464  0.4282 -1.2569 -0.1319
 6966SOL     OW32533   2.473   2.416   2.159 -0.0911  0.2967 -0.0245
 6966SOL    HW132534   2.505   2.437   2.247 -0.1361 -2.1552  0.5633
 6966SOL    HW232535   2.445   2.325   2.162 -1.8081  0.7710 -1.6663
 6967SOL     OW32536   2.321   0.779   1.028 -0.0508 -0.6288 -0.2621
 6967SOL    HW132537   2.392   0.836   0.999 -1.0469 -0.6630 -2.7712
 6967SOL    HW232538   2.361   0.737   1.104 -0.8187 -1.4779 -0.3263
 6968SOL     OW32539   4.326   2.658  15.309  0.3007 -0.0235  0.3525
 6968SOL    HW132540   4.307   2.579  15.259  2.3428 -0.4673  0.2942
 6968SOL    HW232541   4.349   2.731  15.251  1.1038 -0.5384  0.0211
 6969SOL     OW32542   2.800   1.258   6.386  0.4323 -0.4600  0.6180
 6969SOL    HW132543   2.872   1.321   6.377  2.0288 -2.5592 -1.4187
 6969SOL    HW232544   2.785   1.233   6.295 -2.4199  1.4863  0.5671
 6970SOL     OW32545   3.447   1.052  14.444 -0.1819 -0.4171 -0.2799
 6970SOL    HW132546   3.447   1.081  14.353  0.1025  0.0615 -0.1304
 6970SOL    HW232547   3.413   1.133  14.482 -3.0595 -1.2317 -1.1618
 6971SOL     OW32548   4.430   1.440   1.759  0.4566 -0.0680 -0.0428
 6971SOL    HW132549   4.382   1.508   1.806  0.2940  0.6294 -1.2115
 6971SOL    HW232550   4.409   1.458   1.667 -2.0810 -1.6540  0.2527
 6972SOL     OW32551   0.296   1.134   4.896  0.3510  0.1439  0.4042
 6972SOL    HW132552   0.256   1.092   4.820  1.4998  0.0622 -0.1489
 6972SOL    HW232553   0.292   1.063   4.960  0.2949  0.3800  0.6663
 6973SOL     OW32554   3.836   2.759  15.904 -0.5008 -0.0726 -0.0324
 6973SOL    HW132555   3.899   2.758  15.833  0.2390 -1.2248  0.6326
 6973SOL    HW232556   3.781   2.834  15.883  2.0287  2.2181  1.5311
 6974SOL     OW32557   1.516   1.929  11.785 -0.2180  0.0915  0.1198
 6974SOL    HW132558   1.523   2.024  11.772 -1.7817  0.1315 -0.4541
 6974SOL    HW232559   1.523   1.900  11.694  1.5268  2.2393 -0.4434
 6975SOL     OW32560   0.594   0.041   6.945 -0.3440 -0.4144  0.5158
 6975SOL    HW132561   0.568   0.023   6.855  1.0627 -2.1788  0.4640
 6975SOL    HW232562   0.689   0.037   6.945 -0.3089  0.4729 -3.3605
 6976SOL     OW32563   3.903   2.159   4.879  0.2868 -0.5774  0.3320
 6976SOL    HW132564   3.929   2.220   4.810  1.7400 -2.0209 -0.4138
 6976SOL    HW232565   3.989   2.158   4.921  0.9612  1.2787 -1.0083
 6977SOL     OW32566   3.027   0.218   0.689 -0.5702 -0.3152  0.0099
 6977SOL    HW132567   2.966   0.288   0.709 -0.7305 -1.0276  1.9740
 6977SOL    HW232568   3.037   0.194   0.781  0.2821  0.5964  0.1641
 6978SOL     OW32569   3.014   4.100   4.740 -0.2845  0.1116  0.7282
 6978SOL    HW132570   2.945   4.105   4.674  1.2626  2.7414 -0.6479
 6978SOL    HW232571   3.088   4.142   4.697 -0.1558 -1.3201 -0.4513
 6979SOL     OW32572   0.353   2.258  17.400 -0.1919  0.4452 -0.0920
 6979SOL    HW132573   0.397   2.249  17.484 -0.9623  2.6931  0.5722
 6979SOL    HW232574   0.374   2.345  17.366  0.4500 -0.1155 -1.1239
 6980SOL     OW32575   2.172   1.397  17.528 -0.3253  0.8478  0.2970
 6980SOL    HW132576   2.133   1.472  17.483 -0.1120 -0.8012 -2.5668
 6980SOL    HW232577   2.100   1.348  17.568 -0.1226 -0.6390 -1.1540
 6981SOL     OW32578   0.035   0.212   3.124  0.0938  0.1303 -0.1374
 6981SOL    HW132579   0.108   0.273   3.137  1.2122 -1.2036 -0.1416
 6981SOL    HW232580   4.699   0.256   3.168 -1.5054 -1.2102 -1.4940
 6982SOL     OW32581   1.959   0.535   5.614  0.3835  0.2807  0.1026
 6982SOL    HW132582   1.983   0.549   5.523  1.2780 -2.7146 -0.0985
 6982SOL    HW232583   1.905   0.456   5.608 -2.0326  1.9899 -0.9334
 6983SOL     OW32584   3.034   0.136   6.184 -0.3194  0.0222  0.4441
 6983SOL    HW132585   2.983   0.109   6.107  1.4992 -0.4257 -0.6185
 6983SOL    HW232586   3.073   0.220   6.163 -0.3323  0.3886  1.9338
 6984SOL     OW32587   3.389   0.346   6.903 -0.4608  0.1025 -0.7379
 6984SOL    HW132588   3.391   0.427   6.852 -1.1942 -1.1585 -2.8004
 6984SOL    HW232589   3.421   0.392   6.980  2.4044 -2.8161 -0.1498
 6985SOL     OW32590   2.577   2.266   7.781 -0.1276 -0.7445  0.3028
 6985SOL    HW132591   2.530   2.183   7.788  1.9566 -2.0675 -1.3285
 6985SOL    HW232592   2.641   2.255   7.711 -0.5128 -1.0703 -0.0041
 6986SOL     OW32593   4.138   3.797   0.516 -0.1256 -0.4027  0.2186
 6986SOL    HW132594   4.203   3.738   0.477 -0.4400 -1.5188  1.4014
 6986SOL    HW232595   4.153   3.770   0.607 -1.7263 -0.3986  0.4850
 6987SOL     OW32596   0.025   4.402   6.761 -0.2254 -0.4638  0.6393
 6987SOL    HW132597   0.107   4.433   6.798 -0.4353  2.9833 -1.7997
 6987SOL    HW232598   0.035   4.423   6.668  0.1397  1.7103  1.1708
 6988SOL     OW32599   0.529   0.552  17.468 -0.4984 -0.2683 -0.2963
 6988SOL    HW132600   0.475   0.507  17.402 -0.9068 -0.9455  0.5010
 6988SOL    HW232601   0.483   0.635  17.474 -0.2396 -0.2658  1.5135
 6989SOL     OW32602   2.118   1.665   3.356  0.1820 -0.2530  0.2417
 6989SOL    HW132603   2.158   1.752   3.359 -1.9969  0.6374  3.9989
 6989SOL    HW232604   2.154   1.634   3.274  2.8161  0.1498  1.2504
 6990SOL     OW32605   2.983   2.528   5.041 -0.7768  0.3892 -0.4011
 6990SOL    HW132606   2.909   2.584   5.016 -1.6851  0.0750  1.6114
 6990SOL    HW232607   2.989   2.467   4.967  0.6226 -0.6199  0.5333
 6991SOL     OW32608   3.860   1.723   6.269 -0.0573  0.0729 -0.0025
 6991SOL    HW132609   3.774   1.737   6.230 -1.2952 -4.0342  1.2126
 6991SOL    HW232610   3.900   1.809   6.258 -1.9783  0.9515  0.0775
 6992SOL     OW32611   1.195   2.983   2.872  0.0168 -0.4154  0.0961
 6992SOL    HW132612   1.287   3.000   2.887 -0.4946  0.4250  2.2339
 6992SOL    HW232613   1.179   3.022   2.786 -1.0708  0.1140  0.5307
 6993SOL     OW32614   0.281   0.687   5.544 -0.3352 -0.1982  0.5358
 6993SOL    HW132615   0.217   0.744   5.502  1.9713  0.0604 -2.5591
 6993SOL    HW232616   0.262   0.700   5.637  0.7405  1.1968  0.5546
 6994SOL     OW32617   1.027   4.089   6.760 -0.3051  0.0280 -0.1772
 6994SOL    HW132618   1.021   4.119   6.851  2.2274 -1.3114  0.4156
 6994SOL    HW232619   1.080   4.163   6.731  0.8906 -0.4941  0.6810
 6995SOL     OW32620   4.509   4.678   3.135  0.1789  0.6050 -0.1898
 6995SOL    HW132621   4.482   0.028   3.105  0.3043  0.4827 -0.6527
 6995SOL    HW232622   4.432   4.655   3.187 -0.2086 -2.4252 -2.0863
 6996SOL     OW32623   2.367   4.037   6.136  0.7388 -0.3896  0.4911
 6996SOL    HW132624   2.392   4.112   6.081  0.8107 -0.4272  0.4735
 6996SOL    HW232625   2.453   3.997   6.141  0.6102 -0.8096 -0.7293
 6997SOL     OW32626   3.910   4.044   3.969 -0.0367 -0.0119 -0.3985
 6997SOL    HW132627   3.990   4.013   4.012 -1.1190 -1.4146  0.5952
 6997SOL    HW232628   3.854   3.968   3.987 -0.0819 -0.0401 -0.6538
 6998SOL     OW32629   3.923   2.982  13.386 -0.3920  0.4873  0.2669
 6998SOL    HW132630   3.875   2.901  13.367 -0.3866 -0.4390  4.0509
 6998SOL    HW232631   3.867   2.999  13.462 -0.7248  1.1807 -0.1358
 6999SOL     OW32632   1.570   0.917   4.541  0.2472 -0.7500 -0.5206
 6999SOL    HW132633   1.507   0.987   4.559  1.7542  1.2065 -2.7941
 6999SOL    HW232634   1.654   0.961   4.552 -0.3648  0.6137 -1.3234
 7000SOL     OW32635   1.867   0.523   3.687 -0.1294 -0.4437  0.1212
 7000SOL    HW132636   1.839   0.448   3.635  0.0200 -0.0218 -0.5765
 7000SOL    HW232637   1.952   0.541   3.645 -0.0012  1.3563  1.1601
 7001SOL     OW32638   0.346   2.578   3.102  0.3885  0.0389 -0.5477
 7001SOL    HW132639   0.369   2.633   3.027 -0.6910  2.0260  0.5802
 7001SOL    HW232640   0.359   2.643   3.170  0.8542 -1.1789  0.5276
 7002SOL     OW32641   1.414   2.509   8.923  0.0739  0.0619  0.5064
 7002SOL    HW132642   1.361   2.484   8.999 -0.9392 -1.1592 -0.6163
 7002SOL    HW232643   1.361   2.480   8.849 -2.2778  2.2519  1.3655
 7003SOL     OW32644   2.258   0.188   6.392 -0.0056 -0.0366  0.3409
 7003SOL    HW132645   2.318   0.263   6.390 -3.4901  2.6466 -4.7633
 7003SOL    HW232646   2.225   0.191   6.302  1.3045 -1.1823 -0.1762
 7004SOL     OW32647   1.570   1.803   4.601  0.2713  0.2836  0.4327
 7004SOL    HW132648   1.597   1.804   4.509  0.1970 -0.0528  0.4071
 7004SOL    HW232649   1.655   1.819   4.643 -0.2055  0.2644  1.3979
 7005SOL     OW32650   0.085   4.471   6.476 -0.4514  0.2851  0.0556
 7005SOL    HW132651   4.731   4.500   6.488 -0.3458 -0.3759  2.4346
 7005SOL    HW232652   0.127   4.546   6.434 -1.5590  0.1926 -1.2287
 7006SOL     OW32653   4.180   3.189   2.387  0.2284  0.0717 -1.2055
 7006SOL    HW132654   4.263   3.213   2.347 -0.8129  1.4945 -2.4738
 7006SOL    HW232655   4.222   3.158   2.467 -0.4230  2.1948 -0.0460
 7007SOL     OW32656   4.511   2.052  11.199  0.3732 -0.0709 -0.1369
 7007SOL    HW132657   4.446   2.120  11.182  0.4517  0.1815  0.5746
 7007SOL    HW232658   4.502   2.053  11.295 -1.1351 -2.1309 -0.2538
 7008SOL     OW32659   1.492   3.116  10.883  0.0793  0.1994  0.3010
 7008SOL    HW132660   1.408   3.104  10.927  0.2493  1.9151  1.0966
 7008SOL    HW232661   1.508   3.023  10.863  0.0811  0.6984 -1.9744
 7009SOL     OW32662   1.810   2.585  12.273  0.1181 -0.0540  0.3657
 7009SOL    HW132663   1.790   2.562  12.182 -0.8448  0.0697  0.5435
 7009SOL    HW232664   1.902   2.613  12.264  0.2736 -1.1279 -1.3085
 7010SOL     OW32665   1.947   1.626  10.001 -0.4660 -0.6127  0.2984
 7010SOL    HW132666   1.902   1.556  10.048  0.6625 -2.4390 -1.3346
 7010SOL    HW232667   1.977   1.581   9.922  1.6445  1.4484 -0.0992
 7011SOL     OW32668   0.033   0.108   2.870  0.8518  0.1037 -0.5500
 7011SOL    HW132669   0.034   0.136   2.961  0.3863 -2.0566  0.1208
 7011SOL    HW232670   0.108   0.048   2.877 -0.7229 -1.8450 -0.0863
 7012SOL     OW32671   2.759   3.223  17.096 -0.1310  0.3782 -0.2768
 7012SOL    HW132672   2.701   3.146  17.092 -0.2352  0.3482  1.6386
 7012SOL    HW232673   2.719   3.303  17.131  0.1584  0.7131 -0.7065
 7013SOL     OW32674   1.747   2.227   0.764  0.4085  0.7699 -0.0840
 7013SOL    HW132675   1.831   2.237   0.720  0.6744 -0.9645  0.0329
 7013SOL    HW232676   1.740   2.303   0.822  1.3624 -0.2308  1.3303
 7014SOL     OW32677   3.316   1.663  12.800 -0.3386 -0.3008  0.4037
 7014SOL    HW132678   3.297   1.653  12.893  0.6984  1.8284  0.8517
 7014SOL    HW232679   3.408   1.688  12.801 -0.1934 -0.8470  0.6250
 7015SOL     OW32680   1.706   1.092   8.922 -0.5201  0.9079 -0.3558
 7015SOL    HW132681   1.634   1.036   8.892 -0.7474 -0.0860  2.0725
 7015SOL    HW232682   1.661   1.174   8.941 -0.2160  0.5249  1.9355
 7016SOL     OW32683   3.560   4.687   1.878 -0.7673  0.9994 -0.0616
 7016SOL    HW132684   3.587   4.596   1.863 -2.0317  0.7333 -0.7755
 7016SOL    HW232685   3.644   4.729   1.863 -0.4979  0.8456  1.0216
 7017SOL     OW32686   1.419   0.725   2.178 -0.0382  0.3931  0.1240
 7017SOL    HW132687   1.415   0.637   2.217 -0.9135 -0.0365 -0.9573
 7017SOL    HW232688   1.508   0.729   2.145  0.8397 -0.7352  2.2920
 7018SOL     OW32689   0.738   0.732   2.590  0.2163 -0.4556 -0.0641
 7018SOL    HW132690   0.828   0.759   2.570 -0.2890  0.1076 -1.5932
 7018SOL    HW232691   0.710   0.713   2.500  0.3019  0.6297 -0.3210
 7019SOL     OW32692   2.457   3.240   6.404  0.0816  0.4073 -0.5750
 7019SOL    HW132693   2.415   3.181   6.467 -0.7860  0.8667 -0.7393
 7019SOL    HW232694   2.519   3.286   6.461  1.2656  1.4583 -2.7186
 7020SOL     OW32695   1.400   0.034   0.276  0.0071 -0.2903 -0.2124
 7020SOL    HW132696   1.429   0.028   0.185 -0.4285 -1.4720 -0.2748
 7020SOL    HW232697   1.323   4.715   0.280 -1.0359  1.1358 -0.7199
 7021SOL     OW32698   0.666   2.502   5.206  0.0587 -0.7994  0.0622
 7021SOL    HW132699   0.596   2.439   5.227 -2.0480  1.6820  0.5717
 7021SOL    HW232700   0.743   2.452   5.233  1.0728  1.0457  0.6006
 7022SOL     OW32701   0.903   1.429  12.938  0.3095  0.1988 -0.2539
 7022SOL    HW132702   0.845   1.493  12.897 -0.7636 -0.8468 -0.3596
 7022SOL    HW232703   0.841   1.356  12.944 -0.0624  0.6372  0.9782
 7023SOL     OW32704   2.167   3.576   6.939 -0.3745  0.3274 -0.2331
 7023SOL    HW132705   2.219   3.539   7.011 -0.2209  1.6975  0.3643
 7023SOL    HW232706   2.083   3.583   6.984 -0.2897  0.8889 -0.1515
 7024SOL     OW32707   3.581   4.522   9.870 -0.1743 -0.4137  0.3472
 7024SOL    HW132708   3.642   4.591   9.843 -2.0449 -0.1246 -3.1047
 7024SOL    HW232709   3.504   4.538   9.816  1.2084  0.6858 -1.2879
 7025SOL     OW32710   1.719   0.869   6.957 -0.1587  0.3247  0.1259
 7025SOL    HW132711   1.628   0.870   6.928  0.6982 -0.4053 -2.5427
 7025SOL    HW232712   1.718   0.857   7.052 -1.0109  2.0980  0.3464
 7026SOL     OW32713   0.856   2.117   7.615 -0.8717  0.3137  0.6079
 7026SOL    HW132714   0.760   2.118   7.617 -0.9162  0.3413 -1.5170
 7026SOL    HW232715   0.869   2.040   7.670 -1.1183  0.4227  0.8178
 7027SOL     OW32716   3.102   1.188  13.301 -0.1450  0.4021 -0.6368
 7027SOL    HW132717   3.196   1.172  13.296 -0.3385 -0.1291 -2.6806
 7027SOL    HW232718   3.088   1.269  13.250 -2.4149  0.0825 -0.5165
 7028SOL     OW32719   1.276   4.017   9.695 -0.3982  0.3306  0.5071
 7028SOL    HW132720   1.367   4.026   9.721 -0.3470 -0.3314  0.5391
 7028SOL    HW232721   1.237   3.958   9.760 -1.3172 -0.9760 -1.2238
 7029SOL     OW32722   4.175   0.140  13.376  0.7674 -0.1112 -0.3760
 7029SOL    HW132723   4.149   0.072  13.315 -1.2407  0.0914  0.2617
 7029SOL    HW232724   4.143   0.108  13.460 -0.6609  0.4432 -0.7197
 7030SOL     OW32725   4.626   3.471  11.145  0.1105 -1.0281  0.0446
 7030SOL    HW132726   4.591   3.436  11.227 -0.8020  4.9317  2.1663
 7030SOL    HW232727   4.660   3.555  11.173  2.4515 -2.5044  1.6091
 7031SOL     OW32728   3.053   4.679   3.574 -0.2244 -0.1468 -0.0275
 7031SOL    HW132729   2.984   4.674   3.640 -2.4119 -0.0139 -2.3274
 7031SOL    HW232730   3.079   0.034   3.582 -0.9994  0.0674 -0.0159
 7032SOL     OW32731   1.074   4.416   6.894 -0.0353  0.1139 -0.5999
 7032SOL    HW132732   1.145   4.452   6.841  0.6466 -2.6987 -1.6010
 7032SOL    HW232733   1.114   4.430   6.980 -0.5229 -0.6482 -0.2589
 7033SOL     OW32734   0.216   3.299  14.369  0.5310  0.0694 -0.2129
 7033SOL    HW132735   0.191   3.391  14.370 -0.1208 -0.1046 -0.4797
 7033SOL    HW232736   0.272   3.297  14.446 -2.7287 -2.5574  2.0945
 7034SOL     OW32737   3.358   0.205  12.075  0.1883 -0.4531 -0.3056
 7034SOL    HW132738   3.428   0.201  12.140  0.1812  0.8642 -0.2151
 7034SOL    HW232739   3.399   0.232  11.993 -2.8889 -0.7394 -1.9386
 7035SOL     OW32740   0.624   2.556   8.431 -0.7970 -0.6558 -0.3283
 7035SOL    HW132741   0.607   2.469   8.468  0.7641 -1.1130 -0.6731
 7035SOL    HW232742   0.630   2.551   8.336  5.3004  0.4744  0.0202
 7036SOL     OW32743   3.544   0.916   8.981  0.6017 -0.7304 -0.7469
 7036SOL    HW132744   3.598   0.979   9.028 -1.0980 -0.0202  0.2305
 7036SOL    HW232745   3.508   0.976   8.916 -1.7445  0.3545  1.5645
 7037SOL     OW32746   0.140   3.407   8.826  0.5124 -0.9270  0.4432
 7037SOL    HW132747   0.070   3.464   8.857  2.0499  1.4097 -0.3781
 7037SOL    HW232748   0.176   3.467   8.760 -0.8011 -0.8656 -0.2192
 7038SOL     OW32749   2.469   3.960   2.578  0.0937  0.4436 -0.3918
 7038SOL    HW132750   2.390   3.908   2.590 -1.0590  2.0591 -0.9426
 7038SOL    HW232751   2.422   4.043   2.573 -0.1974  0.2420 -0.9346
 7039SOL     OW32752   0.381   2.813   8.627 -0.6794 -0.2320 -0.9848
 7039SOL    HW132753   0.459   2.868   8.614 -0.5609 -0.3167 -0.6312
 7039SOL    HW232754   0.319   2.880   8.599 -0.4811  0.1893 -0.4093
 7040SOL     OW32755   3.309   3.309   7.391  0.0232 -0.1684 -0.1344
 7040SOL    HW132756   3.352   3.226   7.371  1.1909  0.9175 -2.1167
 7040SOL    HW232757   3.306   3.302   7.486  2.3483 -0.7360 -0.1198
 7041SOL     OW32758   2.328   4.428   2.615  0.6970  0.2241  0.2632
 7041SOL    HW132759   2.374   4.379   2.683 -0.9627 -0.7120  0.7265
 7041SOL    HW232760   2.293   4.488   2.681 -0.6828  0.3934 -0.6099
 7042SOL     OW32761   3.927   4.631   2.358  0.2814  0.3851  0.1293
 7042SOL    HW132762   3.897   4.712   2.399  0.7790  0.3395  0.5736
 7042SOL    HW232763   4.011   4.658   2.321  0.7278  0.0172  0.8777
 7043SOL     OW32764   2.334   2.255   3.167 -0.0473  0.0561  0.4018
 7043SOL    HW132765   2.344   2.193   3.095 -0.4885 -1.0119  1.2697
 7043SOL    HW232766   2.242   2.275   3.151 -0.3089 -0.2154  1.6049
 7044SOL     OW32767   1.728   1.711   3.370 -0.7293  0.7838 -0.3405
 7044SOL    HW132768   1.641   1.704   3.330 -1.8037  0.5858  2.0159
 7044SOL    HW232769   1.780   1.727   3.292 -0.1248  2.5930  0.4405
 7045SOL     OW32770   3.556   2.935   4.303  0.3557 -0.4138 -0.1365
 7045SOL    HW132771   3.617   3.002   4.271  0.4178 -0.2422  0.3262
 7045SOL    HW232772   3.585   2.866   4.245 -3.2036  0.3048 -2.7508
 7046SOL     OW32773   0.243   1.607   3.530  0.0569  0.1647  0.3770
 7046SOL    HW132774   0.304   1.542   3.496 -1.4399 -0.1425 -1.7044
 7046SOL    HW232775   0.162   1.583   3.485  1.3042 -1.4721 -0.9616
 7047SOL     OW32776   0.783   0.761   2.933 -0.2693  0.3632  0.5410
 7047SOL    HW132777   0.864   0.767   2.882 -0.4001  2.3551  0.5791
 7047SOL    HW232778   0.812   0.724   3.016 -1.2676 -0.1878  0.6430
 7048SOL     OW32779   3.137   1.041   0.590 -0.1627 -0.4849  0.0997
 7048SOL    HW132780   3.201   0.984   0.546 -0.7028 -1.9833  1.2290
 7048SOL    HW232781   3.130   1.123   0.542  0.1168  0.7285  2.1097
 7049SOL     OW32782   2.114   0.032   5.221  0.5537  0.1356 -0.2152
 7049SOL    HW132783   2.104   0.124   5.198 -1.4714 -0.1702 -0.5558
 7049SOL    HW232784   2.120   4.736   5.131  1.7062 -1.1871  0.3513
 7050SOL     OW32785   1.598   2.068   8.030 -0.6947  0.2099  0.5201
 7050SOL    HW132786   1.551   2.034   7.954  0.5490 -1.1523  0.3691
 7050SOL    HW232787   1.634   1.991   8.073  0.8782  1.2750  1.1469
 7051SOL     OW32788   0.447   2.682  14.995  1.0033 -0.2595  0.5346
 7051SOL    HW132789   0.494   2.764  14.983  0.4473 -0.1115 -0.5600
 7051SOL    HW232790   0.476   2.634  14.918 -0.2929  1.3820 -0.9710
 7052SOL     OW32791   3.603   2.146   6.611 -0.2119  0.4279  0.1843
 7052SOL    HW132792   3.535   2.126   6.675 -1.5485  0.2482 -1.2845
 7052SOL    HW232793   3.663   2.212   6.644  0.9159 -0.6758  0.3565
 7053SOL     OW32794   3.414   2.517   4.917  0.1834 -0.5944 -0.8443
 7053SOL    HW132795   3.456   2.601   4.931 -0.6701 -0.3645  0.3222
 7053SOL    HW232796   3.473   2.468   4.974 -0.8937  1.2883  1.8843
 7054SOL     OW32797   1.606   2.359   2.930  0.0054  0.8500 -0.0936
 7054SOL    HW132798   1.538   2.360   2.863 -0.9689 -1.2734  0.8734
 7054SOL    HW232799   1.555   2.307   2.993  0.8854  0.6411  0.4451
 7055SOL     OW32800   0.296   2.451   2.721 -0.1793  0.2734  0.1978
 7055SOL    HW132801   0.387   2.420   2.721 -0.2468  0.0852 -1.3202
 7055SOL    HW232802   0.260   2.373   2.677  0.1467  0.7608 -0.9445
 7056SOL     OW32803   0.805   1.467   0.729  0.0464 -0.4225 -0.3771
 7056SOL    HW132804   0.748   1.505   0.662  2.1015 -0.1713 -1.9748
 7056SOL    HW232805   0.766   1.380   0.732 -1.6502  0.3387 -0.5751
 7057SOL     OW32806   1.684   1.979   2.386  0.4095 -0.3678 -0.1711
 7057SOL    HW132807   1.690   1.895   2.431 -2.4828 -1.2276 -1.4039
 7057SOL    HW232808   1.642   2.030   2.455 -0.7919  1.6235 -2.3729
 7058SOL     OW32809   4.394   0.397   8.294 -0.1567  0.2847 -0.5863
 7058SOL    HW132810   4.369   0.340   8.367 -0.4279 -2.2531 -2.6468
 7058SOL    HW232811   4.314   0.447   8.279 -0.2014 -0.1374 -1.7552
 7059SOL     OW32812   4.169   4.126   0.606  0.1376 -0.0411  0.0175
 7059SOL    HW132813   4.210   4.040   0.606  0.3603  0.0590 -0.9777
 7059SOL    HW232814   4.149   4.142   0.698 -0.5299  0.6361 -0.2407
 7060SOL     OW32815   1.894   1.487   1.747 -0.2902 -0.4965 -0.0994
 7060SOL    HW132816   1.922   1.515   1.660  0.0665  1.9697  0.8164
 7060SOL    HW232817   1.906   1.572   1.788 -3.4481 -0.5575  0.9572
 7061SOL     OW32818   0.531   2.431   7.320 -0.3441 -0.1601  0.2648
 7061SOL    HW132819   0.466   2.379   7.368 -1.3228  0.9495  0.1343
 7061SOL    HW232820   0.544   2.490   7.394  1.4635  0.2554 -0.3830
 7062SOL     OW32821   3.275   1.864   4.106  0.5712 -0.1413 -0.1405
 7062SOL    HW132822   3.301   1.956   4.101 -1.7414  0.6420  2.0870
 7062SOL    HW232823   3.213   1.867   4.179  1.7643  2.2395  0.7706
 7063SOL     OW32824   3.790   1.692   7.670  0.2000 -0.1843 -0.3963
 7063SOL    HW132825   3.841   1.665   7.593 -0.6251 -0.2779 -0.9129
 7063SOL    HW232826   3.713   1.712   7.617  2.0358  0.9807 -2.6309
 7064SOL     OW32827   1.439   3.261   5.104 -0.1884  0.3269 -0.0687
 7064SOL    HW132828   1.411   3.301   5.022  1.6225  1.2387 -0.2434
 7064SOL    HW232829   1.362   3.289   5.152  0.2514 -0.1765  0.9219
 7065SOL     OW32830   2.311   4.707   8.928 -0.4643 -0.0252 -0.3090
 7065SOL    HW132831   2.246   4.725   8.996  0.0735  0.9208 -0.0500
 7065SOL    HW232832   2.271   4.636   8.878 -0.5841 -0.2125  0.0529
 7066SOL     OW32833   4.580   4.520   5.480  0.1701 -0.5837 -0.0386
 7066SOL    HW132834   4.637   4.463   5.429  0.8924  0.1628 -0.0553
 7066SOL    HW232835   4.642   4.568   5.535 -0.7624  0.1263  0.4066
 7067SOL     OW32836   1.103   4.591   5.274  0.1748 -1.0494 -0.1928
 7067SOL    HW132837   1.182   4.587   5.220  0.8770 -0.5452  0.7806
 7067SOL    HW232838   1.062   4.662   5.224  0.6848  0.3510  1.3651
 7068SOL     OW32839   0.538   1.919   5.373  0.5253  0.2884 -0.2445
 7068SOL    HW132840   0.492   1.944   5.293 -0.8169 -1.5606 -0.0606
 7068SOL    HW232841   0.508   1.993   5.427 -2.4185 -0.9886 -0.1234
 7069SOL     OW32842   2.696   2.955   4.385  0.0177  0.2532  0.4445
 7069SOL    HW132843   2.692   3.016   4.459 -0.5164 -0.7458  1.2281
 7069SOL    HW232844   2.704   3.007   4.305 -2.2160  0.1124  0.1456
 7070SOL     OW32845   1.102   1.880   3.306  0.2898  0.3447 -0.6034
 7070SOL    HW132846   1.055   1.802   3.333  1.0685 -0.3355 -1.2040
 7070SOL    HW232847   1.087   1.875   3.212  1.2950  0.8188 -0.7883
 7071SOL     OW32848   2.817   4.122   4.521  0.0004 -0.5786 -0.0023
 7071SOL    HW132849   2.809   4.122   4.425  1.2916  1.7767 -0.1198
 7071SOL    HW232850   2.741   4.180   4.530  1.6315  1.5004  0.4417
 7072SOL     OW32851   0.356   2.778   7.911 -0.8813 -0.1463 -0.2979
 7072SOL    HW132852   0.310   2.739   7.837 -0.0954 -0.8832 -0.4007
 7072SOL    HW232853   0.311   2.752   7.991  1.0808  0.6333  1.0584
 7073SOL     OW32854   2.956   1.155   4.470  0.0833 -0.1787 -0.7279
 7073SOL    HW132855   2.866   1.185   4.478  0.1012 -0.4279  0.3610
 7073SOL    HW232856   2.976   1.093   4.541  1.3849 -1.3874 -2.1298
 7074SOL     OW32857   1.236   2.844   3.118 -0.0801  0.0179  0.3068
 7074SOL    HW132858   1.183   2.767   3.097 -1.2073  0.6869  0.7096
 7074SOL    HW232859   1.233   2.883   3.031 -0.5455 -0.5887  0.0479
 7075SOL     OW32860   2.518   0.534  11.171  0.4333  0.0745 -0.2614
 7075SOL    HW132861   2.601   0.498  11.204 -0.7329 -2.2946  0.0978
 7075SOL    HW232862   2.455   0.463  11.181  0.3240  0.2240  0.1281
 7076SOL     OW32863   1.580   3.284   4.747 -0.6407  0.7814 -0.1235
 7076SOL    HW132864   1.613   3.371   4.729  0.9002 -0.1235 -1.6834
 7076SOL    HW232865   1.491   3.308   4.773  0.5090  3.3553  1.2905
 7077SOL     OW32866   1.848   4.061   8.649  0.4124 -0.4702  0.2062
 7077SOL    HW132867   1.766   4.101   8.623  1.3895  1.8126  0.6813
 7077SOL    HW232868   1.897   4.070   8.567 -0.3001 -0.2820 -0.1974
 7078SOL     OW32869   3.555   1.780   4.007  0.2210 -0.3845 -0.7888
 7078SOL    HW132870   3.481   1.785   4.068 -0.5255  2.3053 -1.9283
 7078SOL    HW232871   3.611   1.743   4.076  1.9197  0.4853 -1.6875
 7079SOL     OW32872   1.188   0.184   7.718 -0.4117 -0.0800  0.6657
 7079SOL    HW132873   1.113   0.211   7.666 -0.8225 -1.4902  0.5295
 7079SOL    HW232874   1.233   0.265   7.742  0.2777 -0.7396  1.5834
 7080SOL     OW32875   2.531   1.904   8.205  0.2510 -0.0364 -0.3613
 7080SOL    HW132876   2.526   1.842   8.133  1.0582  0.9192 -1.2336
 7080SOL    HW232877   2.554   1.838   8.270  2.8075  1.5295  0.3343
 7081SOL     OW32878   4.509   2.707   3.263  0.2819 -0.4380  0.1187
 7081SOL    HW132879   4.523   2.640   3.329  1.4604 -0.8291 -0.5395
 7081SOL    HW232880   4.597   2.704   3.225 -0.0756 -0.1637 -0.7323
 7082SOL     OW32881   0.596   0.241   3.225  0.2039 -0.1076 -0.6838
 7082SOL    HW132882   0.573   0.156   3.190  1.1848  0.2169 -2.1371
 7082SOL    HW232883   0.624   0.288   3.147  1.3129  0.0027 -0.2244
 7083SOL     OW32884   2.642   4.043   9.681  0.2180 -0.3378 -0.0213
 7083SOL    HW132885   2.644   4.017   9.588 -0.3216 -2.3356  0.5192
 7083SOL    HW232886   2.668   4.135   9.676  0.3238 -0.4476 -1.6264
 7084SOL     OW32887   2.300   0.335  10.908 -0.1995 -0.6712 -0.5262
 7084SOL    HW132888   2.312   0.354  11.001  1.4398  1.2485 -1.1448
 7084SOL    HW232889   2.204   0.334  10.907 -0.2045 -3.0000  1.9681
 7085SOL     OW32890   1.519   4.716   8.413  0.5126 -0.6001 -0.3041
 7085SOL    HW132891   1.493   4.732   8.504  2.8983 -1.3976  0.5231
 7085SOL    HW232892   1.461   0.044   8.373 -0.0354  0.5363  2.3375
 7086SOL     OW32893   2.387   3.217   3.772  0.4750  0.4783 -0.8075
 7086SOL    HW132894   2.307   3.188   3.728  1.3172 -0.9719 -1.4184
 7086SOL    HW232895   2.460   3.186   3.718 -0.0820 -2.1772 -0.0268
 7087SOL     OW32896   1.925   4.189   8.151 -0.0473  0.0945  0.1323
 7087SOL    HW132897   1.918   4.272   8.198 -0.1327  0.3853 -0.3972
 7087SOL    HW232898   1.857   4.135   8.191 -1.7036  0.3915 -2.2792
 7088SOL     OW32899   0.015   4.627  12.795  0.2825 -0.3954 -0.3628
 7088SOL    HW132900   4.713   4.712  12.771 -0.5993  0.0034  2.5158
 7088SOL    HW232901   4.681   4.580  12.839 -0.0706  0.4560 -0.0179
 7089SOL     OW32902   1.684   2.896   7.143  0.5946 -0.2845 -0.7327
 7089SOL    HW132903   1.670   2.803   7.126  1.8761 -0.7433  0.6890
 7089SOL    HW232904   1.709   2.934   7.058  0.3743  0.3086 -0.5348
 7090SOL     OW32905   4.663   1.553   2.496  0.0139 -0.0228  0.0481
 7090SOL    HW132906   4.718   1.478   2.519 -0.5240 -0.2883  0.4683
 7090SOL    HW232907   4.593   1.508   2.450  0.7605 -0.7419 -0.3863
 7091SOL     OW32908   2.528   1.168   4.972 -0.4553 -0.2359  0.1353
 7091SOL    HW132909   2.495   1.219   5.045 -0.0796 -1.7427  1.3599
 7091SOL    HW232910   2.568   1.096   5.021 -1.7185 -2.0354 -1.4436
 7092SOL     OW32911   1.040   1.200   8.224  0.5329  0.5988 -0.2208
 7092SOL    HW132912   1.029   1.288   8.260 -0.9327  0.8646 -1.3198
 7092SOL    HW232913   1.126   1.199   8.184  1.1411 -0.1962  1.0886
 7093SOL     OW32914   1.337   2.707   0.960  0.0057  0.0460 -0.1865
 7093SOL    HW132915   1.350   2.620   0.923 -0.9226  1.0659 -2.9056
 7093SOL    HW232916   1.319   2.763   0.884 -3.0714 -0.4053  0.2200
 7094SOL     OW32917   4.516   3.790  14.629  0.0080 -0.1859 -0.5619
 7094SOL    HW132918   4.521   3.788  14.533  2.1406 -1.3570 -0.4449
 7094SOL    HW232919   4.576   3.860  14.656 -1.7290  1.0891 -0.0728
 7095SOL     OW32920   1.698   1.238   2.255 -0.0453  0.4104  0.1534
 7095SOL    HW132921   1.677   1.251   2.162  1.9894  2.3652 -0.0239
 7095SOL    HW232922   1.786   1.203   2.247 -0.9006 -1.6250 -0.3932
 7096SOL     OW32923   0.894   0.790   8.378  0.0675 -0.5901  0.0434
 7096SOL    HW132924   0.905   0.803   8.472  0.5345  1.3735 -0.2893
 7096SOL    HW232925   0.846   0.871   8.364  2.2092  0.4750 -1.1121
 7097SOL     OW32926   2.739   3.607   2.866 -0.7384  0.0571  0.5085
 7097SOL    HW132927   2.680   3.621   2.792  1.0457 -1.3338 -1.1786
 7097SOL    HW232928   2.783   3.691   2.854  1.4551 -1.0690  0.5590
 7098SOL     OW32929   0.502   4.186   2.140  0.4590 -0.1780  0.5795
 7098SOL    HW132930   0.544   4.101   2.130 -1.7847 -1.3529  1.2665
 7098SOL    HW232931   0.529   4.230   2.059  0.0607  1.5205  1.3606
 7099SOL     OW32932   1.470   3.030   3.514 -0.4374 -0.6105 -0.5719
 7099SOL    HW132933   1.460   3.105   3.454  0.4938 -0.4235 -0.5035
 7099SOL    HW232934   1.426   2.972   3.452  3.0159 -2.1340 -1.6071
 7100SOL     OW32935   4.174   1.011   7.866 -0.4663 -0.2202  0.4135
 7100SOL    HW132936   4.140   0.953   7.934 -1.0964  1.3281  1.4320
 7100SOL    HW232937   4.100   1.020   7.806  0.0456 -2.8580 -0.5988
 7101SOL     OW32938   2.019   4.414  12.081 -0.1722 -0.6453 -0.0663
 7101SOL    HW132939   2.059   4.354  12.143  0.6857  0.4556  0.4407
 7101SOL    HW232940   1.995   4.347  12.016  4.1203 -1.3327 -0.9394
 7102SOL     OW32941   1.847   3.656   9.199  0.0220  0.1633  0.1699
 7102SOL    HW132942   1.934   3.680   9.167  0.6594 -1.1067  0.9863
 7102SOL    HW232943   1.794   3.736   9.191  1.1479  0.9583  0.6901
 7103SOL     OW32944   0.865   0.221   7.111  0.7207  0.0628  0.1001
 7103SOL    HW132945   0.958   0.231   7.089  0.9422 -0.6605  0.7312
 7103SOL    HW232946   0.846   0.129   7.092  2.6127 -0.2125 -0.5224
 7104SOL     OW32947   3.778   4.556  17.041  0.2517 -0.7171  0.1206
 7104SOL    HW132948   3.781   4.596  16.954  1.4535  0.0065  0.4947
 7104SOL    HW232949   3.706   4.494  17.031 -0.6803  0.5272 -0.8410
 7105SOL     OW32950   0.025   4.656   1.363 -0.8239  0.1036  0.1838
 7105SOL    HW132951   0.092   4.720   1.389  1.4055 -1.8148 -0.8207
 7105SOL    HW232952   0.076   4.593   1.312  1.8899  1.9286  0.5998
 7106SOL     OW32953   1.461   2.982   5.135 -0.1353  0.0987  0.1258
 7106SOL    HW132954   1.492   3.072   5.134  0.6720 -0.1720  0.7992
 7106SOL    HW232955   1.369   3.002   5.152  0.5943  2.6208  0.9841
 7107SOL     OW32956   0.698   1.761   7.585  0.0854 -0.2582  0.2528
 7107SOL    HW132957   0.780   1.716   7.603  1.5131  0.9137 -3.5049
 7107SOL    HW232958   0.665   1.765   7.675  3.8263  1.4985  1.5480
 7108SOL     OW32959   0.033   3.248   8.595  0.0990  0.2865 -0.2508
 7108SOL    HW132960   0.065   3.277   8.680  2.0669  0.3684 -1.0273
 7108SOL    HW232961   4.704   3.314   8.573  1.1436  0.9328 -1.4208
 7109SOL     OW32962   3.761   3.272  14.697  0.5327 -0.0830 -0.3210
 7109SOL    HW132963   3.800   3.240  14.778 -2.7638 -0.5773  1.0866
 7109SOL    HW232964   3.682   3.313  14.734  0.5549 -0.2888 -0.0461
 7110SOL     OW32965   1.558   2.396   7.658 -0.6671 -0.2677  0.1795
 7110SOL    HW132966   1.502   2.450   7.602 -0.7824 -2.6838 -2.0292
 7110SOL    HW232967   1.543   2.307   7.626 -0.0852 -0.4075  0.2994
 7111SOL     OW32968   3.826   4.557  13.625  0.7457  0.2679  0.0861
 7111SOL    HW132969   3.861   4.634  13.580  3.4496 -0.5157  0.8605
 7111SOL    HW232970   3.892   4.556  13.694 -0.3597 -0.3932  1.1313
 7112SOL     OW32971   1.215   3.268   2.977 -0.0769 -0.1495  0.1543
 7112SOL    HW132972   1.301   3.226   2.970  0.1511  0.2995  0.3149
 7112SOL    HW232973   1.185   3.270   2.886  0.3720  2.0510  0.0709
 7113SOL     OW32974   0.292   3.451   9.077 -0.5104  0.0869  0.4021
 7113SOL    HW132975   0.221   3.497   9.122 -0.1793  0.3005  0.7144
 7113SOL    HW232976   0.237   3.392   9.025  1.4012 -0.8667 -0.5471
 7114SOL     OW32977   0.720   0.795  13.068 -0.4545  0.5767  0.2747
 7114SOL    HW132978   0.645   0.747  13.103 -0.7571  0.0798 -1.0470
 7114SOL    HW232979   0.680   0.854  13.004  2.2162  1.8037 -0.2660
 7115SOL     OW32980   2.226   1.387  16.568  0.7719  0.0874 -0.1717
 7115SOL    HW132981   2.201   1.342  16.488 -0.0521  1.2739 -0.5861
 7115SOL    HW232982   2.311   1.423  16.541  1.2344  0.0314  1.2043
 7116SOL     OW32983   2.354   0.849   2.361 -0.2988 -0.4965  0.1020
 7116SOL    HW132984   2.425   0.862   2.298 -0.3507  1.0483  0.3464
 7116SOL    HW232985   2.336   0.939   2.389 -0.0719 -0.1973 -0.7174
 7117SOL     OW32986   0.278   1.034   6.159  0.4496 -0.7765  0.5433
 7117SOL    HW132987   0.214   1.095   6.122  0.5636 -0.3189  1.1060
 7117SOL    HW232988   0.283   0.967   6.090 -1.0221  0.9248 -1.2280
 7118SOL     OW32989   3.194   3.903   8.469 -1.0448 -0.6884 -0.1226
 7118SOL    HW132990   3.230   3.815   8.478  0.0112 -0.0731  1.7895
 7118SOL    HW232991   3.127   3.891   8.536 -0.5292  1.2545  0.7555
 7119SOL     OW32992   3.070   1.268  15.533 -0.6781 -0.2968 -0.2404
 7119SOL    HW132993   3.150   1.233  15.571 -0.1180 -0.0712 -1.2281
 7119SOL    HW232994   3.100   1.291  15.445  1.4701  1.2903  0.9213
 7120SOL     OW32995   1.794   3.292  16.667  0.5426 -0.0090  0.0405
 7120SOL    HW132996   1.761   3.274  16.579 -1.1091 -1.2830  0.9151
 7120SOL    HW232997   1.851   3.365  16.645  0.2307  0.2133 -0.0338
 7121SOL     OW32998   1.201   2.982   5.686 -0.1021  0.1733 -0.6310
 7121SOL    HW132999   1.208   3.049   5.753 -0.9040  0.1673 -0.5416
 7121SOL    HW233000   1.261   3.014   5.619  0.1345  1.7770  0.3712
 7122SOL     OW33001   0.221   0.731   5.809  0.0799  0.0898  0.5623
 7122SOL    HW133002   0.194   0.720   5.900  0.3395  3.1939  0.9848
 7122SOL    HW233003   0.152   0.778   5.763  0.0317 -0.2894  0.2440
 7123SOL     OW33004   4.580   4.029   8.263  0.5841 -0.8432  0.1159
 7123SOL    HW133005   4.663   3.987   8.242  1.5933  2.0981 -1.7958
 7123SOL    HW233006   4.598   4.057   8.353  0.6456  0.8171 -0.4177
 7124SOL     OW33007   4.325   0.995  15.377  0.3926  0.4365  0.4262
 7124SOL    HW133008   4.417   0.975  15.390  0.6835  1.4478 -0.1124
 7124SOL    HW233009   4.277   0.921  15.414 -1.6156  1.8826  0.7232
 7125SOL     OW33010   0.481   1.882   9.911  0.1702  0.7845 -0.1019
 7125SOL    HW133011   0.550   1.877   9.845  0.5356  1.6234  0.2177
 7125SOL    HW233012   0.497   1.804   9.963  2.2846  0.4442 -1.2401
 7126SOL     OW33013   4.203   3.612   9.322  0.4633 -0.2197 -0.0885
 7126SOL    HW133014   4.136   3.636   9.257 -1.0913  0.1188  1.6460
 7126SOL    HW233015   4.225   3.696   9.362 -0.0319 -0.2010  0.1473
 7127SOL     OW33016   2.607   0.335   3.141 -0.1951  0.1050 -0.3355
 7127SOL    HW133017   2.545   0.404   3.168  1.3144  2.0085 -1.7280
 7127SOL    HW233018   2.551   0.259   3.128 -0.0947  0.0491 -0.4362
 7128SOL     OW33019   3.308   1.472   4.624 -0.3614  0.1933  0.4509
 7128SOL    HW133020   3.280   1.398   4.572  1.4488  0.3180 -0.7142
 7128SOL    HW233021   3.222   1.495   4.659 -1.1680 -0.0287 -1.4485
 7129SOL     OW33022   3.953   3.384   3.647 -0.1107 -0.2998  0.4343
 7129SOL    HW133023   4.038   3.411   3.614 -0.5124 -1.5326 -1.6687
 7129SOL    HW233024   3.892   3.396   3.573 -0.0703  1.5021  0.6998
 7130SOL     OW33025   3.190   0.033   3.940 -0.1247 -0.0568  0.2583
 7130SOL    HW133026   3.183   0.056   4.032 -0.1680 -0.1084  0.2683
 7130SOL    HW233027   3.175   4.676   3.949 -2.3477  0.2275 -0.4451
 7131SOL     OW33028   3.354   1.791   6.059  0.0194  0.2001 -0.1463
 7131SOL    HW133029   3.323   1.708   6.022  1.7307  0.0210 -1.1984
 7131SOL    HW233030   3.410   1.836   5.995  0.3834 -0.9355 -0.6283
 7132SOL     OW33031   1.760   1.041   5.754 -0.4758 -0.2035  0.1587
 7132SOL    HW133032   1.680   1.092   5.740 -1.6530 -2.4440 -1.3114
 7132SOL    HW233033   1.758   1.028   5.849 -3.9287 -2.6059 -0.2189
 7133SOL     OW33034   1.994   1.164  11.874  0.4525 -0.1819  0.0608
 7133SOL    HW133035   2.050   1.216  11.816 -0.7263  0.4778 -0.4960
 7133SOL    HW233036   1.970   1.091  11.816 -0.0054  0.5312 -0.6449
 7134SOL     OW33037   2.570   2.156   6.940  0.2645 -0.5955  0.0823
 7134SOL    HW133038   2.561   2.103   7.019 -0.4802  1.5354  1.4284
 7134SOL    HW233039   2.662   2.182   6.944  0.8986 -2.8871  0.1957
 7135SOL     OW33040   1.504   0.330  10.146 -0.2933 -0.2366 -0.4935
 7135SOL    HW133041   1.430   0.388  10.133  0.8466  1.2137 -0.5660
 7135SOL    HW233042   1.487   0.294  10.233 -1.6756 -1.9607 -1.4987
 7136SOL     OW33043   3.066   3.557   9.745 -0.3055  0.1415  0.1293
 7136SOL    HW133044   2.975   3.565   9.775 -1.4350 -0.8165 -3.0525
 7136SOL    HW233045   3.064   3.516   9.659 -1.7613  0.6862 -0.0992
 7137SOL     OW33046   4.230   1.215   1.639 -0.1129 -0.2004 -0.1149
 7137SOL    HW133047   4.237   1.257   1.725  3.8624 -2.6210  0.7256
 7137SOL    HW233048   4.294   1.266   1.589  0.8967 -0.2348  1.1367
 7138SOL     OW33049   1.923   3.730   6.149  0.3900  0.6265 -0.5252
 7138SOL    HW133050   1.924   3.642   6.113  1.1721  1.1973 -1.8627
 7138SOL    HW233051   1.942   3.781   6.070 -0.4310 -0.3451 -1.3461
 7139SOL     OW33052   4.145   1.280   5.929 -0.4287  0.1173 -0.5548
 7139SOL    HW133053   4.083   1.215   5.897  1.3517 -0.6840 -2.4217
 7139SOL    HW233054   4.220   1.268   5.871  0.9812 -1.2901  1.5834
 7140SOL     OW33055   1.146   2.514   0.517  0.2813  0.0485 -0.5271
 7140SOL    HW133056   1.068   2.461   0.531  0.9649 -1.3470 -2.0264
 7140SOL    HW233057   1.205   2.446   0.485 -1.5964 -1.6519 -0.3271
 7141SOL     OW33058   0.441   2.483   7.076 -0.4500 -0.4187  0.2646
 7141SOL    HW133059   0.475   2.403   7.037  2.8234  0.4528  1.3916
 7141SOL    HW233060   0.467   2.470   7.168  0.6821 -0.0164 -0.0002
 7142SOL     OW33061   3.927   1.289   3.218 -0.1954  0.2996  0.4645
 7142SOL    HW133062   3.998   1.350   3.240 -1.0165  1.4467 -0.0607
 7142SOL    HW233063   3.882   1.299   3.302  0.6113 -0.1286  0.9381
 7143SOL     OW33064   0.191   1.140   3.184  0.5429 -0.2694  0.1070
 7143SOL    HW133065   0.256   1.091   3.134  3.2838  1.2194  2.1888
 7143SOL    HW233066   0.244   1.205   3.231 -0.3295 -0.4531  1.3658
 7144SOL     OW33067   0.825   3.445  10.639 -0.9185 -0.5927 -0.3787
 7144SOL    HW133068   0.787   3.409  10.719 -1.3619  0.2762 -0.1968
 7144SOL    HW233069   0.919   3.450  10.660 -1.2235 -1.5310  1.2242
 7145SOL     OW33070   3.573   2.358   5.095 -0.4986  0.3610  0.0266
 7145SOL    HW133071   3.657   2.363   5.141 -0.8753  0.9686  0.6574
 7145SOL    HW233072   3.522   2.304   5.156 -0.9698  0.2942 -0.4248
 7146SOL     OW33073   1.533   4.213   3.919  0.1576 -0.0797 -0.2363
 7146SOL    HW133074   1.582   4.140   3.882  1.3917  1.3083 -1.3911
 7146SOL    HW233075   1.445   4.191   3.890  0.1706 -2.3106  1.4630
 7147SOL     OW33076   1.317   1.426   0.364 -0.1269 -0.2657 -0.0947
 7147SOL    HW133077   1.289   1.506   0.408  0.2668 -0.3416  0.2960
 7147SOL    HW233078   1.283   1.362   0.426 -4.1851  3.1065  1.1547
 7148SOL     OW33079   2.352   4.349   2.170  0.5595 -0.4398  0.6732
 7148SOL    HW133080   2.340   4.419   2.234 -0.7036  0.0691 -0.1141
 7148SOL    HW233081   2.329   4.272   2.223 -1.2138 -0.9181 -0.7761
 7149SOL     OW33082   1.566   0.776   0.644  0.4756 -0.4359 -0.2799
 7149SOL    HW133083   1.508   0.817   0.580  2.5335  3.0609  0.1176
 7149SOL    HW233084   1.523   0.788   0.729 -0.3736  0.2797 -0.8139
 7150SOL     OW33085   3.325   3.176   5.673  0.2416  0.1025  0.2720
 7150SOL    HW133086   3.249   3.172   5.615  1.2496 -2.8400 -0.8637
 7150SOL    HW233087   3.368   3.248   5.628  0.8318 -2.2701 -2.9555
 7151SOL     OW33088   3.036   1.271  14.956 -0.5251 -0.3297 -0.3795
 7151SOL    HW133089   2.957   1.219  14.942  0.8419 -2.5659  0.2838
 7151SOL    HW233090   3.106   1.218  14.917  0.8195 -0.0431  1.6523
 7152SOL     OW33091   3.493   2.364   0.630 -0.3208  0.1237  0.2341
 7152SOL    HW133092   3.587   2.343   0.627 -0.3373  0.2147 -0.8076
 7152SOL    HW233093   3.471   2.287   0.683 -0.3542 -0.9536 -1.3448
 7153SOL     OW33094   3.813   1.043  10.906 -0.0895  0.3706 -0.4586
 7153SOL    HW133095   3.823   0.997  10.989  3.7554  1.3049 -0.4299
 7153SOL    HW233096   3.899   1.085  10.900 -0.7502  2.0327  1.5132
 7154SOL     OW33097   4.646   4.224   9.492  0.7315 -0.3281 -0.8843
 7154SOL    HW133098   4.580   4.219   9.561 -0.4636  1.8473 -1.8941
 7154SOL    HW233099   4.655   4.318   9.480  0.1906 -0.0455  0.9748
 7155SOL     OW33100   2.719   3.052   3.337 -0.3843 -0.0193  0.2669
 7155SOL    HW133101   2.746   2.972   3.293  0.2095  0.7994 -0.8493
 7155SOL    HW233102   2.784   3.106   3.292 -1.1971  0.5830 -0.1742
 7156SOL     OW33103   1.389   3.237  12.656 -0.0255 -0.2392  0.1955
 7156SOL    HW133104   1.411   3.216  12.747  1.7792 -2.5543 -0.7941
 7156SOL    HW233105   1.315   3.180  12.635 -1.0744  0.9009  0.7418
 7157SOL     OW33106   0.909   1.158  10.458 -0.5717 -0.1231 -0.0678
 7157SOL    HW133107   0.902   1.062  10.458  0.7509 -0.2254  0.4404
 7157SOL    HW233108   0.843   1.186  10.522 -0.3092 -3.3557  1.6590
 7158SOL     OW33109   1.169   3.526  16.631  0.8891  0.1169  0.7424
 7158SOL    HW133110   1.188   3.501  16.540 -0.1091  1.6851  0.0885
 7158SOL    HW233111   1.258   3.536  16.664  0.6231  0.5714  1.3212
 7159SOL     OW33112   2.670   0.358   7.620 -0.3083  0.5654 -0.1506
 7159SOL    HW133113   2.581   0.392   7.614  0.8587  3.3738 -1.2980
 7159SOL    HW233114   2.721   0.429   7.659  2.7110 -0.8508 -1.5720
 7160SOL     OW33115   2.058   2.549   4.217  0.7762 -0.1044  0.4025
 7160SOL    HW133116   2.118   2.499   4.272  2.7523 -1.1679 -2.7318
 7160SOL    HW233117   2.070   2.509   4.132 -1.5421 -1.0994  0.5555
 7161SOL     OW33118   1.086   2.269   3.569 -0.1416 -0.0768  0.5231
 7161SOL    HW133119   1.067   2.233   3.482 -1.1284  0.2903  0.5848
 7161SOL    HW233120   1.120   2.187   3.603 -1.4856 -1.5871 -1.8106
 7162SOL     OW33121   1.995   4.658   7.415  0.0939  0.1828  0.3550
 7162SOL    HW133122   1.983   4.700   7.330  0.2109 -0.4696  0.0221
 7162SOL    HW233123   1.956   4.721   7.476  1.3186  0.0043  1.3325
 7163SOL     OW33124   2.333   1.630   7.202  0.0720 -0.0245  0.0721
 7163SOL    HW133125   2.334   1.548   7.152  0.0455  0.6123 -0.9937
 7163SOL    HW233126   2.357   1.693   7.134  2.4311  0.6368  1.5357
 7164SOL     OW33127   2.669   3.596   9.474  0.2995 -0.1629  0.3521
 7164SOL    HW133128   2.585   3.607   9.519  0.5465  0.7741  0.5679
 7164SOL    HW233129   2.629   3.574   9.389 -3.3680 -1.4540  2.4066
 7165SOL     OW33130   2.475   2.614   5.696 -0.0518 -0.5629  0.0651
 7165SOL    HW133131   2.402   2.676   5.703 -0.3588 -0.6195 -2.5596
 7165SOL    HW233132   2.528   2.640   5.771 -1.5553  2.7000  0.0019
 7166SOL     OW33133   1.946   3.201   3.994  0.4427  0.0180  0.2617
 7166SOL    HW133134   1.905   3.184   3.909 -1.6743  2.0434  0.9154
 7166SOL    HW233135   1.942   3.109   4.021  1.3625 -1.0590 -3.1862
 7167SOL     OW33136   4.469   1.093   7.816  0.0558 -0.0837 -0.0602
 7167SOL    HW133137   4.378   1.063   7.818 -0.0394  0.2443  0.5530
 7167SOL    HW233138   4.463   1.176   7.769 -0.3694 -0.5469 -0.8261
 7168SOL     OW33139   1.667   2.128   6.120  0.3780  0.2257 -0.7012
 7168SOL    HW133140   1.615   2.171   6.189 -0.7345  0.2577 -1.5632
 7168SOL    HW233141   1.653   2.040   6.155  2.7616  0.3617  0.6065
 7169SOL     OW33142   0.802   4.397   1.759  0.2626  0.5305  0.3372
 7169SOL    HW133143   0.889   4.402   1.721  0.6955 -0.3412  1.2046
 7169SOL    HW233144   0.761   4.474   1.719  1.4025  0.7195 -0.4727
 7170SOL     OW33145   0.437   3.589   2.679 -0.2218  0.5542  0.1339
 7170SOL    HW133146   0.365   3.579   2.742 -0.7555  2.2590 -0.1865
 7170SOL    HW233147   0.506   3.542   2.725 -2.0915 -1.1061  1.2264
 7171SOL     OW33148   1.735   1.376   9.231 -0.2461  0.1215 -0.3829
 7171SOL    HW133149   1.677   1.333   9.294 -2.9176  2.0879 -1.5294
 7171SOL    HW233150   1.681   1.392   9.154  0.4592  0.2832 -0.8454
 7172SOL     OW33151   2.086   0.241   4.668  0.5918 -0.1360 -0.0986
 7172SOL    HW133152   2.164   0.293   4.647  1.3684 -1.8983 -1.5704
 7172SOL    HW233153   2.071   0.219   4.576  2.4097  1.5765 -0.8064
 7173SOL     OW33154   0.644   4.707   3.886  0.5115 -0.3510 -0.0156
 7173SOL    HW133155   0.601   4.705   3.971 -2.7321 -1.1912 -1.6960
 7173SOL    HW233156   0.582   4.660   3.831  0.0286  0.4877 -0.1970
 7174SOL     OW33157   2.967   0.146   6.624 -0.1652 -0.4682  0.1611
 7174SOL    HW133158   3.061   0.128   6.615  0.3696  1.5393  1.6403
 7174SOL    HW233159   2.924   0.062   6.607 -0.5815  0.1354 -1.7759
 7175SOL     OW33160   3.425   1.983  12.836  0.2413 -0.1860  0.7991
 7175SOL    HW133161   3.506   2.030  12.821  0.1089 -0.8249 -2.0826
 7175SOL    HW233162   3.424   1.935  12.753 -1.7961 -0.2391  0.8381
 7176SOL     OW33163   3.705   0.276   3.401 -0.5399  0.2379  0.8078
 7176SOL    HW133164   3.651   0.222   3.458 -2.0084 -1.8828 -2.5410
 7176SOL    HW233165   3.665   0.267   3.314  1.2140 -0.3990  0.0624
 7177SOL     OW33166   1.340   0.698   5.008  0.0821  0.2941  0.4927
 7177SOL    HW133167   1.410   0.657   4.957  0.7630  1.0675  0.8131
 7177SOL    HW233168   1.278   0.716   4.937 -1.1473  0.5041  1.6180
 7178SOL     OW33169   1.643   0.047   1.030 -0.5854  0.4333 -0.1799
 7178SOL    HW133170   1.705   0.047   0.957 -0.1833 -0.3573  0.1605
 7178SOL    HW233171   1.631   4.691   1.049  1.7101 -0.0067 -0.8455
 7179SOL     OW33172   2.250   1.750   3.715 -0.4989 -0.4717  0.0172
 7179SOL    HW133173   2.311   1.764   3.643  0.7527 -0.6282  1.0332
 7179SOL    HW233174   2.315   1.760   3.785 -1.0499  0.4913  0.3834
 7180SOL     OW33175   4.624   2.947  14.621  0.1217 -0.1052 -0.3025
 7180SOL    HW133176   4.687   2.877  14.605  0.4294 -0.0489  0.6560
 7180SOL    HW233177   4.648   3.024  14.568  0.3610  0.5298  0.7250
 7181SOL     OW33178   4.418   2.758  14.317  0.2612  0.4185  0.3958
 7181SOL    HW133179   4.420   2.838  14.264 -0.4969 -0.1959 -0.5557
 7181SOL    HW233180   4.503   2.748  14.360 -0.5939 -1.2281  1.6921
 7182SOL     OW33181   1.684   4.475   5.473  0.3685 -0.5232  0.1443
 7182SOL    HW133182   1.720   4.564   5.484  1.2069 -1.0546  1.6709
 7182SOL    HW233183   1.660   4.482   5.381  0.0911  0.0083  0.2519
 7183SOL     OW33184   2.855   3.608   2.540 -0.5995 -0.4234  0.8791
 7183SOL    HW133185   2.832   3.633   2.450 -1.0420  0.2932  1.1924
 7183SOL    HW233186   2.894   3.521   2.529 -0.3027 -0.1839  0.0311
 7184SOL     OW33187   1.857   2.504  12.006  0.3629  0.0094 -0.4703
 7184SOL    HW133188   1.885   2.590  11.975 -2.3952 -0.5340 -4.4955
 7184SOL    HW233189   1.938   2.458  11.984 -0.0912 -0.9618 -0.1138
 7185SOL     OW33190   3.198   0.255   8.318 -0.0126  0.2178 -0.0513
 7185SOL    HW133191   3.221   0.166   8.293  0.5759  0.0171  1.2142
 7185SOL    HW233192   3.248   0.254   8.399 -0.2901  0.2765  0.1187
 7186SOL     OW33193   3.035   2.355   8.944  0.2670  0.1498 -0.0494
 7186SOL    HW133194   3.018   2.313   9.029 -1.8367  2.5730  0.7091
 7186SOL    HW233195   2.959   2.414   8.943 -0.4204 -0.7150  0.9827
 7187SOL     OW33196   3.903   2.034   7.950  0.1387 -0.0660  0.4768
 7187SOL    HW133197   3.998   2.032   7.943  0.0766 -0.0887 -0.3535
 7187SOL    HW233198   3.880   2.096   8.019 -1.0997  0.2975 -0.2592
 7188SOL     OW33199   3.214   1.375  12.350  0.4795 -0.1439 -0.0966
 7188SOL    HW133200   3.162   1.296  12.336  1.1574 -0.7556  0.8809
 7188SOL    HW233201   3.229   1.370  12.444 -0.1500  1.3756  0.0914
 7189SOL     OW33202   0.697   0.865   2.248 -0.2987 -0.0230 -0.5175
 7189SOL    HW133203   0.747   0.852   2.167  0.5945  0.7909 -0.0902
 7189SOL    HW233204   0.699   0.775   2.281  0.2038 -0.8222 -2.6983
 7190SOL     OW33205   0.035   4.417   4.858 -0.0082 -0.4480  0.8920
 7190SOL    HW133206   0.110   4.357   4.862  0.2481 -0.0291  2.6821
 7190SOL    HW233207   0.042   4.453   4.947 -2.2413 -2.3529  1.8380
 7191SOL     OW33208   1.851   4.573   8.841 -0.0494 -0.1551 -0.1355
 7191SOL    HW133209   1.946   4.575   8.826 -0.3069  0.0322 -1.8091
 7191SOL    HW233210   1.825   4.664   8.826  0.1820  0.2026  1.6808
 7192SOL     OW33211   0.206   2.207   9.690 -0.0777 -0.2048  0.1448
 7192SOL    HW133212   0.185   2.136   9.750 -0.8677  0.1979  0.3408
 7192SOL    HW233213   0.177   2.172   9.606  0.5321  1.4757 -0.7602
 7193SOL     OW33214   4.081   0.203   6.901  0.5642  0.2652  0.7095
 7193SOL    HW133215   3.999   0.154   6.898  0.0268  1.3661 -3.0585
 7193SOL    HW233216   4.136   0.163   6.834 -2.9093 -2.8906 -0.2425
 7194SOL     OW33217   1.915   3.487   6.026 -0.7250  0.6405  0.6217
 7194SOL    HW133218   1.872   3.523   5.949 -0.4122 -0.2199  0.0439
 7194SOL    HW233219   1.876   3.400   6.033 -1.1655  0.6244 -2.1541
 7195SOL     OW33220   2.956   4.057   7.867  0.2690  0.4725 -0.9580
 7195SOL    HW133221   2.902   4.126   7.830 -0.2782  0.3130 -0.4598
 7195SOL    HW233222   2.984   4.012   7.788 -0.0880 -2.1102  0.3635
 7196SOL     OW33223   1.918   3.289   4.721 -0.2661  0.6771  0.6441
 7196SOL    HW133224   1.933   3.330   4.636 -0.3900  2.8517  1.6785
 7196SOL    HW233225   1.930   3.195   4.710  1.0685  0.8085  0.9253
 7197SOL     OW33226   2.815   4.237   5.358  0.1037  0.1540  0.4857
 7197SOL    HW133227   2.886   4.258   5.420  0.6593  0.2420 -0.1841
 7197SOL    HW233228   2.835   4.284   5.277 -0.2715 -0.6071 -0.0445
 7198SOL     OW33229   3.602   3.945   8.541  0.0178 -0.1888  0.0309
 7198SOL    HW133230   3.602   3.950   8.637  0.4225 -0.3029  0.0368
 7198SOL    HW233231   3.559   3.861   8.521 -0.3271  0.0941 -0.4032
 7199SOL     OW33232   2.830   0.985   1.418 -0.1964  0.8310 -0.0514
 7199SOL    HW133233   2.753   0.938   1.450  1.3626 -0.4230  1.8650
 7199SOL    HW233234   2.805   1.077   1.426 -0.1012  0.9366 -1.0050
 7200SOL     OW33235   1.227   2.728   4.874 -0.3152 -0.1527 -0.0073
 7200SOL    HW133236   1.277   2.673   4.935 -2.3462  0.4016  2.1785
 7200SOL    HW233237   1.284   2.731   4.797  0.4661 -1.5939  0.5082
 7201SOL     OW33238   2.142   1.933   5.499 -0.5098 -0.0999  0.1063
 7201SOL    HW133239   2.124   1.845   5.467 -0.4999 -0.2537  0.5189
 7201SOL    HW233240   2.137   1.921   5.594  1.2814  0.4801  0.2661
 7202SOL     OW33241   2.179   4.153   5.850  0.2808 -0.1005  0.1197
 7202SOL    HW133242   2.092   4.155   5.808 -0.3983  0.8548  1.5553
 7202SOL    HW233243   2.224   4.109   5.778  0.0534 -1.6253  0.9269
 7203SOL     OW33244   4.056   3.218   1.970  0.3214 -0.8105 -0.7717
 7203SOL    HW133245   4.019   3.300   1.937  1.9796 -0.0360 -0.6917
 7203SOL    HW233246   4.033   3.154   1.902 -1.4032 -0.6560 -0.3516
 7204SOL     OW33247   3.994   2.700  10.365  0.1769 -0.0288 -0.1451
 7204SOL    HW133248   4.019   2.789  10.341 -0.2817 -0.5604 -2.5552
 7204SOL    HW233249   4.068   2.678  10.421  0.5141 -1.4756 -1.1659
 7205SOL     OW33250   2.519   0.622  14.916 -0.7237 -0.2315  0.0601
 7205SOL    HW133251   2.439   0.651  14.873 -0.6823  0.9473  0.7739
 7205SOL    HW233252   2.484   0.534  14.929 -1.1866  0.0198  0.5125
 7206SOL     OW33253   1.094   3.834   6.826 -0.5564 -0.5296 -0.6386
 7206SOL    HW133254   1.048   3.914   6.798 -2.8684 -2.0382 -1.0872
 7206SOL    HW233255   1.059   3.833   6.915  1.4997  1.5932  0.2066
 7207SOL     OW33256   1.288   2.568   2.273 -0.4922 -0.5892 -0.2006
 7207SOL    HW133257   1.332   2.572   2.358 -0.9915  2.0182 -0.0676
 7207SOL    HW233258   1.355   2.608   2.217 -1.5672 -0.7880 -1.6228
 7208SOL     OW33259   4.540   2.864  11.917  0.2773  0.1828 -0.1838
 7208SOL    HW133260   4.537   2.770  11.937 -2.9106  0.1613 -0.7510
 7208SOL    HW233261   4.455   2.880  11.877 -0.1882 -0.8718  0.3913
 7209SOL     OW33262   2.746   4.219   8.560 -0.3708 -0.1392  0.3140
 7209SOL    HW133263   2.820   4.160   8.548  0.4605  0.1325  4.1978
 7209SOL    HW233264   2.695   4.185   8.487  1.0298  0.1529 -0.8031
 7210SOL     OW33265   0.395   1.375   8.168  0.2196 -0.5851  0.5147
 7210SOL    HW133266   0.339   1.352   8.243 -2.2431  0.2286 -1.0864
 7210SOL    HW233267   0.379   1.469   8.167  0.1590 -0.6071 -0.1361
 7211SOL     OW33268   3.793   0.470   5.428 -0.3478 -1.0238  0.2540
 7211SOL    HW133269   3.844   0.502   5.501  1.5906 -0.1669 -1.4732
 7211SOL    HW233270   3.858   0.427   5.373 -0.8026 -0.2319 -0.9397
 7212SOL     OW33271   3.748   2.844  12.646 -0.1607 -0.3369 -0.2280
 7212SOL    HW133272   3.767   2.896  12.724 -4.1461 -1.9582  1.8299
 7212SOL    HW233273   3.807   2.897  12.591 -0.8195 -0.2079 -0.8069
 7213SOL     OW33274   0.498   4.033   3.236 -0.1730 -0.5503  0.2609
 7213SOL    HW133275   0.550   4.052   3.314  1.3756 -0.4061 -0.8161
 7213SOL    HW233276   0.560   4.052   3.165 -2.1902  1.2342 -1.0178
 7214SOL     OW33277   4.693   0.890  13.078  0.1546  0.6887 -0.4862
 7214SOL    HW133278   4.736   0.974  13.068 -0.1819  0.8168 -0.8513
 7214SOL    HW233279   4.657   0.891  13.167 -0.7804  0.8312 -0.8595
 7215SOL     OW33280   3.347   3.210   3.202 -0.1418  0.6366 -0.4883
 7215SOL    HW133281   3.316   3.157   3.276  0.8489  0.1327 -0.4342
 7215SOL    HW233282   3.439   3.185   3.208 -0.1350  0.5181 -1.0803
 7216SOL     OW33283   1.948   2.948   8.133  0.2706 -0.4635 -0.1773
 7216SOL    HW133284   1.989   3.015   8.077  2.5633 -1.8568 -0.1655
 7216SOL    HW233285   2.005   2.872   8.121 -0.6730 -1.6808  3.1421
 7217SOL     OW33286   1.400   0.900   4.811 -0.0501  0.3755  0.1117
 7217SOL    HW133287   1.367   0.965   4.749 -0.5353  1.1377  1.1688
 7217SOL    HW233288   1.433   0.826   4.760  2.1182  1.2687  0.2444
 7218SOL     OW33289   1.565   3.250   2.245  0.2929  0.0105  0.2919
 7218SOL    HW133290   1.507   3.197   2.190 -0.8628  0.2439  1.3090
 7218SOL    HW233291   1.508   3.325   2.261  1.5539  0.5028  2.4079
 7219SOL     OW33292   1.984   4.172   6.384  0.1378 -0.4888 -0.5937
 7219SOL    HW133293   1.981   4.120   6.303  1.0594  0.5129 -1.2746
 7219SOL    HW233294   2.069   4.136   6.412  0.2297 -0.3824 -0.7367
 7220SOL     OW33295   1.664   0.318   9.397 -0.0075  0.3472 -0.6705
 7220SOL    HW133296   1.631   0.365   9.473  3.1995  0.0638  0.8767
 7220SOL    HW233297   1.680   0.388   9.334  0.6049 -0.0946 -1.0077
 7221SOL     OW33298   0.609   0.121   6.000 -0.0736  0.1525 -0.2850
 7221SOL    HW133299   0.704   0.112   5.994 -0.0211  2.4139 -2.8574
 7221SOL    HW233300   0.600   0.183   5.927 -1.6788  0.0293 -0.2105
 7222SOL     OW33301   1.719   2.408   8.771 -0.0495 -0.4041  0.4043
 7222SOL    HW133302   1.726   2.444   8.859  0.2048  1.7920 -0.5034
 7222SOL    HW233303   1.686   2.480   8.718 -1.5424 -1.9991 -0.8598
 7223SOL     OW33304   4.228   3.955   2.099 -0.4182  0.0411 -0.0040
 7223SOL    HW133305   4.135   3.944   2.079 -0.4409 -0.6989  0.5231
 7223SOL    HW233306   4.269   3.923   2.019 -0.1491  1.6467 -0.5114
 7224SOL     OW33307   4.615   3.054  12.451 -0.0498  0.4163 -0.6731
 7224SOL    HW133308   4.649   3.012  12.531 -1.1392  1.1794  0.1973
 7224SOL    HW233309   4.595   3.140  12.488  0.9743  0.0366  0.7764
 7225SOL     OW33310   2.960   0.737   2.260 -0.6410 -0.1198  0.3812
 7225SOL    HW133311   3.015   0.745   2.338 -2.5712  0.3329  1.6929
 7225SOL    HW233312   2.961   0.644   2.237  2.9286  0.2558 -0.8665
 7226SOL     OW33313   4.406   0.751   2.787 -0.1887  0.1537 -0.3922
 7226SOL    HW133314   4.439   0.662   2.775  0.0570  0.2904 -0.7067
 7226SOL    HW233315   4.357   0.730   2.867 -1.0509 -2.5397 -1.6429
 7227SOL     OW33316   1.184   0.864   6.836  0.6001  0.0585  0.7071
 7227SOL    HW133317   1.113   0.849   6.773 -0.0806 -0.1133  1.5107
 7227SOL    HW233318   1.185   0.960   6.826  1.1827 -0.1362 -1.0366
 7228SOL     OW33319   1.268   2.605   9.310 -0.3700  0.2717 -0.2551
 7228SOL    HW133320   1.195   2.588   9.370  0.6103  0.3248  0.9748
 7228SOL    HW233321   1.329   2.659   9.360  1.2854 -0.0890 -1.9200
 7229SOL     OW33322   2.759   2.667   7.312  0.3598 -0.0509  0.5314
 7229SOL    HW133323   2.793   2.595   7.259  1.0518  0.0957  0.7634
 7229SOL    HW233324   2.666   2.646   7.317  0.6058 -1.4789 -1.1328
 7230SOL     OW33325   2.937   3.787   2.044 -0.1297 -0.6462  0.1259
 7230SOL    HW133326   2.962   3.695   2.045  0.8211 -0.3853 -0.0271
 7230SOL    HW233327   2.898   3.800   2.131 -1.7572  0.0783 -0.7287
 7231SOL     OW33328   2.795   3.035  16.731  0.6239  0.4755 -0.4907
 7231SOL    HW133329   2.766   3.081  16.652 -0.9787 -1.2955 -0.9267
 7231SOL    HW233330   2.850   2.961  16.705  0.4896 -0.2805  1.4049
 7232SOL     OW33331   3.887   1.530   2.216 -0.2115 -0.0590 -0.6561
 7232SOL    HW133332   3.929   1.502   2.135 -0.7214  0.7769 -1.1997
 7232SOL    HW233333   3.851   1.615   2.190 -1.0599 -1.3012 -3.5315
 7233SOL     OW33334   3.571   4.647   4.725 -0.5512 -0.5937 -0.4828
 7233SOL    HW133335   3.579   4.647   4.820 -0.9812  1.0508 -0.4453
 7233SOL    HW233336   3.581   0.004   4.709 -0.3844 -0.4765  0.3593
 7234SOL     OW33337   3.532   3.838   3.823 -0.0310  0.2980  0.0185
 7234SOL    HW133338   3.599   3.832   3.890 -0.3071  0.5624  0.3169
 7234SOL    HW233339   3.462   3.882   3.872  0.4315 -1.4915  2.2713
 7235SOL     OW33340   0.352   4.312   8.287  0.0741 -0.4550  0.0142
 7235SOL    HW133341   0.355   4.374   8.360 -1.0435 -0.0976 -0.2411
 7235SOL    HW233342   0.260   4.321   8.263  0.6461  1.5796 -1.4118
 7236SOL     OW33343   0.918   0.626   7.133 -0.0470  0.2886 -0.4040
 7236SOL    HW133344   1.006   0.636   7.098 -0.7941  2.6594 -1.6246
 7236SOL    HW233345   0.864   0.615   7.055 -4.4563  1.8357  2.3959
 7237SOL     OW33346   1.310   0.100   8.576  0.6065  0.0742 -0.6538
 7237SOL    HW133347   1.291   0.066   8.663 -0.0468  0.5641 -0.6086
 7237SOL    HW233348   1.388   0.152   8.596 -0.2817  0.7978  0.8220
 7238SOL     OW33349   4.631   1.616   7.769 -0.2888  0.1099  0.3918
 7238SOL    HW133350   4.667   1.639   7.855  1.4401 -0.0337 -0.2917
 7238SOL    HW233351   4.564   1.682   7.752  1.8320  2.6292  2.0181
 7239SOL     OW33352   2.715   2.118  17.278 -0.1304  0.1436  0.1213
 7239SOL    HW133353   2.722   2.154  17.366  0.6342 -0.9741  0.5126
 7239SOL    HW233354   2.800   2.079  17.264  0.3080  1.6680 -1.4849
 7240SOL     OW33355   3.801   4.712   3.463 -0.3109  0.2014  0.3140
 7240SOL    HW133356   3.872   4.727   3.526  0.5943  2.8376 -1.3335
 7240SOL    HW233357   3.823   4.637   3.409 -2.6618 -0.7355  0.6550
 7241SOL     OW33358   3.140   2.827   7.021  0.0124  0.2103 -0.7228
 7241SOL    HW133359   3.151   2.739   7.055 -1.3650  0.8455  1.3430
 7241SOL    HW233360   3.138   2.876   7.104  0.0601 -1.1617  0.0832
 7242SOL     OW33361   3.657   3.028   6.138 -1.3201 -0.4533 -0.0350
 7242SOL    HW133362   3.727   3.068   6.086 -0.6531 -1.2090  0.2849
 7242SOL    HW233363   3.578   3.049   6.088 -2.2851 -0.1775  1.6032
 7243SOL     OW33364   2.388   0.854   7.252 -0.1963  0.5685 -0.0906
 7243SOL    HW133365   2.399   0.836   7.158  0.3483  1.2213 -0.1528
 7243SOL    HW233366   2.480   0.846   7.279 -0.5400 -2.3820  0.1918
 7244SOL     OW33367   3.340   0.450   6.352 -0.5376  0.7533  0.1327
 7244SOL    HW133368   3.272   0.440   6.419 -1.0075 -1.3141 -0.6538
 7244SOL    HW233369   3.299   0.429   6.268 -3.0180 -0.1518  1.5865
 7245SOL     OW33370   4.236   3.771  17.339 -0.1484  0.4105  0.3679
 7245SOL    HW133371   4.178   3.827  17.391  0.2938  0.6540  0.5900
 7245SOL    HW233372   4.224   3.806  17.250  0.6016  2.1668  0.9701
 7246SOL     OW33373   3.740   2.057  14.569  0.4101 -0.1505  0.0452
 7246SOL    HW133374   3.747   2.097  14.655  0.0211  0.0939 -0.0359
 7246SOL    HW233375   3.781   2.120  14.511 -2.4836  0.4810 -1.3272
 7247SOL     OW33376   2.307   0.349   7.379 -0.2933  0.0538 -0.4742
 7247SOL    HW133377   2.234   0.299   7.414 -0.8117  1.2563  0.1373
 7247SOL    HW233378   2.287   0.438   7.406  0.2442  0.3573 -1.0839
 7248SOL     OW33379   3.642   4.718  10.274  0.1765 -1.0261 -0.1106
 7248SOL    HW133380   3.566   0.038  10.286 -0.3866 -1.5892 -1.0199
 7248SOL    HW233381   3.711   0.048  10.264 -2.6568  2.1104  1.1397
 7249SOL     OW33382   0.181   0.329   2.753 -0.4645 -0.0710  0.4786
 7249SOL    HW133383   0.250   0.273   2.716 -0.2387  0.4720  0.0593
 7249SOL    HW233384   0.124   0.270   2.801 -0.2233 -0.3042  0.4764
 7250SOL     OW33385   2.285   1.441   1.394 -0.6721  0.7245  0.0041
 7250SOL    HW133386   2.353   1.506   1.410  1.7142 -1.6895 -0.4263
 7250SOL    HW233387   2.330   1.362   1.362  0.3409  1.0717  0.5959
 7251SOL     OW33388   2.725   2.042   4.899  0.0776  0.1432 -0.3964
 7251SOL    HW133389   2.652   2.037   4.837  1.4070  0.0002 -1.9747
 7251SOL    HW233390   2.725   2.130   4.935  1.2702  0.8130 -2.0244
 7252SOL     OW33391   2.295   1.716  13.496  0.3415 -0.0931 -0.2179
 7252SOL    HW133392   2.209   1.674  13.484  0.0176 -0.4015  3.0858
 7252SOL    HW233393   2.358   1.667  13.443 -0.2013  0.1501 -1.0904
 7253SOL     OW33394   2.442   3.056   5.908  0.0262 -0.2255 -0.2027
 7253SOL    HW133395   2.502   3.117   5.950 -0.3151 -0.1502  0.1843
 7253SOL    HW233396   2.361   3.072   5.957 -0.4972 -0.4613 -0.9837
 7254SOL     OW33397   4.529   2.647   9.450  0.5183 -0.3137 -0.3022
 7254SOL    HW133398   4.577   2.706   9.508 -0.4438 -0.9747  1.1522
 7254SOL    HW233399   4.588   2.572   9.453 -0.5624 -1.0397  1.9639
 7255SOL     OW33400   4.255   2.082   6.805 -0.3025 -0.3057  0.0347
 7255SOL    HW133401   4.339   2.045   6.780 -0.9056 -2.2238  0.8934
 7255SOL    HW233402   4.287   2.172   6.816  1.4820 -0.9606  0.1896
 7256SOL     OW33403   1.905   3.355   2.910 -0.0108  0.6762  0.1400
 7256SOL    HW133404   1.941   3.439   2.939  1.3438 -0.1987  1.0240
 7256SOL    HW233405   1.932   3.367   2.819 -1.2914  1.4588 -0.1326
 7257SOL     OW33406   2.540   0.154   7.823  0.1270 -0.4951 -0.6326
 7257SOL    HW133407   2.582   0.228   7.778  0.9225 -1.5465 -1.5893
 7257SOL    HW233408   2.540   0.184   7.914 -1.4114  0.6945 -1.0071
 7258SOL     OW33409   0.226   0.403   5.781 -0.2186 -0.5485 -0.7014
 7258SOL    HW133410   0.314   0.439   5.776  0.0111 -0.7654  1.4767
 7258SOL    HW233411   0.201   0.431   5.693  2.0768  0.2232 -1.0924
 7259SOL     OW33412   4.263   0.998   0.748  0.6849 -0.6898 -0.1550
 7259SOL    HW133413   4.254   0.934   0.819  0.3384  0.5941  0.9537
 7259SOL    HW233414   4.253   0.946   0.669  0.3100 -2.2627  0.9160
 7260SOL     OW33415   0.342   0.416   0.395  0.6325  0.3193  0.0027
 7260SOL    HW133416   0.422   0.374   0.365  0.9271  0.0322  1.1978
 7260SOL    HW233417   0.285   0.397   0.320 -0.9737 -1.7450  1.7306
 7261SOL     OW33418   3.389   0.017   2.283  0.2819  0.4825  0.0046
 7261SOL    HW133419   3.347   4.672   2.312 -0.0896 -0.2576 -2.6363
 7261SOL    HW233420   3.318   0.059   2.235 -0.6285 -2.6804 -1.4120
 7262SOL     OW33421   1.636   3.275   2.806 -0.0989  0.4852  0.2647
 7262SOL    HW133422   1.710   3.304   2.859  1.5644 -0.1653 -1.7220
 7262SOL    HW233423   1.666   3.263   2.716 -1.5813 -1.9723  0.1032
 7263SOL     OW33424   1.989   4.253   0.979  0.4820 -0.6035  0.0169
 7263SOL    HW133425   2.015   4.315   1.047 -1.7803 -1.6252  1.8154
 7263SOL    HW233426   1.971   4.310   0.905  2.2757  1.6474  1.3353
 7264SOL     OW33427   1.668   2.869   3.653 -0.6024 -0.6849 -0.2250
 7264SOL    HW133428   1.622   2.938   3.604 -1.4272 -0.6382  0.6007
 7264SOL    HW233429   1.728   2.836   3.587  2.6884  0.8472  2.0155
 7265SOL     OW33430   0.274   3.764  11.351  0.1466  0.2382  0.3185
 7265SOL    HW133431   0.309   3.774  11.440  2.2454  2.0485 -0.7153
 7265SOL    HW233432   0.200   3.704  11.361 -0.3892  0.7455 -0.6215
 7266SOL     OW33433   1.939   3.827  13.597 -0.5661 -0.2609 -0.1727
 7266SOL    HW133434   1.936   3.745  13.548  1.8503  0.7750 -2.0914
 7266SOL    HW233435   2.023   3.862  13.566  0.0224 -0.3216  1.3863
 7267SOL     OW33436   2.142   1.927   7.156  0.1158 -0.0563  0.4068
 7267SOL    HW133437   2.160   1.943   7.249  1.9875 -1.0218  0.2123
 7267SOL    HW233438   2.225   1.897   7.121 -0.3189 -2.6217  1.5421
 7268SOL     OW33439   0.958   3.750   9.556 -0.8315 -0.3652  0.2529
 7268SOL    HW133440   0.932   3.757   9.648  1.3282 -0.7179  0.8848
 7268SOL    HW233441   0.956   3.655   9.544 -2.0513 -0.4538  1.1018
 7269SOL     OW33442   3.032   0.469   0.037  0.3410 -0.4542 -0.5415
 7269SOL    HW133443   3.115   0.496  17.744  0.0172  2.7332  0.9382
 7269SOL    HW233444   2.994   0.554   0.061  1.9749  0.7071 -2.0442
 7270SOL     OW33445   2.595   1.949   5.415 -0.1375  0.2011 -0.5389
 7270SOL    HW133446   2.519   2.005   5.433  0.5983  1.0142  0.0357
 7270SOL    HW233447   2.616   1.964   5.323 -1.2503  0.1300 -0.8075
 7271SOL     OW33448   2.281   2.837   2.008  0.1162 -0.4024 -0.1809
 7271SOL    HW133449   2.356   2.780   1.991  0.7470  0.5358 -0.5029
 7271SOL    HW233450   2.281   2.902   1.938 -2.2602  0.1092  0.2895
 7272SOL     OW33451   4.032   4.460   3.073 -0.1175 -0.0053 -0.0013
 7272SOL    HW133452   4.021   4.450   2.979 -0.6853 -0.2645  0.0856
 7272SOL    HW233453   4.101   4.394   3.074 -0.3852 -0.2908 -0.4049
 7273SOL     OW33454   2.035   3.480  16.892 -0.3940  0.5171  0.0028
 7273SOL    HW133455   1.981   3.554  16.921 -0.9898  0.2055 -0.3196
 7273SOL    HW233456   2.059   3.509  16.804  2.2032 -0.9252  0.2280
 7274SOL     OW33457   4.292   4.654   0.249  0.2296 -0.0921 -0.3185
 7274SOL    HW133458   4.292   4.686   0.339  1.8556  3.0269 -1.4398
 7274SOL    HW233459   4.248   4.570   0.268 -1.5589  1.1068  0.8486
 7275SOL     OW33460   2.765   3.595   8.476  0.3607 -0.8651  0.5478
 7275SOL    HW133461   2.707   3.572   8.404 -1.7048  2.4061  1.1828
 7275SOL    HW233462   2.772   3.509   8.518  1.9296 -0.6545  0.7457
 7276SOL     OW33463   0.304   3.392   7.469  0.4701  0.1842  0.2728
 7276SOL    HW133464   0.267   3.436   7.393  1.3919 -0.2235 -0.4160
 7276SOL    HW233465   0.393   3.427   7.472  0.1480  0.8359  2.0212
 7277SOL     OW33466   2.013   1.618  10.271  0.2199  0.3405  0.0633
 7277SOL    HW133467   2.023   1.642  10.179  0.6568  3.1111  0.8291
 7277SOL    HW233468   2.051   1.530  10.268 -0.2692  0.2744 -3.6710
 7278SOL     OW33469   0.635   2.681   0.366 -0.0806 -0.0916 -0.2088
 7278SOL    HW133470   0.597   2.593   0.354 -1.4868  0.8504 -2.5745
 7278SOL    HW233471   0.638   2.687   0.461 -0.4896 -0.3177 -0.1796
 7279SOL     OW33472   0.241   0.089   2.522  0.8819 -0.0047  0.2319
 7279SOL    HW133473   0.160   0.043   2.544  1.3765 -0.0593  1.9420
 7279SOL    HW233474   0.305   0.021   2.543  0.3714 -0.6557 -0.3125
 7280SOL     OW33475   0.919   4.599   2.418 -0.6261  0.3647  0.3635
 7280SOL    HW133476   0.869   4.647   2.484  0.5355  1.0170  0.7596
 7280SOL    HW233477   1.005   4.577   2.452 -0.2932  2.5325  0.8888
 7281SOL     OW33478   0.781   4.246  16.380 -0.3372  0.2243  0.7230
 7281SOL    HW133479   0.703   4.197  16.354 -0.3087  0.9380 -0.6776
 7281SOL    HW233480   0.770   4.262  16.474 -1.8167  0.5380  0.4855
 7282SOL     OW33481   4.506   2.442   2.484  0.0316  0.4252 -0.4185
 7282SOL    HW133482   4.593   2.443   2.444 -0.2503  1.8740 -0.9883
 7282SOL    HW233483   4.451   2.481   2.415 -1.1707  0.1137  0.3699
 7283SOL     OW33484   1.073   2.428   6.085  0.3787 -0.4608  0.3412
 7283SOL    HW133485   1.163   2.397   6.097  1.1013  1.3652 -0.3699
 7283SOL    HW233486   1.043   2.344   6.050 -0.4440 -0.3918  0.8778
 7284SOL     OW33487   0.495   2.845   5.451 -0.3369  0.1895  0.0156
 7284SOL    HW133488   0.589   2.849   5.430 -0.8289  0.6554 -2.0912
 7284SOL    HW233489   0.475   2.752   5.451  1.6547 -0.2360 -2.9657
 7285SOL     OW33490   2.153   2.735   9.984 -0.8800 -0.2722  0.4564
 7285SOL    HW133491   2.154   2.791  10.062  1.3239  0.1004  0.1503
 7285SOL    HW233492   2.156   2.649  10.026  1.3067 -0.0819  0.6872
 7286SOL     OW33493   0.809   3.760   9.105  0.1894 -0.2438  0.3365
 7286SOL    HW133494   0.764   3.759   9.189  1.0189  1.7702  0.7921
 7286SOL    HW233495   0.863   3.681   9.113  1.0201  0.5162  2.1180
 7287SOL     OW33496   1.289   3.552  17.222  0.3712 -0.4180  0.2127
 7287SOL    HW133497   1.292   3.498  17.143 -0.7097 -0.1986  0.0217
 7287SOL    HW233498   1.309   3.636  17.180  0.3774 -1.4931 -1.9497
 7288SOL     OW33499   0.499   3.753  17.083 -0.1354  0.2592 -0.4650
 7288SOL    HW133500   0.561   3.820  17.110 -0.8655  0.2553  1.1979
 7288SOL    HW233501   0.459   3.727  17.166 -0.6271  0.9307 -0.4901
 7289SOL     OW33502   2.785   3.886  12.755 -0.0841  0.0758 -0.0948
 7289SOL    HW133503   2.859   3.917  12.806  1.9199 -2.2357 -1.5773
 7289SOL    HW233504   2.708   3.935  12.783  1.0742  2.8308 -1.7901
 7290SOL     OW33505   4.223   4.733  11.525 -0.3153 -0.3828  0.1807
 7290SOL    HW133506   4.297   4.693  11.570  0.8785  2.2181  0.4719
 7290SOL    HW233507   4.186   0.037  11.603  0.3171  2.0021 -0.7593
 7291SOL     OW33508   0.173   0.396   0.176 -0.3595 -0.0110 -0.2454
 7291SOL    HW133509   0.203   0.440   0.097  0.0246 -1.6640 -1.0236
 7291SOL    HW233510   0.108   0.334   0.143  0.0351 -0.6922  0.2558
 7292SOL     OW33511   0.089   3.096  12.284 -0.0941 -0.4191  0.4876
 7292SOL    HW133512   0.019   3.130  12.228 -1.0587 -1.0457  1.3132
 7292SOL    HW233513   0.024   3.065  12.348 -1.7503 -0.9536 -1.4512
 7293SOL     OW33514   2.529   1.730  11.149 -0.1310 -0.1564  0.3928
 7293SOL    HW133515   2.589   1.803  11.168 -0.6740  0.2326  0.6188
 7293SOL    HW233516   2.515   1.751  11.056  0.5343 -0.1360  0.3005
 7294SOL     OW33517   2.525   2.992   6.205 -0.2359  0.2129  0.3589
 7294SOL    HW133518   2.523   3.036   6.291  0.1572 -1.2460  1.1083
 7294SOL    HW233519   2.498   2.904   6.229 -1.1619  0.5119  0.4121
 7295SOL     OW33520   2.937   0.164  14.372  0.2198 -0.0587  0.0374
 7295SOL    HW133521   3.020   0.122  14.349 -0.6707 -0.2690 -2.8257
 7295SOL    HW233522   2.931   0.232  14.305 -0.8648  0.9760  1.1949
 7296SOL     OW33523   4.724   0.175   7.024 -0.3072 -0.3572  0.2744
 7296SOL    HW133524   4.659   0.205   7.087 -0.8214  0.5651 -0.7040
 7296SOL    HW233525   4.692   0.096   6.981  0.2482 -0.2236 -0.4020
 7297SOL     OW33526   1.592   1.022   7.242  0.2667  0.3074 -0.6905
 7297SOL    HW133527   1.636   1.104   7.265 -0.4719  0.1511  1.3046
 7297SOL    HW233528   1.506   1.050   7.211  1.2475  0.8953 -2.8969
 7298SOL     OW33529   2.495   3.809   5.751 -0.1808  0.5646  0.0644
 7298SOL    HW133530   2.524   3.778   5.836  1.2982  1.0907 -0.2427
 7298SOL    HW233531   2.503   3.732   5.695 -0.9592  0.7931 -0.3614
 7299SOL     OW33532   3.639   0.246   0.624  0.5082  0.2323  0.2096
 7299SOL    HW133533   3.630   0.338   0.598 -0.5569 -0.4343 -1.7557
 7299SOL    HW233534   3.608   0.210   0.541  1.6327  1.7517 -0.8760
 7300SOL     OW33535   1.806   4.408   8.348 -0.1010  0.4605 -0.5583
 7300SOL    HW133536   1.713   4.421   8.329 -0.2816 -1.2902 -0.7939
 7300SOL    HW233537   1.857   4.480   8.310  0.3467 -0.8246 -2.3644
 7301SOL     OW33538   4.734   0.798  10.511 -0.1082 -0.2220 -0.1624
 7301SOL    HW133539   0.052   0.830  10.440  1.5219 -0.2466  1.0731
 7301SOL    HW233540   4.677   0.741  10.460  0.5004 -1.1668  0.2177
 7302SOL     OW33541   4.199   2.837   1.929  0.0483 -0.2185 -0.1454
 7302SOL    HW133542   4.270   2.783   1.896 -0.7522 -2.1171  1.2939
 7302SOL    HW233543   4.237   2.884   2.004  0.1825  0.4074 -0.6068
 7303SOL     OW33544   4.068   4.031   4.929  0.1209  0.3762  1.0381
 7303SOL    HW133545   3.997   3.966   4.921  0.5871  0.4589 -3.8949
 7303SOL    HW233546   4.050   4.090   4.856 -0.7407 -1.8706 -0.5711
 7304SOL     OW33547   2.602   4.255   4.462 -0.1506  0.0969 -0.5110
 7304SOL    HW133548   2.532   4.262   4.397 -1.7432 -2.1486  0.9893
 7304SOL    HW233549   2.629   4.347   4.472  0.1680 -0.0215 -0.2627
 7305SOL     OW33550   0.265   1.129  13.636  0.1393  0.1450  0.6067
 7305SOL    HW133551   0.261   1.184  13.558  1.1725  2.2498  2.0425
 7305SOL    HW233552   0.192   1.162  13.689 -1.6318 -1.6052 -0.7162
 7306SOL     OW33553   4.500   0.257   7.154 -0.3695  0.0623  0.1428
 7306SOL    HW133554   4.529   0.317   7.222  1.1078  1.7835 -2.0172
 7306SOL    HW233555   4.420   0.300   7.124  1.0731  0.0612 -3.7556
 7307SOL     OW33556   1.389   2.007   8.280  0.2498 -0.2139 -0.1656
 7307SOL    HW133557   1.344   1.999   8.196  0.6515 -0.2771 -0.3724
 7307SOL    HW233558   1.456   2.070   8.254  0.6445 -0.0283  1.2872
 7308SOL     OW33559   1.362   2.533   2.524 -0.5546  0.1432  0.4515
 7308SOL    HW133560   1.312   2.604   2.564 -1.1001  0.7908 -1.3701
 7308SOL    HW233561   1.371   2.470   2.596  0.4626 -1.3503 -0.9901
 7309SOL     OW33562   3.069   1.066   4.733 -0.2509  0.5849  0.0526
 7309SOL    HW133563   3.153   1.020   4.734 -0.3467  0.3460 -1.7561
 7309SOL    HW233564   3.066   1.127   4.806 -0.3192  0.9994 -0.2946
 7310SOL     OW33565   2.668   0.079   5.169  0.1653 -0.0784  0.2890
 7310SOL    HW133566   2.700   0.122   5.249 -2.2627  0.1470  1.1397
 7310SOL    HW233567   2.732   0.010   5.153  0.8440  1.4146 -3.4868
 7311SOL     OW33568   3.593   2.860   6.552  0.3350  0.2022 -0.9666
 7311SOL    HW133569   3.562   2.803   6.481  1.0111 -0.1903 -0.9387
 7311SOL    HW233570   3.643   2.928   6.506  1.3825 -1.0272 -1.6455
 7312SOL     OW33571   3.321   2.675   5.644  0.2462 -0.1127 -0.7416
 7312SOL    HW133572   3.370   2.749   5.609  1.5830 -0.7696 -0.2738
 7312SOL    HW233573   3.384   2.603   5.635 -0.1403 -0.4617 -0.6726
 7313SOL     OW33574   1.516   4.353   7.400 -0.0551  0.3578 -0.1777
 7313SOL    HW133575   1.538   4.432   7.351  1.4819  0.2956  0.3799
 7313SOL    HW233576   1.590   4.296   7.380 -0.8521 -1.5417  2.2059
 7314SOL     OW33577   2.948   3.860  10.956  0.0418 -0.0907  0.4452
 7314SOL    HW133578   2.924   3.772  10.928 -0.2577  0.3807 -0.7664
 7314SOL    HW233579   3.001   3.840  11.033 -0.4378 -0.1889  0.7513
 7315SOL     OW33580   1.095   3.668  16.856  0.2034 -0.5857  0.0815
 7315SOL    HW133581   1.189   3.667  16.873  0.2915  0.0570 -0.3525
 7315SOL    HW233582   1.087   3.623  16.773 -0.6775  0.3293 -0.3351
 7316SOL     OW33583   3.425   0.499  15.631  0.7160 -0.6861 -0.2350
 7316SOL    HW133584   3.416   0.578  15.685 -0.3714 -1.3326  0.5346
 7316SOL    HW233585   3.330   0.491  15.628  0.5087  1.4899  0.3296
 7317SOL     OW33586   4.039   1.035  15.524 -0.1830  0.2490 -0.1716
 7317SOL    HW133587   3.979   1.108  15.510 -1.1974 -0.5104  0.2409
 7317SOL    HW233588   4.022   0.976  15.451 -0.3627  1.6117 -1.2354
 7318SOL     OW33589   0.553   2.399   3.129  0.3594  0.3713 -0.2548
 7318SOL    HW133590   0.498   2.326   3.099 -1.6207  1.2712  1.2263
 7318SOL    HW233591   0.490   2.470   3.116  0.5073  0.2971 -1.3869
 7319SOL     OW33592   1.066   3.291   2.736  0.3719 -0.3062  0.3224
 7319SOL    HW133593   1.000   3.357   2.761  1.9308  0.4148  2.5045
 7319SOL    HW233594   1.010   3.220   2.705  0.2798  0.1302 -0.5092
 7320SOL     OW33595   3.151   3.232   0.709  0.4192  0.4866  0.0463
 7320SOL    HW133596   3.132   3.140   0.692  2.5399 -0.0427  0.6271
 7320SOL    HW233597   3.168   3.269   0.622  0.6680 -0.3089 -0.2441
 7321SOL     OW33598   4.391   3.186  11.101 -0.3450  0.1158  0.4290
 7321SOL    HW133599   4.406   3.102  11.146 -0.4576 -0.5378 -0.7590
 7321SOL    HW233600   4.434   3.160  11.020 -0.5582  1.9531 -0.2566
 7322SOL     OW33601   0.354   3.326  10.090 -0.6198  0.4154 -0.1106
 7322SOL    HW133602   0.409   3.258  10.052 -1.1211 -0.1844  0.2271
 7322SOL    HW233603   0.344   3.387  10.017 -0.7465 -0.9389 -1.2351
 7323SOL     OW33604   0.597   1.895   0.024  0.1399  0.1129  0.2969
 7323SOL    HW133605   0.553   1.821  17.727  0.5158 -0.2245  0.4942
 7323SOL    HW233606   0.615   1.866   0.113  0.3721 -1.2855 -0.2116
 7324SOL     OW33607   4.647   4.426  11.557  0.4034 -0.1821  0.4321
 7324SOL    HW133608   4.718   4.365  11.536 -0.0737 -0.4036 -0.5393
 7324SOL    HW233609   4.690   4.488  11.616  1.4294 -0.3593 -0.1190
 7325SOL     OW33610   2.017   0.026   7.136  0.3465 -0.7008  0.0537
 7325SOL    HW133611   2.021   0.075   7.054 -1.5760  2.0273  1.5587
 7325SOL    HW233612   2.100   0.063   7.167 -0.9024  3.0316 -0.9728
 7326SOL     OW33613   0.212   2.748   8.993  0.2267 -0.4748 -0.6332
 7326SOL    HW133614   0.170   2.793   8.920 -1.1494  0.5963  0.8437
 7326SOL    HW233615   0.295   2.795   9.006 -0.0846  0.0716 -0.6337
 7327SOL     OW33616   3.833   3.364   9.805 -0.3223  0.3077 -0.0194
 7327SOL    HW133617   3.852   3.371   9.898 -2.6489  0.7501  0.4215
 7327SOL    HW233618   3.889   3.429   9.763  0.7202 -1.5497 -1.5377
 7328SOL     OW33619   0.032   1.100   7.142  0.2462 -0.2704 -0.4339
 7328SOL    HW133620   0.014   1.194   7.146 -1.4377 -0.6862  1.6672
 7328SOL    HW233621   0.000   1.066   7.226  2.2535 -3.2337 -0.8665
 7329SOL     OW33622   2.075   0.235   7.449  0.0019  0.6511  0.3154
 7329SOL    HW133623   1.985   0.218   7.476  0.3142 -1.5856 -0.0081
 7329SOL    HW233624   2.061   0.275   7.363  2.2913 -0.4847 -0.5984
 7330SOL     OW33625   1.055   2.193   1.485  0.2583 -0.2807 -0.2376
 7330SOL    HW133626   1.013   2.250   1.550  0.5162  0.0781 -0.3831
 7330SOL    HW233627   1.043   2.107   1.525 -1.0792 -0.5591 -1.2443
 7331SOL     OW33628   4.159   2.091   5.826 -0.7509  0.2189 -0.2538
 7331SOL    HW133629   4.221   2.126   5.890 -0.8160  0.8693 -0.5497
 7331SOL    HW233630   4.154   1.997   5.845  2.0203  0.6358  2.4888
 7332SOL     OW33631   0.771   3.730   6.152 -0.3129  0.2106  0.1964
 7332SOL    HW133632   0.794   3.816   6.187 -0.4603  1.0643 -1.7833
 7332SOL    HW233633   0.854   3.686   6.174 -0.7388 -0.3276  0.7214
 7333SOL     OW33634   2.673   2.380   3.419 -0.1463  0.1692  0.2134
 7333SOL    HW133635   2.697   2.389   3.511  3.4466 -2.2786 -0.4726
 7333SOL    HW233636   2.673   2.471   3.389 -2.0139  0.5819  1.4581
 7334SOL     OW33637   3.435   3.504   3.278  0.4106  0.2398 -0.3544
 7334SOL    HW133638   3.457   3.516   3.186 -1.3913  0.7569 -0.7009
 7334SOL    HW233639   3.495   3.430   3.296 -0.7743 -0.3813  1.0776
 7335SOL     OW33640   1.279   1.042   5.367  0.0126  0.1567  0.1542
 7335SOL    HW133641   1.373   1.030   5.378 -0.0881 -0.7025  0.0399
 7335SOL    HW233642   1.240   1.029   5.453 -0.9547 -1.2601 -0.4819
 7336SOL     OW33643   1.488   4.450   4.587  0.3564  0.5632 -0.4192
 7336SOL    HW133644   1.531   4.478   4.506 -0.2068 -0.0071 -0.9116
 7336SOL    HW233645   1.455   4.367   4.554  1.3825  0.6313 -1.5946
 7337SOL     OW33646   1.790   0.311   7.562  0.2542  0.4148 -0.1968
 7337SOL    HW133647   1.761   0.240   7.504 -1.2492 -0.0077  1.0664
 7337SOL    HW233648   1.809   0.261   7.641 -0.1708 -0.4688 -0.6522
 7338SOL     OW33649   2.971   3.704   9.139  0.0568 -0.0611 -0.7828
 7338SOL    HW133650   2.980   3.689   9.233  0.4584 -0.2014 -0.8408
 7338SOL    HW233651   2.879   3.700   9.115  0.0735  0.5777 -0.9586
 7339SOL     OW33652   3.624   2.515   6.587 -0.0849 -0.1610 -0.2578
 7339SOL    HW133653   3.673   2.433   6.578  0.0778 -0.3892  2.5079
 7339SOL    HW233654   3.580   2.523   6.503  1.5468  1.4914 -0.9407
 7340SOL     OW33655   3.291   3.727   6.295 -0.0613 -0.1558 -0.7535
 7340SOL    HW133656   3.271   3.655   6.235 -1.4011 -0.8305  0.4886
 7340SOL    HW233657   3.378   3.746   6.260  0.4273 -2.7667 -0.9411
 7341SOL     OW33658   1.574   3.619   6.301 -0.2480  0.1327  0.0727
 7341SOL    HW133659   1.530   3.543   6.263 -0.2501 -0.2289  0.7883
 7341SOL    HW233660   1.660   3.578   6.297 -0.8674 -1.1992  0.3233
 7342SOL     OW33661   0.570   2.090   9.596 -0.7600 -0.4725 -0.0126
 7342SOL    HW133662   0.528   2.124   9.675 -1.5761 -1.3892 -0.0538
 7342SOL    HW233663   0.584   2.167   9.542  2.6000 -3.0968 -2.8791
 7343SOL     OW33664   1.257   0.175  11.823 -0.4904 -0.1489  0.0614
 7343SOL    HW133665   1.203   0.130  11.888  1.2752 -0.3959  1.3440
 7343SOL    HW233666   1.257   0.265  11.855  1.3465  0.3167 -1.2331
 7344SOL     OW33667   0.442   2.808  17.249 -0.3777 -0.1649  0.3008
 7344SOL    HW133668   0.503   2.735  17.237  1.6262  1.4956  0.3295
 7344SOL    HW233669   0.433   2.786  17.341  0.3753  0.9051  0.6373
 7345SOL     OW33670   4.185   1.119   4.276 -0.3570 -0.0631  0.3474
 7345SOL    HW133671   4.266   1.154   4.238 -1.3860  0.5724 -1.2540
 7345SOL    HW233672   4.124   1.164   4.218  0.7367  0.5846 -0.3083
 7346SOL     OW33673   4.004   2.499   6.983 -0.5347  0.2501  0.2086
 7346SOL    HW133674   3.996   2.592   6.961 -0.2675  0.0208 -0.8671
 7346SOL    HW233675   4.003   2.513   7.078  0.3180  0.1265  0.2435
 7347SOL     OW33676   0.799   2.702   8.583  0.1867  0.0142  0.7038
 7347SOL    HW133677   0.873   2.647   8.560  0.4710  0.8902 -0.4754
 7347SOL    HW233678   0.727   2.666   8.531  1.0704 -1.9879  0.8631
 7348SOL     OW33679   1.454   4.610  12.703  0.0686  0.6532  0.6800
 7348SOL    HW133680   1.395   4.683  12.722 -1.7677 -0.7953  0.4964
 7348SOL    HW233681   1.519   4.661  12.655 -0.0710  0.5534  0.3881
 7349SOL     OW33682   1.301   0.153   8.210 -0.1869 -0.1735  0.2832
 7349SOL    HW133683   1.297   0.070   8.162 -1.0940  0.1913 -0.2672
 7349SOL    HW233684   1.211   0.150   8.242 -0.5635  2.4802 -0.5284
 7350SOL     OW33685   0.110   4.533   2.793 -0.4269  0.3287  0.0559
 7350SOL    HW133686   0.190   4.585   2.797  0.4322 -1.1284  2.4570
 7350SOL    HW233687   0.105   4.499   2.883 -0.6063 -2.3680 -0.9748
 7351SOL     OW33688   4.186   2.747  13.968 -0.6728 -0.1494  0.0946
 7351SOL    HW133689   4.153   2.660  13.943  0.5755 -0.4290 -0.5775
 7351SOL    HW233690   4.152   2.808  13.903 -1.1192 -0.9306 -0.4108
 7352SOL     OW33691   0.256   0.344   6.091 -0.1844  0.8185 -0.2821
 7352SOL    HW133692   0.211   0.347   6.006  3.4061  0.1068 -2.1809
 7352SOL    HW233693   0.335   0.395   6.078  0.5697 -0.2669  0.0334
 7353SOL     OW33694   3.745   1.763   3.269  0.0071  0.1686 -0.1613
 7353SOL    HW133695   3.729   1.786   3.177  0.2540  1.7423  0.2029
 7353SOL    HW233696   3.704   1.676   3.265  1.1783 -0.3316 -1.6066
 7354SOL     OW33697   2.409   1.205   1.319 -0.1881  0.1431  0.3471
 7354SOL    HW133698   2.440   1.196   1.409 -0.5248  0.6970  0.5188
 7354SOL    HW233699   2.459   1.136   1.277  1.1476  1.6625 -0.5564
 7355SOL     OW33700   1.045   3.488   9.601  0.0263  0.6275 -0.4077
 7355SOL    HW133701   1.069   3.480   9.693  0.8773  0.8749 -0.6079
 7355SOL    HW233702   1.129   3.507   9.559  1.4548 -2.8025  0.9288
 7356SOL     OW33703   0.387   2.786   3.313 -0.7141 -0.4702  0.3152
 7356SOL    HW133704   0.388   2.703   3.360  1.9194 -1.1687 -0.9637
 7356SOL    HW233705   0.294   2.809   3.321 -0.7997 -0.5954 -0.3155
 7357SOL     OW33706   2.575   1.102   1.031 -0.2548  0.2079 -0.2553
 7357SOL    HW133707   2.669   1.116   1.044 -0.2912  1.1628 -0.9382
 7357SOL    HW233708   2.585   1.080   0.938 -0.3034  1.2933 -0.5229
 7358SOL     OW33709   4.275   0.721   8.128  0.5333 -0.6657 -0.4057
 7358SOL    HW133710   4.364   0.687   8.136  1.0040  0.2882 -1.5785
 7358SOL    HW233711   4.295   0.809   8.159  0.2389 -0.2602 -1.3443
 7359SOL     OW33712   4.134   3.994   6.246 -0.8587 -0.1016 -0.6175
 7359SOL    HW133713   4.109   3.908   6.213 -0.2888 -0.4140 -0.2339
 7359SOL    HW233714   4.225   3.987   6.216 -0.0160  2.4899  1.3236
 7360SOL     OW33715   3.401   3.427  13.858 -0.6285  0.5240  0.3515
 7360SOL    HW133716   3.480   3.475  13.833  1.6466 -4.1001 -1.2781
 7360SOL    HW233717   3.344   3.446  13.783  0.7680  1.5672 -0.4458
 7361SOL     OW33718   4.717   2.842   9.502 -0.0339 -0.0251 -0.3815
 7361SOL    HW133719   4.696   2.859   9.593  1.9538  1.7524 -0.2740
 7361SOL    HW233720   4.692   2.917   9.449 -1.7536  0.3158  0.9174
 7362SOL     OW33721   3.848   2.018   8.569  0.2869 -0.2272  0.4509
 7362SOL    HW133722   3.941   2.038   8.559 -0.0382  1.0751  0.0234
 7362SOL    HW233723   3.819   2.092   8.622 -1.2391 -1.0931  0.8315
 7363SOL     OW33724   4.182   2.874   5.759  0.6617  0.0712  0.3080
 7363SOL    HW133725   4.200   2.783   5.782  0.7097 -0.1313 -0.5434
 7363SOL    HW233726   4.249   2.891   5.693 -0.4287  2.0760 -0.2901
 7364SOL     OW33727   2.594   1.011  11.750  0.1621  0.2869 -0.3578
 7364SOL    HW133728   2.547   0.987  11.670  0.5042  1.1373 -0.8071
 7364SOL    HW233729   2.533   1.067  11.798 -0.1911 -0.7897  0.4663
 7365SOL     OW33730   0.744   3.947   2.803 -0.2510 -0.6673 -0.4909
 7365SOL    HW133731   0.656   3.920   2.831  0.6249 -2.8526  0.2082
 7365SOL    HW233732   0.794   3.868   2.824 -0.8885 -1.5864 -2.3893
 7366SOL     OW33733   1.742   1.741   2.475  0.4467  0.1284 -0.5918
 7366SOL    HW133734   1.776   1.702   2.395  1.0451 -1.3422  0.3774
 7366SOL    HW233735   1.703   1.662   2.511  0.0359 -0.1169 -1.5777
 7367SOL     OW33736   2.742   1.215   6.127  0.0394 -0.1332  0.2406
 7367SOL    HW133737   2.673   1.189   6.066  0.9292 -2.1152  0.0860
 7367SOL    HW233738   2.791   1.283   6.080  0.7204  0.4983  1.8463
 7368SOL     OW33739   3.832   0.095   5.588  0.1331  0.1698  0.2010
 7368SOL    HW133740   3.869   0.007   5.580 -1.7753 -0.5198 -1.0950
 7368SOL    HW233741   3.770   0.093   5.515 -0.9960 -0.4724  1.1999
 7369SOL     OW33742   1.931   4.682   4.120 -0.6237 -0.1778 -0.2437
 7369SOL    HW133743   1.890   0.029   4.097 -1.6371 -0.2749  1.1902
 7369SOL    HW233744   1.859   4.621   4.110 -1.2984  0.7195 -0.8214
 7370SOL     OW33745   1.223   3.559   0.822  0.2659 -0.0062  0.1912
 7370SOL    HW133746   1.209   3.584   0.913 -1.2137  1.7356 -0.5118
 7370SOL    HW233747   1.144   3.591   0.778  0.3104  1.1064  0.9282
 7371SOL     OW33748   1.841   2.443   0.212 -0.4849  0.2484 -0.2298
 7371SOL    HW133749   1.748   2.456   0.229 -0.9620 -1.0931 -1.8514
 7371SOL    HW233750   1.844   2.368   0.153 -0.4253 -0.3281  0.5137
 7372SOL     OW33751   2.736   1.517  13.445  0.2936 -0.2177 -0.8001
 7372SOL    HW133752   2.763   1.520  13.537 -0.7411  1.1964 -0.5351
 7372SOL    HW233753   2.753   1.606  13.414 -0.4211 -0.0157 -0.6169
 7373SOL     OW33754   2.860   2.130   2.070  0.4487 -0.8251 -0.1683
 7373SOL    HW133755   2.801   2.099   2.138  2.1798 -1.3755  1.0878
 7373SOL    HW233756   2.791   2.165   2.012  0.5797 -0.2401  0.0273
 7374SOL     OW33757   2.150   0.455   4.972 -0.2117 -0.4911 -0.3687
 7374SOL    HW133758   2.190   0.509   4.903 -0.5508  1.0612  0.6329
 7374SOL    HW233759   2.091   0.525   5.001 -0.0353 -1.6249  2.6830
 7375SOL     OW33760   4.190   1.602   9.936  0.1846 -0.3285 -0.1723
 7375SOL    HW133761   4.181   1.661  10.012  1.8463 -1.7656  1.1168
 7375SOL    HW233762   4.132   1.655   9.881  0.8933  0.4568 -0.1605
 7376SOL     OW33763   4.476   0.986   9.497 -0.5528 -0.3456 -0.0476
 7376SOL    HW133764   4.466   1.081   9.504 -0.3283 -0.2442 -1.0178
 7376SOL    HW233765   4.416   0.956   9.565 -0.3476  1.8400  1.0773
 7377SOL     OW33766   1.565   1.197   5.560 -0.4977 -0.1338  0.5553
 7377SOL    HW133767   1.562   1.288   5.590  0.3622 -0.0652  0.4569
 7377SOL    HW233768   1.538   1.195   5.469 -0.3778 -1.4371  0.5469
 7378SOL     OW33769   2.957   0.050   5.940  0.2284  0.4221  0.1979
 7378SOL    HW133770   2.906   0.084   5.866  1.1303 -1.2216 -1.1689
 7378SOL    HW233771   3.004   4.713   5.903  1.6143  1.7939 -0.7839
 7379SOL     OW33772   2.636   4.393   8.133  0.1004 -0.4528  0.0293
 7379SOL    HW133773   2.708   4.371   8.193  0.0339  0.4301  0.4287
 7379SOL    HW233774   2.636   4.332   8.059  3.6411  1.2615 -1.3549
 7380SOL     OW33775   2.016   2.414  10.003 -0.0412  0.3673  0.4811
 7380SOL    HW133776   2.030   2.370   9.919  0.0370  0.4008  0.4757
 7380SOL    HW233777   1.943   2.472   9.981  0.7647  0.5736 -1.7044
 7381SOL     OW33778   2.379   2.827   2.685 -0.3224  0.4157 -0.6311
 7381SOL    HW133779   2.385   2.858   2.776 -0.5354 -0.2317 -0.3918
 7381SOL    HW233780   2.288   2.850   2.666 -0.8306 -1.3879 -0.4000
 7382SOL     OW33781   4.583   3.500   3.108 -0.2190  0.2025 -0.7664
 7382SOL    HW133782   4.666   3.462   3.137 -0.2816  0.7441  0.1241
 7382SOL    HW233783   4.579   3.588   3.147  1.3642 -0.9994  2.1140
 7383SOL     OW33784   4.373   2.704   3.693  0.1438  0.1883  0.3671
 7383SOL    HW133785   4.303   2.677   3.633 -1.7623  1.3532  2.0335
 7383SOL    HW233786   4.393   2.790   3.655 -3.2310  0.1272 -1.6085
 7384SOL     OW33787   0.192   3.293  11.939  0.0887  0.0020 -0.3566
 7384SOL    HW133788   0.104   3.331  11.938 -1.2592 -3.1451  1.4354
 7384SOL    HW233789   0.237   3.349  11.875  0.0653  0.1273 -0.2637
 7385SOL     OW33790   4.135   4.420   8.042  0.1924  0.3001 -0.1251
 7385SOL    HW133791   4.143   4.340   7.990 -1.6335 -0.1332  0.2740
 7385SOL    HW233792   4.055   4.444   7.997 -0.9689 -0.3217  1.6177
 7386SOL     OW33793   4.668   1.824  11.186 -0.5072  0.5798 -0.1516
 7386SOL    HW133794   4.647   1.771  11.109 -0.2389 -1.0268  0.8929
 7386SOL    HW233795   4.613   1.901  11.170  0.1001  1.0678  0.1346
 7387SOL     OW33796   1.487   1.613   6.430 -0.6683  0.0268 -0.3906
 7387SOL    HW133797   1.498   1.637   6.522  1.9948  0.0464 -0.7139
 7387SOL    HW233798   1.558   1.553   6.406 -1.4595 -1.1649  0.2049
 7388SOL     OW33799   4.682   0.469   5.353  0.0298  0.0498  0.0124
 7388SOL    HW133800   4.703   0.560   5.333 -2.5698 -0.0505 -3.1912
 7388SOL    HW233801   4.588   0.473   5.336  0.2295 -0.2708 -1.2087
 7389SOL     OW33802   3.990   2.013   5.434  0.3190 -0.5355 -0.1592
 7389SOL    HW133803   3.980   1.932   5.484  1.9151 -2.6680 -3.3934
 7389SOL    HW233804   3.896   2.025   5.417  0.0924 -1.1373  0.6578
 7390SOL     OW33805   2.499   4.246  15.816 -0.0403 -0.0550 -0.0491
 7390SOL    HW133806   2.540   4.166  15.784  1.0667  0.6753 -0.4786
 7390SOL    HW233807   2.418   4.233  15.766 -0.2933 -1.1318  0.6423
 7391SOL     OW33808   4.415   0.020   7.048  0.3512 -0.0772 -0.3517
 7391SOL    HW133809   4.489   0.025   6.987 -1.2368  4.6159 -1.8730
 7391SOL    HW233810   4.440   0.093   7.104 -2.1332  1.7128 -1.5539
 7392SOL     OW33811   3.919   0.103   9.611 -0.1069 -0.3478  0.1253
 7392SOL    HW133812   3.859   0.176   9.594 -0.6030 -0.4228  1.5028
 7392SOL    HW233813   3.955   0.145   9.690  1.4954 -1.7949  0.1489
 7393SOL     OW33814   2.158   3.876   4.022 -0.7790 -0.3710 -0.2543
 7393SOL    HW133815   2.069   3.865   4.055 -0.9353  1.2702 -0.1038
 7393SOL    HW233816   2.167   3.807   3.956 -1.4720  0.2855 -1.0317
 7394SOL     OW33817   2.611   2.940  10.447  0.1733 -0.0117  0.6739
 7394SOL    HW133818   2.579   3.012  10.392  0.3764 -0.1933  0.3185
 7394SOL    HW233819   2.699   2.968  10.471  0.1911 -0.1114  0.7268
 7395SOL     OW33820   1.437   1.100   3.559 -0.0832  0.5197  0.1480
 7395SOL    HW133821   1.532   1.089   3.564 -0.0754 -0.0410 -1.1952
 7395SOL    HW233822   1.425   1.134   3.470 -2.3216 -2.0145 -0.5114
 7396SOL     OW33823   1.236   4.638  16.256  0.2498 -0.2804  0.6327
 7396SOL    HW133824   1.205   4.710  16.202  3.5095  0.4925 -0.1678
 7396SOL    HW233825   1.182   4.571  16.214 -2.1389  0.4087  2.5985
 7397SOL     OW33826   3.710   2.163   9.328 -0.8289 -0.3554  0.0040
 7397SOL    HW133827   3.624   2.189   9.359 -0.0416  0.3733  1.6187
 7397SOL    HW233828   3.760   2.243   9.346 -2.6593  0.9331 -0.6445
 7398SOL     OW33829   0.119   2.261   7.328  0.1693 -0.1325 -0.1548
 7398SOL    HW133830   0.145   2.343   7.287  0.5284 -0.3380 -0.3370
 7398SOL    HW233831   0.132   2.196   7.259  0.0362 -1.1593  0.7923
 7399SOL     OW33832   0.717   2.549  15.921  0.3489 -0.0960 -0.1344
 7399SOL    HW133833   0.760   2.538  16.006  1.5490 -1.6569 -0.9469
 7399SOL    HW233834   0.632   2.514  15.947 -0.4451  1.4839 -0.6193
 7400SOL     OW33835   4.373   2.833  15.127  0.0680  0.0923 -0.7004
 7400SOL    HW133836   4.451   2.885  15.148  0.2866  0.4293 -2.4053
 7400SOL    HW233837   4.355   2.863  15.038 -0.7995  2.2229  0.1998
 7401SOL     OW33838   1.748   3.280   0.712  0.3622 -0.1589  0.3087
 7401SOL    HW133839   1.702   3.203   0.745  0.6243 -1.7960 -3.1832
 7401SOL    HW233840   1.715   3.287   0.623 -1.3916 -0.0295  0.9812
 7402SOL     OW33841   1.165   2.408  13.371  0.0406  1.1128 -0.2371
 7402SOL    HW133842   1.095   2.406  13.306  0.6267  0.6197 -0.8501
 7402SOL    HW233843   1.229   2.352  13.327 -2.2354 -1.6053 -0.0487
 7403SOL     OW33844   3.819   0.668   3.308 -0.4271 -0.4034 -0.1743
 7403SOL    HW133845   3.808   0.598   3.244 -2.6943 -0.7849  0.6409
 7403SOL    HW233846   3.895   0.645   3.361 -0.2342  0.2301 -0.1740
 7404SOL     OW33847   0.914   3.403  16.636 -0.1823  0.5830  1.3072
 7404SOL    HW133848   0.988   3.440  16.683  1.3432  1.1247 -1.5223
 7404SOL    HW233849   0.874   3.335  16.690  1.0106 -0.9312  0.2976
 7405SOL     OW33850   3.209   3.356   6.264  0.4544  0.4213 -0.1556
 7405SOL    HW133851   3.263   3.342   6.186 -1.5857 -2.1023 -1.1213
 7405SOL    HW233852   3.274   3.330   6.328  0.2067  0.3199  0.0540
 7406SOL     OW33853   1.042   2.672   5.934  0.0575  0.1324 -0.6495
 7406SOL    HW133854   1.063   2.605   6.000 -2.7579 -0.8186 -0.7259
 7406SOL    HW233855   0.947   2.665   5.937  0.1196 -0.1381  0.7560
 7407SOL     OW33856   4.426   1.569   9.776 -0.5753  0.5888  0.1094
 7407SOL    HW133857   4.353   1.603   9.828 -1.2924 -2.4604  1.0858
 7407SOL    HW233858   4.487   1.642   9.767  0.0126  0.0427 -0.3170
 7408SOL     OW33859   1.749   3.632   8.138  0.0732 -0.1529 -0.2526
 7408SOL    HW133860   1.686   3.672   8.078 -0.0804 -2.3382 -1.5420
 7408SOL    HW233861   1.749   3.542   8.106 -0.4727 -0.7156  1.3561
 7409SOL     OW33862   4.702   2.273   2.934 -0.9772  0.0863  0.0940
 7409SOL    HW133863   4.614   2.309   2.926 -1.4698 -0.8736  1.2111
 7409SOL    HW233864   0.022   2.344   2.963 -1.2242  0.1831  0.3363
 7410SOL     OW33865   4.090   3.757   9.096 -0.1310 -0.4200 -0.2294
 7410SOL    HW133866   4.135   3.740   9.013 -1.5296  1.7890 -1.4260
 7410SOL    HW233867   4.033   3.833   9.095  1.4804  0.7815 -0.9784
 7411SOL     OW33868   4.558   3.581   6.264  0.1032 -0.4133  0.3030
 7411SOL    HW133869   4.528   3.490   6.257  1.7401 -0.7410 -2.6409
 7411SOL    HW233870   4.642   3.555   6.302  0.5869  1.0168  0.1868
 7412SOL     OW33871   3.292   4.355   5.785 -0.0066 -0.4346  0.1571
 7412SOL    HW133872   3.292   4.306   5.703  0.8849 -0.9312  0.4472
 7412SOL    HW233873   3.246   4.436   5.766 -0.8423 -0.8979  0.1949
 7413SOL     OW33874   4.131   1.208   6.622  0.0746  0.1798  0.2239
 7413SOL    HW133875   4.190   1.220   6.696 -0.7413  0.8666  0.7579
 7413SOL    HW233876   4.124   1.113   6.633 -1.2377  0.1010 -1.1896
 7414SOL     OW33877   1.603   3.903   4.502 -0.4749  0.2998 -0.0663
 7414SOL    HW133878   1.619   3.866   4.415 -1.1471 -1.0639  0.3851
 7414SOL    HW233879   1.542   3.976   4.489 -1.0899 -0.2499 -0.3362
 7415SOL     OW33880   4.680   0.548   2.087  0.1545  0.1428 -0.1135
 7415SOL    HW133881   0.015   0.578   2.143 -0.7504 -0.1480  1.1873
 7415SOL    HW233882   4.656   0.464   2.125  1.7787 -1.4384 -2.5724
 7416SOL     OW33883   1.287   1.536   4.656 -0.0117  0.1671 -0.5703
 7416SOL    HW133884   1.236   1.515   4.577 -1.8263 -2.8462  1.4132
 7416SOL    HW233885   1.228   1.593   4.705  0.2704  0.4404 -0.5546
 7417SOL     OW33886   3.839   3.952  10.996  0.2636 -0.2396 -0.4801
 7417SOL    HW133887   3.759   3.902  11.007 -0.2961  0.5737 -0.8422
 7417SOL    HW233888   3.897   3.897  11.049  1.8875  0.9646 -0.9756
 7418SOL     OW33889   0.359   4.249   4.127 -0.2081 -0.6922 -0.0149
 7418SOL    HW133890   0.355   4.169   4.180 -0.9863 -0.5135  0.2089
 7418SOL    HW233891   0.276   4.286   4.157  0.2604  2.6292 -2.8192
 7419SOL     OW33892   3.097   0.228   3.677  0.0732  0.3733  0.0030
 7419SOL    HW133893   3.173   0.210   3.622 -1.4147 -0.1747 -1.9061
 7419SOL    HW233894   3.061   0.312   3.647 -0.2011  1.0775  2.3009
 7420SOL     OW33895   2.113   1.545   9.358 -0.5788  0.5811 -0.4915
 7420SOL    HW133896   2.063   1.474   9.317 -2.2205 -0.5464  3.4530
 7420SOL    HW233897   2.195   1.551   9.309  0.1728 -1.3213  0.5693
 7421SOL     OW33898   0.490   3.994  13.595  0.2365  0.0950 -0.1942
 7421SOL    HW133899   0.399   3.963  13.593  0.3795 -0.3229 -0.2364
 7421SOL    HW233900   0.462   4.085  13.603  0.7665  0.1896  0.6573
 7422SOL     OW33901   1.458   1.300   6.310 -0.1283 -0.5561 -0.6538
 7422SOL    HW133902   1.419   1.213   6.307 -0.0557 -0.6018 -0.2345
 7422SOL    HW233903   1.416   1.348   6.381  2.2517  0.5973  0.0019
 7423SOL     OW33904   2.606   2.896   3.087 -0.0148  0.8767 -0.3989
 7423SOL    HW133905   2.606   2.991   3.092  1.3706  0.8432  0.2858
 7423SOL    HW233906   2.698   2.870   3.098 -0.8032 -1.5524  0.4115
 7424SOL     OW33907   1.677   0.758   2.880  0.3073 -0.1792 -0.0131
 7424SOL    HW133908   1.717   0.809   2.810 -1.4177  2.1688  0.7237
 7424SOL    HW233909   1.650   0.825   2.942  1.8632  0.0490  0.4076
 7425SOL     OW33910   2.186   4.419   7.900 -0.4936 -0.4061  0.2641
 7425SOL    HW133911   2.135   4.338   7.898 -2.5341  0.9475 -1.7466
 7425SOL    HW233912   2.186   4.441   7.993 -0.9011  1.4882 -0.1959
 7426SOL     OW33913   0.542   1.563   0.188  0.2593  0.2181 -0.2821
 7426SOL    HW133914   0.587   1.643   0.215  0.3529  0.1583 -0.2619
 7426SOL    HW233915   0.571   1.490   0.242 -0.7398 -0.7724 -1.0818
 7427SOL     OW33916   2.257   1.995   9.527 -0.0755  0.1130  0.2082
 7427SOL    HW133917   2.172   2.008   9.485 -0.5856  0.5346  1.3827
 7427SOL    HW233918   2.243   1.908   9.563  2.6847 -1.0353 -1.4794
 7428SOL     OW33919   0.051   1.082   0.702  0.4334  0.0757 -1.0772
 7428SOL    HW133920   4.700   1.118   0.714  0.0784 -1.9704  2.5005
 7428SOL    HW233921   0.101   1.154   0.663  1.7088  0.3687  1.1036
 7429SOL     OW33922   0.286   0.809   2.874 -0.0321  0.3661 -0.1802
 7429SOL    HW133923   0.273   0.748   2.802  0.4281  1.3153 -1.0765
 7429SOL    HW233924   0.380   0.810   2.893  0.0615 -2.1239 -0.4940
 7430SOL     OW33925   0.364   3.068   7.846 -0.3140 -0.0172 -0.4674
 7430SOL    HW133926   0.273   3.080   7.818 -1.0238  0.3383  2.0359
 7430SOL    HW233927   0.368   2.973   7.862  3.2303  0.1936 -0.0841
 7431SOL     OW33928   1.335   4.171  14.622  0.9526  0.3973  0.0605
 7431SOL    HW133929   1.336   4.155  14.528  2.1444  0.1354  0.1138
 7431SOL    HW233930   1.242   4.192  14.629  0.9405  0.9994 -2.0811
 7432SOL     OW33931   3.779   0.711  16.488  0.1708 -0.2548  0.3725
 7432SOL    HW133932   3.840   0.646  16.454  0.3193  0.9031 -1.6042
 7432SOL    HW233933   3.786   0.696  16.582  0.7150  3.1200  0.8681
 7433SOL     OW33934   4.524   2.950   7.791  0.1263 -0.5688 -0.1007
 7433SOL    HW133935   4.478   3.033   7.784  0.4999 -0.3722 -0.2392
 7433SOL    HW233936   4.598   2.987   7.840  0.7923  0.6751 -2.0612
 7434SOL     OW33937   1.873   2.559  16.433 -0.2043 -0.6608 -0.3677
 7434SOL    HW133938   1.924   2.624  16.481 -2.7734  0.1655  1.2596
 7434SOL    HW233939   1.782   2.579  16.457 -0.5246  1.4166 -3.4002
 7435SOL     OW33940   2.032   2.421   5.371 -0.3465  0.2886 -0.6552
 7435SOL    HW133941   1.952   2.429   5.320 -1.3700  0.6164  0.9894
 7435SOL    HW233942   2.033   2.325   5.368  0.2817  0.2203  1.5337
 7436SOL     OW33943   1.630   3.523   9.185 -0.0259 -0.0592 -0.2397
 7436SOL    HW133944   1.578   3.601   9.205 -0.3878 -0.6146  1.0212
 7436SOL    HW233945   1.712   3.569   9.169 -0.5033  0.7100 -0.5083
 7437SOL     OW33946   3.742   4.125   5.917  0.3127 -0.3368 -0.3385
 7437SOL    HW133947   3.825   4.077   5.926 -0.9406 -2.1118  1.8311
 7437SOL    HW233948   3.760   4.213   5.948 -1.3186  0.3117 -1.2475
 7438SOL     OW33949   3.677   2.381   8.184  0.3244  0.2570  0.2477
 7438SOL    HW133950   3.668   2.391   8.279  0.6532 -1.2482  0.4270
 7438SOL    HW233951   3.772   2.370   8.183  0.4426  1.2099  0.4173
 7439SOL     OW33952   3.796   0.125   7.761 -0.3338 -0.5662  0.3146
 7439SOL    HW133953   3.838   0.193   7.707 -4.7067  1.8059 -0.1176
 7439SOL    HW233954   3.711   0.165   7.781 -0.8610 -0.8156 -1.3693
 7440SOL     OW33955   2.046   4.209  11.488  0.2031  0.1482 -0.4386
 7440SOL    HW133956   2.025   4.251  11.405  2.5865  0.0096 -1.1210
 7440SOL    HW233957   1.979   4.141  11.496  1.4738 -0.9095  1.3238
 7441SOL     OW33958   0.691   4.352   6.570 -0.1001  0.1341 -0.4727
 7441SOL    HW133959   0.687   4.272   6.518 -1.3101  0.2326 -0.5311
 7441SOL    HW233960   0.672   4.418   6.503 -0.6643  1.9545  1.4794
 7442SOL     OW33961   4.243   4.480   2.236  0.0667  0.6469 -0.2441
 7442SOL    HW133962   4.193   4.402   2.260 -1.3628  1.3603 -0.8730
 7442SOL    HW233963   4.281   4.502   2.320 -1.2949  0.9740  0.2912
 7443SOL     OW33964   1.501   1.212   4.397 -0.5593  0.1717 -0.2069
 7443SOL    HW133965   1.509   1.177   4.308  1.9550 -1.8505  0.8100
 7443SOL    HW233966   1.432   1.159   4.436 -1.5360  1.1858 -0.5849
 7444SOL     OW33967   1.756   0.229  12.334  0.1590  0.0697  0.4221
 7444SOL    HW133968   1.684   0.290  12.316  1.6458  1.1733 -1.8046
 7444SOL    HW233969   1.801   0.213  12.251  0.4574 -2.0513  0.9785
 7445SOL     OW33970   2.202   2.248   5.764  0.0086  0.3630  0.0507
 7445SOL    HW133971   2.164   2.161   5.754 -1.9176  1.3167 -0.9433
 7445SOL    HW233972   2.293   2.224   5.746  0.5336  2.3879 -0.0669
 7446SOL     OW33973   1.817   1.332   5.855  0.5823  0.0053  0.5794
 7446SOL    HW133974   1.740   1.289   5.891 -0.6283  1.2082 -0.5777
 7446SOL    HW233975   1.772   1.411   5.823 -0.3140  0.1143  2.1352
 7447SOL     OW33976   2.706   2.013  10.383  0.2261  0.0767 -0.3302
 7447SOL    HW133977   2.652   2.053  10.450  0.7725 -1.9205  1.3039
 7447SOL    HW233978   2.727   2.091  10.332  1.3079  1.1618  1.8116
 7448SOL     OW33979   2.779   3.369   6.388  0.3036 -0.1764 -0.5926
 7448SOL    HW133980   2.782   3.273   6.389 -0.9980 -0.2046  1.2622
 7448SOL    HW233981   2.835   3.389   6.463 -1.5882  0.2414  0.7045
 7449SOL     OW33982   3.810   0.435   5.826 -0.1044  0.0088  0.2326
 7449SOL    HW133983   3.861   0.357   5.846  0.6040  0.1631 -0.9752
 7449SOL    HW233984   3.871   0.483   5.770 -0.4467 -0.4638 -0.5562
 7450SOL     OW33985   4.515   2.208  11.499  0.0964  0.4905  0.1139
 7450SOL    HW133986   4.476   2.191  11.585  2.1694  1.9989  1.3390
 7450SOL    HW233987   4.430   2.218  11.455 -0.7328  0.9673  1.8161
 7451SOL     OW33988   1.602   3.153   8.855 -0.4967 -0.4924  0.5949
 7451SOL    HW133989   1.627   3.067   8.823 -0.6317 -1.0366  2.0000
 7451SOL    HW233990   1.534   3.160   8.787 -0.6505 -2.3062  0.5638
 7452SOL     OW33991   3.834   2.653   9.118 -0.7295 -0.2243 -0.0696
 7452SOL    HW133992   3.891   2.686   9.187  0.0622  1.5415 -1.5483
 7452SOL    HW233993   3.747   2.671   9.152 -1.1315  0.0554 -1.2397
 7453SOL     OW33994   3.867   0.070  13.525  0.7688 -0.2780 -0.5543
 7453SOL    HW133995   3.788   0.101  13.481  1.1270 -0.7734 -1.5412
 7453SOL    HW233996   3.903   0.153  13.557 -1.3660  1.2010 -1.9875
 7454SOL     OW33997   1.137   0.184   3.384 -0.1622  0.3832 -0.3980
 7454SOL    HW133998   1.154   0.094   3.412  0.5257  0.4393 -0.6235
 7454SOL    HW233999   1.045   0.170   3.364 -0.2627 -0.8011  0.8485
 7455SOL     OW34000   0.618   2.884   9.503  0.2742 -0.0725 -0.2845
 7455SOL    HW134001   0.556   2.857   9.435 -1.2185  0.6991  0.7824
 7455SOL    HW234002   0.635   2.975   9.480 -1.8384  0.4095  0.1323
 7456SOL     OW34003   3.140   4.265  13.541  0.2021  0.0690  0.3300
 7456SOL    HW134004   3.167   4.357  13.541 -0.7769  0.3802 -2.4808
 7456SOL    HW234005   3.060   4.268  13.593  0.6822  1.2196  0.9895
 7457SOL     OW34006   2.855   2.103   5.963 -0.2904 -0.5096 -0.1627
 7457SOL    HW134007   2.932   2.047   5.955  0.0643  0.2698 -2.2262
 7457SOL    HW234008   2.903   2.186   5.965 -2.6291  0.8609 -0.8606
 7458SOL     OW34009   1.579   3.662   0.704  0.0039  0.2758 -0.0672
 7458SOL    HW134010   1.578   3.688   0.611 -2.6710 -0.7529 -0.3186
 7458SOL    HW234011   1.664   3.684   0.741  0.1698  1.0803 -0.9312
 7459SOL     OW34012   2.544   1.476   5.511  0.1863  0.0189 -0.8191
 7459SOL    HW134013   2.515   1.394   5.473 -0.8964  0.0822 -0.1287
 7459SOL    HW234014   2.570   1.455   5.601 -2.1167  0.1637 -0.1133
 7460SOL     OW34015   0.678   3.799   3.484 -0.3951  0.0393 -0.0450
 7460SOL    HW134016   0.731   3.866   3.441 -0.3775  0.9516  1.3753
 7460SOL    HW234017   0.637   3.845   3.558  2.2315  1.8017  0.3351
 7461SOL     OW34018   0.714   2.564  10.292 -0.0785 -0.0507 -0.5139
 7461SOL    HW134019   0.649   2.591  10.227 -2.3190 -3.4333  0.3177
 7461SOL    HW234020   0.733   2.648  10.334 -0.6305  0.4875 -1.3317
 7462SOL     OW34021   4.001   1.476   8.327 -0.1999 -0.4786 -0.4873
 7462SOL    HW134022   3.998   1.504   8.418 -1.7462 -0.9114 -0.4038
 7462SOL    HW234023   4.094   1.495   8.313 -0.0751 -1.4667 -1.0469
 7463SOL     OW34024   2.195   4.697   1.548 -0.4689 -0.5039 -0.0532
 7463SOL    HW134025   2.216   4.611   1.585 -0.5523 -0.0590  1.0581
 7463SOL    HW234026   2.138   4.677   1.474 -1.6583 -0.4668  0.8446
 7464SOL     OW34027   1.124   1.741   0.449 -0.6908 -0.7325 -0.5794
 7464SOL    HW134028   1.078   1.682   0.390 -2.0193 -0.7491  0.4725
 7464SOL    HW234029   1.142   1.815   0.391 -1.8768 -0.6218 -0.8210
 7465SOL     OW34030   2.125   2.282  13.123 -0.0699  0.4390  0.0981
 7465SOL    HW134031   2.142   2.371  13.153  0.4533  0.0595  0.9300
 7465SOL    HW234032   2.079   2.239  13.195  1.2517  0.0416  0.7088
 7466SOL     OW34033   1.422   2.290   6.884 -0.8705  0.1467  0.3022
 7466SOL    HW134034   1.426   2.258   6.974  0.4479  0.7552  0.4514
 7466SOL    HW234035   1.349   2.248   6.837  0.0811 -2.0402  0.7957
 7467SOL     OW34036   0.546   0.228   6.463  0.7249  0.0451  0.2018
 7467SOL    HW134037   0.518   0.227   6.371  0.3643  3.1569  0.2692
 7467SOL    HW234038   0.502   0.306   6.497  0.3113 -0.1237  0.0540
 7468SOL     OW34039   1.794   3.035   7.848 -0.0464  0.3956  0.1236
 7468SOL    HW134040   1.825   2.950   7.879 -1.2319 -0.1228 -0.1362
 7468SOL    HW234041   1.723   3.005   7.791 -1.2051  0.6157  1.4473
 7469SOL     OW34042   1.337   1.258   9.191  0.2692  0.4434  0.2208
 7469SOL    HW134043   1.300   1.325   9.248 -1.3676 -1.5029  1.4432
 7469SOL    HW234044   1.402   1.219   9.250 -1.4656 -1.2627  1.0081
 7470SOL     OW34045   3.692   2.610   7.097  0.6607 -0.6776  0.5237
 7470SOL    HW134046   3.659   2.583   7.011 -0.2154 -0.8348  0.9109
 7470SOL    HW234047   3.767   2.662   7.071 -0.2310  0.2310 -0.2161
 7471SOL     OW34048   3.797   2.340  10.526  0.1594 -0.7373  0.5298
 7471SOL    HW134049   3.836   2.383  10.602  0.0464 -1.3660  0.9472
 7471SOL    HW234050   3.717   2.298  10.558 -1.6155  1.6381 -0.7877
 7472SOL     OW34051   2.519   2.550   7.626  0.1839 -0.3234 -0.4701
 7472SOL    HW134052   2.507   2.550   7.721 -1.4501  0.7503 -0.6700
 7472SOL    HW234053   2.439   2.502   7.605 -1.9677  2.8323  0.4435
 7473SOL     OW34054   1.213   4.093   5.051  0.3531  0.6117 -0.1107
 7473SOL    HW134055   1.252   4.180   5.059  0.5726  0.4908  0.1426
 7473SOL    HW234056   1.278   4.024   5.061 -1.0334 -0.4244  1.7864
 7474SOL     OW34057   0.096   2.213   6.472 -0.3032  0.4882  0.2859
 7474SOL    HW134058   0.073   2.125   6.502  0.6878  0.2041  0.1955
 7474SOL    HW234059   0.157   2.200   6.399 -1.5161  0.1147 -0.6645
 7475SOL     OW34060   2.811   1.178   9.113 -0.0191 -0.4593  0.3759
 7475SOL    HW134061   2.816   1.122   9.191  0.4977  1.6458  1.8711
 7475SOL    HW234062   2.832   1.116   9.044  0.3917 -1.7725  1.6717
 7476SOL     OW34063   1.949   3.807   5.660  0.2311  0.1749  0.0334
 7476SOL    HW134064   1.911   3.889   5.631  2.4253  1.9033  2.0658
 7476SOL    HW234065   2.003   3.799   5.581 -1.7861  1.6752 -1.4896
 7477SOL     OW34066   0.882   2.805  10.165  0.3479  0.7001  0.0162
 7477SOL    HW134067   0.805   2.805  10.222 -0.9767  1.2428 -1.7682
 7477SOL    HW234068   0.948   2.809  10.233 -0.2516 -2.8483  0.7957
 7478SOL     OW34069   4.071   3.755   6.119  0.0472  0.6100 -0.2862
 7478SOL    HW134070   4.141   3.709   6.166  0.0287  1.3298  0.4662
 7478SOL    HW234071   4.028   3.690   6.065  0.4042  0.7304 -0.7159
 7479SOL     OW34072   2.684   0.565   5.300  0.6055  0.2883 -0.1643
 7479SOL    HW134073   2.610   0.526   5.346  0.5795 -1.9667 -2.1158
 7479SOL    HW234074   2.722   0.485   5.265 -0.2332 -0.3641  0.4074
 7480SOL     OW34075   2.863   1.105   3.940 -0.3923  0.4970 -0.4631
 7480SOL    HW134076   2.908   1.109   4.024  1.4692  1.0526 -1.4811
 7480SOL    HW234077   2.918   1.163   3.888 -0.1892  0.2175 -0.5527
 7481SOL     OW34078   2.368   3.662   4.804 -0.0008 -0.2295 -0.0794
 7481SOL    HW134079   2.331   3.709   4.878  1.6345 -0.3743  0.8440
 7481SOL    HW234080   2.384   3.574   4.838 -2.1925 -0.5898 -0.0271
 7482SOL     OW34081   3.371   3.689   3.667 -0.2836 -0.2472 -0.0956
 7482SOL    HW134082   3.436   3.740   3.716 -0.2527 -2.7851  2.5213
 7482SOL    HW234083   3.408   3.601   3.667 -0.6395 -0.3980 -0.0859
 7483SOL     OW34084   3.206   0.484   6.674 -0.0994  0.5795  0.2618
 7483SOL    HW134085   3.165   0.513   6.755 -1.8960 -1.4313  0.0713
 7483SOL    HW234086   3.292   0.524   6.688 -0.8482  1.7103  1.5811
 7484SOL     OW34087   1.434   2.881   6.869  0.0843  0.2435  0.2134
 7484SOL    HW134088   1.410   2.834   6.948  0.4703  2.3412  1.5785
 7484SOL    HW234089   1.528   2.860   6.862  0.3300  0.5581  2.6236
 7485SOL     OW34090   1.855   1.018   6.772 -0.2495  0.0011  0.1351
 7485SOL    HW134091   1.786   1.034   6.708 -0.4059 -1.0731  0.0283
 7485SOL    HW234092   1.819   0.947   6.824 -0.2298 -1.8095 -2.2843
 7486SOL     OW34093   0.755   1.824   7.326  0.0388 -0.4022 -0.2674
 7486SOL    HW134094   0.719   1.795   7.410 -0.3213  0.1574 -0.2245
 7486SOL    HW234095   0.682   1.804   7.269  0.4602 -2.2085 -0.1563
 7487SOL     OW34096   1.782   2.378   6.554 -0.3869  0.2279 -0.1167
 7487SOL    HW134097   1.691   2.405   6.568 -0.3095  1.4815 -2.0592
 7487SOL    HW234098   1.793   2.308   6.619 -0.6648  0.0147 -0.2973
 7488SOL     OW34099   0.434   2.424  15.388 -0.3754  0.2351 -0.3138
 7488SOL    HW134100   0.474   2.511  15.380  0.6125 -0.4445 -2.7665
 7488SOL    HW234101   0.481   2.372  15.323 -0.4833 -1.6095  1.0924
 7489SOL     OW34102   4.066   2.721   6.027 -0.0605  0.1619 -0.0098
 7489SOL    HW134103   3.999   2.653   6.040 -1.0898  1.0118 -0.8608
 7489SOL    HW234104   4.121   2.686   5.958 -0.1902 -0.6685  0.3068
 7490SOL     OW34105   3.236   0.031   9.487 -0.0895 -0.3699  0.1518
 7490SOL    HW134106   3.199   0.007   9.402  2.7843  1.4444 -1.5925
 7490SOL    HW234107   3.322   4.736   9.462 -0.5689 -1.3297 -0.2946
 7491SOL     OW34108   0.758   4.532   2.037  0.2088  0.1186 -0.2251
 7491SOL    HW134109   0.776   4.501   1.948  0.7014 -4.2802  1.4318
 7491SOL    HW234110   0.831   4.593   2.053 -0.4603  0.5852  1.0049
 7492SOL     OW34111   2.129   0.601   0.507 -0.2468  0.7480 -0.3911
 7492SOL    HW134112   2.193   0.610   0.577  1.7136  1.8061 -2.3177
 7492SOL    HW234113   2.084   0.686   0.507  1.1675  1.4985  1.8168
 7493SOL     OW34114   4.102   3.000   6.560 -0.1056  0.3205 -0.2586
 7493SOL    HW134115   4.190   2.966   6.575  0.9465  3.1110 -0.0124
 7493SOL    HW234116   4.057   2.928   6.517 -0.8497  0.3042  0.5668
 7494SOL     OW34117   3.679   2.383   1.324 -0.0621  0.1879  0.4362
 7494SOL    HW134118   3.600   2.372   1.271 -0.3728  0.0844  0.9193
 7494SOL    HW234119   3.744   2.407   1.258 -0.5533  1.1405  0.2904
 7495SOL     OW34120   0.179   0.445   3.185 -0.2030 -0.7964  0.2002
 7495SOL    HW134121   0.139   0.486   3.262  0.5444 -1.1176  0.7507
 7495SOL    HW234122   0.260   0.496   3.181 -0.5482 -0.2261  0.4680
 7496SOL     OW34123   0.327   0.849  10.382  0.3766  0.4099  0.0053
 7496SOL    HW134124   0.343   0.941  10.401  3.1523  0.1785 -1.1856
 7496SOL    HW234125   0.246   0.871  10.337  0.7156  1.4502 -0.1037
 7497SOL     OW34126   3.342   0.341   5.656 -0.1684  0.0662  0.3504
 7497SOL    HW134127   3.364   0.386   5.738  0.5955  0.8351 -0.2688
 7497SOL    HW234128   3.421   0.293   5.632  0.5414  1.5169 -0.2158
 7498SOL     OW34129   1.117   1.797  17.459  0.2626  0.6832 -0.3618
 7498SOL    HW134130   1.046   1.792  17.523  0.6351  0.3818  0.0247
 7498SOL    HW234131   1.065   1.767  17.385 -1.8434  0.9623  1.0003
 7499SOL     OW34132   1.140   4.725   4.050 -0.1685 -0.2280  0.1277
 7499SOL    HW134133   1.176   0.034   3.974 -3.9257  1.6695 -0.4764
 7499SOL    HW234134   1.085   4.660   4.006  1.6989  0.1945 -2.8409
 7500SOL     OW34135   1.936   4.390   7.346  0.0226 -0.2106 -0.1509
 7500SOL    HW134136   1.954   4.477   7.382  0.5602  0.3607 -1.7714
 7500SOL    HW234137   2.024   4.352   7.340  0.9639  1.6299  2.0328
 7501SOL     OW34138   2.078   4.471   8.261 -0.4712  0.2033 -0.2007
 7501SOL    HW134139   2.121   4.479   8.346  0.0996 -0.9791 -0.3844
 7501SOL    HW234140   2.111   4.547   8.214  1.0785  0.3391  1.1232
 7502SOL     OW34141   1.647   1.634   1.987  0.2602  0.0585  0.2172
 7502SOL    HW134142   1.555   1.625   1.963  0.1247  0.8732  0.4333
 7502SOL    HW234143   1.670   1.546   2.016  0.0846  0.1397  0.6033
 7503SOL     OW34144   4.211   3.112  16.693  0.7761  0.2652 -0.6720
 7503SOL    HW134145   4.201   3.035  16.749  1.1440  0.5917 -0.1590
 7503SOL    HW234146   4.303   3.127  16.714  1.7118 -2.5772 -2.6837
 7504SOL     OW34147   4.157   4.040   3.664  0.3455 -0.3832  0.3081
 7504SOL    HW134148   4.182   4.012   3.752 -1.4216  0.7232  1.1653
 7504SOL    HW234149   4.063   4.028   3.678  0.0593  1.3155 -0.2496
 7505SOL     OW34150   3.363   0.056   5.290 -0.3589 -0.7350 -0.2056
 7505SOL    HW134151   3.343   0.124   5.354 -0.7727 -0.0219 -1.0961
 7505SOL    HW234152   3.414   0.098   5.220 -0.4525 -2.4603 -1.3031
 7506SOL     OW34153   2.002   0.761   9.840  0.5228 -0.1838  0.0114
 7506SOL    HW134154   1.934   0.719   9.893  0.3349 -0.5706 -0.5422
 7506SOL    HW234155   1.952   0.816   9.780 -0.0075 -1.1838 -0.4600
 7507SOL     OW34156   0.083   0.763   5.372 -0.6977  0.3669 -0.4053
 7507SOL    HW134157   0.077   0.804   5.286 -1.5898  1.3158  0.1078
 7507SOL    HW234158   4.735   0.776   5.415 -1.2327 -0.6782 -1.1134
 7508SOL     OW34159   3.802   4.439   2.196  0.5185  0.2851  0.1390
 7508SOL    HW134160   3.810   4.517   2.251  1.4197  0.2007  0.1376
 7508SOL    HW234161   3.709   4.418   2.199  0.6935 -0.6338 -0.6173
 7509SOL     OW34162   4.227   3.929   2.969  0.1136 -0.5198 -0.0621
 7509SOL    HW134163   4.194   3.938   2.880 -1.3335  1.9368  0.7108
 7509SOL    HW234164   4.150   3.893   3.012 -0.1077 -0.0762 -0.0815
 7510SOL     OW34165   2.358   1.712   6.750  0.3251 -0.5595 -0.0058
 7510SOL    HW134166   2.299   1.637   6.758  0.2909 -0.7618 -2.2014
 7510SOL    HW234167   2.319   1.764   6.680  0.2706  0.9200  1.1286
 7511SOL     OW34168   3.317   3.340   0.147  0.5057  1.2009 -0.2753
 7511SOL    HW134169   3.335   3.247   0.136  0.7513  1.2529 -0.3156
 7511SOL    HW234170   3.402   3.383   0.143  0.8665  0.4405 -0.5715
 7512SOL     OW34171   0.678   3.603  16.914  0.1311  0.1731 -0.2098
 7512SOL    HW134172   0.623   3.661  16.966  0.6307  1.0138 -0.6257
 7512SOL    HW234173   0.684   3.523  16.966 -0.5650 -0.9284 -1.7983
 7513SOL     OW34174   3.599   3.651   4.531  0.0154 -0.2401 -0.6690
 7513SOL    HW134175   3.554   3.610   4.457 -0.7900 -0.0169 -0.3057
 7513SOL    HW234176   3.568   3.588   4.596  0.6986  1.3371  1.1669
 7514SOL     OW34177   2.976   3.755   9.521  0.2476 -0.1102  0.4124
 7514SOL    HW134178   3.015   3.827   9.472  0.7875 -0.8717 -0.2820
 7514SOL    HW234179   2.952   3.794   9.605  1.4007  0.7101  0.3518
 7515SOL     OW34180   3.833   4.737   6.547 -0.1093 -0.1369  0.0958
 7515SOL    HW134181   3.795   0.032   6.628  1.2434  1.1892  0.2014
 7515SOL    HW234182   3.793   4.650   6.553  1.0115 -0.4524  2.8395
 7516SOL     OW34183   3.576   0.090   3.561  0.4152  0.0082  0.0957
 7516SOL    HW134184   3.635   0.030   3.516  0.4938 -0.4743  0.8367
 7516SOL    HW234185   3.539   0.039   3.633  3.3122 -3.6110 -1.0146
 7517SOL     OW34186   0.206   4.074   5.163  0.1330 -0.4936 -0.3484
 7517SOL    HW134187   0.185   3.993   5.115 -0.6830  0.5022 -1.6718
 7517SOL    HW234188   0.144   4.058   5.235  0.7119 -0.0173  0.2538
 7518SOL     OW34189   3.417   2.006   1.893 -0.0930 -0.2145 -0.0475
 7518SOL    HW134190   3.377   2.050   1.818  0.9882  1.4088  0.3267
 7518SOL    HW234191   3.374   2.058   1.961  0.7185  1.7150 -1.0024
 7519SOL     OW34192   2.642   0.257   5.474  0.1985 -0.5197 -0.1864
 7519SOL    HW134193   2.656   0.301   5.558 -1.9866  2.1206 -1.1686
 7519SOL    HW234194   2.601   0.175   5.500 -0.4573 -0.1271  0.0232
 7520SOL     OW34195   0.834   1.995   1.817  0.2408  0.5821  0.0551
 7520SOL    HW134196   0.740   1.979   1.824  0.1075  0.5088 -1.9356
 7520SOL    HW234197   0.857   1.980   1.725  0.8635  1.5785  0.0568
 7521SOL     OW34198   3.323   1.391   6.371 -0.0403 -0.2591 -0.0533
 7521SOL    HW134199   3.297   1.303   6.342 -0.7321 -0.0355 -0.1017
 7521SOL    HW234200   3.379   1.377   6.447 -0.1480 -0.0788  0.0571
 7522SOL     OW34201   1.084   0.473   6.548 -0.8259 -0.2117  0.2328
 7522SOL    HW134202   0.994   0.440   6.551 -0.1378 -1.9626  1.1768
 7522SOL    HW234203   1.134   0.429   6.617  1.4421 -1.5192 -2.2365
 7523SOL     OW34204   3.816   1.290   7.927 -0.4204 -0.3679 -0.7230
 7523SOL    HW134205   3.827   1.289   8.022  0.4382 -0.5942 -0.8303
 7523SOL    HW234206   3.732   1.337   7.922 -1.0570 -1.1953  1.9140
 7524SOL     OW34207   3.602   1.981   4.740  0.2874  0.3881 -0.2230
 7524SOL    HW134208   3.681   1.981   4.686 -0.9018  0.6980 -2.0007
 7524SOL    HW234209   3.531   1.964   4.677 -0.3010  2.5911 -0.1325
 7525SOL     OW34210   0.060   2.616   6.530  0.4390 -0.0492 -0.4956
 7525SOL    HW134211   0.074   2.590   6.621 -1.1062 -1.3642 -0.6391
 7525SOL    HW234212   0.138   2.667   6.507  0.5092 -0.9708 -2.3010
 7526SOL     OW34213   1.934   0.074   0.541 -0.0632  0.6949 -0.5322
 7526SOL    HW134214   1.983   0.099   0.463  0.7704 -1.4969 -0.7141
 7526SOL    HW234215   1.951   0.148   0.599  3.1443  0.7564 -1.5544
 7527SOL     OW34216   4.713   2.960  15.969  0.0952 -0.4420  0.4258
 7527SOL    HW134217   0.046   3.017  16.002  0.8651 -0.9082 -0.4017
 7527SOL    HW234218   0.013   2.872  15.977  2.4012  0.3603 -1.4789
 7528SOL     OW34219   4.200   0.054   6.726  0.0555 -0.2560 -0.2925
 7528SOL    HW134220   4.282   0.104   6.728 -2.2370  3.2572  4.4550
 7528SOL    HW234221   4.193   0.046   6.630 -0.0419 -3.0331 -0.0606
 7529SOL     OW34222   4.206   2.274   8.118 -0.1309 -0.4627 -0.0042
 7529SOL    HW134223   4.292   2.232   8.111  1.5259  2.7978  0.7233
 7529SOL    HW234224   4.148   2.205   8.151 -0.7116 -0.0186 -0.0850
 7530SOL     OW34225   0.755   0.639   7.807 -0.5073  0.3350  0.1179
 7530SOL    HW134226   0.743   0.608   7.717  1.9775 -0.4862  0.0646
 7530SOL    HW234227   0.832   0.696   7.798  0.1628 -0.6682 -0.5842
 7531SOL     OW34228   3.433   1.530   5.909  0.3364 -0.3191 -0.3414
 7531SOL    HW134229   3.526   1.551   5.922  0.3007 -0.2506 -0.1921
 7531SOL    HW234230   3.442   1.459   5.845 -0.8008 -3.5580  3.0787
 7532SOL     OW34231   2.873   3.260   5.872  0.1550  0.2054 -0.0304
 7532SOL    HW134232   2.962   3.225   5.870  1.4680  3.6608 -1.1756
 7532SOL    HW234233   2.840   3.200   5.806  1.9483 -0.6378 -0.1404
 7533SOL     OW34234   0.975   2.039   5.774 -0.0726  0.6056  0.3814
 7533SOL    HW134235   0.998   2.058   5.864  1.8766  0.8630 -0.1714
 7533SOL    HW234236   0.895   1.991   5.798 -0.0266  0.8520  1.0146
 7534SOL     OW34237   2.509   0.230   8.080 -0.0180  0.0504  0.0626
 7534SOL    HW134238   2.599   0.242   8.109 -0.1090  0.0998  0.3210
 7534SOL    HW234239   2.460   0.311   8.098  0.2878 -0.1227  1.6098
 7535SOL     OW34240   1.463   2.911   4.727  0.2399  0.3887 -0.7452
 7535SOL    HW134241   1.505   2.981   4.677  1.8407  0.6511  0.9493
 7535SOL    HW234242   1.377   2.920   4.687  0.1455 -0.0350 -0.6361
 7536SOL     OW34243   1.652   0.396  17.345  0.3012 -0.2982  0.3719
 7536SOL    HW134244   1.599   0.318  17.330 -1.3543  0.9663 -0.3454
 7536SOL    HW234245   1.685   0.389  17.435  1.6226  1.7025  0.0477
 7537SOL     OW34246   2.265   0.972   8.912 -0.5299 -0.1282  0.3963
 7537SOL    HW134247   2.336   1.010   8.860 -1.5318 -0.9875 -1.5637
 7537SOL    HW234248   2.219   0.913   8.853 -2.6988  0.1353  1.8212
 7538SOL     OW34249   1.927   3.832   8.034 -0.1617  0.3619  0.0440
 7538SOL    HW134250   1.870   3.776   8.086 -1.0224  0.5206 -0.7255
 7538SOL    HW234251   1.874   3.846   7.955 -0.6222  0.5439  0.3881
 7539SOL     OW34252   0.575   1.981   1.775  0.6043 -0.4116 -0.2977
 7539SOL    HW134253   0.531   1.953   1.695  2.7156 -1.8558 -0.9710
 7539SOL    HW234254   0.520   2.058   1.787  0.5690 -0.2523 -1.4504
 7540SOL     OW34255   0.354   0.409   8.812  0.4433  0.4684 -0.2077
 7540SOL    HW134256   0.320   0.476   8.872  1.4989  0.8243 -0.0017
 7540SOL    HW234257   0.280   0.395   8.753 -0.2201 -1.8776  1.1769
 7541SOL     OW34258   0.211   2.465  13.082  0.4432 -0.0058 -0.0661
 7541SOL    HW134259   0.126   2.509  13.078  1.4341  1.9211  0.1053
 7541SOL    HW234260   0.271   2.523  13.035  1.2532 -0.4365  0.4206
 7542SOL     OW34261   4.315   2.078  14.125  0.5450  0.2258 -0.6802
 7542SOL    HW134262   4.254   2.121  14.065  0.0645 -0.2955 -0.5666
 7542SOL    HW234263   4.394   2.128  14.104 -2.3081  4.0790 -2.2326
 7543SOL     OW34264   1.670   0.842  14.888  0.3650  0.1376  0.6693
 7543SOL    HW134265   1.685   0.767  14.830 -1.9673 -0.3905  0.7439
 7543SOL    HW234266   1.702   0.909  14.828 -1.4701  0.1473 -0.2826
 7544SOL     OW34267   4.181   2.160   5.575 -0.1890  0.3216  0.1994
 7544SOL    HW134268   4.167   2.131   5.665 -0.2709 -0.6387 -0.1225
 7544SOL    HW234269   4.121   2.105   5.525 -1.5328  1.8471  0.1354
 7545SOL     OW34270   0.338   1.727   5.744 -0.2554  0.0745 -0.3132
 7545SOL    HW134271   0.299   1.801   5.698  0.1152  0.9837  0.8158
 7545SOL    HW234272   0.395   1.779   5.801  1.5149 -2.1163 -0.0809
 7546SOL     OW34273   3.922   1.469   5.779  0.3431 -0.0602  0.3862
 7546SOL    HW134274   3.884   1.438   5.697 -0.5991 -1.8867  1.5207
 7546SOL    HW234275   4.014   1.447   5.764  0.0310 -1.4218  0.4710
 7547SOL     OW34276   2.072   4.019   4.910 -0.0024 -0.2842 -0.6363
 7547SOL    HW134277   2.104   3.965   4.837  1.3871 -1.7600  1.0466
 7547SOL    HW234278   2.012   3.963   4.959 -0.0242 -1.0829 -1.5775
 7548SOL     OW34279   2.352   4.240   6.406  0.3108  0.2113  0.4839
 7548SOL    HW134280   2.315   4.287   6.332 -2.3498  0.2385  1.8395
 7548SOL    HW234281   2.444   4.244   6.381 -0.3063  0.3585 -1.7598
 7549SOL     OW34282   0.516   1.280  13.266  0.4145 -0.7815 -0.5391
 7549SOL    HW134283   0.515   1.370  13.234  1.8049  0.1074  1.9807
 7549SOL    HW234284   0.611   1.271  13.258  0.5835 -0.0306  0.6324
 7550SOL     OW34285   3.409   2.609   0.939 -0.4473 -0.5334  0.0226
 7550SOL    HW134286   3.330   2.658   0.915 -0.0969  0.1833  0.3516
 7550SOL    HW234287   3.378   2.593   1.028  0.6822  2.0444  0.8577
 7551SOL     OW34288   4.646   3.539   2.766 -0.8572 -0.1918  0.1746
 7551SOL    HW134289   4.632   3.620   2.716  1.6620 -0.9219 -1.7401
 7551SOL    HW234290   4.589   3.546   2.842  0.7450  0.6076  1.2925
 7552SOL     OW34291   3.453   2.452   5.584 -0.0873 -0.2336 -0.1030
 7552SOL    HW134292   3.445   2.365   5.624  1.2272 -0.8163 -1.0975
 7552SOL    HW234293   3.419   2.434   5.496 -0.3021 -1.5376  0.2504
 7553SOL     OW34294   3.611   1.188  14.012  0.8504  0.0048 -0.1732
 7553SOL    HW134295   3.562   1.267  14.036  0.3228 -0.3974  0.0649
 7553SOL    HW234296   3.690   1.229  13.975  1.1271  0.2354  0.6841
 7554SOL     OW34297   3.702   2.253   1.899  0.3239  0.3998  0.5618
 7554SOL    HW134298   3.726   2.285   1.812  0.1294  1.6209  0.9514
 7554SOL    HW234299   3.619   2.296   1.917  1.0770  1.7664  0.8378
 7555SOL     OW34300   2.018   4.331   9.425 -0.8130  0.0238  0.2292
 7555SOL    HW134301   2.011   4.374   9.510  0.3350 -0.3002  0.4810
 7555SOL    HW234302   2.031   4.240   9.452  3.1808  0.7590  0.8180
 7556SOL     OW34303   1.582   0.331   2.729 -0.4754 -0.2204  0.1728
 7556SOL    HW134304   1.663   0.324   2.679 -0.7026 -1.5657  0.0099
 7556SOL    HW234305   1.604   0.398   2.794 -2.1643 -0.9340  1.4685
 7557SOL     OW34306   0.429   0.557   7.655  0.2245 -0.1648 -0.0121
 7557SOL    HW134307   0.430   0.653   7.659  0.5422 -0.1515 -0.4481
 7557SOL    HW234308   0.408   0.532   7.745  1.4610 -0.0971  0.2876
 7558SOL     OW34309   2.454   1.216  12.249  0.0543  0.0849  0.2046
 7558SOL    HW134310   2.378   1.192  12.302 -0.4028  2.0978  0.4825
 7558SOL    HW234311   2.437   1.309  12.234 -2.0354 -0.5440 -1.3837
 7559SOL     OW34312   1.634   0.736   8.227  0.0452 -0.3248  0.8419
 7559SOL    HW134313   1.545   0.720   8.259 -0.7119  0.3948 -0.9032
 7559SOL    HW234314   1.656   0.823   8.259 -0.3728 -0.3483  1.1979
 7560SOL     OW34315   4.196   2.191   7.595  0.2257 -0.5065  0.2145
 7560SOL    HW134316   4.278   2.172   7.550  1.1788 -0.5543  2.0156
 7560SOL    HW234317   4.206   2.282   7.623  1.0097 -1.1086  1.8799
 7561SOL     OW34318   1.733   3.137  15.280  0.3855 -0.3205  0.0696
 7561SOL    HW134319   1.720   3.182  15.196 -0.3391 -0.4975  0.0859
 7561SOL    HW234320   1.683   3.056  15.271 -0.0914 -0.0065 -0.1132
 7562SOL     OW34321   0.544   3.495   2.914 -0.0736 -0.4023  0.6473
 7562SOL    HW134322   0.579   3.471   3.001  0.4230  1.4065  0.9532
 7562SOL    HW234323   0.479   3.559   2.943  1.0903  0.9127  0.3793
 7563SOL     OW34324   4.107   1.655   8.883  0.1507 -0.1360 -0.5935
 7563SOL    HW134325   4.074   1.566   8.891  1.8829 -0.6030  1.3959
 7563SOL    HW234326   4.129   1.669   8.975  0.6589 -0.9559 -0.5886
 7564SOL     OW34327   4.053   4.489   3.637 -0.1588 -0.3815 -0.1291
 7564SOL    HW134328   4.081   4.485   3.729 -0.8161  1.5928  0.1755
 7564SOL    HW234329   3.959   4.498   3.652 -0.3184 -0.0985 -1.3324
 7565SOL     OW34330   2.953   4.023  10.163  0.1223 -0.6255 -0.4285
 7565SOL    HW134331   3.034   3.976  10.145  1.8602  2.3555 -0.4415
 7565SOL    HW234332   2.941   4.027  10.258 -0.2533 -0.2638 -0.4905
 7566SOL     OW34333   1.182   1.094   7.825 -0.1174 -0.3295  0.2758
 7566SOL    HW134334   1.199   1.148   7.902  2.7863  0.0856 -0.6526
 7566SOL    HW234335   1.088   1.101   7.804 -0.3507 -0.2283  1.3587
 7567SOL     OW34336   2.301   2.079   2.509  0.0053  0.0095  0.2498
 7567SOL    HW134337   2.259   2.111   2.429 -0.9331  0.5167  0.9364
 7567SOL    HW234338   2.366   2.147   2.528 -1.7408  0.1037  6.0513
 7568SOL     OW34339   4.529   3.087   2.343  0.0496  0.6045  0.2501
 7568SOL    HW134340   4.616   3.098   2.380 -0.0136  1.7173  0.0698
 7568SOL    HW234341   4.483   3.035   2.409 -3.6290  1.0651 -1.9620
 7569SOL     OW34342   1.331   3.336   8.739  0.4605 -1.1691 -0.0690
 7569SOL    HW134343   1.290   3.330   8.825  0.3733  0.2141 -0.0082
 7569SOL    HW234344   1.387   3.413   8.747 -3.5496  1.5015  2.3218
 7570SOL     OW34345   2.419   2.274   3.430 -0.2055 -0.4479  0.4502
 7570SOL    HW134346   2.513   2.286   3.438 -0.3268 -0.3829  1.7028
 7570SOL    HW234347   2.389   2.279   3.339  1.9653  0.9037 -0.1957
 7571SOL     OW34348   3.787   1.609  17.129  0.1932 -0.0667  0.4340
 7571SOL    HW134349   3.754   1.519  17.120  1.4199 -0.6710  1.9043
 7571SOL    HW234350   3.880   1.592  17.144 -0.2453 -4.7297 -2.0085
 7572SOL     OW34351   1.607   0.231  15.280 -0.0730 -0.0864 -0.2993
 7572SOL    HW134352   1.618   0.291  15.206  0.3228  0.1738 -0.0264
 7572SOL    HW234353   1.679   0.172  15.258  0.2621 -0.1300  0.9167
 7573SOL     OW34354   3.939   3.664   0.941  0.4980 -0.5864  0.2126
 7573SOL    HW134355   3.975   3.745   0.905 -1.1854  0.8365  1.7130
 7573SOL    HW234356   3.979   3.605   0.877 -1.0957 -1.5492  0.1012
 7574SOL     OW34357   2.608   1.492   5.826 -0.5307 -0.0344 -0.7706
 7574SOL    HW134358   2.528   1.454   5.864  0.3670 -0.3214  0.8495
 7574SOL    HW234359   2.652   1.412   5.798  2.8001  1.4527  0.2654
 7575SOL     OW34360   2.565   4.268   4.869  0.3614  0.2880  0.5375
 7575SOL    HW134361   2.496   4.206   4.891 -1.0945  1.2748 -1.2861
 7575SOL    HW234362   2.609   4.240   4.790 -1.8881 -1.8210  0.0424
 7576SOL     OW34363   2.015   3.904  16.491 -0.2149  0.0516  0.6644
 7576SOL    HW134364   1.984   3.825  16.447 -1.0149  1.2285 -0.8935
 7576SOL    HW234365   1.976   3.978  16.443 -0.4602 -1.8938 -2.1265
 7577SOL     OW34366   3.024   1.156   5.753 -0.0574 -0.1180 -0.3854
 7577SOL    HW134367   3.040   1.147   5.847 -0.8484  1.3052 -0.1178
 7577SOL    HW234368   2.956   1.089   5.746  0.8507 -1.1006  0.1435
 7578SOL     OW34369   0.631   3.923   4.052  0.7596  0.3227  0.1020
 7578SOL    HW134370   0.560   3.877   4.005  0.2537  1.2855 -0.0769
 7578SOL    HW234371   0.668   3.848   4.097 -0.0350 -1.4032 -2.1003
 7579SOL     OW34372   2.986   3.457   2.979 -0.0613  0.2814 -0.2024
 7579SOL    HW134373   2.997   3.462   2.884  2.7956  1.5008  0.1995
 7579SOL    HW234374   3.051   3.388   2.987 -1.4597 -0.9469  0.4099
 7580SOL     OW34375   0.872   2.733   6.672 -0.0603  0.3186  0.0158
 7580SOL    HW134376   0.851   2.731   6.765 -0.3558  0.7766 -0.0347
 7580SOL    HW234377   0.964   2.757   6.682 -0.1677  0.6104  0.3147
 7581SOL     OW34378   1.375   2.549   5.028  0.6541  0.5785  0.2272
 7581SOL    HW134379   1.395   2.601   5.107 -0.8777 -0.7026  1.4655
 7581SOL    HW234380   1.339   2.467   5.063  2.3254 -0.0153  0.5419
 7582SOL     OW34381   3.063   0.710   9.956 -0.1652  0.2856 -0.0653
 7582SOL    HW134382   3.117   0.697   9.878 -0.8247  0.8490 -0.6102
 7582SOL    HW234383   3.041   0.803   9.951  1.5536  0.7536  0.8831
 7583SOL     OW34384   4.045   1.832   4.837  0.0954  0.0742  0.4629
 7583SOL    HW134385   4.124   1.827   4.784  0.1146 -2.9103  0.7764
 7583SOL    HW234386   4.078   1.826   4.926 -0.1634  2.7839  0.7426
 7584SOL     OW34387   0.353   0.825   9.217 -0.3387 -0.2929 -0.2847
 7584SOL    HW134388   0.318   0.796   9.134  0.2232  0.5646 -0.8237
 7584SOL    HW234389   0.275   0.852   9.266  1.1294 -0.9794  2.4575
 7585SOL     OW34390   3.561   0.595   8.785 -0.2213  0.4598 -0.5956
 7585SOL    HW134391   3.558   0.562   8.695  1.8932  0.5827 -0.7116
 7585SOL    HW234392   3.655   0.592   8.805 -0.1285 -2.6997 -1.4668
 7586SOL     OW34393   4.619   4.346   6.237  0.0388 -0.2298  0.0944
 7586SOL    HW134394   4.699   4.304   6.268 -0.6409  0.3632  2.6865
 7586SOL    HW234395   4.551   4.311   6.294 -1.4098  0.4673 -1.1986
 7587SOL     OW34396   1.462   2.074   9.020  1.1899  0.0600  0.4245
 7587SOL    HW134397   1.551   2.041   9.033  1.9902  1.8748 -0.3852
 7587SOL    HW234398   1.476   2.167   9.038  0.1223  0.4967 -0.9287
 7588SOL     OW34399   3.448   3.871  13.705 -0.6085  0.0146  0.1619
 7588SOL    HW134400   3.542   3.878  13.689 -0.4938 -2.0469 -0.1556
 7588SOL    HW234401   3.430   3.942  13.766 -0.7060 -0.3467  0.5507
 7589SOL     OW34402   3.475   1.341   7.739 -0.0182 -0.0226  0.4821
 7589SOL    HW134403   3.397   1.318   7.688  1.4245 -2.3767 -0.6626
 7589SOL    HW234404   3.472   1.265   7.796 -2.0650 -0.1195  0.2537
 7590SOL     OW34405   1.602   4.172   8.569  0.6532 -0.1952  0.1234
 7590SOL    HW134406   1.575   4.257   8.535 -0.4876 -1.3272 -1.7620
 7590SOL    HW234407   1.515   4.135   8.580  1.0880 -1.2544  0.0042
 7591SOL     OW34408   1.636   0.736   5.157 -0.0203 -0.2303 -0.3790
 7591SOL    HW134409   1.616   0.692   5.074 -2.2667  1.2777 -0.6289
 7591SOL    HW234410   1.713   0.787   5.133  0.6717 -1.7709 -1.4528
 7592SOL     OW34411   2.869   0.303   1.898  0.0829 -0.7526  0.3689
 7592SOL    HW134412   2.845   0.275   1.810  1.2817 -1.1945  0.1945
 7592SOL    HW234413   2.813   0.380   1.910  3.0166  1.6849 -1.6715
 7593SOL     OW34414   4.593   3.083  13.587 -0.3361 -0.1611 -1.1674
 7593SOL    HW134415   4.650   3.012  13.559  0.1433 -0.3388  0.2463
 7593SOL    HW234416   4.620   3.159  13.536  3.3196  0.2991  1.4494
 7594SOL     OW34417   2.568   4.441   9.492 -0.6960  0.0639  0.8859
 7594SOL    HW134418   2.577   4.536   9.502  2.1004 -0.0263 -0.6484
 7594SOL    HW234419   2.496   4.441   9.430 -0.6574 -1.3996  0.8350
 7595SOL     OW34420   2.893   3.899   1.559 -0.0895  0.0593 -0.0286
 7595SOL    HW134421   2.894   3.985   1.602 -0.9947 -0.8287  1.7701
 7595SOL    HW234422   2.840   3.853   1.623 -0.2206  1.2671  0.7322
 7596SOL     OW34423   2.304   0.377   3.207 -0.0746  0.0180  0.0620
 7596SOL    HW134424   2.240   0.384   3.135 -0.5316 -2.9303  0.1780
 7596SOL    HW234425   2.270   0.307   3.262 -0.8285  1.9815  2.0639
 7597SOL     OW34426   4.255   0.107   4.500 -0.2596 -0.2205  0.2011
 7597SOL    HW134427   4.291   0.021   4.524  0.0715 -0.0227  0.4168
 7597SOL    HW234428   4.335   0.159   4.504  0.7918 -1.7692 -0.5472
 7598SOL     OW34429   1.532   0.899   5.358  0.2826  0.2306 -0.9843
 7598SOL    HW134430   1.613   0.924   5.403 -0.7951  1.6883  0.1285
 7598SOL    HW234431   1.566   0.835   5.295  0.5319  0.1311 -0.7525
 7599SOL     OW34432   0.668   3.833   7.964  1.0251 -0.3679  0.6205
 7599SOL    HW134433   0.762   3.836   7.979  1.3441 -1.7870 -1.0388
 7599SOL    HW234434   0.662   3.925   7.939  1.5874 -0.6920 -0.7275
 7600SOL     OW34435   4.262   3.996   7.659 -0.0515 -0.1608  0.3108
 7600SOL    HW134436   4.219   4.081   7.666  1.9891  1.0102 -1.7734
 7600SOL    HW234437   4.193   3.935   7.632 -0.9182  0.6077  0.7982
 7601SOL     OW34438   2.539   0.868   8.297 -0.3116 -0.2885 -0.1453
 7601SOL    HW134439   2.620   0.910   8.325  0.6135 -0.6365 -2.2910
 7601SOL    HW234440   2.475   0.907   8.356  0.9557 -1.7808  2.2073
 7602SOL     OW34441   1.525   1.825  10.618  0.3519 -0.5259  0.0803
 7602SOL    HW134442   1.619   1.828  10.633  0.1002 -2.1622  2.0830
 7602SOL    HW234443   1.505   1.905  10.569 -0.3566  0.4646  1.9745
 7603SOL     OW34444   3.389   3.749  16.934 -0.1020 -0.0032  0.8770
 7603SOL    HW134445   3.394   3.844  16.918  0.4936 -0.1802 -0.0062
 7603SOL    HW234446   3.448   3.721  16.864  0.3892  2.4933  0.2866
 7604SOL     OW34447   1.983   0.837   3.826 -0.0186 -0.1378 -0.0908
 7604SOL    HW134448   1.995   0.896   3.752 -0.8893  1.3659  0.9666
 7604SOL    HW234449   2.039   0.882   3.889  0.0386 -1.5625  0.8571
 7605SOL     OW34450   0.722   1.859   2.103  0.3230  0.3016  0.4343
 7605SOL    HW134451   0.732   1.952   2.080 -0.2889  0.7452  2.0021
 7605SOL    HW234452   0.812   1.847   2.134  0.9871 -0.3461 -1.7050
 7606SOL     OW34453   4.616   0.642   6.703  0.0592  0.0205  0.5580
 7606SOL    HW134454   4.707   0.662   6.724  0.6259 -0.6218 -1.3178
 7606SOL    HW234455   4.565   0.702   6.757 -0.6694  0.4848 -0.6291
 7607SOL     OW34456   4.110   0.662   5.333 -0.0661 -0.3890  0.3706
 7607SOL    HW134457   4.045   0.730   5.348 -0.8946 -1.0570 -0.1313
 7607SOL    HW234458   4.185   0.698   5.381  0.8099 -4.4723  2.0993
 7608SOL     OW34459   4.534   2.596  10.135 -0.4645 -0.1462  0.3173
 7608SOL    HW134460   4.512   2.525  10.195 -1.7796 -0.6988 -0.8205
 7608SOL    HW234461   4.470   2.567  10.070 -1.5808  1.1112  0.8585
 7609SOL     OW34462   3.929   2.367   9.425  0.0706 -0.1308  0.1161
 7609SOL    HW134463   3.985   2.440   9.452 -0.9843  1.7542 -2.7899
 7609SOL    HW234464   3.981   2.288   9.439  0.0467 -0.1911 -0.1246
 7610SOL     OW34465   2.621   0.624  11.988 -0.1439 -0.2087  0.3146
 7610SOL    HW134466   2.610   0.663  11.901 -0.6482 -0.0598  0.4486
 7610SOL    HW234467   2.664   0.540  11.973  0.5713  0.9260 -4.0914
 7611SOL     OW34468   4.159   3.493   3.012  0.2435  0.4568  0.0529
 7611SOL    HW134469   4.206   3.410   3.011 -0.6441 -0.0293 -1.0483
 7611SOL    HW234470   4.140   3.491   2.919  2.3321  1.4801 -0.3863
 7612SOL     OW34471   4.389   2.800   8.687  0.3949  0.3948  0.3353
 7612SOL    HW134472   4.379   2.711   8.719  0.7633 -0.0412 -0.7619
 7612SOL    HW234473   4.297   2.823   8.678  0.0418 -1.4781 -0.8975
 7613SOL     OW34474   2.858   4.007   5.705 -0.1342  0.1326  0.7445
 7613SOL    HW134475   2.828   4.018   5.795  1.0294 -0.1119  1.1675
 7613SOL    HW234476   2.919   3.934   5.713 -2.2234 -1.3248  3.2558
 7614SOL     OW34477   1.564   2.641   7.095  0.5559  0.5600 -0.2447
 7614SOL    HW134478   1.534   2.614   7.182 -1.3881  1.7471 -0.5286
 7614SOL    HW234479   1.601   2.559   7.063 -0.5992 -0.3102  0.6316
 7615SOL     OW34480   3.660   4.623   4.976  0.5849 -0.4583 -1.0997
 7615SOL    HW134481   3.575   4.590   5.006  1.5617 -0.7584  1.3332
 7615SOL    HW234482   3.716   4.584   5.043 -1.3752  0.0056  0.8201
 7616SOL     OW34483   1.078   2.396   7.275  0.0138  0.0836  0.0945
 7616SOL    HW134484   0.984   2.402   7.294  0.3618 -0.5495  1.9384
 7616SOL    HW234485   1.107   2.487   7.277  0.1707 -0.0010  1.6042
 7617SOL     OW34486   1.604   3.842   8.013  0.4312 -0.1057  0.7388
 7617SOL    HW134487   1.521   3.839   8.060  1.6158 -2.1686  2.6935
 7617SOL    HW234488   1.621   3.934   7.995  2.2116 -0.2667  1.5047
 7618SOL     OW34489   3.144   4.188   5.940 -0.2905  0.0895 -0.3918
 7618SOL    HW134490   3.059   4.225   5.916  0.8384  1.6444 -1.9640
 7618SOL    HW234491   3.203   4.256   5.909 -1.1375 -0.3395 -2.9306
 7619SOL     OW34492   4.193   0.021  12.892 -0.9481 -0.1748 -0.1554
 7619SOL    HW134493   4.168   0.087  12.957 -1.9439  0.6951 -1.4253
 7619SOL    HW234494   4.286   0.025  12.915 -1.1205 -2.3945  0.8686
 7620SOL     OW34495   3.897   2.334   2.064 -0.0647 -0.0617 -0.3419
 7620SOL    HW134496   3.838   2.282   2.009 -1.8115 -0.2166  1.6797
 7620SOL    HW234497   3.883   2.426   2.040  0.5372 -0.0585 -0.6795
 7621SOL     OW34498   2.900   0.981   9.317 -0.2710  0.2880 -0.1100
 7621SOL    HW134499   2.925   0.914   9.253  0.2454 -0.9021  1.3063
 7621SOL    HW234500   2.990   0.992   9.350 -0.9132  0.7681  1.4911
 7622SOL     OW34501   1.300   3.912   8.079  0.4290 -0.5072  0.4206
 7622SOL    HW134502   1.225   3.942   8.131 -1.1106 -2.2443 -0.7857
 7622SOL    HW234503   1.337   3.847   8.140  0.9539 -0.6985 -0.1064
 7623SOL     OW34504   1.858   2.580  14.237  0.0896  0.7891  0.5546
 7623SOL    HW134505   1.870   2.514  14.305  0.5264 -0.0346 -0.3195
 7623SOL    HW234506   1.783   2.631  14.268 -0.9088 -0.3456 -0.0116
 7624SOL     OW34507   1.422   4.275   5.910  0.5971 -0.3018 -0.2208
 7624SOL    HW134508   1.470   4.222   5.974 -0.4810  1.2498  1.8480
 7624SOL    HW234509   1.345   4.302   5.960  0.4936  0.7153 -0.9319
 7625SOL     OW34510   1.441   2.716   8.012  0.0712  0.2420 -0.1285
 7625SOL    HW134511   1.400   2.786   7.961 -2.3619 -1.6328 -0.6976
 7625SOL    HW234512   1.511   2.678   7.959  0.4623  0.9691 -0.1384
 7626SOL     OW34513   4.089   4.709  10.231 -0.0341  0.0729  0.4141
 7626SOL    HW134514   4.050   4.622  10.237 -0.5831  0.1165 -2.4024
 7626SOL    HW234515   4.025   0.026  10.277  0.2578  1.7498 -1.1120
 7627SOL     OW34516   0.119   0.813   3.306 -0.1933 -0.2367  0.9099
 7627SOL    HW134517   0.077   0.896   3.284  0.0072 -0.5901 -0.8147
 7627SOL    HW234518   0.057   0.792   3.375 -1.6566  0.2141 -0.2491
 7628SOL     OW34519   4.222   4.309  11.333 -0.5247 -1.0020 -0.5178
 7628SOL    HW134520   4.243   4.368  11.260 -1.6069  0.1881  0.1314
 7628SOL    HW234521   4.306   4.268  11.353 -1.4599 -2.8299 -0.2451
 7629SOL     OW34522   0.946   2.585   8.854  0.8049  0.3574  0.1793
 7629SOL    HW134523   0.988   2.662   8.816  2.2004  0.8801  2.7835
 7629SOL    HW234524   0.980   2.577   8.943  1.1664  1.7142  0.1640
 7630SOL     OW34525   4.032   3.412   9.601 -0.2187  0.3459 -0.1497
 7630SOL    HW134526   3.987   3.345   9.548 -0.0937 -1.1970  1.6974
 7630SOL    HW234527   3.975   3.488   9.604 -1.6645 -0.5575 -4.4907
 7631SOL     OW34528   3.412   2.095   7.203  0.1747  0.7275 -0.0787
 7631SOL    HW134529   3.425   2.009   7.163 -2.4157  0.9694 -1.4523
 7631SOL    HW234530   3.319   2.113   7.189 -0.2893 -0.9810  0.8771
 7632SOL     OW34531   0.295   1.107  10.443 -0.0113  0.4919 -0.2956
 7632SOL    HW134532   0.256   1.153  10.369 -0.5328  1.1748  0.3900
 7632SOL    HW234533   0.239   1.140  10.514  2.8349  3.1938  0.6881
 7633SOL     OW34534   1.488   3.285  17.153 -0.2990 -0.3330 -0.1865
 7633SOL    HW134535   1.412   3.335  17.183  0.8082 -0.5489  2.9164
 7633SOL    HW234536   1.560   3.324  17.201 -1.8519 -0.4039  2.2066
 7634SOL     OW34537   1.961   0.881   1.871 -0.6181 -0.0909 -0.4808
 7634SOL    HW134538   2.036   0.857   1.817 -0.6258 -1.0667 -0.0661
 7634SOL    HW234539   1.950   0.803   1.925  1.3851  0.3430  0.5487
 7635SOL     OW34540   2.019   1.595  17.341 -0.7882 -0.5236  0.1021
 7635SOL    HW134541   1.983   1.509  17.323 -4.2664  1.2331 -1.2680
 7635SOL    HW234542   2.059   1.622  17.259 -0.1010  2.2415  1.3354
 7636SOL     OW34543   4.070   3.498   4.353 -0.1792  0.0416  0.3294
 7636SOL    HW134544   4.041   3.589   4.362  0.4011  0.1494  1.0702
 7636SOL    HW234545   4.158   3.523   4.327  0.1326 -2.5681 -1.0783
 7637SOL     OW34546   0.659   2.024   6.893  0.0972  0.2726 -0.2908
 7637SOL    HW134547   0.618   1.938   6.895  1.6308 -0.3679  5.6000
 7637SOL    HW234548   0.749   1.992   6.892 -0.2198 -0.6959  2.7441
 7638SOL     OW34549   3.580   3.604   7.191 -0.0833  0.0234 -0.0466
 7638SOL    HW134550   3.492   3.595   7.154 -0.1042 -0.8574  0.2180
 7638SOL    HW234551   3.599   3.696   7.176  1.2121 -0.0653  1.0065
 7639SOL     OW34552   0.138   3.034   3.358 -0.2497 -0.9151  0.4223
 7639SOL    HW134553   0.166   3.021   3.267 -0.4882  0.2123  0.1898
 7639SOL    HW234554   0.138   3.129   3.368 -1.9386 -0.8926  0.0668
 7640SOL     OW34555   2.026   0.584  15.953  0.5365 -0.0601 -0.3418
 7640SOL    HW134556   1.965   0.513  15.971 -0.4515  0.0533 -3.2302
 7640SOL    HW234557   2.057   0.552  15.868  0.9089 -0.1944 -0.1557
 7641SOL     OW34558   0.855   1.413   4.627  0.1743 -0.5787 -0.1420
 7641SOL    HW134559   0.889   1.348   4.688 -1.9226  0.6161  2.2936
 7641SOL    HW234560   0.870   1.366   4.545 -0.9870  0.4557 -0.9469
 7642SOL     OW34561   3.047   0.290   8.870 -0.3338 -0.0215  0.1958
 7642SOL    HW134562   3.141   0.308   8.864 -0.7042  1.6751 -0.5340
 7642SOL    HW234563   3.043   0.198   8.896 -0.7041  0.1951  0.8936
 7643SOL     OW34564   3.983   2.398   4.689 -0.0378 -0.2620 -0.1646
 7643SOL    HW134565   3.898   2.396   4.644 -0.4680  0.2153  0.6189
 7643SOL    HW234566   3.970   2.482   4.733  0.5137  0.3132 -1.0999
 7644SOL     OW34567   2.644   2.385   4.635 -0.3988  0.2423 -0.3219
 7644SOL    HW134568   2.662   2.360   4.545  1.0393  4.0084 -1.0745
 7644SOL    HW234569   2.551   2.363   4.645 -0.9395  1.8561 -1.8597
 7645SOL     OW34570   0.326   3.526   1.297  0.4072  0.2566  0.1412
 7645SOL    HW134571   0.321   3.486   1.210  0.7461  0.4407  0.0363
 7645SOL    HW234572   0.393   3.464   1.328  0.4123 -0.5370 -1.4695
 7646SOL     OW34573   1.312   0.091  12.725  0.2165  0.3953 -0.0405
 7646SOL    HW134574   1.239   0.110  12.785  0.1723 -0.3098  0.1289
 7646SOL    HW234575   1.338   0.179  12.700 -1.7372  0.5305 -1.6146
 7647SOL     OW34576   2.599   1.674   6.831 -0.1077 -0.4969  0.0803
 7647SOL    HW134577   2.513   1.677   6.789 -0.7412 -1.1642  1.3076
 7647SOL    HW234578   2.624   1.766   6.823  0.2981 -0.4041  2.3759
 7648SOL     OW34579   0.979   1.226   1.966 -0.3519 -0.5133 -0.0746
 7648SOL    HW134580   0.927   1.173   2.026  0.3552  1.4780  2.2706
 7648SOL    HW234581   0.934   1.308   1.986  0.6175  0.3044 -1.2257
 7649SOL     OW34582   0.428   1.336   7.884  0.2886 -0.1084 -0.0352
 7649SOL    HW134583   0.347   1.381   7.859  1.5780  2.1437 -0.1557
 7649SOL    HW234584   0.431   1.360   7.977  1.4421 -0.0422 -0.0948
 7650SOL     OW34585   3.979   1.861   2.617  0.8095  0.0763 -0.0531
 7650SOL    HW134586   3.994   1.953   2.636  0.3917  0.4147 -1.3304
 7650SOL    HW234587   3.979   1.813   2.700 -0.6109  1.0872  0.5188
 7651SOL     OW34588   0.502   2.910   8.149  0.0767  0.2665 -0.2109
 7651SOL    HW134589   0.461   2.980   8.200  0.7319  0.0881  0.5756
 7651SOL    HW234590   0.430   2.855   8.120 -2.1104  0.8576  4.0093
 7652SOL     OW34591   0.217   4.719   4.591  0.1602 -0.7334  0.1402
 7652SOL    HW134592   0.227   0.077   4.587 -0.3581 -0.7627 -1.9352
 7652SOL    HW234593   0.270   4.702   4.513  2.3182  0.0940  1.4394
 7653SOL     OW34594   0.583   4.114   7.988  0.2275 -0.3028  0.3059
 7653SOL    HW134595   0.494   4.120   8.022 -0.5726 -0.2004 -1.8315
 7653SOL    HW234596   0.619   4.202   7.986 -1.7555  0.4838 -0.0558
 7654SOL     OW34597   2.989   4.117  11.092  0.0500 -0.0539 -0.4590
 7654SOL    HW134598   2.937   4.189  11.128 -1.0017 -2.2224  2.3574
 7654SOL    HW234599   2.922   4.070  11.042  0.2744 -0.7437 -0.0957
 7655SOL     OW34600   3.903   2.753   1.648 -0.2255 -0.4927 -0.2508
 7655SOL    HW134601   3.812   2.725   1.636 -1.1361  1.1164  2.8412
 7655SOL    HW234602   3.945   2.727   1.566 -1.3442  0.7415 -1.2107
 7656SOL     OW34603   0.757   2.583   6.002  0.3756  0.4552 -0.6888
 7656SOL    HW134604   0.707   2.560   6.081  0.5072  1.7546 -0.2322
 7656SOL    HW234605   0.776   2.495   5.969  1.1663 -0.8136  3.1499
 7657SOL     OW34606   1.264   3.664   5.172 -0.4120  0.4623 -0.1047
 7657SOL    HW134607   1.243   3.720   5.248 -1.9826  0.4827 -0.5412
 7657SOL    HW234608   1.308   3.589   5.210  0.3269  0.7731 -0.3579
 7658SOL     OW34609   4.571   3.085  11.449  0.3852  0.0192 -0.0907
 7658SOL    HW134610   4.573   3.022  11.377  1.5128 -0.6577  0.5321
 7658SOL    HW234611   4.596   3.030  11.524  2.1891  1.3989  0.3016
 7659SOL     OW34612   2.870   0.643   4.603 -0.0758 -0.3805 -0.9132
 7659SOL    HW134613   2.913   0.688   4.676 -0.1246 -1.5220 -0.1846
 7659SOL    HW234614   2.874   0.552   4.632  0.1822 -0.2576 -0.5615
 7660SOL     OW34615   2.277   4.686   5.423  0.2428 -0.3805  0.7964
 7660SOL    HW134616   2.216   4.725   5.360  0.3496  0.8984  1.5024
 7660SOL    HW234617   2.300   4.610   5.370  0.6077 -0.4544  1.0620
 7661SOL     OW34618   0.290   4.727   2.907  0.1838  0.3785  0.0891
 7661SOL    HW134619   0.368   0.012   2.857  0.6136 -0.8639  0.2156
 7661SOL    HW234620   0.331   4.729   2.994 -0.6341  1.5597  0.4459
 7662SOL     OW34621   1.766   0.928   9.147  0.1344 -0.3072 -0.3434
 7662SOL    HW134622   1.679   0.888   9.158 -1.9554  4.2522 -0.1466
 7662SOL    HW234623   1.763   0.973   9.062  1.3178 -1.8512 -1.2076
 7663SOL     OW34624   1.365   1.806  17.588  0.1356 -0.3469  0.6550
 7663SOL    HW134625   1.428   1.793  17.517 -1.7005 -1.4123 -0.7432
 7663SOL    HW234626   1.277   1.808  17.552  0.0826  0.8042  0.8433
 7664SOL     OW34627   0.775   2.545  10.752  0.6368  0.1218  0.6164
 7664SOL    HW134628   0.841   2.491  10.708  0.6067  0.9307 -0.4208
 7664SOL    HW234629   0.813   2.631  10.734  2.2827 -0.6545  0.3599
 7665SOL     OW34630   3.194   0.786   6.681 -0.9041 -0.0299  0.2796
 7665SOL    HW134631   3.136   0.735   6.739 -0.8840 -0.0830  0.2524
 7665SOL    HW234632   3.168   0.752   6.596 -0.5458 -1.8617  0.8868
 7666SOL     OW34633   4.250   0.425   8.855  0.1360  0.1779  0.1947
 7666SOL    HW134634   4.225   0.339   8.889  0.4905 -0.6502 -1.6356
 7666SOL    HW234635   4.210   0.425   8.768  1.0600 -2.1001 -0.2115
 7667SOL     OW34636   0.489   1.765  17.569  0.1844  0.1193  0.3457
 7667SOL    HW134637   0.404   1.808  17.572  0.4083  0.5841  0.0832
 7667SOL    HW234638   0.527   1.820  17.501  0.0391 -1.3436 -0.8923
 7668SOL     OW34639   2.319   1.820   8.474 -0.4612 -0.6514 -0.0620
 7668SOL    HW134640   2.257   1.769   8.526 -2.3278 -0.5852 -2.2300
 7668SOL    HW234641   2.390   1.762   8.448 -1.3670 -1.0880 -1.5425
 7669SOL     OW34642   3.893   0.392  10.203 -0.5498  0.0497 -0.5027
 7669SOL    HW134643   3.903   0.453  10.129 -0.5596  0.3946 -0.2190
 7669SOL    HW234644   3.942   0.434  10.274 -0.4040  1.7825 -1.6115
 7670SOL     OW34645   0.231   3.251   3.489 -0.0433  0.6224  0.5347
 7670SOL    HW134646   0.201   3.237   3.579 -0.9725  0.4332  0.2011
 7670SOL    HW234647   0.291   3.324   3.499  1.4086 -0.6405  0.9796
 7671SOL     OW34648   1.840   2.381   7.633 -0.3580  0.0407  0.4104
 7671SOL    HW134649   1.865   2.295   7.666 -0.4619 -0.0632  0.2202
 7671SOL    HW234650   1.744   2.373   7.634 -0.3558 -0.4603 -1.6349
 7672SOL     OW34651   1.040   0.641   5.207 -0.0927  0.2355 -0.4894
 7672SOL    HW134652   1.014   0.566   5.260  1.0660  0.4830  0.4166
 7672SOL    HW234653   1.134   0.648   5.226  0.0824 -1.8182 -0.6044
 7673SOL     OW34654   3.826   0.032   8.229  0.0431 -0.2779 -0.2098
 7673SOL    HW134655   3.828   0.067   8.318  1.9895  0.5321 -0.5701
 7673SOL    HW234656   3.833   4.676   8.248 -1.8858 -0.1042  1.3197
 7674SOL     OW34657   4.689   2.472   0.934  0.2816 -0.6902  0.2884
 7674SOL    HW134658   4.607   2.431   0.962  0.1285 -1.1793 -0.9135
 7674SOL    HW234659   4.665   2.564   0.949 -0.7748 -0.8827 -0.2662
 7675SOL     OW34660   1.640   3.458  15.006  0.1926 -0.1374 -0.2258
 7675SOL    HW134661   1.597   3.467  15.092  0.5720  1.6377 -0.2322
 7675SOL    HW234662   1.576   3.516  14.964  2.0710  0.7768 -1.7890
 7676SOL     OW34663   4.208   2.202   0.004 -0.4669 -0.0136 -0.7651
 7676SOL    HW134664   4.269   2.164   0.067  0.7302  1.3607 -1.1216
 7676SOL    HW234665   4.122   2.183   0.042 -0.5194 -0.2514 -1.0025
 7677SOL     OW34666   2.882   3.819   4.354  0.2625 -0.0240  0.0177
 7677SOL    HW134667   2.976   3.833   4.341  0.0891 -0.2114 -1.5306
 7677SOL    HW234668   2.884   3.730   4.389 -1.4067 -1.4833 -3.5060
 7678SOL     OW34669   4.678   3.007   6.581  0.1331  0.3336 -0.0012
 7678SOL    HW134670   4.733   2.959   6.644 -2.8546  0.3320  2.5872
 7678SOL    HW234671   4.602   3.032   6.632 -2.5920 -0.8313 -3.5207
 7679SOL     OW34672   3.901   3.502   9.035 -0.5006 -0.1834 -0.1237
 7679SOL    HW134673   3.987   3.467   9.061 -1.0088 -0.4259  1.1883
 7679SOL    HW234674   3.848   3.426   9.056  3.7355 -2.0001  3.9098
 7680SOL     OW34675   0.269   4.651  16.960  0.2079 -0.4579  0.5227
 7680SOL    HW134676   0.282   4.611  16.874 -2.4482  0.5170 -0.3381
 7680SOL    HW234677   0.218   4.730  16.940  0.8754 -0.5338 -1.5523
 7681SOL     OW34678   2.576   0.369   4.555 -0.8977 -0.5205 -0.3118
 7681SOL    HW134679   2.482   0.369   4.573 -0.7889 -0.0927  0.2684
 7681SOL    HW234680   2.582   0.408   4.468  1.9560  1.6556  0.8755
 7682SOL     OW34681   1.300   3.443  16.410 -0.2386 -0.1154 -0.2762
 7682SOL    HW134682   1.393   3.465  16.412 -0.2743  0.1548 -1.3772
 7682SOL    HW234683   1.313   3.363  16.358 -0.2156 -0.9915  1.0897
 7683SOL     OW34684   0.460   3.121   9.695  0.3806  0.7177 -0.0692
 7683SOL    HW134685   0.392   3.063   9.660  2.3962 -0.9882 -1.1801
 7683SOL    HW234686   0.410   3.202   9.707  2.8534  2.2877 -0.4596
 7684SOL     OW34687   0.946   4.376   8.910 -0.2055 -0.3030  0.0755
 7684SOL    HW134688   1.018   4.385   8.847 -1.9822 -0.3974 -1.9501
 7684SOL    HW234689   0.995   4.388   8.992 -0.4527 -0.3562  0.2297
 7685SOL     OW34690   2.345   3.103   8.097 -0.2758  0.0924  0.2915
 7685SOL    HW134691   2.316   3.119   8.187  1.0091  0.3873  0.6422
 7685SOL    HW234692   2.296   3.170   8.049  0.2091  0.3574  0.1653
 7686SOL     OW34693   0.779   1.224   8.487  0.4215  0.0026 -0.3442
 7686SOL    HW134694   0.810   1.258   8.571 -0.8120 -0.8169  0.4460
 7686SOL    HW234695   0.734   1.303   8.457  0.7371  0.5195  0.5417
 7687SOL     OW34696   0.585   1.112   1.396 -0.0285  0.0268 -0.1904
 7687SOL    HW134697   0.641   1.039   1.425 -0.3808  1.0048  2.9903
 7687SOL    HW234698   0.651   1.167   1.354  0.6622 -1.0434 -0.5285
 7688SOL     OW34699   1.629   1.917   0.933  0.0257  0.1650 -0.2224
 7688SOL    HW134700   1.566   1.985   0.909 -0.2512  0.6326  1.8270
 7688SOL    HW234701   1.587   1.854   0.992  2.1117 -1.2658 -0.2258
 7689SOL     OW34702   2.807   0.105  14.613 -0.3087 -0.1388 -0.0599
 7689SOL    HW134703   2.860   0.091  14.535  0.3675 -4.6921  1.1837
 7689SOL    HW234704   2.841   0.037  14.672 -1.8671 -0.3137  0.6459
 7690SOL     OW34705   0.393   3.122   5.064 -0.4294  0.0899 -1.0348
 7690SOL    HW134706   0.409   3.030   5.042 -2.6655 -0.7295  0.7516
 7690SOL    HW234707   0.298   3.132   5.066 -0.1672  2.1225  1.0933
 7691SOL     OW34708   1.852   1.823   5.590 -0.3636 -0.6500 -0.1614
 7691SOL    HW134709   1.902   1.757   5.638  2.1928  0.4337 -1.3311
 7691SOL    HW234710   1.759   1.800   5.588 -0.4936 -0.1465  0.2068
 7692SOL     OW34711   4.026   3.271  13.353 -0.0144 -0.1442 -0.9765
 7692SOL    HW134712   4.086   3.198  13.336 -0.8655 -1.0966  0.1396
 7692SOL    HW234713   3.963   3.234  13.414  0.3081 -1.3873 -1.3975
 7693SOL     OW34714   1.084   2.451   7.963 -0.5057 -0.3843 -0.0939
 7693SOL    HW134715   1.058   2.399   7.887 -2.0170 -0.9765  0.8099
 7693SOL    HW234716   1.141   2.387   8.006  1.6629  2.0225  0.6374
 7694SOL     OW34717   2.176   1.780  12.543  0.1990  0.0667 -0.7059
 7694SOL    HW134718   2.179   1.737  12.457 -1.3215  2.5940 -2.0066
 7694SOL    HW234719   2.114   1.851  12.526  0.3237  0.4086  0.3104
 7695SOL     OW34720   4.270   3.846   5.500  0.2251  0.0050 -0.0940
 7695SOL    HW134721   4.249   3.926   5.452 -0.8964  0.0647  0.4945
 7695SOL    HW234722   4.363   3.858   5.517 -0.0761 -0.0054  1.5949
 7696SOL     OW34723   2.329   1.077  10.280  0.2815 -1.2418  0.0264
 7696SOL    HW134724   2.330   1.043  10.191  1.6761  2.4201 -1.3694
 7696SOL    HW234725   2.297   1.004  10.333 -1.6621 -0.0000  0.5926
 7697SOL     OW34726   3.191   0.184   5.507 -0.2252 -0.9055  0.1184
 7697SOL    HW134727   3.246   0.250   5.550 -1.3404 -1.0680  1.7954
 7697SOL    HW234728   3.172   0.127   5.582 -2.4271 -1.0666 -0.5856
 7698SOL     OW34729   2.677   4.466   9.194 -0.4557  0.1058  0.0461
 7698SOL    HW134730   2.742   4.518   9.147  0.4639 -0.1275  1.0550
 7698SOL    HW234731   2.610   4.452   9.126  1.0307 -1.2151 -1.1360
 7699SOL     OW34732   2.651   0.500   4.088  0.6751  0.1148  0.2674
 7699SOL    HW134733   2.727   0.548   4.053  1.5932 -1.3452  0.2543
 7699SOL    HW234734   2.695   0.415   4.086 -2.6158 -1.5885  0.4303
 7700SOL     OW34735   4.606   4.312   8.820 -0.6618 -0.0866 -0.2839
 7700SOL    HW134736   4.690   4.277   8.848 -0.2994  1.3977  0.4981
 7700SOL    HW234737   4.551   4.253   8.871 -0.0042  1.1530  1.8432
 7701SOL     OW34738   1.224   1.706  10.586 -0.2424 -0.0146  0.2539
 7701SOL    HW134739   1.316   1.730  10.579 -0.5477  0.5519 -1.8986
 7701SOL    HW234740   1.200   1.790  10.626 -0.4810 -0.5878  1.3044
 7702SOL     OW34741   0.592   1.000   3.256 -0.1133  0.0375 -0.1524
 7702SOL    HW134742   0.580   0.965   3.168  0.3676 -0.5668  0.0228
 7702SOL    HW234743   0.561   1.088   3.235  3.1224  0.9472 -1.0971
 7703SOL     OW34744   1.991   1.598   5.726 -0.4453 -0.4015  0.4645
 7703SOL    HW134745   2.042   1.569   5.802  0.6565 -1.8193 -0.8323
 7703SOL    HW234746   2.059   1.607   5.659 -1.0034  1.1888  0.1192
 7704SOL     OW34747   1.174   0.316   6.777  0.2762  0.2920  0.5242
 7704SOL    HW134748   1.264   0.347   6.792  0.6052 -0.7404  0.7012
 7704SOL    HW234749   1.185   0.231   6.736 -0.1883 -0.6082  2.2806
 7705SOL     OW34750   4.147   0.244   7.147 -0.5892 -0.7572  0.3629
 7705SOL    HW134751   4.132   0.155   7.180 -4.9337 -0.3880 -0.6209
 7705SOL    HW234752   4.142   0.219   7.055  0.0970 -1.5134  0.5282
 7706SOL     OW34753   1.875   2.303   3.872  0.1510 -0.9794 -0.3863
 7706SOL    HW134754   1.862   2.209   3.880  0.6285 -1.0202 -0.0884
 7706SOL    HW234755   1.792   2.333   3.836  2.5803  2.0054 -3.4808
 7707SOL     OW34756   4.631   3.119  14.834 -0.0798 -0.1249  0.3719
 7707SOL    HW134757   4.598   3.056  14.770 -0.0737 -0.3108  0.5531
 7707SOL    HW234758   4.659   3.181  14.766  2.2772  0.4155  1.8593
 7708SOL     OW34759   0.277   1.573   0.021 -0.7165  0.2812 -0.1705
 7708SOL    HW134760   0.365   1.568   0.058 -0.6988 -1.0747 -0.4064
 7708SOL    HW234761   0.267   1.484  17.733  1.4648  0.0309 -0.1555
 7709SOL     OW34762   1.104   2.657  17.602 -0.4792 -0.0003  0.1024
 7709SOL    HW134763   1.048   2.588  17.638  0.2210  0.0604  1.2861
 7709SOL    HW234764   1.065   2.732  17.647 -0.3315 -0.8642  1.6549
 7710SOL     OW34765   2.951   2.462  10.131  0.2522 -0.3750 -0.9883
 7710SOL    HW134766   3.025   2.503  10.176 -1.2197 -1.2882  2.3243
 7710SOL    HW234767   2.885   2.532  10.134  0.9934  0.2863 -0.0858
 7711SOL     OW34768   4.298   0.038   6.174 -0.2860 -0.0778  0.0963
 7711SOL    HW134769   4.330   0.090   6.100  0.1712  0.5536  0.7420
 7711SOL    HW234770   4.227   0.089   6.213 -1.1123  1.8294 -3.8461
 7712SOL     OW34771   0.613   4.562   9.376  0.2382 -0.4821 -0.0535
 7712SOL    HW134772   0.664   4.642   9.391  0.3597 -0.3927 -0.9358
 7712SOL    HW234773   0.615   4.560   9.281  0.6629 -1.3145 -0.0217
 7713SOL     OW34774   4.256   0.870  12.743  0.3521 -0.2634  0.3810
 7713SOL    HW134775   4.252   0.958  12.781 -0.2477  0.5062 -1.4469
 7713SOL    HW234776   4.343   0.834  12.759  0.3368  0.1102  1.3290
 7714SOL     OW34777   2.150   1.273   2.027  0.0253 -0.4965 -0.4465
 7714SOL    HW134778   2.148   1.224   2.110  0.5277 -0.4979 -0.4329
 7714SOL    HW234779   2.220   1.335   2.048 -1.2882  0.8269  0.0332
 7715SOL     OW34780   2.991   0.990   5.210  0.7544 -0.7592  0.0912
 7715SOL    HW134781   2.941   0.974   5.290 -0.6812  0.8549 -0.4810
 7715SOL    HW234782   2.989   0.906   5.164 -0.1395 -0.9780  0.5262
 7716SOL     OW34783   0.966   3.060   3.471 -0.0179  0.5744 -0.5961
 7716SOL    HW134784   0.946   2.994   3.405  0.2769 -0.9814  0.8640
 7716SOL    HW234785   1.036   3.009   3.512 -3.2375 -2.6013  0.9375
 7717SOL     OW34786   1.309   0.442   7.322  0.8329  0.1235  0.9868
 7717SOL    HW134787   1.226   0.442   7.369  0.5065 -3.2846  0.3731
 7717SOL    HW234788   1.325   0.537   7.329  0.8649  0.2272 -0.4179
 7718SOL     OW34789   0.464   3.653  12.588  0.0164 -0.4009 -0.1439
 7718SOL    HW134790   0.553   3.631  12.561  0.5221  1.2382  0.1802
 7718SOL    HW234791   0.455   3.725  12.526  4.4616  0.7800  0.6363
 7719SOL     OW34792   0.554   4.488  15.251  0.2703  0.2822 -0.2255
 7719SOL    HW134793   0.474   4.531  15.283  0.4375 -0.6790  1.5444
 7719SOL    HW234794   0.600   4.551  15.197 -1.8875  0.5767 -1.7367
 7720SOL     OW34795   3.969   1.083  13.169  0.0202 -0.4208  0.4837
 7720SOL    HW134796   4.043   1.036  13.208  0.0891  1.1644  2.2415
 7720SOL    HW234797   3.995   1.171  13.196  0.7804 -0.7142  0.7158
 7721SOL     OW34798   1.199   1.352   3.160 -0.9159 -0.8321  0.0563
 7721SOL    HW134799   1.134   1.290   3.193 -1.6300 -1.5377 -2.6761
 7721SOL    HW234800   1.271   1.291   3.142  0.5364  1.0076 -0.4362
 7722SOL     OW34801   3.129   0.475  10.363 -0.0365 -0.3539  0.4103
 7722SOL    HW134802   3.045   0.521  10.374 -0.1812 -0.2289 -1.1906
 7722SOL    HW234803   3.141   0.436  10.450 -0.3523 -1.9231 -0.2430
 7723SOL     OW34804   2.835   2.298  13.789 -0.0189 -0.0437  0.0772
 7723SOL    HW134805   2.880   2.348  13.857  3.9075  0.3491 -2.8095
 7723SOL    HW234806   2.859   2.210  13.817  1.3185  1.0761  2.3514
 7724SOL     OW34807   3.607   1.554   9.023  0.3412 -0.0794  0.2492
 7724SOL    HW134808   3.576   1.465   9.042 -2.5462  0.8195 -0.1879
 7724SOL    HW234809   3.694   1.545   9.061 -0.4116 -1.8247  1.5475
 7725SOL     OW34810   2.180   3.172   9.876 -0.8530  0.2137 -0.1782
 7725SOL    HW134811   2.239   3.194   9.804  1.4232  1.6516  2.1153
 7725SOL    HW234812   2.130   3.253   9.883  0.9346  1.4322 -1.4061
 7726SOL     OW34813   0.986   2.211  11.526  0.0774 -0.0813 -0.0563
 7726SOL    HW134814   1.042   2.207  11.603 -1.9155  0.4892  1.4470
 7726SOL    HW234815   0.993   2.300  11.492  0.3070 -0.2717 -0.5067
 7727SOL     OW34816   1.920   0.218  12.111  0.7373 -0.0835 -0.0020
 7727SOL    HW134817   1.956   0.130  12.099  1.4513  0.3363 -0.9094
 7727SOL    HW234818   1.996   0.273  12.094 -0.6781  1.3089 -1.8264
 7728SOL     OW34819   4.662   0.499   7.839 -0.1761 -0.0493  0.0799
 7728SOL    HW134820   4.657   0.415   7.794 -4.6083 -1.3111  2.8913
 7728SOL    HW234821   0.019   0.500   7.858 -0.0188  0.2380 -0.7292
 7729SOL     OW34822   4.440   4.186   2.746  0.0390 -0.6396  0.2378
 7729SOL    HW134823   4.439   4.163   2.839  1.4585 -1.2903  0.1025
 7729SOL    HW234824   4.493   4.115   2.708  2.5077  0.4766  1.5960
 7730SOL     OW34825   3.530   0.374   4.214 -0.3012 -0.4154  0.2418
 7730SOL    HW134826   3.560   0.334   4.132  0.5473 -0.4264  0.5520
 7730SOL    HW234827   3.441   0.405   4.197  0.3067 -0.0560 -2.2891
 7731SOL     OW34828   3.008   0.150  13.090 -0.8034 -0.7238 -0.6268
 7731SOL    HW134829   2.968   0.224  13.044  2.3394  0.9642 -0.6157
 7731SOL    HW234830   2.938   0.132  13.153  0.8519 -0.2583  1.3598
 7732SOL     OW34831   1.795   2.202   3.495  0.5940  0.5169  0.2821
 7732SOL    HW134832   1.748   2.253   3.560  0.2576 -1.1288  1.3303
 7732SOL    HW234833   1.774   2.111   3.517 -0.2451  1.0451  1.5894
 7733SOL     OW34834   3.413   1.906  17.490  0.2318 -0.4761  0.5240
 7733SOL    HW134835   3.457   1.984  17.522  0.5944 -1.2711  1.9493
 7733SOL    HW234836   3.439   1.840  17.555  0.3761 -1.2377 -0.2933
 7734SOL     OW34837   2.885   3.537   4.467 -0.0667  0.9244  0.5455
 7734SOL    HW134838   2.885   3.579   4.554 -1.5393 -1.8978  1.8897
 7734SOL    HW234839   2.936   3.459   4.489 -4.2892 -1.3887  2.1105
 7735SOL     OW34840   2.204   1.952   7.965 -0.3038 -0.5223  1.0305
 7735SOL    HW134841   2.221   1.987   8.052 -0.2417 -0.8002  1.1270
 7735SOL    HW234842   2.174   1.865   7.988  2.6661 -2.5609 -2.6581
 7736SOL     OW34843   0.678   1.487   1.008  0.0952  1.2140  0.0414
 7736SOL    HW134844   0.738   1.506   0.937  1.5242  2.2513  1.5143
 7736SOL    HW234845   0.606   1.444   0.962  0.3273  1.8985 -0.9566
 7737SOL     OW34846   1.112   1.310   1.129 -0.8396 -0.0970 -0.0816
 7737SOL    HW134847   1.173   1.246   1.091 -0.9045 -0.0233 -0.3106
 7737SOL    HW234848   1.135   1.393   1.088 -0.7385 -0.1158 -0.0625
 7738SOL     OW34849   3.134   4.517   3.367  0.1198  0.1374  0.0024
 7738SOL    HW134850   3.094   4.556   3.445 -0.0292  1.1721 -0.5983
 7738SOL    HW234851   3.217   4.492   3.406  0.6148  0.2684 -0.9789
 7739SOL     OW34852   2.617   4.220  12.519 -0.4422  0.4444  0.0395
 7739SOL    HW134853   2.688   4.250  12.576 -0.0388  0.4015 -0.4391
 7739SOL    HW234854   2.658   4.203  12.434 -0.9104  0.7318 -0.2459
 7740SOL     OW34855   2.927   3.335   3.311  0.0348 -0.1218  0.6035
 7740SOL    HW134856   2.922   3.264   3.247  1.0259 -0.4316  0.8633
 7740SOL    HW234857   3.016   3.367   3.297 -0.2444  1.5594  2.7219
 7741SOL     OW34858   2.940   4.405   3.214 -0.1036  0.3026  0.3664
 7741SOL    HW134859   2.865   4.426   3.270 -2.1361 -0.8992 -1.9050
 7741SOL    HW234860   3.013   4.434   3.268  0.4395 -0.4025  0.0050
 7742SOL     OW34861   3.269   0.467  12.579 -0.6758 -0.8705 -0.5084
 7742SOL    HW134862   3.211   0.422  12.641  0.0258  1.4456  1.8081
 7742SOL    HW234863   3.359   0.447  12.604 -0.8653  0.4792  1.2126
 7743SOL     OW34864   2.376   2.580   9.429 -0.2222  0.0123 -0.3708
 7743SOL    HW134865   2.464   2.608   9.404  0.0809 -0.6784 -0.0738
 7743SOL    HW234866   2.381   2.572   9.524 -0.8720  1.4920 -0.2184
 7744SOL     OW34867   3.428   3.675   6.851 -0.6427 -0.1417  0.1670
 7744SOL    HW134868   3.397   3.627   6.927 -0.1789 -0.8089 -0.0583
 7744SOL    HW234869   3.405   3.765   6.873  0.4918  0.3004 -0.4116
 7745SOL     OW34870   0.072   3.519   6.327 -0.1769 -0.2318  0.5535
 7745SOL    HW134871   0.111   3.605   6.339  1.1903 -0.6109 -1.1475
 7745SOL    HW234872   0.140   3.467   6.370  0.1877  1.1638  1.6799
 7746SOL     OW34873   0.095   2.384  16.712  0.7351 -0.0444  0.3132
 7746SOL    HW134874   0.183   2.398  16.676  1.5767 -0.3085  2.2564
 7746SOL    HW234875   0.103   2.427  16.797 -1.1931 -0.0067  0.4634
 7747SOL     OW34876   1.535   4.220   2.237 -0.4218  0.0640 -0.9675
 7747SOL    HW134877   1.552   4.138   2.283  1.5337 -0.0251 -1.8558
 7747SOL    HW234878   1.482   4.196   2.161  0.6026 -2.0498 -1.0174
 7748SOL     OW34879   1.954   0.666   3.408 -0.1795  0.0617 -0.0012
 7748SOL    HW134880   2.012   0.741   3.421 -0.5299  0.5300 -1.1008
 7748SOL    HW234881   1.972   0.604   3.479 -0.2426 -0.8158 -0.7469
 7749SOL     OW34882   2.126   0.433   7.720 -0.3085 -0.4742  0.1644
 7749SOL    HW134883   2.149   0.342   7.705 -1.1876 -0.9037  1.3823
 7749SOL    HW234884   2.120   0.465   7.630 -1.4902 -0.0849  0.3751
 7750SOL     OW34885   2.069   4.604  11.771 -0.5537 -0.2440 -0.0131
 7750SOL    HW134886   2.152   4.570  11.804  1.8122  3.1144 -2.4777
 7750SOL    HW234887   2.038   4.650  11.849  0.9747  2.1022 -0.7907
 7751SOL     OW34888   0.236   3.737   1.114 -0.3746 -0.2001 -0.1652
 7751SOL    HW134889   0.284   3.694   1.184 -0.2609 -0.4595 -0.4051
 7751SOL    HW234890   0.151   3.697   1.129  0.8994 -1.9003  2.3892
 7752SOL     OW34891   4.643   1.116   8.696  1.0259  0.6091  0.6486
 7752SOL    HW134892   4.724   1.064   8.693  0.5482 -0.1280  0.4877
 7752SOL    HW234893   4.654   1.164   8.613  0.3363 -2.2752 -1.1228
 7753SOL     OW34894   2.941   1.889  16.790  1.2660  0.2731 -0.3497
 7753SOL    HW134895   2.934   1.965  16.733  0.9974  0.6094  0.1288
 7753SOL    HW234896   2.981   1.933  16.866  1.4375  0.9018 -0.8073
 7754SOL     OW34897   3.499   0.765  16.365  0.1326  0.0394  0.0939
 7754SOL    HW134898   3.479   0.857  16.382  1.5445  0.3258  0.2169
 7754SOL    HW234899   3.591   0.785  16.346  0.3729 -0.4016  0.7856
 7755SOL     OW34900   1.855   1.811  17.435  0.4746 -0.1412 -0.1818
 7755SOL    HW134901   1.888   1.722  17.425 -0.5291 -0.3513 -1.5759
 7755SOL    HW234902   1.896   1.846  17.356  2.5589 -2.2701 -0.0483
 7756SOL     OW34903   1.999   0.397   2.039 -0.4205  0.4213  0.3945
 7756SOL    HW134904   1.989   0.352   1.955  2.3354 -0.4969  0.5701
 7756SOL    HW234905   1.940   0.342   2.090 -0.0295 -0.0213  0.3720
 7757SOL     OW34906   3.383   4.016   3.327  0.5766 -0.3034 -0.2869
 7757SOL    HW134907   3.435   4.031   3.406  1.1686  0.5302 -0.8281
 7757SOL    HW234908   3.418   3.929   3.307 -0.6992 -0.1806 -2.9915
 7758SOL     OW34909   1.211   3.715   9.412 -0.1717 -0.5614 -0.3710
 7758SOL    HW134910   1.292   3.764   9.394 -0.8728  0.8045  0.2900
 7758SOL    HW234911   1.148   3.773   9.454 -0.2700 -0.7607 -0.2431
 7759SOL     OW34912   2.405   3.381  13.418 -0.0519  0.5448 -0.2217
 7759SOL    HW134913   2.460   3.438  13.472 -0.5347  0.6706  0.1344
 7759SOL    HW234914   2.422   3.416  13.331 -1.4383  0.1395 -0.6442
 7760SOL     OW34915   1.012   4.016   4.628 -0.2798 -0.4281  0.0326
 7760SOL    HW134916   0.942   3.980   4.573 -0.5757 -1.3373  1.0158
 7760SOL    HW234917   1.078   3.947   4.617 -0.4086 -0.4851 -0.3964
 7761SOL     OW34918   1.036   0.210   1.496 -0.2864  0.0929  0.1860
 7761SOL    HW134919   0.952   0.232   1.537 -0.1841  0.7766  0.0209
 7761SOL    HW234920   1.085   0.292   1.498 -0.6254  0.3164 -0.6966
 7762SOL     OW34921   2.864   0.556   2.714 -0.3936 -0.3360 -0.4831
 7762SOL    HW134922   2.943   0.592   2.755 -1.4930  2.1562 -0.5554
 7762SOL    HW234923   2.801   0.628   2.717 -1.1262 -0.8835 -2.7906
 7763SOL     OW34924   2.002   0.371   0.614 -0.1515  0.0166  0.0319
 7763SOL    HW134925   1.921   0.422   0.626 -1.5478 -2.1178 -0.2449
 7763SOL    HW234926   2.046   0.440   0.564  1.9044 -1.8755 -0.7681
 7764SOL     OW34927   0.292   2.728   5.196 -0.1440 -0.3615  0.2807
 7764SOL    HW134928   0.202   2.697   5.202 -1.3023  3.2659  1.5226
 7764SOL    HW234929   0.327   2.669   5.263  1.0240 -0.7682 -0.6917
 7765SOL     OW34930   3.271   4.118   9.475 -0.5424  0.3442 -0.5832
 7765SOL    HW134931   3.296   4.197   9.523 -1.7365  0.4655 -0.1614
 7765SOL    HW234932   3.291   4.147   9.386  2.2405 -0.0171 -0.0784
 7766SOL     OW34933   1.702   4.253   0.285  0.1758 -0.0369 -0.0976
 7766SOL    HW134934   1.702   4.314   0.359  3.0249  0.9129 -0.8639
 7766SOL    HW234935   1.679   4.314   0.215 -0.4097 -1.5099 -1.1879
 7767SOL     OW34936   3.787   1.830   5.764  0.4294 -0.6580 -0.1699
 7767SOL    HW134937   3.753   1.787   5.685  0.9772 -1.9031  0.2712
 7767SOL    HW234938   3.878   1.844   5.736 -0.2461  1.7399 -1.1842
 7768SOL     OW34939   3.644   0.952  14.575  0.8242  0.1616  0.5590
 7768SOL    HW134940   3.570   0.975  14.518  1.6831  0.2698 -0.5187
 7768SOL    HW234941   3.696   1.032  14.565 -1.4432  1.8007  1.9715
 7769SOL     OW34942   1.762   1.102   5.290 -0.3948  0.0925  0.3223
 7769SOL    HW134943   1.677   1.144   5.281 -1.4119 -1.8554  0.8798
 7769SOL    HW234944   1.765   1.061   5.376  0.1116 -0.5117  0.0180
 7770SOL     OW34945   1.939   0.211   4.458  0.1169  0.5762 -0.5972
 7770SOL    HW134946   1.856   0.176   4.492  1.6398 -1.6754  0.7928
 7770SOL    HW234947   1.985   0.128   4.443  0.3564  0.5990  0.0191
 7771SOL     OW34948   1.419   2.897  13.171 -0.2575 -0.1859  0.1734
 7771SOL    HW134949   1.383   2.891  13.259 -0.9699  0.0544 -0.1052
 7771SOL    HW234950   1.508   2.891  13.207 -0.7050  2.3475  1.6764
 7772SOL     OW34951   2.994   3.793   5.993 -0.3248  0.7592  0.6427
 7772SOL    HW134952   2.922   3.730   5.996  0.1997  0.2006  1.1952
 7772SOL    HW234953   3.029   3.799   5.904  0.1512 -0.8676  0.7261
 7773SOL     OW34954   2.030   2.468   9.573  0.1885  0.2303  0.8062
 7773SOL    HW134955   2.055   2.546   9.622  1.8170  0.2643 -0.0594
 7773SOL    HW234956   2.079   2.403   9.624 -0.3431 -1.4387 -0.8221
 7774SOL     OW34957   1.785   3.578   5.537  0.3509 -0.1158  0.1370
 7774SOL    HW134958   1.868   3.535   5.517 -0.2845 -1.0226 -0.5985
 7774SOL    HW234959   1.799   3.616   5.624  0.2140 -0.2564  0.2205
 7775SOL     OW34960   1.268   2.128   8.581 -0.2429 -0.5036  0.0588
 7775SOL    HW134961   1.326   2.076   8.636  0.9691 -1.6427 -2.3343
 7775SOL    HW234962   1.325   2.204   8.566  0.7008 -0.8486  1.9200
 7776SOL     OW34963   2.081   0.259   4.179  0.0681  0.1905  0.3874
 7776SOL    HW134964   2.028   0.338   4.170 -1.0706 -0.5411  0.5025
 7776SOL    HW234965   2.049   0.225   4.264  2.5625  0.0603  1.2661
 7777SOL     OW34966   2.148   3.068   9.541  0.8372  0.0032 -0.4979
 7777SOL    HW134967   2.133   3.156   9.507 -0.2815  0.0752  0.2151
 7777SOL    HW234968   2.073   3.064   9.599 -0.6055  0.5959 -2.3218
 7778SOL     OW34969   4.065   4.650   8.473  0.7514  0.7949 -0.7391
 7778SOL    HW134970   4.137   4.675   8.415  2.2780 -2.1732 -0.1836
 7778SOL    HW234971   4.024   4.586   8.414  1.3400 -2.6804  2.5740
 7779SOL     OW34972   3.667   2.264   3.548 -0.6334  0.6753  0.5468
 7779SOL    HW134973   3.590   2.297   3.501 -0.2511  0.0760 -0.4864
 7779SOL    HW234974   3.628   2.179   3.567  0.8744  0.0651  0.9124
 7780SOL     OW34975   4.619   4.732  12.159 -0.2388 -0.1100 -0.2370
 7780SOL    HW134976   4.646   0.074  12.111 -0.9461 -0.7092 -1.6315
 7780SOL    HW234977   4.698   4.680  12.151 -1.5170 -1.6416 -2.7842
 7781SOL     OW34978   1.627   1.495   8.217 -0.4505 -0.0390  0.0795
 7781SOL    HW134979   1.716   1.503   8.183 -0.5282  2.7715  0.5304
 7781SOL    HW234980   1.644   1.508   8.310  0.1526 -0.4391  0.0270
 7782SOL     OW34981   4.432   1.774   7.028 -0.4537 -0.2011  0.2880
 7782SOL    HW134982   4.521   1.776   7.063  0.7313  2.1597 -2.7582
 7782SOL    HW234983   4.423   1.680   7.018  0.3831 -0.1745 -0.7333
 7783SOL     OW34984   0.203   3.058   8.668  0.7401  0.5570 -0.3653
 7783SOL    HW134985   0.159   2.980   8.700  0.2270  0.4064 -1.4402
 7783SOL    HW234986   0.126   3.112   8.651 -0.6734 -0.8045  1.6185
 7784SOL     OW34987   3.178   4.477   8.787  0.4957 -0.3221  0.5525
 7784SOL    HW134988   3.082   4.474   8.791  0.3745  2.3838 -0.5711
 7784SOL    HW234989   3.204   4.466   8.696 -0.5039 -1.1799  0.3677
 7785SOL     OW34990   0.397   0.819   7.609  0.2439 -0.2990  0.0218
 7785SOL    HW134991   0.445   0.876   7.549 -0.1951  0.4734  0.4049
 7785SOL    HW234992   0.442   0.843   7.690 -1.6966 -0.9406  1.2744
 7786SOL     OW34993   1.490   4.321  14.763  0.3470  0.2977 -0.1512
 7786SOL    HW134994   1.419   4.373  14.800 -0.5401 -0.0630 -1.3297
 7786SOL    HW234995   1.446   4.273  14.693 -2.7385  2.8546  0.0359
 7787SOL     OW34996   4.632   0.954   5.475 -0.2938  0.9282 -0.2036
 7787SOL    HW134997   4.709   0.976   5.423  0.7775  2.0333  1.8703
 7787SOL    HW234998   4.566   1.014   5.439 -2.3924 -0.3146  1.5519
 7788SOL     OW34999   2.266   0.381   2.076 -0.0100 -0.4022  0.7166
 7788SOL    HW135000   2.170   0.389   2.078 -0.0766 -1.1179  0.2447
 7788SOL    HW235001   2.282   0.411   2.166 -1.1421  0.3961  0.6657
 7789SOL     OW35002   1.191   3.163   0.924  0.0795 -0.1269  0.5617
 7789SOL    HW135003   1.280   3.144   0.952  0.6195 -1.3388 -2.0127
 7789SOL    HW235004   1.182   3.258   0.924 -0.0560 -0.1471 -1.5940
 7790SOL     OW35005   1.736   1.877   6.258 -0.1625  0.1809  0.6476
 7790SOL    HW135006   1.828   1.866   6.279  0.4521 -0.6537 -2.5247
 7790SOL    HW235007   1.723   1.851   6.167 -1.4196  0.8392  0.6346
 7791SOL     OW35008   0.149   4.206  16.915  0.0842 -0.0055  0.0748
 7791SOL    HW135009   0.065   4.170  16.943 -0.0502  0.3621  0.1511
 7791SOL    HW235010   0.189   4.126  16.881 -0.6048  1.0992 -3.3622
 7792SOL     OW35011   2.589   2.059   1.020  0.5188 -0.2389 -0.4144
 7792SOL    HW135012   2.530   2.021   0.955  0.7455 -0.2633 -0.6041
 7792SOL    HW235013   2.628   1.973   1.037 -0.1794 -0.8568 -1.9686
 7793SOL     OW35014   1.563   1.452   7.874  0.1150 -0.0154  0.2641
 7793SOL    HW135015   1.593   1.441   7.784 -1.7011 -1.3606 -0.1845
 7793SOL    HW235016   1.606   1.388   7.932  1.2064 -1.1862 -1.8211
 7794SOL     OW35017   3.380   1.395   8.728  0.0245  0.5067 -0.0903
 7794SOL    HW135018   3.408   1.386   8.637 -1.4170  2.5427 -0.7453
 7794SOL    HW235019   3.287   1.415   8.713 -0.1007 -0.0412 -0.0603
 7795SOL     OW35020   4.283   4.064   5.127  0.0439  0.2425 -0.0420
 7795SOL    HW135021   4.255   4.081   5.218  1.7702 -0.5063  0.6291
 7795SOL    HW235022   4.203   4.050   5.078  0.9676 -0.2073 -1.4151
 7796SOL     OW35023   1.702   0.480  10.828 -0.4838  0.2248 -0.3805
 7796SOL    HW135024   1.667   0.569  10.825 -0.5172  0.2294  0.2057
 7796SOL    HW235025   1.788   0.492  10.789  1.3729 -1.6364  3.1888
 7797SOL     OW35026   1.419   0.062   7.045  0.1772 -0.3682  0.2138
 7797SOL    HW135027   1.432   4.705   7.034 -1.5208 -0.6771  0.7618
 7797SOL    HW235028   1.500   0.111   7.030  0.2835 -1.7336 -3.7543
 7798SOL     OW35029   3.587   2.085  15.853 -0.2653  0.4538  0.1427
 7798SOL    HW135030   3.604   2.144  15.926 -1.0700  0.6771  0.1510
 7798SOL    HW235031   3.526   2.023  15.894  1.3066 -0.5983  0.8866
 7799SOL     OW35032   0.038   0.857   6.372 -0.3520  0.7434 -0.2419
 7799SOL    HW135033   4.725   0.776   6.383  1.5311 -0.1700  1.4754
 7799SOL    HW235034   4.705   0.910   6.333  0.5630  2.2026  0.1110
 7800SOL     OW35035   3.253   1.235  16.241  0.0887 -0.4405  0.4111
 7800SOL    HW135036   3.324   1.238  16.177 -0.1969 -0.8255  0.0756
 7800SOL    HW235037   3.207   1.317  16.223  0.8125  0.1555  1.2432
 7801SOL     OW35038   3.469   3.265  14.587  0.9954 -0.6622 -0.7093
 7801SOL    HW135039   3.479   3.303  14.675 -1.2471 -1.7126  0.0078
 7801SOL    HW235040   3.513   3.316  14.520 -0.6033 -0.6222 -1.7138
 7802SOL     OW35041   1.290   3.767   5.419  0.6916  0.0500  0.0453
 7802SOL    HW135042   1.379   3.734   5.435  0.4433 -1.3963 -1.4941
 7802SOL    HW235043   1.268   3.829   5.487 -2.3546  0.7942 -1.6274
 7803SOL     OW35044   0.222   3.413   4.686  0.0870  0.1769 -0.4658
 7803SOL    HW135045   0.303   3.382   4.645  0.5295 -1.1659  1.4482
 7803SOL    HW235046   0.171   3.384   4.610 -2.4357 -1.2597  1.7749
 7804SOL     OW35047   1.074   4.159   5.486  0.3794  0.2080  0.0579
 7804SOL    HW135048   1.029   4.243   5.487 -0.2670 -0.1452  0.4300
 7804SOL    HW235049   1.011   4.117   5.428  1.0928  0.8080 -1.1492
 7805SOL     OW35050   1.786   1.482   0.086  0.2335 -0.3237 -0.4449
 7805SOL    HW135051   1.701   1.442   0.105 -0.6014  0.6476 -2.0675
 7805SOL    HW235052   1.759   1.566   0.049 -0.0786 -0.2772 -0.1116
 7806SOL     OW35053   0.687   2.384   4.179 -0.0342 -0.0336  0.2944
 7806SOL    HW135054   0.686   2.423   4.092  1.0313  0.4248  0.4952
 7806SOL    HW235055   0.591   2.382   4.184 -0.0009  1.4306  1.5567
 7807SOL     OW35056   0.350   3.780   8.171 -0.2634 -0.1770 -0.7538
 7807SOL    HW135057   0.357   3.780   8.075  1.9381  1.4897 -0.5959
 7807SOL    HW235058   0.374   3.871   8.185 -0.7599 -0.4230  1.5965
 7808SOL     OW35059   3.051   0.335   9.229  0.5140  0.1131  0.1919
 7808SOL    HW135060   2.992   0.400   9.267 -1.1243 -2.0544  1.3053
 7808SOL    HW235061   2.989   0.263   9.219 -0.1520  0.6235  0.6278
 7809SOL     OW35062   1.336   3.894   1.857  0.1350 -0.5265  1.4926
 7809SOL    HW135063   1.402   3.889   1.787  0.0152  1.0596  1.2818
 7809SOL    HW235064   1.329   3.800   1.877 -0.1250 -0.8881 -0.2571
 7810SOL     OW35065   4.717   0.948   7.382  0.2963 -0.7717  0.1661
 7810SOL    HW135066   0.056   0.977   7.433 -0.0487  2.5810 -1.2452
 7810SOL    HW235067   4.728   0.854   7.400  0.9791 -1.3808 -3.3313
 7811SOL     OW35068   0.444   3.750   3.964  0.1393 -0.0253 -0.1246
 7811SOL    HW135069   0.356   3.712   3.973 -0.7065  1.7554 -0.7616
 7811SOL    HW235070   0.484   3.665   3.946 -2.5932 -1.5942  1.1373
 7812SOL     OW35071   3.648   0.555   7.149  0.2220 -0.7783 -0.0786
 7812SOL    HW135072   3.659   0.630   7.207 -0.1331  0.1272 -1.1694
 7812SOL    HW235073   3.741   0.541   7.133  0.5432  0.9354  0.3431
 7813SOL     OW35074   2.327   0.483   1.275  0.1258 -0.0541  0.2610
 7813SOL    HW135075   2.376   0.481   1.193  0.9871  1.4740  0.7512
 7813SOL    HW235076   2.321   0.391   1.304 -1.2563  0.5199  1.8294
 7814SOL     OW35077   3.645   1.279   3.108 -0.3221 -0.0943 -0.1092
 7814SOL    HW135078   3.718   1.230   3.145  0.4148  0.5835 -0.6710
 7814SOL    HW235079   3.677   1.337   3.039  0.5639 -2.0436 -1.3451
 7815SOL     OW35080   2.842   0.370   9.584 -0.0731  0.2148  0.3418
 7815SOL    HW135081   2.864   0.386   9.492 -1.1298 -0.5000 -0.0435
 7815SOL    HW235082   2.777   0.440   9.587 -2.4900 -1.9410 -1.5672
 7816SOL     OW35083   1.854   0.127   9.432 -0.5195 -0.6901 -0.0356
 7816SOL    HW135084   1.925   0.183   9.463 -2.1182  0.9847  0.5854
 7816SOL    HW235085   1.790   0.197   9.418  1.7953  1.1075 -1.7302
 7817SOL     OW35086   4.717   2.336   1.263  0.3086 -0.5888  0.6019
 7817SOL    HW135087   4.724   2.429   1.241  1.7722 -0.8318  0.0869
 7817SOL    HW235088   4.638   2.338   1.318 -1.0084 -0.1401 -1.2919
 7818SOL     OW35089   3.469   2.886   4.765 -0.3663 -0.4787 -0.5124
 7818SOL    HW135090   3.427   2.946   4.827  0.7667 -0.4784  0.2618
 7818SOL    HW235091   3.462   2.939   4.685  0.4469  0.0569 -0.2293
 7819SOL     OW35092   2.381   3.180   7.673 -0.1603 -0.0004  0.1248
 7819SOL    HW135093   2.351   3.160   7.584  0.0721  0.9852 -0.1691
 7819SOL    HW235094   2.302   3.211   7.717 -0.1265 -0.1089  0.2625
 7820SOL     OW35095   3.117   0.869   2.909  0.1422  0.5145 -0.2582
 7820SOL    HW135096   3.135   0.910   2.994 -0.8276  1.1666 -0.3569
 7820SOL    HW235097   3.147   0.936   2.848  0.0245  0.3898 -0.4503
 7821SOL     OW35098   2.619   3.381   3.959 -0.0717 -0.2716 -0.2574
 7821SOL    HW135099   2.659   3.332   3.887 -0.5429 -1.3849  0.2361
 7821SOL    HW235100   2.702   3.412   3.994 -1.2719  2.9000 -0.1392
 7822SOL     OW35101   2.778   4.180   3.125 -0.0118  0.1334  0.4612
 7822SOL    HW135102   2.831   4.152   3.050  1.0770  3.3333  0.0110
 7822SOL    HW235103   2.842   4.232   3.173 -0.4785  0.4486  0.7411
 7823SOL     OW35104   0.264   4.032   2.057  0.3507 -0.3039 -0.2014
 7823SOL    HW135105   0.223   4.118   2.049  2.0040  0.3037 -1.9463
 7823SOL    HW235106   0.333   4.037   1.991 -1.0742  3.0156 -1.4192
 7824SOL     OW35107   3.635   3.749  10.665 -0.3725  0.1774  0.7313
 7824SOL    HW135108   3.706   3.806  10.634 -0.0511 -0.7458 -0.2247
 7824SOL    HW235109   3.661   3.666  10.625 -3.0200 -0.8365  1.0671
 7825SOL     OW35110   1.373   2.313  14.144  0.2758  0.0441  0.2322
 7825SOL    HW135111   1.300   2.375  14.135  0.6839  0.8516  2.3803
 7825SOL    HW235112   1.423   2.321  14.063 -1.5077 -1.3955 -0.9850
 7826SOL     OW35113   2.797   3.783  16.861 -0.0435 -0.3377 -1.0219
 7826SOL    HW135114   2.878   3.832  16.847 -0.9418  1.3351 -0.4043
 7826SOL    HW235115   2.744   3.833  16.924  1.9670 -0.6531  0.8919
 7827SOL     OW35116   1.636   2.414   7.007  0.0337  0.8385 -0.0615
 7827SOL    HW135117   1.711   2.355   7.023 -0.3720  0.1637 -0.6636
 7827SOL    HW235118   1.588   2.372   6.936 -1.1044  1.0891  0.5541
 7828SOL     OW35119   0.656   4.686   4.560  0.0794  0.2036 -0.3941
 7828SOL    HW135120   0.630   0.013   4.627 -2.1571  0.0441 -1.0865
 7828SOL    HW235121   0.573   4.640   4.546 -1.2659  2.2899  0.6953
 7829SOL     OW35122   2.974   0.128   3.224 -0.0324 -0.0507 -0.2170
 7829SOL    HW135123   2.911   0.156   3.158 -1.2298  0.2733  1.0748
 7829SOL    HW235124   2.980   0.206   3.279 -2.7206  0.3494 -0.4900
 7830SOL     OW35125   0.969   0.190   9.286  0.5412  0.0768  0.2650
 7830SOL    HW135126   0.997   0.206   9.196 -1.7361 -1.1795 -0.6822
 7830SOL    HW235127   1.050   0.206   9.333  0.8727  1.3907 -0.7753
 7831SOL     OW35128   1.756   0.426   2.441  0.2197  0.6741  0.1285
 7831SOL    HW135129   1.724   0.375   2.367  0.7047 -1.0023  1.0854
 7831SOL    HW235130   1.847   0.428   2.411  0.8262 -0.0926  1.9293
 7832SOL     OW35131   3.821   1.660   5.224 -0.1673 -0.2972  0.2092
 7832SOL    HW135132   3.903   1.641   5.178  0.7907  1.4052  1.1998
 7832SOL    HW235133   3.782   1.725   5.165 -0.6192  0.2981  1.1662
 7833SOL     OW35134   4.605   3.097  12.080  0.0213 -0.0769  0.1698
 7833SOL    HW135135   4.564   3.145  12.008 -1.1048 -1.5940 -0.1913
 7833SOL    HW235136   4.577   3.009  12.056  0.6812 -0.2102 -0.1278
 7834SOL     OW35137   0.777   0.748  13.933  0.5947  0.4083  0.5265
 7834SOL    HW135138   0.862   0.739  13.976  0.7056  2.6445  0.7338
 7834SOL    HW235139   0.751   0.657  13.948 -1.3642  1.2011  1.9911
 7835SOL     OW35140   3.555   4.566   5.299  0.3714  0.5831 -0.3235
 7835SOL    HW135141   3.473   4.586   5.254  0.1777 -3.2967 -1.7350
 7835SOL    HW235142   3.574   4.482   5.256 -0.8565 -0.0742  0.4103
 7836SOL     OW35143   2.866   1.907   0.943 -0.3624 -0.6019 -0.1095
 7836SOL    HW135144   2.883   1.884   1.034 -4.7571 -0.9439  0.6225
 7836SOL    HW235145   2.806   1.837   0.916 -0.8622 -0.6033  0.9916
 7837SOL     OW35146   2.462   4.486   2.988  0.4440 -0.0357 -0.7459
 7837SOL    HW135147   2.428   4.401   3.016  0.5140 -0.1389 -0.9793
 7837SOL    HW235148   2.544   4.495   3.037 -0.2063  0.3884  0.2845
 7838SOL     OW35149   3.072   2.991   7.695  0.4976  0.6401  0.2703
 7838SOL    HW135150   3.149   2.975   7.640  1.2084 -0.1655  1.5143
 7838SOL    HW235151   3.042   2.902   7.709 -1.0470  0.6901 -2.6917
 7839SOL     OW35152   3.472   4.635   8.614  0.1998  0.0417 -0.3388
 7839SOL    HW135153   3.422   4.713   8.591 -0.7714 -0.0694  1.3806
 7839SOL    HW235154   3.474   4.579   8.536  0.0336 -0.4768  0.0325
 7840SOL     OW35155   4.027   0.181  10.913  0.0508 -0.7198  0.2076
 7840SOL    HW135156   4.076   0.099  10.907 -0.7180 -1.1132 -0.7921
 7840SOL    HW235157   3.949   0.130  10.934 -0.4383  0.0042  0.1584
 7841SOL     OW35158   0.717   1.033   6.441 -0.4558 -0.4959 -0.5163
 7841SOL    HW135159   0.670   1.046   6.358  1.9302  3.2063 -1.2655
 7841SOL    HW235160   0.659   0.994   6.507  0.3897  3.7694  2.7248
 7842SOL     OW35161   3.829   2.059  15.754 -0.0354  0.3733 -0.4308
 7842SOL    HW135162   3.853   2.068  15.846 -0.5645  0.1040 -0.2657
 7842SOL    HW235163   3.735   2.078  15.759 -0.1229  0.6335 -2.8628
 7843SOL     OW35164   4.158   0.431   4.148  0.2959 -0.6125  0.0511
 7843SOL    HW135165   4.087   0.458   4.089  1.7821  1.8027 -0.6285
 7843SOL    HW235166   4.112   0.372   4.207 -2.7249 -0.9161 -2.6016
 7844SOL     OW35167   3.185   1.223  17.298  0.6067  0.5575 -0.5288
 7844SOL    HW135168   3.247   1.218  17.371  0.8747  0.1291 -0.7881
 7844SOL    HW235169   3.201   1.140  17.253 -0.8469 -0.8663  1.5883
 7845SOL     OW35170   0.384   1.792   2.359 -0.2082 -0.3216 -0.0954
 7845SOL    HW135171   0.447   1.746   2.304  1.3438 -0.0952  1.4933
 7845SOL    HW235172   0.298   1.771   2.323  0.8984  0.5765 -3.3278
 7846SOL     OW35173   0.749   0.424   5.145  0.5745 -0.0286  0.2382
 7846SOL    HW135174   0.665   0.456   5.113  1.2847  0.8043 -0.7807
 7846SOL    HW235175   0.752   0.451   5.237 -2.9300 -0.2530  0.4030
 7847SOL     OW35176   4.166   0.175   8.958  0.5040  0.1255  0.7873
 7847SOL    HW135177   4.172   0.164   9.053 -3.2120 -2.1246  0.7725
 7847SOL    HW235178   4.248   0.133   8.933  0.4452  0.1327  0.5793
 7848SOL     OW35179   4.159   2.103   5.230  0.8126  0.1957 -0.1893
 7848SOL    HW135180   4.107   2.064   5.300  0.6894  0.8699  0.0894
 7848SOL    HW235181   4.221   2.163   5.272 -0.5280 -1.3666  4.0549
 7849SOL     OW35182   3.328   0.598  16.252 -0.4035 -0.3029  0.0338
 7849SOL    HW135183   3.362   0.537  16.185  1.1819  2.1947 -1.4584
 7849SOL    HW235184   3.409   0.644  16.276 -0.9026  1.1195 -1.0295
 7850SOL     OW35185   3.875   0.363  16.605 -0.5614  0.1264 -0.1088
 7850SOL    HW135186   3.860   0.442  16.656 -0.7994 -0.2908  0.4700
 7850SOL    HW235187   3.928   0.397  16.533  1.4314 -1.1791  0.7424
 7851SOL     OW35188   3.926   1.924  11.971  0.3628  0.2185 -0.2446
 7851SOL    HW135189   3.841   1.965  11.990 -0.3529 -2.2505  1.9005
 7851SOL    HW235190   3.899   1.887  11.887 -1.3244 -0.8628  0.7524
 7852SOL     OW35191   1.591   3.654  14.616  0.7226  0.3598  0.0337
 7852SOL    HW135192   1.565   3.674  14.706 -1.8183  2.5690 -1.1932
 7852SOL    HW235193   1.621   3.564  14.629  0.0717  0.3651  1.5844
 7853SOL     OW35194   3.124   1.482  16.191  0.2550 -0.3975 -0.0043
 7853SOL    HW135195   3.063   1.523  16.130 -0.3289 -1.5544 -0.2014
 7853SOL    HW235196   3.094   1.507  16.279 -1.5745  1.6433 -1.1983
 7854SOL     OW35197   1.057   0.355  17.151 -0.4122  0.1090  0.3062
 7854SOL    HW135198   0.980   0.412  17.138  0.1506  0.3538 -1.9233
 7854SOL    HW235199   1.108   0.358  17.071  1.9138  1.3007  1.8494
 7855SOL     OW35200   2.734   3.253   3.747  0.3355 -0.1948 -0.2174
 7855SOL    HW135201   2.825   3.242   3.719 -0.1147 -0.3992 -1.6027
 7855SOL    HW235202   2.693   3.171   3.718  1.6134 -0.4979 -1.1504
 7856SOL     OW35203   4.528   1.251   1.942  0.7949  0.0439 -0.8688
 7856SOL    HW135204   4.495   1.316   1.880 -1.2149  0.8129  0.9962
 7856SOL    HW235205   4.476   1.274   2.019  0.9641  0.6647 -0.9338
 7857SOL     OW35206   3.183   4.691   3.175 -0.3945 -0.2468 -0.4458
 7857SOL    HW135207   3.105   0.003   3.200 -0.6388 -2.7287  3.6265
 7857SOL    HW235208   3.188   4.643   3.258  0.9462 -0.5847 -0.7123
 7858SOL     OW35209   3.801   2.599   3.762 -0.1321 -0.7629  0.1312
 7858SOL    HW135210   3.858   2.535   3.805  2.7870  2.1293  0.5663
 7858SOL    HW235211   3.713   2.564   3.745  0.3863 -1.4205 -1.2164
 7859SOL     OW35212   2.027   1.849   6.053  0.3129 -0.2951  0.1743
 7859SOL    HW135213   2.077   1.787   6.107  2.0028  1.5686  0.7400
 7859SOL    HW235214   1.963   1.793   6.008 -0.6828  1.6516 -0.8170
 7860SOL     OW35215   1.788   2.060   7.275  0.5859 -0.1585  0.4085
 7860SOL    HW135216   1.864   2.003   7.283 -0.3270 -1.4318 -0.0082
 7860SOL    HW235217   1.728   1.993   7.307  0.3191 -0.0376  0.1569
 7861SOL     OW35218   3.833   1.257   8.214  0.1180  0.1810  0.4153
 7861SOL    HW135219   3.887   1.307   8.275  1.4193 -0.4184 -0.2422
 7861SOL    HW235220   3.753   1.309   8.211 -0.4612 -0.8294 -1.8880
 7862SOL     OW35221   0.867   2.016   8.982  0.2029  0.2403  0.0977
 7862SOL    HW135222   0.956   2.049   8.970 -0.1787  1.1593 -0.2332
 7862SOL    HW235223   0.862   1.974   8.896 -0.5435 -1.2340  0.8662
 7863SOL     OW35224   1.822   3.756  16.708 -0.1340 -0.1087  0.2133
 7863SOL    HW135225   1.875   3.824  16.667 -0.6577  0.4045  0.3952
 7863SOL    HW235226   1.739   3.748  16.661  0.7411 -1.6396 -1.0888
 7864SOL     OW35227   1.347   0.700   2.590 -0.6953  0.3147  1.0069
 7864SOL    HW135228   1.333   0.794   2.581  1.6489  0.6625  0.8190
 7864SOL    HW235229   1.418   0.688   2.526 -1.1659  2.0617  0.1507
 7865SOL     OW35230   2.560   0.263   5.742 -0.3891 -0.3494 -0.4847
 7865SOL    HW135231   2.500   0.315   5.689 -0.9434 -1.1954 -0.7030
 7865SOL    HW235232   2.538   0.296   5.829 -0.4485 -0.0088 -0.6317
 7866SOL     OW35233   4.221   1.685   3.243 -0.6516 -0.2692  0.7557
 7866SOL    HW135234   4.287   1.721   3.302  0.2748 -0.2009 -0.3311
 7866SOL    HW235235   4.158   1.758   3.245  1.4446  1.5338  1.3718
 7867SOL     OW35236   0.882   1.281  15.024  0.3432 -0.0720  0.0955
 7867SOL    HW135237   0.949   1.298  14.958  0.2899  2.2595  0.6665
 7867SOL    HW235238   0.806   1.319  14.981  0.4998 -0.1338 -0.2285
 7868SOL     OW35239   4.223   2.720   7.956 -0.5562 -0.0118 -0.3742
 7868SOL    HW135240   4.296   2.692   8.011 -1.5488 -3.0972 -0.6098
 7868SOL    HW235241   4.182   2.785   8.014  0.4076  0.0372  0.2432
 7869SOL     OW35242   4.324   1.004   8.200  0.8460  0.1503 -0.7481
 7869SOL    HW135243   4.246   1.050   8.231  0.9334 -0.2873  0.1166
 7869SOL    HW235244   4.347   0.972   8.287 -0.5415 -0.3267 -0.5457
 7870SOL     OW35245   0.734   0.556   6.266 -0.6976 -0.1033  0.5646
 7870SOL    HW135246   0.774   0.542   6.352  1.3279  0.3734 -0.3050
 7870SOL    HW235247   0.653   0.600   6.294 -1.7908 -0.4240 -2.1348
 7871SOL     OW35248   0.400   3.993   4.260  0.0750  0.0785 -0.2198
 7871SOL    HW135249   0.354   4.044   4.327 -1.4776 -0.0917 -1.1414
 7871SOL    HW235250   0.466   3.949   4.314  0.1060  0.4895  0.0777
 7872SOL     OW35251   3.043   3.658   8.427  0.2063 -0.3669  0.8135
 7872SOL    HW135252   2.948   3.668   8.414  0.6496 -1.3292 -2.9240
 7872SOL    HW235253   3.053   3.604   8.506  0.9499 -1.3195  0.0618
 7873SOL     OW35254   3.575   0.960   9.484  0.5960  0.4817  0.0435
 7873SOL    HW135255   3.541   0.953   9.573 -2.0417 -1.5363 -1.1284
 7873SOL    HW235256   3.663   0.923   9.492  1.2309  1.5271 -1.8824
 7874SOL     OW35257   4.423   4.660   4.763  0.2284  0.1693  0.0903
 7874SOL    HW135258   4.516   4.637   4.763  0.8891  2.7748  0.4795
 7874SOL    HW235259   4.420   4.621   4.676  1.0465 -0.1604  0.2034
 7875SOL     OW35260   3.990   2.563  11.074  0.0389 -0.0512  0.2244
 7875SOL    HW135261   4.079   2.532  11.059  0.0054 -1.1509  2.4346
 7875SOL    HW235262   3.999   2.596  11.163  1.5032  0.1474 -0.0009
 7876SOL     OW35263   3.082   1.723  11.898  0.0984  0.1483 -0.1643
 7876SOL    HW135264   3.018   1.653  11.910  0.5277  0.0609  1.6924
 7876SOL    HW235265   3.024   1.795  11.873 -1.1160 -1.0854 -0.8438
 7877SOL     OW35266   0.871   4.453   9.193  0.2800  0.0069 -0.3778
 7877SOL    HW135267   0.779   4.439   9.174 -0.1353  1.3373  0.6852
 7877SOL    HW235268   0.872   4.547   9.210  0.9303  0.0897 -0.8706
 7878SOL     OW35269   3.477   0.615   4.681  0.5298 -0.2934 -0.5124
 7878SOL    HW135270   3.404   0.665   4.718  0.0910 -0.0009 -1.8055
 7878SOL    HW235271   3.548   0.677   4.694  1.6083 -1.0703 -2.7787
 7879SOL     OW35272   0.275   3.960   7.850  0.4520 -0.1577 -0.3552
 7879SOL    HW135273   0.234   3.877   7.873 -0.2413  0.5936  1.1368
 7879SOL    HW235274   0.238   4.017   7.918 -0.3401  0.4745 -1.3293
 7880SOL     OW35275   4.454   2.294  15.464  0.5348 -0.0678 -0.0981
 7880SOL    HW135276   4.392   2.269  15.532  0.2461  1.0701  0.0645
 7880SOL    HW235277   4.518   2.354  15.502  0.4002  1.1565 -1.7840
 7881SOL     OW35278   1.908   1.506   3.445  0.0471  0.7866  0.2656
 7881SOL    HW135279   1.852   1.576   3.411 -1.6125 -0.4699  0.4105
 7881SOL    HW235280   1.993   1.550   3.442  0.8409 -0.7056  1.2112
 7882SOL     OW35281   1.408   1.707   4.941  1.0825 -0.2396 -0.3999
 7882SOL    HW135282   1.392   1.772   4.873  1.0252 -1.6691 -1.7519
 7882SOL    HW235283   1.351   1.748   5.006  0.4556 -0.0471 -1.0806
 7883SOL     OW35284   2.173   1.906   3.212 -0.3115 -0.2931 -0.6875
 7883SOL    HW135285   2.242   1.941   3.155  0.9719  0.9242  1.6456
 7883SOL    HW235286   2.160   1.973   3.278  1.0354 -2.0730  1.3763
 7884SOL     OW35287   3.260   0.568  11.041 -0.2086  0.2896  0.1149
 7884SOL    HW135288   3.275   0.575  10.947  2.3184 -0.1090  0.4824
 7884SOL    HW235289   3.348   0.562  11.078 -0.4030  2.4564  0.9223
 7885SOL     OW35290   1.459   3.879   4.251  0.0703  0.3836  0.3983
 7885SOL    HW135291   1.484   3.868   4.159 -0.1918 -0.5444  0.4481
 7885SOL    HW235292   1.396   3.951   4.241  0.5749  0.8134  0.3085
 7886SOL     OW35293   3.068   2.376   2.402  0.1146  0.2431  0.7779
 7886SOL    HW135294   3.089   2.412   2.488 -1.7571 -0.4786  1.5355
 7886SOL    HW235295   3.014   2.305   2.437  1.2394 -1.9446 -1.8422
 7887SOL     OW35296   3.628   0.058   2.154  0.1150  0.3554 -0.6401
 7887SOL    HW135297   3.568   0.016   2.216 -1.0809  2.4696 -0.3610
 7887SOL    HW235298   3.635   4.725   2.089  0.2114 -1.0645  0.8997
 7888SOL     OW35299   1.323   2.278   6.124  0.0387 -0.7757 -0.2948
 7888SOL    HW135300   1.275   2.212   6.174  0.7455 -0.2728  1.0449
 7888SOL    HW235301   1.409   2.268   6.164 -0.3550 -0.6496  0.5815
 7889SOL     OW35302   4.319   2.171   8.904  0.4263 -0.3004  0.4049
 7889SOL    HW135303   4.403   2.215   8.902  0.6844 -0.8448 -0.7622
 7889SOL    HW235304   4.318   2.117   8.984  0.3817 -0.0090  0.5997
 7890SOL     OW35305   4.394   4.662   6.383 -0.4495  0.1124 -0.5936
 7890SOL    HW135306   4.309   4.660   6.427  0.4120 -0.9269  0.9898
 7890SOL    HW235307   4.360   4.699   6.301 -0.0424  2.2937  0.2254
 7891SOL     OW35308   0.680   2.920  15.843  0.2785 -0.1211  0.2789
 7891SOL    HW135309   0.595   2.878  15.826 -1.5703  3.4893  0.5959
 7891SOL    HW235310   0.711   2.917  15.752  0.7780  1.0691  0.4096
 7892SOL     OW35311   3.570   4.450   8.430 -0.0841 -0.9164 -0.0439
 7892SOL    HW135312   3.599   4.360   8.443 -0.3499 -1.5747 -3.8941
 7892SOL    HW235313   3.595   4.468   8.339 -1.0178 -1.7389 -0.4677
 7893SOL     OW35314   1.655   0.569  13.862  0.3435  0.4928  0.3986
 7893SOL    HW135315   1.591   0.578  13.932  2.2405 -0.2265  2.2453
 7893SOL    HW235316   1.668   0.661  13.840  1.1076 -0.0035 -1.2131
 7894SOL     OW35317   3.635   1.606  11.335 -0.2746 -0.1889 -0.7468
 7894SOL    HW135318   3.620   1.654  11.416  1.5839 -0.3270 -0.3323
 7894SOL    HW235319   3.659   1.521  11.369 -3.0889  0.0039  1.7469
 7895SOL     OW35320   1.110   2.680  12.243 -0.0166 -0.0795  0.4797
 7895SOL    HW135321   1.062   2.739  12.302 -1.7912 -1.0082 -0.0272
 7895SOL    HW235322   1.066   2.596  12.255 -0.9086  0.4906  1.2781
 7896SOL     OW35323   2.882   1.673   9.829 -0.5394  0.5513  0.3102
 7896SOL    HW135324   2.947   1.642   9.891  1.1941  1.2762 -1.1311
 7896SOL    HW235325   2.920   1.647   9.745 -0.7046 -0.0193  0.4136
 7897SOL     OW35326   1.836   2.244  15.749  0.5352  0.4443  0.4954
 7897SOL    HW135327   1.821   2.320  15.806  1.0717 -1.4948  3.2353
 7897SOL    HW235328   1.889   2.280  15.678  0.9111 -1.2146 -0.0604
 7898SOL     OW35329   2.244   1.047   9.802 -0.5633 -0.1215  0.1632
 7898SOL    HW135330   2.184   1.015   9.735  0.8945 -1.0450 -0.6971
 7898SOL    HW235331   2.257   1.138   9.775 -0.5296  0.1896  1.2418
 7899SOL     OW35332   0.782   1.983   9.316  0.0981 -0.1494 -0.3032
 7899SOL    HW135333   0.756   2.058   9.262  0.9486  0.1464 -0.3008
 7899SOL    HW235334   0.740   1.997   9.401  1.5192  0.6425  0.2629
 7900SOL     OW35335   1.246   0.979   9.618 -0.1570 -0.3880 -0.7912
 7900SOL    HW135336   1.190   1.052   9.590 -0.8340 -0.2280  0.9755
 7900SOL    HW235337   1.244   0.918   9.545 -0.2166 -0.8802 -0.3761
 7901SOL     OW35338   0.295   2.602  11.058  0.2924 -0.2092 -0.1677
 7901SOL    HW135339   0.286   2.591  10.964  0.8921  0.8525 -0.3564
 7901SOL    HW235340   0.387   2.580  11.076  0.1277 -1.2577 -0.6085
 7902SOL     OW35341   3.334   3.286   6.042 -0.5188 -0.4436 -0.3635
 7902SOL    HW135342   3.358   3.213   5.983 -0.7731 -1.0403  0.2765
 7902SOL    HW235343   3.423   3.297   6.076 -0.9274  0.1259  0.4916
 7903SOL     OW35344   3.550   2.905  15.988  0.1199  0.6346  0.0643
 7903SOL    HW135345   3.476   2.863  16.033  0.6689 -1.7681 -1.2745
 7903SOL    HW235346   3.595   2.944  16.063 -1.6639  0.3498  1.2803
 7904SOL     OW35347   1.026   3.798  11.534  0.3410  0.1403 -0.0827
 7904SOL    HW135348   1.004   3.753  11.452  0.3954 -0.1301  0.0492
 7904SOL    HW235349   0.984   3.737  11.595 -3.5164 -0.2983 -3.1759
 7905SOL     OW35350   4.235   0.640   7.573 -0.0935 -0.5932 -0.0516
 7905SOL    HW135351   4.236   0.666   7.664  0.7510 -0.4437 -0.1013
 7905SOL    HW235352   4.328   0.617   7.584 -0.0807 -0.6783 -0.3367
 7906SOL     OW35353   0.966   1.995   7.366 -0.1443 -0.2958 -0.0050
 7906SOL    HW135354   0.999   1.976   7.454 -0.0316  0.0591  0.0262
 7906SOL    HW235355   0.899   1.928   7.352 -1.5755  0.8648  1.4695
 7907SOL     OW35356   1.200   2.730   6.713 -0.1875 -0.0241 -0.0619
 7907SOL    HW135357   1.184   2.677   6.791  0.6532 -1.0572 -0.6029
 7907SOL    HW235358   1.259   2.797   6.748  1.2875 -1.0326 -0.6303
 7908SOL     OW35359   1.605   1.548   0.881 -0.1747  0.0216 -0.0855
 7908SOL    HW135360   1.577   1.503   0.801  0.5703 -0.3475 -0.1447
 7908SOL    HW235361   1.621   1.478   0.944 -0.5175 -1.1331 -1.2714
 7909SOL     OW35362   0.017   2.860  16.853 -0.3231 -0.0877 -0.4467
 7909SOL    HW135363   4.709   2.853  16.937 -1.1337  1.0712 -0.7756
 7909SOL    HW235364   4.728   2.949  16.826 -0.9796 -0.1740 -0.0971
 7910SOL     OW35365   2.105   2.727   9.494  0.1401  0.9807 -0.1313
 7910SOL    HW135366   2.130   2.733   9.586 -1.8088  2.4116  0.3151
 7910SOL    HW235367   2.125   2.636   9.477 -0.1071  0.9544 -0.2885
 7911SOL     OW35368   1.488   0.483   3.715 -0.1425  0.0219  0.1831
 7911SOL    HW135369   1.508   0.413   3.653 -0.7438  2.0983 -2.3356
 7911SOL    HW235370   1.396   0.506   3.700 -0.2478  0.4655  1.5154
 7912SOL     OW35371   2.409   2.117   6.052 -0.4970  0.2262  0.2278
 7912SOL    HW135372   2.487   2.171   6.037 -0.7573  1.2843  2.7456
 7912SOL    HW235373   2.340   2.179   6.029 -1.8377 -0.3155  2.8089
 7913SOL     OW35374   3.823   4.717  10.987 -0.5638 -0.6155  0.3334
 7913SOL    HW135375   3.837   4.624  11.004  0.3596  0.0114  2.8828
 7913SOL    HW235376   3.791   4.722  10.897  0.5612  2.4546  0.1193
 7914SOL     OW35377   3.573   2.855  14.767  0.5071 -0.8126 -0.5831
 7914SOL    HW135378   3.527   2.876  14.686 -1.5788 -2.2616  0.2312
 7914SOL    HW235379   3.536   2.910  14.837  2.5542  2.4936 -2.1223
 7915SOL     OW35380   3.735   3.609  16.256 -0.1624 -0.2852  0.5493
 7915SOL    HW135381   3.705   3.524  16.289 -1.2227 -0.3655 -0.6498
 7915SOL    HW235382   3.827   3.599  16.279  0.0329  2.5715  0.9506
 7916SOL     OW35383   2.819   0.373   8.669  0.1318  0.2471  0.2180
 7916SOL    HW135384   2.874   0.385   8.747  2.0810 -1.1618 -0.9186
 7916SOL    HW235385   2.876   0.311   8.624  2.0853  3.4484 -1.7091
 7917SOL     OW35386   2.329   1.127  17.046 -0.0917 -0.3055 -0.3906
 7917SOL    HW135387   2.399   1.176  17.004 -1.3550  0.2806 -1.8192
 7917SOL    HW235388   2.262   1.195  17.044  0.0563 -0.1779 -1.1437
 7918SOL     OW35389   1.222   0.317  17.376  0.6277 -0.3137  0.1044
 7918SOL    HW135390   1.152   0.361  17.424  1.5761  1.3750 -0.0414
 7918SOL    HW235391   1.190   0.335  17.288  2.0385  3.3092  0.3310
 7919SOL     OW35392   0.005   4.183   6.940 -0.3969 -0.7080 -0.1058
 7919SOL    HW135393   4.693   4.226   7.010 -0.0334  1.7209 -1.3109
 7919SOL    HW235394   0.006   4.256   6.878  1.1352 -2.0323 -1.6284
 7920SOL     OW35395   0.698   0.515   2.755 -0.1355 -0.0386 -0.9429
 7920SOL    HW135396   0.720   0.593   2.705 -0.9470 -0.0881 -1.3850
 7920SOL    HW235397   0.769   0.457   2.728 -1.6223 -2.0280 -0.5846
 7921SOL     OW35398   2.305   0.389   4.590  0.0434 -0.1133  0.1406
 7921SOL    HW135399   2.309   0.469   4.642  0.0273 -0.3933  0.5655
 7921SOL    HW235400   2.279   0.425   4.505  0.8514 -1.7848 -0.8151
 7922SOL     OW35401   3.930   2.412   4.300  0.3549 -0.4068  0.0893
 7922SOL    HW135402   3.864   2.424   4.368  0.6919  0.8281  0.2076
 7922SOL    HW235403   3.910   2.324   4.269  0.8469 -0.3629 -0.3616
 7923SOL     OW35404   2.566   4.729   8.634 -0.3821  0.2077 -0.4158
 7923SOL    HW135405   2.474   4.729   8.607 -0.3925 -2.0861 -0.3154
 7923SOL    HW235406   2.603   0.039   8.558  1.9745  0.0904  0.6683
 7924SOL     OW35407   3.849   2.362   5.683 -0.0317 -0.6639 -0.1356
 7924SOL    HW135408   3.774   2.305   5.701  0.1211 -1.5963 -2.3888
 7924SOL    HW235409   3.816   2.401   5.602 -2.4668 -0.4896  0.9394
 7925SOL     OW35410   4.318   1.905  11.394 -0.1360 -0.5016  0.0307
 7925SOL    HW135411   4.413   1.906  11.409 -0.1426 -3.0268  0.2431
 7925SOL    HW235412   4.287   1.945  11.475  0.9667  0.2808  0.0673
 7926SOL     OW35413   3.736   4.216   7.674 -0.6748  0.1990 -0.3599
 7926SOL    HW135414   3.797   4.152   7.637 -0.0692 -0.5801  2.0343
 7926SOL    HW235415   3.674   4.161   7.723  2.7731 -0.3758  3.3199
 7927SOL     OW35416   0.645   2.573   8.843 -0.3295  0.2953  0.0306
 7927SOL    HW135417   0.740   2.561   8.835 -0.5341 -0.6592 -0.9957
 7927SOL    HW235418   0.652   2.664   8.815 -2.3667  0.2997 -0.4695
 7928SOL     OW35419   3.145   0.354   7.514  0.1438 -0.0038  0.0618
 7928SOL    HW135420   3.100   0.370   7.431 -2.2601 -0.6792  1.2185
 7928SOL    HW235421   3.235   0.338   7.486  0.8140  0.6305  1.9010
 7929SOL     OW35422   3.755   4.181  10.853 -0.6707 -0.0757 -0.1409
 7929SOL    HW135423   3.795   4.113  10.908  2.5751 -0.1544 -2.5722
 7929SOL    HW235424   3.753   4.139  10.767 -0.7008  0.0902 -0.2200
 7930SOL     OW35425   0.229   2.195   3.283  0.4454  0.4478 -0.2625
 7930SOL    HW135426   0.202   2.286   3.292  1.0093  0.5061  0.8905
 7930SOL    HW235427   0.222   2.180   3.189  0.2106 -1.1985  0.0125
 7931SOL     OW35428   3.424   2.034   8.397  0.4661 -0.0491  0.2673
 7931SOL    HW135429   3.385   2.110   8.443 -0.3136 -0.6258  0.5607
 7931SOL    HW235430   3.350   1.974   8.408 -0.0953  0.3600 -1.3390
 7932SOL     OW35431   0.957   1.444  14.791  0.3504  0.1970 -0.8394
 7932SOL    HW135432   1.003   1.519  14.827  0.4586  0.1665 -0.9130
 7932SOL    HW235433   0.996   1.451  14.704  0.4530 -0.2130 -0.8257
 7933SOL     OW35434   2.430   0.675   7.962 -0.0443 -0.2889 -0.0218
 7933SOL    HW135435   2.489   0.750   7.951 -0.1922 -0.1902 -0.1416
 7933SOL    HW235436   2.476   0.606   7.915 -1.2768  0.4933 -2.3952
 7934SOL     OW35437   0.703   1.487   5.921  0.2587  0.4138 -0.0535
 7934SOL    HW135438   0.680   1.434   5.845 -1.7890 -0.6635  1.3216
 7934SOL    HW235439   0.725   1.430   5.995 -0.2532  2.5346  1.7144
 7935SOL     OW35440   0.991   0.588  15.971 -0.0187  0.0852 -0.5214
 7935SOL    HW135441   1.043   0.663  15.942 -1.5762  0.4567 -2.3690
 7935SOL    HW235442   0.907   0.609  15.931  0.0568 -1.4317 -1.4661
 7936SOL     OW35443   0.295   3.167   1.619 -0.1186 -0.6728 -0.7271
 7936SOL    HW135444   0.369   3.136   1.566  1.1989 -0.3734  0.9594
 7936SOL    HW235445   0.279   3.253   1.581  2.0318  0.5922  1.2385
 7937SOL     OW35446   0.212   2.234   2.596  0.3932 -0.4242 -0.3933
 7937SOL    HW135447   0.215   2.151   2.644 -1.7291 -0.2402  0.0524
 7937SOL    HW235448   0.280   2.227   2.529 -0.0200 -0.3763 -0.8254
 7938SOL     OW35449   1.130   0.644  16.268  0.0538 -0.1377 -0.5389
 7938SOL    HW135450   1.174   0.560  16.257 -0.1104 -0.0512 -1.8653
 7938SOL    HW235451   1.121   0.663  16.174 -1.6955  0.9142 -0.1510
 7939SOL     OW35452   1.433   4.466   9.531  0.4809  0.1400 -0.0741
 7939SOL    HW135453   1.528   4.460   9.524  0.2380 -0.5837 -2.8625
 7939SOL    HW235454   1.416   4.422   9.614  1.8448 -1.3678 -0.5878
 7940SOL     OW35455   1.775   1.555   3.018 -0.4581 -0.9762  0.2439
 7940SOL    HW135456   1.735   1.642   3.019  1.0586 -0.2947  0.7211
 7940SOL    HW235457   1.869   1.570   3.007 -0.4441 -2.0871 -1.1389
 7941SOL     OW35458   0.101   2.292   8.035 -0.0809 -0.1289 -0.2316
 7941SOL    HW135459   0.008   2.295   8.011 -0.5472  2.5617  2.0022
 7941SOL    HW235460   0.134   2.373   7.996 -2.2393  0.7524 -0.2220
 7942SOL     OW35461   1.100   3.637   8.037 -0.4752 -0.4401 -0.7297
 7942SOL    HW135462   1.189   3.611   8.015 -0.3407 -1.1978  0.7760
 7942SOL    HW235463   1.109   3.660   8.129  0.5975 -0.9366 -0.7183
 7943SOL     OW35464   1.527   3.619  10.923  0.1106 -0.4810  0.1392
 7943SOL    HW135465   1.555   3.529  10.939  1.5120 -0.1009 -0.1053
 7943SOL    HW235466   1.559   3.636  10.834 -1.3015  0.0760 -0.2509
 7944SOL     OW35467   1.115   2.116   8.844  0.3478 -0.2596  0.0082
 7944SOL    HW135468   1.170   2.102   8.767 -0.4600 -0.5446 -0.5174
 7944SOL    HW235469   1.070   2.197   8.821 -1.8235 -1.6651 -0.6257
 7945SOL     OW35470   2.379   3.777   3.309 -0.1386  0.3290 -0.0557
 7945SOL    HW135471   2.360   3.853   3.254 -2.4472  1.0462  1.7012
 7945SOL    HW235472   2.438   3.723   3.257  0.0613  0.4216  0.0752
 7946SOL     OW35473   1.960   3.408   3.734 -0.1138  0.1460  0.6756
 7946SOL    HW135474   2.035   3.389   3.791 -0.8412 -0.4924  1.4019
 7946SOL    HW235475   1.971   3.351   3.657  0.5618  0.0809  0.8185
 7947SOL     OW35476   3.717   3.474  10.686  0.2371 -0.4967  0.3764
 7947SOL    HW135477   3.650   3.414  10.718 -1.4117 -0.2377 -2.6579
 7947SOL    HW235478   3.793   3.462  10.743 -0.0028  0.3474  0.8810
 7948SOL     OW35479   2.460   1.469   8.661  0.3522 -0.3997  0.0674
 7948SOL    HW135480   2.474   1.559   8.632 -0.3997 -0.4424 -0.4222
 7948SOL    HW235481   2.524   1.430   8.601  0.1111  1.4832 -1.4313
 7949SOL     OW35482   3.470   1.907   4.989  0.1286  0.2359 -0.3006
 7949SOL    HW135483   3.391   1.861   4.962  1.3659 -0.8859 -2.0782
 7949SOL    HW235484   3.514   1.925   4.906  1.2179  0.5000  0.3318
 7950SOL     OW35485   0.949   4.004   9.122 -0.0713  0.2722 -0.3364
 7950SOL    HW135486   0.893   4.025   9.197 -1.0702  0.9603 -1.2669
 7950SOL    HW235487   0.934   3.911   9.104  1.2049  0.1362 -0.6826
 7951SOL     OW35488   3.475   3.632  13.211 -0.4639 -0.0621  0.4706
 7951SOL    HW135489   3.465   3.542  13.242  1.0205 -0.3860 -0.0107
 7951SOL    HW235490   3.405   3.676  13.259 -0.1493  1.4360 -0.4402
 7952SOL     OW35491   0.558   2.568   7.759  0.1251  0.3109 -0.2465
 7952SOL    HW135492   0.619   2.515   7.707  0.3919  0.3396  0.0339
 7952SOL    HW235493   0.615   2.640   7.788  2.6456 -1.3563 -1.0704
 7953SOL     OW35494   3.801   2.937   7.039 -0.2700 -0.0223  0.0603
 7953SOL    HW135495   3.719   2.986   7.029 -1.2824 -1.4472  1.4074
 7953SOL    HW235496   3.796   2.875   6.965 -1.1039 -0.6263  0.6240
 7954SOL     OW35497   3.447   1.484  13.028  0.3953 -0.4411  0.3946
 7954SOL    HW135498   3.395   1.559  13.057  0.0614  0.5161 -2.6593
 7954SOL    HW235499   3.537   1.516  13.024  0.2054  0.2285  1.4963
 7955SOL     OW35500   4.209   2.767   4.773 -0.3994 -0.3472  0.4235
 7955SOL    HW135501   4.117   2.746   4.764  0.2520 -2.9789  0.1018
 7955SOL    HW235502   4.246   2.767   4.685 -0.3629  0.8318  0.4363
 7956SOL     OW35503   3.408   1.446  16.446  0.6200 -0.3644  0.1476
 7956SOL    HW135504   3.331   1.395  16.472  0.1422 -0.2893 -1.0801
 7956SOL    HW235505   3.465   1.411  16.514  1.4829  0.9164  0.0816
 7957SOL     OW35506   1.097   1.814   1.815  0.9595 -0.0411 -0.6010
 7957SOL    HW135507   1.024   1.851   1.864  1.0245  1.3349 -1.5698
 7957SOL    HW235508   1.167   1.861   1.861  0.4142  0.5863 -0.4310
 7958SOL     OW35509   1.709   3.649  17.202  0.2231  0.4752  0.4779
 7958SOL    HW135510   1.731   3.652  17.108 -0.0301 -0.3500  0.3907
 7958SOL    HW235511   1.644   3.718  17.204 -0.8257 -0.4445 -2.0213
 7959SOL     OW35512   3.529   4.634   6.646  0.2643 -0.2025 -0.3382
 7959SOL    HW135513   3.513   4.703   6.582  0.4707  0.4675  0.3256
 7959SOL    HW235514   3.518   4.684   6.727  1.0197 -0.4270 -0.0916
 7960SOL     OW35515   0.545   3.187  12.753  0.6796 -0.6890 -0.4434
 7960SOL    HW135516   0.486   3.261  12.737  0.6184 -1.0147 -1.6658
 7960SOL    HW235517   0.476   3.121  12.764 -2.3191  2.5353  0.1630
 7961SOL     OW35518   1.085   2.556   5.224  0.0362  0.0893 -0.1174
 7961SOL    HW135519   1.144   2.560   5.299 -0.3847  1.2803  0.1551
 7961SOL    HW235520   1.131   2.488   5.175  1.0815  0.7575 -0.0511
 7962SOL     OW35521   2.376   3.048  12.643  0.5537  0.7040  0.1722
 7962SOL    HW135522   2.452   2.991  12.657  0.9520  0.8105 -1.5693
 7962SOL    HW235523   2.307   2.991  12.610  2.0178 -0.5289 -0.7538
 7963SOL     OW35524   2.738   3.429  15.514 -0.4951  0.0538  0.6706
 7963SOL    HW135525   2.823   3.466  15.490 -0.6228 -1.6140 -2.3248
 7963SOL    HW235526   2.680   3.474  15.452  1.1120 -0.0725 -0.9531
 7964SOL     OW35527   4.209   0.423   3.789 -0.3989  0.0512 -0.7862
 7964SOL    HW135528   4.296   0.388   3.809 -0.2438 -1.4816 -4.0899
 7964SOL    HW235529   4.192   0.373   3.709  0.9453  0.1327 -1.1230
 7965SOL     OW35530   4.628   1.411   6.913  0.2680  0.0881  0.0110
 7965SOL    HW135531   4.655   1.339   6.856 -0.7129 -1.4081  1.4221
 7965SOL    HW235532   4.713   1.441   6.946 -0.5081  3.0438 -0.7372
 7966SOL     OW35533   4.406   2.969   8.433 -0.1726  0.2689  0.1616
 7966SOL    HW135534   4.409   2.972   8.529 -1.7897  2.4766  0.1561
 7966SOL    HW235535   4.338   2.906   8.412  0.7371 -0.8528  0.5666
 7967SOL     OW35536   2.610   4.453   5.399 -0.0324 -0.7513  0.2025
 7967SOL    HW135537   2.625   4.492   5.486  0.7912  0.7668 -0.6285
 7967SOL    HW235538   2.653   4.370   5.418 -0.2710 -0.2981  2.7952
 7968SOL     OW35539   3.731   3.881   1.611 -0.2043  0.6748 -0.2458
 7968SOL    HW135540   3.787   3.958   1.613  2.0890 -0.9357 -1.1060
 7968SOL    HW235541   3.668   3.904   1.678 -0.0616  1.0137 -0.2293
 7969SOL     OW35542   0.089   1.519  14.679  0.2002  0.6864  0.0681
 7969SOL    HW135543   0.145   1.490  14.607 -0.1318  0.4763 -0.1076
 7969SOL    HW235544   0.148   1.574  14.730  1.4295 -0.6438  0.0900
 7970SOL     OW35545   4.408   3.154   8.259 -0.2956 -0.0606 -0.3016
 7970SOL    HW135546   4.357   3.105   8.195 -2.2250  0.7574  0.6061
 7970SOL    HW235547   4.419   3.090   8.329 -1.0261  0.5318  0.3527
 7971SOL     OW35548   0.884   0.304   3.341 -0.2917  0.1989 -0.1922
 7971SOL    HW135549   0.902   0.381   3.395  0.2615  1.3461 -2.0013
 7971SOL    HW235550   0.789   0.301   3.330 -0.1711  1.6317 -1.5432
 7972SOL     OW35551   4.567   1.225   7.468  0.2458 -0.4045  0.4216
 7972SOL    HW135552   4.516   1.143   7.471 -0.8978  0.2955  0.0012
 7972SOL    HW235553   4.624   1.214   7.544 -0.5497 -1.5652  0.8502
 7973SOL     OW35554   4.291   3.370   6.839 -0.0107 -0.1886  0.3205
 7973SOL    HW135555   4.298   3.310   6.765 -1.2918  0.4353 -0.3234
 7973SOL    HW235556   4.268   3.312   6.912 -0.2594 -0.6397 -0.1118
 7974SOL     OW35557   0.165   2.616   4.761  0.4646 -0.3522 -0.0217
 7974SOL    HW135558   0.209   2.567   4.831 -0.4605  0.5897  1.2324
 7974SOL    HW235559   0.209   2.699   4.777 -1.6211  1.4897 -3.7858
 7975SOL     OW35560   0.264   0.761   0.682  0.3568  0.0952  0.2795
 7975SOL    HW135561   0.307   0.836   0.641  1.6253  0.3386  2.0665
 7975SOL    HW235562   0.204   0.800   0.746  2.1527 -0.0910  2.0884
 7976SOL     OW35563   3.391   4.530   7.718  0.2477  0.7837  0.0856
 7976SOL    HW135564   3.345   4.524   7.634 -2.3896  0.0368  1.5748
 7976SOL    HW235565   3.480   4.509   7.688 -0.6020 -2.5172 -0.1174
 7977SOL     OW35566   1.025   3.278   8.273 -0.4179  0.6277 -0.2577
 7977SOL    HW135567   0.944   3.326   8.253 -1.1724 -1.0981 -1.3271
 7977SOL    HW235568   1.002   3.205   8.330  2.4254  0.9507  1.3094
 7978SOL     OW35569   3.845   1.955   6.919  0.3083  0.0183 -0.3334
 7978SOL    HW135570   3.921   1.897   6.917 -0.0681 -0.4897  0.2027
 7978SOL    HW235571   3.832   1.994   7.006 -2.1800 -0.6963 -0.4005
 7979SOL     OW35572   1.075   1.117   6.663  0.2512  0.2796 -0.3108
 7979SOL    HW135573   1.160   1.100   6.622 -1.4659 -3.0650 -2.5081
 7979SOL    HW235574   1.021   1.101   6.585  1.6596  0.1898 -1.2544
 7980SOL     OW35575   1.698   4.379   2.904 -0.4014 -0.3418 -0.1263
 7980SOL    HW135576   1.761   4.329   2.957 -1.9372 -3.2277 -1.0235
 7980SOL    HW235577   1.731   4.465   2.932 -1.1145  0.1859 -0.9063
 7981SOL     OW35578   4.349   0.610   3.011 -0.0599 -0.1562  0.0877
 7981SOL    HW135579   4.313   0.526   2.982  1.8189 -1.4371  1.4783
 7981SOL    HW235580   4.316   0.617   3.101  0.2826  0.6054  0.1506
 7982SOL     OW35581   2.505   0.333   6.364 -0.2668 -0.3554 -0.0474
 7982SOL    HW135582   2.513   0.287   6.448  1.8742  2.7197  1.4111
 7982SOL    HW235583   2.579   0.298   6.316  1.0406  1.5449  0.6005
 7983SOL     OW35584   4.201   3.617   6.912  0.2727  0.0195 -1.2544
 7983SOL    HW135585   4.224   3.538   6.863  1.6782 -0.2470 -0.1299
 7983SOL    HW235586   4.133   3.648   6.851  0.5234 -1.1878 -2.1480
 7984SOL     OW35587   1.537   4.338   3.324 -0.2093 -0.0962 -0.2489
 7984SOL    HW135588   1.534   4.245   3.304  1.5684 -0.4734  1.2645
 7984SOL    HW235589   1.481   4.326   3.400  0.8287  1.3860  0.7371
 7985SOL     OW35590   0.030   3.622   8.338 -0.0748 -0.1807 -0.1866
 7985SOL    HW135591   0.040   3.711   8.303  1.4581  1.0092  3.3265
 7985SOL    HW235592   0.040   3.636   8.432  0.6633 -0.5114 -0.2183
 7986SOL     OW35593   2.218   0.014   9.658  0.0879 -0.0300 -0.2341
 7986SOL    HW135594   2.308   4.719   9.671  0.2876  0.7623  0.2695
 7986SOL    HW235595   2.244   0.098   9.695 -2.7204 -0.0026  1.6583
 7987SOL     OW35596   4.218   1.264   5.474 -1.3638 -0.2050  0.2556
 7987SOL    HW135597   4.149   1.197   5.471 -0.7986 -0.7819 -0.0397
 7987SOL    HW235598   4.191   1.331   5.411  0.9094  1.7098  1.3294
 7988SOL     OW35599   3.395   2.967  14.585 -0.0348  0.0524 -0.0148
 7988SOL    HW135600   3.423   3.056  14.608  2.0890 -0.2163 -1.5220
 7988SOL    HW235601   3.420   2.953  14.494 -1.7076  0.0036 -0.4678
 7989SOL     OW35602   3.494   3.031  14.137 -0.3500 -0.5247  0.1150
 7989SOL    HW135603   3.551   2.960  14.167 -2.9678 -2.5190  0.3211
 7989SOL    HW235604   3.547   3.076  14.072  0.6443  0.7536  1.8080
 7990SOL     OW35605   4.329   2.070   9.331 -0.1306  0.0906 -0.4001
 7990SOL    HW135606   4.307   2.054   9.240 -1.7667  2.1435 -0.3599
 7990SOL    HW235607   4.421   2.094   9.325 -0.3391  0.7284 -1.0123
 7991SOL     OW35608   4.147   1.493   6.100 -0.3138 -0.3006 -0.0722
 7991SOL    HW135609   4.159   1.437   6.023  1.9902 -1.0130  0.8032
 7991SOL    HW235610   4.099   1.434   6.158  0.6141 -1.0392 -0.0478
 7992SOL     OW35611   2.540   4.090   5.761  0.6714  0.4661 -0.1039
 7992SOL    HW135612   2.520   3.997   5.770 -2.2461  0.8606 -2.7860
 7992SOL    HW235613   2.633   4.088   5.786  0.6257 -2.4495 -0.1388
 7993SOL     OW35614   1.730   2.893  12.060 -0.0682 -0.0292 -0.0823
 7993SOL    HW135615   1.721   2.916  11.967 -3.6881 -1.1242 -0.0038
 7993SOL    HW235616   1.649   2.919  12.103  1.2873  1.7086  1.4245
 7994SOL     OW35617   4.401   1.810   8.055 -0.3723  0.0840 -0.1429
 7994SOL    HW135618   4.342   1.809   7.979 -0.6067  0.5421  0.0335
 7994SOL    HW235619   4.335   1.798   8.123  1.3286  0.9117  1.6426
 7995SOL     OW35620   3.793   3.903   9.323 -0.1682  0.2439  0.2405
 7995SOL    HW135621   3.863   3.921   9.386 -1.9531 -1.2219  2.6719
 7995SOL    HW235622   3.728   3.965   9.358 -4.0688 -3.8871  0.2461
 7996SOL     OW35623   0.755   2.471   4.838 -0.7172  0.5470 -0.1009
 7996SOL    HW135624   0.842   2.462   4.799 -0.2982  1.2636  0.6673
 7996SOL    HW235625   0.743   2.393   4.891  0.4110  0.2759 -0.2425
 7997SOL     OW35626   0.131   2.544   7.947 -0.5382 -0.0339 -0.5105
 7997SOL    HW135627   0.146   2.623   7.999  0.9021 -0.2765 -0.5410
 7997SOL    HW235628   0.044   2.555   7.910 -0.2603  3.3486 -0.1040
 7998SOL     OW35629   4.113   0.746   6.023  0.3421 -0.0484  0.3462
 7998SOL    HW135630   4.064   0.828   6.027 -0.1739 -0.3065 -0.6536
 7998SOL    HW235631   4.118   0.738   5.928  0.4064  0.4775  0.3055
 7999SOL     OW35632   2.168   1.695   7.394 -0.1602  0.3474 -0.0815
 7999SOL    HW135633   2.206   1.778   7.424  0.6440 -0.5578  1.4053
 7999SOL    HW235634   2.241   1.664   7.340 -0.0309 -0.7524  0.7300
 8000SOL     OW35635   0.172   0.705   7.337 -0.3472 -0.1057  0.4482
 8000SOL    HW135636   0.261   0.678   7.356 -0.9109 -0.9969  1.8444
 8000SOL    HW235637   0.142   0.632   7.283  0.9547 -3.3546  4.0869
 8001SOL     OW35638   4.533   3.799   9.516  0.2088  0.6511 -0.0157
 8001SOL    HW135639   4.510   3.708   9.537  0.4739  0.8372  1.1211
 8001SOL    HW235640   4.445   3.829   9.495 -0.1067 -1.1734 -1.2707
 8002SOL     OW35641   0.589   1.385   4.512  0.2253  0.2772  0.3159
 8002SOL    HW135642   0.587   1.292   4.491 -0.1278  0.8781 -2.3432
 8002SOL    HW235643   0.672   1.390   4.560  1.8814 -1.3825 -2.3924
 8003SOL     OW35644   0.903   0.432   9.397  0.2884  0.2046 -0.2810
 8003SOL    HW135645   0.839   0.442   9.467 -0.2473  2.0628 -1.0356
 8003SOL    HW235646   0.919   0.337   9.399 -0.5063  0.1049  1.2108
 8004SOL     OW35647   2.876   1.321  14.691 -0.0913  0.2657  0.0323
 8004SOL    HW135648   2.872   1.302  14.785  0.9659  0.9984  0.2348
 8004SOL    HW235649   2.817   1.394  14.672  1.5607  1.2965 -1.1049
 8005SOL     OW35650   2.385   2.266   8.735 -0.0012  0.5525  0.1502
 8005SOL    HW135651   2.475   2.237   8.751  0.2589  0.9445 -0.6128
 8005SOL    HW235652   2.351   2.185   8.697 -0.0512  0.2783  0.7795
 8006SOL     OW35653   2.145   1.661   6.195  0.0608 -0.1592 -0.2523
 8006SOL    HW135654   2.237   1.632   6.195  0.0648 -0.1378 -1.3694
 8006SOL    HW235655   2.118   1.631   6.282  0.0168  2.1579  0.5256
 8007SOL     OW35656   3.872   2.619   8.022  0.3708  0.1588  0.5954
 8007SOL    HW135657   3.889   2.644   7.931  0.1190  2.1670  1.1006
 8007SOL    HW235658   3.946   2.662   8.064  2.0114 -1.4033 -0.6810
 8008SOL     OW35659   2.292   2.347   7.589 -0.1275  0.1929 -0.0094
 8008SOL    HW135660   2.200   2.340   7.566 -0.1854 -2.3895  1.0936
 8008SOL    HW235661   2.329   2.301   7.513  0.2157  0.4964 -0.0281
 8009SOL     OW35662   2.911   4.260   9.477  0.1055 -0.0063 -0.3547
 8009SOL    HW135663   2.869   4.339   9.443 -1.0691  0.7310  2.8303
 8009SOL    HW235664   2.967   4.292   9.548  1.6294 -1.2763 -1.0000
 8010SOL     OW35665   4.677   0.498  13.978  0.3265  0.1872 -0.2447
 8010SOL    HW135666   4.671   0.403  13.968 -0.1692  0.3706 -1.6204
 8010SOL    HW235667   4.653   0.520  14.068  2.5228  1.5461  0.0105
 8011SOL     OW35668   4.717   0.217   0.086  0.1542  0.1516  0.0586
 8011SOL    HW135669   4.645   0.222   0.149  0.9519  0.9225  0.9147
 8011SOL    HW235670   0.011   0.126   0.088  3.0763  1.1338  0.1833
 8012SOL     OW35671   3.336   2.437   3.946 -0.2641  0.6204  0.1424
 8012SOL    HW135672   3.301   2.397   3.866  0.0455 -0.2080  0.4161
 8012SOL    HW235673   3.401   2.499   3.914  1.9598 -0.2365  2.9477
 8013SOL     OW35674   2.742   2.768   8.300  0.0190  0.3331  0.0040
 8013SOL    HW135675   2.763   2.695   8.242 -1.0399  0.2251 -0.2320
 8013SOL    HW235676   2.671   2.809   8.252 -1.7405  0.5630  2.8199
 8014SOL     OW35677   1.362   4.294   3.525  0.8999 -0.1255 -0.4518
 8014SOL    HW135678   1.271   4.276   3.502  0.3391  3.3353 -0.8104
 8014SOL    HW235679   1.368   4.250   3.610 -3.3241 -2.2900 -1.2884
 8015SOL     OW35680   3.361   0.815   8.562  0.4225 -0.2511 -0.3966
 8015SOL    HW135681   3.368   0.910   8.550 -0.5854  0.1144  1.9889
 8015SOL    HW235682   3.329   0.797   8.650  0.3324  1.1532 -0.1403
 8016SOL     OW35683   4.620   2.625   4.909 -0.3579  0.0876  0.3128
 8016SOL    HW135684   4.710   2.596   4.891 -0.2717  0.1144  0.6921
 8016SOL    HW235685   4.575   2.557   4.860 -1.0487  1.6855 -1.2931
 8017SOL     OW35686   2.157   0.598   3.590  0.2873 -0.2093 -0.1117
 8017SOL    HW135687   2.203   0.652   3.525  1.3494 -2.9030 -1.5873
 8017SOL    HW235688   2.222   0.534   3.619  2.1311  1.7188  0.0125
 8018SOL     OW35689   2.588   3.621   3.496  0.3529 -0.4588 -0.4986
 8018SOL    HW135690   2.628   3.553   3.442  1.0459  0.9801 -1.7926
 8018SOL    HW235691   2.519   3.561   3.524 -2.4380  3.9383  2.0748
 8019SOL     OW35692   3.085   0.004   8.102 -0.1565  0.0642  0.0556
 8019SOL    HW135693   3.066   0.070   8.036  0.2955 -1.0821 -1.2366
 8019SOL    HW235694   3.179   4.730   8.088 -0.3662 -1.6089 -0.0554
 8020SOL     OW35695   3.859   1.983   7.675  0.5262  0.6385  1.0078
 8020SOL    HW135696   3.881   2.011   7.764 -0.0939  2.3829  0.5920
 8020SOL    HW235697   3.855   1.888   7.690  3.4908  0.0562 -1.8744
 8021SOL     OW35698   2.596   0.456   9.688 -0.3005 -0.2533 -0.2615
 8021SOL    HW135699   2.560   0.534   9.646 -0.4973  0.4422  1.2132
 8021SOL    HW235700   2.606   0.489   9.777 -0.3744 -2.5585  0.6138
 8022SOL     OW35701   4.370   3.761  11.871  0.5556 -0.2567 -0.6089
 8022SOL    HW135702   4.457   3.785  11.837  0.4139  2.2620  0.7533
 8022SOL    HW235703   4.351   3.680  11.825 -0.1219 -0.6118  0.3136
 8023SOL     OW35704   1.387   0.582  14.415 -0.1181  0.5401 -0.0558
 8023SOL    HW135705   1.451   0.619  14.355  1.8099 -1.3957  0.8401
 8023SOL    HW235706   1.443   0.516  14.455 -0.7105  0.2649  0.3206
 8024SOL     OW35707   1.917   2.525   3.593 -0.1742  0.0879 -0.1408
 8024SOL    HW135708   1.940   2.593   3.657 -2.1237  1.2241 -0.6545
 8024SOL    HW235709   1.994   2.469   3.593 -0.1300  0.1299  2.7960
 8025SOL     OW35710   1.603   1.283   2.528 -0.1509  0.3176 -0.1162
 8025SOL    HW135711   1.616   1.209   2.469  3.4981  2.7804 -2.4300
 8025SOL    HW235712   1.652   1.346   2.476 -0.7200 -1.0364 -2.2818
 8026SOL     OW35713   1.263   2.227  11.663 -0.7271 -0.0365 -0.3408
 8026SOL    HW135714   1.256   2.261  11.574  1.5202  3.1822  0.7037
 8026SOL    HW235715   1.356   2.204  11.662 -0.5526  0.7391 -2.3785
 8027SOL     OW35716   2.133   4.712   3.894  0.3431  0.3680  0.1878
 8027SOL    HW135717   2.111   0.065   3.870  1.2027  0.4204 -0.4531
 8027SOL    HW235718   2.072   4.684   3.961  2.8547  0.0380  2.3458
 8028SOL     OW35719   3.417   4.432   6.839 -0.0286 -0.1095  0.3856
 8028SOL    HW135720   3.422   4.497   6.770  3.9694  0.0779  0.8486
 8028SOL    HW235721   3.457   4.356   6.796 -0.5358  0.2940 -0.7927
 8029SOL     OW35722   2.291   3.984   3.738  0.2353 -0.0858  0.2864
 8029SOL    HW135723   2.265   3.895   3.713  1.3479 -0.3689  0.1249
 8029SOL    HW235724   2.288   3.972   3.833 -1.6071  0.2285  0.2670
 8030SOL     OW35725   2.765   0.813   2.486  0.5168  0.2946 -0.2350
 8030SOL    HW135726   2.787   0.811   2.393  0.7034  1.0174 -0.2080
 8030SOL    HW235727   2.835   0.869   2.520 -0.0575  0.6016  0.4286
 8031SOL     OW35728   3.282   2.862   7.551  0.0383 -0.0879  0.2830
 8031SOL    HW135729   3.371   2.838   7.579  0.6416 -0.2248 -1.7684
 8031SOL    HW235730   3.274   2.826   7.463  2.0594  1.9258 -0.7225
 8032SOL     OW35731   3.104   1.459   8.722  0.0251  0.3580 -0.2891
 8032SOL    HW135732   3.045   1.440   8.795  1.9162  1.0272  1.4172
 8032SOL    HW235733   3.085   1.553   8.718  0.3849  0.3574 -1.8889
 8033SOL     OW35734   3.355   1.298   3.038  0.5773 -0.4472  0.0186
 8033SOL    HW135735   3.449   1.279   3.041  0.9519  1.1091 -1.6159
 8033SOL    HW235736   3.322   1.247   3.112 -0.8883 -0.1172 -0.4130
 8034SOL     OW35737   3.842   3.652   8.391  0.3881  0.0382 -0.7388
 8034SOL    HW135738   3.819   3.608   8.473  1.5030 -0.9388 -0.9569
 8034SOL    HW235739   3.759   3.640   8.344  1.5830 -1.8616 -2.3506
 8035SOL     OW35740   2.875   2.985  10.433  0.1396  0.5036 -0.3461
 8035SOL    HW135741   2.954   3.016  10.478 -0.1060 -1.2564  1.2736
 8035SOL    HW235742   2.915   2.910  10.389  0.6083 -0.8293  2.3727
 8036SOL     OW35743   3.760   2.522   4.873 -0.2542  0.4536  0.2010
 8036SOL    HW135744   3.710   2.588   4.922 -2.6172 -1.9121  0.9792
 8036SOL    HW235745   3.725   2.434   4.885  0.4644  0.3707  1.6788
 8037SOL     OW35746   2.428   4.082   8.702 -0.4643 -0.2062 -0.2233
 8037SOL    HW135747   2.355   4.039   8.746  0.0982 -0.5206  0.3996
 8037SOL    HW235748   2.479   4.003   8.684  0.9376  0.6050  0.1858
 8038SOL     OW35749   3.327   2.117   5.545 -0.0658 -0.0233  0.3389
 8038SOL    HW135750   3.374   2.122   5.462 -2.8347  1.0345 -1.1573
 8038SOL    HW235751   3.242   2.159   5.532 -0.0889 -0.4780 -0.9532
 8039SOL     OW35752   0.386   4.332   4.662  0.1190  0.3878 -0.7819
 8039SOL    HW135753   0.393   4.421   4.695 -1.3056  1.0507 -2.2488
 8039SOL    HW235754   0.472   4.332   4.620  1.5392  0.7782  2.1518
 8040SOL     OW35755   2.166   2.855   4.992 -0.4811  0.2377  0.3515
 8040SOL    HW135756   2.086   2.817   4.956  1.2103 -1.1023 -2.0265
 8040SOL    HW235757   2.229   2.785   4.974  0.5366  1.5800 -1.3488
 8041SOL     OW35758   3.278   3.957  16.473 -0.1725  0.0685 -0.1856
 8041SOL    HW135759   3.261   3.975  16.380 -1.7704 -1.8076 -0.2590
 8041SOL    HW235760   3.218   4.018  16.516  0.3952 -0.0986  0.8461
 8042SOL     OW35761   1.804   1.899   4.459  0.2270 -0.2711  0.5544
 8042SOL    HW135762   1.838   1.987   4.478 -1.3344  0.6385 -0.9214
 8042SOL    HW235763   1.800   1.893   4.364 -1.8264 -0.1756  0.6491
 8043SOL     OW35764   1.029   2.665   0.732  0.3923  0.2745  0.0740
 8043SOL    HW135765   1.032   2.676   0.827  0.3848  1.7141 -0.1028
 8043SOL    HW235766   1.124   2.662   0.718  0.3326 -0.1972 -0.2556
 8044SOL     OW35767   3.706   2.899   3.763 -0.1700  0.2623 -0.3428
 8044SOL    HW135768   3.797   2.924   3.777 -0.6086  1.9872 -0.5482
 8044SOL    HW235769   3.724   2.805   3.758 -0.1682  0.2476 -0.0720
 8045SOL     OW35770   2.601   4.086   3.927  0.0230 -0.2101 -0.2262
 8045SOL    HW135771   2.598   4.100   3.833 -2.1773  0.8132 -0.0025
 8045SOL    HW235772   2.534   4.148   3.957 -0.4283 -1.1770  0.8047
 8046SOL     OW35773   2.232   3.463   9.658  0.2694  0.3764 -0.4663
 8046SOL    HW135774   2.202   3.404   9.589  0.1786 -0.8258  0.5934
 8046SOL    HW235775   2.289   3.402   9.705 -0.6491  0.3411  0.5906
 8047SOL     OW35776   0.753   3.663   1.973  0.1105 -0.2485 -0.4930
 8047SOL    HW135777   0.668   3.620   1.965 -0.6237  1.0867  0.2374
 8047SOL    HW235778   0.748   3.731   1.906  1.3946  0.5881  0.2504
 8048SOL     OW35779   4.070   1.045   4.503  0.0129 -0.1519 -0.3461
 8048SOL    HW135780   4.123   1.082   4.433  0.2619 -0.3390 -0.2564
 8048SOL    HW235781   4.110   1.089   4.578 -1.0164 -0.0301  0.1300
 8049SOL     OW35782   2.258   1.582  10.065  0.3968  1.0129  0.1050
 8049SOL    HW135783   2.247   1.675  10.082 -0.3068  1.3923 -2.3921
 8049SOL    HW235784   2.323   1.550  10.128  0.4615  0.0755 -0.4203
 8050SOL     OW35785   3.709   4.037   0.844  0.1574 -0.1353 -0.2031
 8050SOL    HW135786   3.664   3.964   0.801 -1.3546  0.6161  0.1034
 8050SOL    HW235787   3.723   3.992   0.927  2.0113 -0.9210 -0.9357
 8051SOL     OW35788   1.357   2.900   0.778 -0.0945  0.4671 -0.0018
 8051SOL    HW135789   1.379   2.946   0.859  1.4531 -1.1740  0.5151
 8051SOL    HW235790   1.423   2.939   0.720 -0.3680 -0.7984 -1.1797
 8052SOL     OW35791   2.084   2.908   2.594  0.3895 -0.1469  0.3010
 8052SOL    HW135792   2.039   2.869   2.669 -0.0844  0.7081  0.4563
 8052SOL    HW235793   2.110   2.993   2.628 -0.0567 -0.2101  0.7905
 8053SOL     OW35794   0.445   1.494   2.788 -0.2061 -0.1012 -0.2225
 8053SOL    HW135795   0.438   1.423   2.724  0.2297 -1.1989  0.9367
 8053SOL    HW235796   0.403   1.466   2.869 -1.2664  0.4721 -0.5787
 8054SOL     OW35797   2.834   4.579  16.767 -0.5840 -0.0130 -0.1365
 8054SOL    HW135798   2.808   4.607  16.679 -0.5575  2.3600  0.5972
 8054SOL    HW235799   2.749   4.601  16.804 -0.0887 -0.2536  1.1410
 8055SOL     OW35800   1.712   2.509   9.006  0.3428  0.0524 -0.3514
 8055SOL    HW135801   1.628   2.479   9.041  1.0610 -1.2200  0.2742
 8055SOL    HW235802   1.722   2.582   9.067 -1.1675  0.1530 -0.2145
 8056SOL     OW35803   0.502   1.026  10.114  0.3124 -0.0005  0.2488
 8056SOL    HW135804   0.522   0.935  10.137  0.7609 -0.3331 -1.4377
 8056SOL    HW235805   0.541   1.069  10.190 -1.6765  0.6214  0.9139
 8057SOL     OW35806   1.043   0.749   8.994 -0.1887  0.1772  0.2096
 8057SOL    HW135807   1.004   0.665   9.019 -0.1039 -0.9806 -3.4927
 8057SOL    HW235808   0.998   0.766   8.911 -0.9448  1.8794  0.9780
 8058SOL     OW35809   0.882   1.015  13.115 -0.1879 -0.6047  0.3189
 8058SOL    HW135810   0.954   0.986  13.060 -0.9792 -2.0136  0.0219
 8058SOL    HW235811   0.836   0.937  13.146  0.3733 -1.5371 -1.2322
 8059SOL     OW35812   3.030   1.906   5.924 -0.3075 -0.0935 -0.2173
 8059SOL    HW135813   3.073   1.906   5.838 -1.2419 -1.6292 -0.6812
 8059SOL    HW235814   3.000   1.816   5.929  0.2977 -0.3110 -0.4327
 8060SOL     OW35815   0.250   4.491  10.593 -0.0210  0.0464  0.4969
 8060SOL    HW135816   0.201   4.552  10.538 -1.7227 -1.0298  0.8320
 8060SOL    HW235817   0.279   4.550  10.663  0.9212  0.8595 -0.5773
 8061SOL     OW35818   4.440   0.937   0.474 -0.7346  0.3127  0.1101
 8061SOL    HW135819   4.504   0.974   0.535  0.1141  1.2674 -1.3451
 8061SOL    HW235820   4.485   0.857   0.445 -1.5337 -0.6216  1.4959
 8062SOL     OW35821   1.399   0.773  11.672  0.4966 -0.0086 -0.0981
 8062SOL    HW135822   1.403   0.761  11.767 -0.0003 -0.8195 -0.1820
 8062SOL    HW235823   1.324   0.832  11.667  1.0710  0.8396  1.2512
 8063SOL     OW35824   4.350   1.870   5.328  0.2419 -0.1639  0.1871
 8063SOL    HW135825   4.316   1.845   5.414 -0.5368 -2.8663 -0.9297
 8063SOL    HW235826   4.385   1.953   5.363 -0.4467 -0.0657  0.6515
 8064SOL     OW35827   1.138   1.317   0.541 -0.0008  0.1571 -0.2315
 8064SOL    HW135828   1.127   1.310   0.636  0.1358  1.1525 -0.1459
 8064SOL    HW235829   1.134   1.225   0.514 -1.4186  0.7652 -2.0386
 8065SOL     OW35830   0.866   1.493  15.513 -0.6437  0.7195 -0.8026
 8065SOL    HW135831   0.846   1.402  15.536 -1.0193  1.3347  1.3420
 8065SOL    HW235832   0.862   1.490  15.418 -0.1096  0.7121 -0.8264
 8066SOL     OW35833   1.048   4.534   6.111 -0.1796  0.5076  0.0263
 8066SOL    HW135834   0.990   4.530   6.187  0.5493  0.0131  0.5542
 8066SOL    HW235835   0.983   4.567   6.049 -0.7508 -0.0267  0.3446
 8067SOL     OW35836   0.154   2.929   1.061  0.1317 -0.0203 -0.4915
 8067SOL    HW135837   0.242   2.892   1.071  0.1072  0.2458  0.7014
 8067SOL    HW235838   0.176   2.997   0.997  0.9149  0.9119  0.7708
 8068SOL     OW35839   1.721   1.117  13.575 -0.4462  0.8811 -0.0282
 8068SOL    HW135840   1.655   1.106  13.643 -3.1461  0.1453 -2.7534
 8068SOL    HW235841   1.745   1.205  13.605 -1.5389  2.1837 -2.9176
 8069SOL     OW35842   1.757   4.523   7.916  0.1816 -0.4286  0.0630
 8069SOL    HW135843   1.816   4.596   7.900  0.5064 -1.1409 -2.0738
 8069SOL    HW235844   1.765   4.488   7.827  0.9954 -0.6419  0.2210
 8070SOL     OW35845   2.311   0.923   5.129 -0.1951 -0.0179 -0.2701
 8070SOL    HW135846   2.397   0.893   5.100  1.1066  3.3875  0.0817
 8070SOL    HW235847   2.290   0.980   5.055  0.7094  2.0552  1.0889
 8071SOL     OW35848   0.649   0.434  17.670  0.1897  0.0292  0.0824
 8071SOL    HW135849   0.619   0.493  17.601  2.3360  2.8037  1.4652
 8071SOL    HW235850   0.579   0.369  17.675  1.7792 -1.5898  1.1450
 8072SOL     OW35851   0.743   0.843   6.933  0.0834  0.1816  0.6059
 8072SOL    HW135852   0.729   0.751   6.911  2.8553 -0.0994 -0.0388
 8072SOL    HW235853   0.754   0.889   6.850  2.5187 -0.6030  0.5050
 8073SOL     OW35854   3.181   1.182   2.824 -0.5152 -0.0010  0.0098
 8073SOL    HW135855   3.237   1.220   2.891  0.5851 -1.4921 -0.0790
 8073SOL    HW235856   3.098   1.192   2.871 -0.3940  1.9148 -0.1721
 8074SOL     OW35857   3.936   3.633   2.438 -0.0469  1.1283  0.6398
 8074SOL    HW135858   3.928   3.728   2.428  0.0188  0.9942 -0.7473
 8074SOL    HW235859   3.948   3.600   2.349  0.4067  0.9105  0.7826
 8075SOL     OW35860   4.289   3.801   5.076  0.1638 -0.2653  0.2386
 8075SOL    HW135861   4.370   3.803   5.026 -0.5671 -2.8322 -1.0582
 8075SOL    HW235862   4.292   3.894   5.099 -0.5846 -0.3722  0.7488
 8076SOL     OW35863   0.608   1.171   9.774 -0.0367  0.3632  0.1528
 8076SOL    HW135864   0.632   1.195   9.685  0.2008  1.6547  0.5633
 8076SOL    HW235865   0.694   1.177   9.816 -0.2679 -1.6498  0.9368
 8077SOL     OW35866   2.001   4.254   8.488  0.8032  0.1151 -0.1431
 8077SOL    HW135867   2.087   4.289   8.509  0.5114  1.9671 -2.0325
 8077SOL    HW235868   1.962   4.331   8.445 -0.5462 -0.2854  0.3532
 8078SOL     OW35869   4.713   4.324   1.660 -0.1359  0.0958 -0.1644
 8078SOL    HW135870   4.728   4.334   1.566  1.4963 -3.5431 -0.2641
 8078SOL    HW235871   4.621   4.353   1.660  0.0198  0.5474 -2.6549
 8079SOL     OW35872   3.995   3.694   1.666  0.0045 -0.4068  0.4419
 8079SOL    HW135873   3.958   3.727   1.584 -3.4399  0.1088  2.1849
 8079SOL    HW235874   3.917   3.689   1.722  0.7770  2.6586  1.7501
 8080SOL     OW35875   1.005   1.108   2.604 -0.1382  0.2093 -0.4350
 8080SOL    HW135876   0.971   1.036   2.658 -0.9240 -0.7602 -2.2509
 8080SOL    HW235877   1.059   1.162   2.663  2.3848 -2.8438  0.0824
 8081SOL     OW35878   1.285   0.310   2.741 -0.1912 -0.1389 -0.3512
 8081SOL    HW135879   1.275   0.338   2.832 -0.5289  0.7596 -0.6543
 8081SOL    HW235880   1.381   0.306   2.734 -0.2180  1.0828 -1.5093
 8082SOL     OW35881   1.417   2.881  12.888 -0.2162 -0.0996 -0.0660
 8082SOL    HW135882   1.438   2.881  12.982  1.6110  3.1161 -0.4576
 8082SOL    HW235883   1.344   2.943  12.887 -0.5802 -0.4848  1.5940
 8083SOL     OW35884   2.203   4.727  15.648  0.2068  0.2002  0.1914
 8083SOL    HW135885   2.272   4.715  15.582  1.1597  0.5161  1.1408
 8083SOL    HW235886   2.214   4.640  15.686 -1.4459  0.6562  1.7076
 8084SOL     OW35887   2.423   2.900   6.737  0.3096 -0.4763  0.0981
 8084SOL    HW135888   2.498   2.926   6.791  0.7438  1.8251 -1.6265
 8084SOL    HW235889   2.351   2.887   6.799 -0.0311  2.6821  0.4049
 8085SOL     OW35890   3.310   4.351   9.646  0.0237 -0.2813  0.0601
 8085SOL    HW135891   3.240   4.384   9.589  1.3114 -1.3349 -2.1464
 8085SOL    HW235892   3.328   4.439   9.679 -0.7512 -0.4305  0.8804
 8086SOL     OW35893   3.661   2.883   8.952  0.4983  0.0334 -0.3060
 8086SOL    HW135894   3.743   2.905   8.996  0.2131 -0.0087  0.2508
 8086SOL    HW235895   3.623   2.832   9.023  0.8965 -0.6080 -0.5633
 8087SOL     OW35896   1.411   1.575   2.824 -0.1154 -0.1693 -0.0246
 8087SOL    HW135897   1.371   1.488   2.836  3.7155 -2.0470 -0.7272
 8087SOL    HW235898   1.444   1.590   2.913 -0.4209  1.0362 -0.1152
 8088SOL     OW35899   3.193   4.200  16.953 -0.0747 -0.2547 -0.4249
 8088SOL    HW135900   3.103   4.213  16.982 -0.5559 -3.9089 -0.2319
 8088SOL    HW235901   3.235   4.276  16.994 -1.6412  0.8538 -0.9035
 8089SOL     OW35902   1.504   2.075   3.811  0.4528  0.0373  0.8265
 8089SOL    HW135903   1.498   2.042   3.721 -0.1719 -1.2049  1.3299
 8089SOL    HW235904   1.411   2.066   3.831  0.2794 -1.8603 -0.8964
 8090SOL     OW35905   0.652   4.076  13.212  0.2353 -0.0593  0.1347
 8090SOL    HW135906   0.717   4.028  13.262  0.6980 -1.0112 -1.3745
 8090SOL    HW235907   0.673   4.039  13.126  1.8446  1.7943 -0.2797
 8091SOL     OW35908   0.843   0.423   3.765 -0.2115 -0.2281 -0.0597
 8091SOL    HW135909   0.768   0.368   3.741 -0.2811 -0.9134  1.7729
 8091SOL    HW235910   0.866   0.449   3.676 -1.0344  1.8921  0.3424
 8092SOL     OW35911   3.737   3.460   8.574  0.0219 -0.3379  0.1951
 8092SOL    HW135912   3.695   3.412   8.503 -0.3038  1.0523 -0.5315
 8092SOL    HW235913   3.735   3.399   8.648  0.9553 -1.0237 -0.3526
 8093SOL     OW35914   0.032   3.749   0.816 -0.0840  0.1198  0.2458
 8093SOL    HW135915   0.105   3.713   0.767  0.2686  0.9078  0.1822
 8093SOL    HW235916   4.714   3.673   0.834  2.8203 -1.7601  0.9904
 8094SOL     OW35917   3.780   3.072  13.643 -0.0830 -0.0066  0.4513
 8094SOL    HW135918   3.808   3.157  13.677 -1.0426  0.2942  0.5004
 8094SOL    HW235919   3.724   3.097  13.569 -0.8779 -0.2580  0.9684
 8095SOL     OW35920   4.334   0.546   7.213  0.7326 -0.7151 -0.5582
 8095SOL    HW135921   4.288   0.471   7.251  1.3824 -0.2835  1.1006
 8095SOL    HW235922   4.320   0.525   7.121 -1.3769 -1.8885  0.0475
 8096SOL     OW35923   2.097   3.338   7.271 -0.1509 -0.1671 -0.1088
 8096SOL    HW135924   2.096   3.270   7.338 -0.1386 -0.9452 -0.8987
 8096SOL    HW235925   2.052   3.296   7.198 -0.1261  0.6831 -0.6175
 8097SOL     OW35926   0.926   0.006   1.767 -0.1613 -1.0475 -0.2144
 8097SOL    HW135927   0.880   0.089   1.757  0.4330 -0.6385  0.4683
 8097SOL    HW235928   0.863   4.679   1.734 -2.0630  0.9080 -0.3488
 8098SOL     OW35929   3.692   3.778   3.473 -0.0035 -0.1432  0.1950
 8098SOL    HW135930   3.748   3.750   3.545  1.1906  1.4418 -0.1262
 8098SOL    HW235931   3.657   3.858   3.513  0.8437  0.1162  0.4165
 8099SOL     OW35932   1.087   0.148   1.951  0.0248 -0.1832  0.4093
 8099SOL    HW135933   1.135   0.070   1.976  0.7123 -0.5903 -2.1651
 8099SOL    HW235934   1.019   0.103   1.901  1.0901  2.0901 -3.1050
 8100SOL     OW35935   0.729   1.139   5.399  0.1986 -0.2976 -0.3035
 8100SOL    HW135936   0.679   1.171   5.474  1.6550  0.4215  0.3556
 8100SOL    HW235937   0.672   1.066   5.373 -3.4922  2.2535  0.6851
 8101SOL     OW35938   1.721   3.537   7.002  0.4018 -0.0418  0.0847
 8101SOL    HW135939   1.797   3.580   7.040 -0.4160  0.6343  0.9593
 8101SOL    HW235940   1.645   3.592   7.021 -0.8354 -1.3464 -1.0205
 8102SOL     OW35941   1.704   4.376  11.688  0.2369  0.3557 -0.0693
 8102SOL    HW135942   1.711   4.419  11.602 -1.0421  1.7749  0.5487
 8102SOL    HW235943   1.762   4.300  11.681 -0.6038 -0.2101 -0.8628
 8103SOL     OW35944   2.488   2.652   7.336 -0.1242  0.2959  0.1243
 8103SOL    HW135945   2.471   2.680   7.426 -0.3495  0.8399 -0.0896
 8103SOL    HW235946   2.455   2.722   7.280 -1.9762 -2.1459 -1.8657
 8104SOL     OW35947   3.360   3.828  10.696 -0.2736  0.3763  0.4928
 8104SOL    HW135948   3.453   3.817  10.675  0.1982  0.7423  2.4547
 8104SOL    HW235949   3.339   3.735  10.704 -2.7416  0.8770  0.0581
 8105SOL     OW35950   3.947   3.389   7.580  0.1369 -0.3517  0.3228
 8105SOL    HW135951   3.926   3.434   7.662  2.6833 -0.3072  0.9471
 8105SOL    HW235952   3.933   3.464   7.523  1.0120  0.2171  0.8561
 8106SOL     OW35953   0.696   0.539   4.693 -0.6681  0.3369  0.1213
 8106SOL    HW135954   0.717   0.629   4.667  0.0486 -0.6259 -2.5924
 8106SOL    HW235955   0.659   0.511   4.609  0.8118 -1.7472  0.1707
 8107SOL     OW35956   2.548   1.003  10.014  0.1084 -0.3497 -0.0258
 8107SOL    HW135957   2.469   0.970  10.056 -1.1340 -0.5049 -2.4493
 8107SOL    HW235958   2.529   1.096  10.012 -0.6629 -0.5725 -3.0277
 8108SOL     OW35959   1.513   2.250  10.789  0.1476 -0.1839 -0.0646
 8108SOL    HW135960   1.597   2.206  10.805 -1.6448 -2.8933  1.8658
 8108SOL    HW235961   1.484   2.260  10.880 -0.7428  1.1721 -0.5021
 8109SOL     OW35962   4.099   1.727  12.819 -0.1836  0.3448  0.0119
 8109SOL    HW135963   4.159   1.689  12.883 -0.3844 -1.5599 -0.9621
 8109SOL    HW235964   4.142   1.702  12.738  3.0234  3.3899  0.7847
 8110SOL     OW35965   3.942   3.911   2.384  0.1989 -1.0015 -0.0227
 8110SOL    HW135966   3.969   3.925   2.293 -2.0447 -1.4019 -0.7327
 8110SOL    HW235967   3.891   3.991   2.396  3.6634  1.1907  0.2471
 8111SOL     OW35968   2.227   1.573   4.941 -0.1217  0.3436 -0.2162
 8111SOL    HW135969   2.168   1.534   5.005 -1.5336  1.8770 -0.5580
 8111SOL    HW235970   2.309   1.554   4.986 -0.6289  1.1444  1.0676
 8112SOL     OW35971   0.184   1.916   1.387 -0.7052 -0.3437 -0.2298
 8112SOL    HW135972   0.176   1.908   1.292 -1.2685  0.6228 -0.2656
 8112SOL    HW235973   0.207   2.009   1.388 -1.6534 -0.1047 -0.9187
 8113SOL     OW35974   4.680   3.098   3.027  0.1621  0.1574  0.2530
 8113SOL    HW135975   0.026   3.086   3.072 -0.8755 -0.2361  2.0862
 8113SOL    HW235976   4.633   3.141   3.099  1.2822  1.4256  0.2192
 8114SOL     OW35977   3.946   0.638   1.257 -0.0427 -0.1962  0.1788
 8114SOL    HW135978   3.993   0.648   1.175  0.4654  0.5681  0.5588
 8114SOL    HW235979   3.887   0.713   1.253  0.7995  0.4361 -0.3304
 8115SOL     OW35980   2.730   2.415  10.791  0.1935 -0.3728  0.0034
 8115SOL    HW135981   2.736   2.333  10.841 -1.3060 -0.3961  0.1463
 8115SOL    HW235982   2.705   2.380  10.705 -0.2928  0.7837 -0.3187
 8116SOL     OW35983   3.110   3.043  13.972  0.1694  0.1710 -0.1544
 8116SOL    HW135984   3.174   3.007  13.911  0.7524  0.3776  0.3403
 8116SOL    HW235985   3.173   3.094  14.023  0.6270  0.6623 -1.2019
 8117SOL     OW35986   2.032   2.213   1.114  0.5359  0.3229  0.1427
 8117SOL    HW135987   2.022   2.307   1.099 -0.3886  0.5383  2.0974
 8117SOL    HW235988   1.948   2.174   1.088  0.3311 -0.2049  1.5869
 8118SOL     OW35989   0.062   3.890   8.240  0.4597  0.4197 -0.3620
 8118SOL    HW135990   0.116   3.924   8.311  1.5184  0.2185 -1.0744
 8118SOL    HW235991   0.132   3.870   8.178  0.2740  1.1305 -0.7954
 8119SOL     OW35992   3.723   4.003   6.913  0.7042 -0.2985 -0.0207
 8119SOL    HW135993   3.687   3.966   6.832 -0.7694  0.0783  0.4603
 8119SOL    HW235994   3.812   4.035   6.895  1.1104 -0.7710  1.1939
 8120SOL     OW35995   4.390   1.541   8.718  0.3054  0.1826 -0.0059
 8120SOL    HW135996   4.421   1.456   8.751  1.6319 -0.7424 -3.6594
 8120SOL    HW235997   4.310   1.509   8.675  0.5410  0.3802 -0.5816
 8121SOL     OW35998   1.720   2.947  11.803 -0.1763 -0.3440 -0.4601
 8121SOL    HW135999   1.701   2.855  11.783  0.2029 -0.5921  0.3350
 8121SOL    HW236000   1.770   2.972  11.726  1.2049 -0.4720  0.3922
 8122SOL     OW36001   3.679   3.076  16.474 -0.5354 -0.1345 -0.0400
 8122SOL    HW136002   3.602   3.054  16.526 -1.8942 -2.0670 -2.8746
 8122SOL    HW236003   3.744   3.053  16.541 -0.5226  0.1598  0.0521
 8123SOL     OW36004   1.967   0.678   7.176 -0.1463 -0.4758  0.4437
 8123SOL    HW136005   2.011   0.733   7.242  1.6581 -0.7600 -0.5399
 8123SOL    HW236006   1.881   0.718   7.187 -0.5112 -0.9470 -0.7725
 8124SOL     OW36007   2.111   3.180  13.058  0.2178 -0.1453  0.1729
 8124SOL    HW136008   2.203   3.159  13.073  0.2224 -0.2956 -0.0655
 8124SOL    HW236009   2.103   3.237  13.134  1.7438 -0.2328  0.4063
 8125SOL     OW36010   3.050   1.434  13.183  0.9774 -0.2298 -0.0490
 8125SOL    HW136011   3.017   1.518  13.152  1.9650 -0.1316 -0.8200
 8125SOL    HW236012   2.984   1.376  13.145 -0.3786  1.5393 -0.3988
 8126SOL     OW36013   0.475   3.126  15.107 -0.4409 -0.0318 -0.1838
 8126SOL    HW136014   0.533   3.085  15.171 -0.4150 -0.6235 -0.5858
 8126SOL    HW236015   0.387   3.107  15.141 -0.1094 -2.7929 -0.8461
 8127SOL     OW36016   3.605   1.412   8.121  0.0964  0.4513  0.3603
 8127SOL    HW136017   3.513   1.394   8.107 -0.2452  0.6584  2.2564
 8127SOL    HW236018   3.631   1.464   8.045 -0.0592  1.7529  1.1974
 8128SOL     OW36019   0.752   3.103   0.166 -0.2560  0.2407  0.5801
 8128SOL    HW136020   0.741   3.013   0.136 -0.1830  0.3871  0.1073
 8128SOL    HW236021   0.846   3.097   0.184 -0.5297  0.0498  1.9126
 8129SOL     OW36022   4.638   2.749   4.122 -0.0980  0.2222  0.2341
 8129SOL    HW136023   4.692   2.827   4.125  1.1567 -0.6306 -0.3215
 8129SOL    HW236024   4.551   2.788   4.110 -0.9233 -1.4650  0.7365
 8130SOL     OW36025   2.979   1.468   2.436 -0.5966  0.2054 -0.4337
 8130SOL    HW136026   2.894   1.481   2.395  0.4643  0.5118 -2.5379
 8130SOL    HW236027   2.958   1.462   2.529 -1.9870 -0.3745 -0.7895
 8131SOL     OW36028   1.037   2.083   2.806 -0.2891  0.0146 -0.2368
 8131SOL    HW136029   1.005   2.033   2.730 -1.2270  0.6970 -0.2856
 8131SOL    HW236030   0.957   2.131   2.825  0.2586 -0.1272  2.4243
 8132SOL     OW36031   2.640   4.062   2.757  0.1450 -0.4331  0.2786
 8132SOL    HW136032   2.694   3.984   2.767  0.2449 -0.4620 -0.4386
 8132SOL    HW236033   2.571   4.023   2.704 -0.0670  0.0095  0.2218
 8133SOL     OW36034   2.575   1.750   9.829  0.4866 -0.3259  0.0392
 8133SOL    HW136035   2.629   1.797   9.893 -1.6429  1.1441  0.7588
 8133SOL    HW236036   2.539   1.816   9.770  0.2431  0.4943  1.0928
 8134SOL     OW36037   4.585   2.833   5.967 -0.6018 -0.3378 -0.3808
 8134SOL    HW136038   4.659   2.818   5.907  1.5646  1.5966  1.8017
 8134SOL    HW236039   4.537   2.750   5.965 -0.2888 -0.5160 -0.6334
 8135SOL     OW36040   3.584   3.864   7.100  0.4583  0.0787  0.2003
 8135SOL    HW136041   3.628   3.909   7.027  0.5676 -0.7207 -0.2283
 8135SOL    HW236042   3.519   3.921   7.141  0.3658  0.8326 -0.9811
 8136SOL     OW36043   1.560   3.285  10.445 -0.0770 -0.4376 -0.9596
 8136SOL    HW136044   1.498   3.299  10.516 -0.9448 -2.3332 -1.3389
 8136SOL    HW236045   1.623   3.355  10.461  0.3355 -0.3389 -3.0606
 8137SOL     OW36046   1.241   3.952   7.379  0.2838  0.4035 -0.3482
 8137SOL    HW136047   1.255   3.912   7.464  1.0983  0.0380 -0.6532
 8137SOL    HW236048   1.228   3.876   7.322 -0.8099 -0.2006  0.7114
 8138SOL     OW36049   0.118   0.925  10.241 -0.2921 -0.5755 -0.0026
 8138SOL    HW136050   0.046   0.987  10.226 -0.8433 -1.2517 -0.1359
 8138SOL    HW236051   0.171   0.948  10.164 -0.4751  1.6886  0.5470
 8139SOL     OW36052   2.229   0.371   6.639  0.1634 -0.0027 -0.3165
 8139SOL    HW136053   2.245   0.304   6.573  2.2296 -0.3411  0.5372
 8139SOL    HW236054   2.176   0.439   6.597  1.9741  0.8614 -1.1737
 8140SOL     OW36055   3.362   3.366   9.593 -0.1592  0.6734 -0.0765
 8140SOL    HW136056   3.425   3.425   9.551 -1.2953  0.8970 -1.4806
 8140SOL    HW236057   3.278   3.391   9.554  0.2286  1.5330 -0.3610
 8141SOL     OW36058   1.600   0.516   0.411 -0.0973 -0.4803  0.5707
 8141SOL    HW136059   1.558   0.582   0.355  0.7910 -0.1026  0.3433
 8141SOL    HW236060   1.547   0.438   0.396 -0.1826 -0.3735  0.3166
 8142SOL     OW36061   3.933   2.705   1.384 -0.3423  0.2258 -0.4977
 8142SOL    HW136062   3.923   2.800   1.394 -0.0122  0.5462 -3.2477
 8142SOL    HW236063   3.904   2.698   1.293  0.1763 -1.0850 -0.5539
 8143SOL     OW36064   3.466   1.873   5.350 -0.4688 -0.2907  0.2822
 8143SOL    HW136065   3.379   1.879   5.310 -1.4257 -0.5680  2.2791
 8143SOL    HW236066   3.524   1.868   5.274  1.5515  1.1559  1.7192
 8144SOL     OW36067   1.225   0.345   6.202 -0.0691 -0.0103  0.5054
 8144SOL    HW136068   1.257   0.273   6.257  0.2666  0.5703  1.0632
 8144SOL    HW236069   1.284   0.347   6.127 -0.4490  1.5615  0.2585
 8145SOL     OW36070   2.778   3.086   7.538  0.6416  0.0761 -0.3525
 8145SOL    HW136071   2.771   3.016   7.603  2.4798 -2.0035 -2.3862
 8145SOL    HW236072   2.778   3.033   7.458  0.8628  1.0229 -0.9829
 8146SOL     OW36073   2.017   3.916  12.958  0.1629  0.4420  0.1378
 8146SOL    HW136074   1.929   3.879  12.955 -0.1410  1.0676  1.1850
 8146SOL    HW236075   2.032   3.926  12.864  1.2732  2.3561  0.5047
 8147SOL     OW36076   0.913   3.938   3.368  0.0607  0.0378  0.1335
 8147SOL    HW136077   0.898   3.881   3.293  0.2396  0.1335  0.0262
 8147SOL    HW236078   1.006   3.935   3.390  0.0366  0.0508  0.2387
 8148SOL     OW36079   3.197   2.943   6.800  0.2424  0.9322  0.3415
 8148SOL    HW136080   3.186   2.881   6.872  0.4812  2.1998  1.4663
 8148SOL    HW236081   3.279   2.985   6.824  0.0646  1.8501 -0.6874
 8149SOL     OW36082   3.337   1.149   3.307  0.5311  0.0128  0.0175
 8149SOL    HW136083   3.304   1.220   3.361 -0.6393  0.1213 -0.8256
 8149SOL    HW236084   3.426   1.151   3.343  0.9804  1.4027 -1.1566
 8150SOL     OW36085   3.502   1.107   3.843  0.3508  0.0362 -0.2403
 8150SOL    HW136086   3.518   1.023   3.886 -2.9572  0.9071  2.7463
 8150SOL    HW236087   3.418   1.077   3.807  0.1386  1.9650 -1.3451
 8151SOL     OW36088   1.623   0.636   1.819 -0.1696  0.3779  0.2744
 8151SOL    HW136089   1.549   0.593   1.775  0.0352 -1.0714  1.3852
 8151SOL    HW236090   1.671   0.664   1.741  0.8779  1.5289  1.3441
 8152SOL     OW36091   4.217   0.353   3.268  0.1667  0.0336  0.5490
 8152SOL    HW136092   4.230   0.360   3.174 -2.2565  2.0772  0.3640
 8152SOL    HW236093   4.193   0.444   3.286  0.6840  0.0130  1.3426
 8153SOL     OW36094   1.955   1.303   4.182  0.2655  0.0288  0.3558
 8153SOL    HW136095   1.988   1.218   4.211  1.9159  0.3703 -0.4926
 8153SOL    HW236096   1.878   1.280   4.132  1.0269 -0.2524 -0.6849
 8154SOL     OW36097   2.112   3.997   7.392 -0.2885  0.6978 -0.3258
 8154SOL    HW136098   2.081   3.919   7.439 -1.4242  1.4202  0.1070
 8154SOL    HW236099   2.081   4.061   7.455 -0.8041  0.8451 -0.7327
 8155SOL     OW36100   1.119   3.008  10.550 -0.1491  0.4170  0.3036
 8155SOL    HW136101   1.149   2.954  10.477 -0.1742  0.0656  0.5545
 8155SOL    HW236102   1.030   2.975  10.560 -0.7515  1.1135 -2.8052
 8156SOL     OW36103   1.199   1.796   8.820  0.3053 -0.3791 -0.6791
 8156SOL    HW136104   1.166   1.762   8.737  0.2729 -0.6027 -0.5746
 8156SOL    HW236105   1.195   1.718   8.874  0.2992  1.2524  1.6655
 8157SOL     OW36106   1.703   3.885   9.129 -0.1712  0.1886  0.2075
 8157SOL    HW136107   1.713   3.979   9.139 -2.2381  0.4133  0.2693
 8157SOL    HW236108   1.632   3.879   9.064 -2.1542  1.3712  2.2723
 8158SOL     OW36109   3.378   1.173   0.195  0.4448 -0.1456 -0.7615
 8158SOL    HW136110   3.456   1.206   0.149 -0.5351  0.2705 -2.1313
 8158SOL    HW236111   3.315   1.235   0.159  0.9213  0.9344  0.2458
 8159SOL     OW36112   2.349   3.679   2.467 -0.3248 -0.1495 -0.9569
 8159SOL    HW136113   2.303   3.620   2.526 -0.7948  1.8194  0.6295
 8159SOL    HW236114   2.312   3.647   2.384 -1.0486  1.1087 -1.1071
 8160SOL     OW36115   1.804   3.293   0.022  0.3177  0.2208 -0.1316
 8160SOL    HW136116   1.774   3.215   0.069 -0.1517  0.1778 -0.5012
 8160SOL    HW236117   1.724   3.333  17.732 -0.6242 -1.9610 -0.4301
 8161SOL     OW36118   3.595   0.537   2.944  0.2725 -0.0771 -0.1657
 8161SOL    HW136119   3.666   0.601   2.948  1.5498 -1.5535  0.8441
 8161SOL    HW236120   3.614   0.491   2.862  0.4582 -0.9419  0.3595
 8162SOL     OW36121   3.196   4.455   4.393 -0.2044 -0.1522  0.1014
 8162SOL    HW136122   3.226   4.484   4.478 -0.0010 -1.4420  0.4672
 8162SOL    HW236123   3.241   4.371   4.392  0.9943  0.4948  0.1711
 8163SOL     OW36124   2.509   2.085  16.693 -0.1934  0.1101 -0.1638
 8163SOL    HW136125   2.523   2.033  16.614 -3.3250  0.2633 -0.7901
 8163SOL    HW236126   2.592   2.070  16.739  0.2765  1.9069 -0.4109
 8164SOL     OW36127   0.098   1.102   5.332 -0.2447  0.2495 -0.4907
 8164SOL    HW136128   0.124   1.168   5.268 -0.2960 -0.8371 -1.6329
 8164SOL    HW236129   0.188   1.071   5.343 -1.7493 -4.2876 -0.8245
 8165SOL     OW36130   1.352   3.666   7.188 -0.2791  0.2615 -0.0471
 8165SOL    HW136131   1.262   3.651   7.160  0.1248  0.8103 -1.6730
 8165SOL    HW236132   1.380   3.581   7.221  0.6892  0.4627 -0.3416
 8166SOL     OW36133   2.611   2.349   5.224 -0.3494  0.4637 -0.2287
 8166SOL    HW136134   2.533   2.398   5.201 -0.5522  0.3105  0.1403
 8166SOL    HW236135   2.588   2.313   5.310 -0.1728 -0.3991 -0.5387
 8167SOL     OW36136   3.961   1.525  12.592  0.0171  0.1652 -0.2503
 8167SOL    HW136137   4.037   1.500  12.644  0.6290 -0.5183 -1.5138
 8167SOL    HW236138   3.997   1.608  12.560 -0.1824  0.6520  0.7559
 8168SOL     OW36139   1.702   2.884   8.172  0.1572 -0.1073 -0.2808
 8168SOL    HW136140   1.797   2.897   8.179  0.5342 -2.5707 -1.0140
 8168SOL    HW236141   1.700   2.797   8.134 -0.1319  0.2088 -0.9916
 8169SOL     OW36142   2.147   4.499   6.566  0.4615 -0.0689 -0.6510
 8169SOL    HW136143   2.111   4.426   6.617  0.4156  1.2203  1.1616
 8169SOL    HW236144   2.213   4.527   6.630  0.8748 -0.1818 -1.0345
 8170SOL     OW36145   2.414   2.533   8.146 -0.1765  0.2329 -0.1744
 8170SOL    HW136146   2.321   2.519   8.167 -0.4006  0.8266 -0.7773
 8170SOL    HW236147   2.435   2.513   8.055 -1.6127 -0.2268 -0.4041
 8171SOL     OW36148   1.053   1.166   9.227  0.1235 -0.3094 -0.0307
 8171SOL    HW136149   1.139   1.136   9.197  0.3866 -0.6683  1.0726
 8171SOL    HW236150   0.991   1.097   9.203  0.0327 -0.3058  0.1960
 8172SOL     OW36151   2.528   0.303  10.224 -1.4337 -0.1829 -0.3017
 8172SOL    HW136152   2.558   0.228  10.172  1.1390  0.3950  0.3564
 8172SOL    HW236153   2.486   0.268  10.302  0.8371  0.5230  1.2135
 8173SOL     OW36154   3.948   3.478   5.720  0.0178  0.3178 -0.0769
 8173SOL    HW136155   3.992   3.405   5.677 -0.5278  1.0802 -1.9448
 8173SOL    HW236156   3.961   3.555   5.664 -0.3169  0.6924  0.3615
 8174SOL     OW36157   0.103   1.669   7.040  0.4832 -0.4381 -0.0563
 8174SOL    HW136158   0.025   1.698   7.087  0.1911  2.1104 -2.0771
 8174SOL    HW236159   0.159   1.662   7.117 -0.7571 -1.0138  0.7884
 8175SOL     OW36160   3.898   3.626  11.963 -0.5377  0.3621 -0.4846
 8175SOL    HW136161   3.829   3.642  11.898  1.4765  1.9335 -2.2104
 8175SOL    HW236162   3.851   3.589  12.038 -1.5924 -0.3013 -1.4877
 8176SOL     OW36163   2.912   1.684   3.645  0.4991 -0.3254  0.0464
 8176SOL    HW136164   2.977   1.627   3.685 -0.0826 -1.7172 -0.9836
 8176SOL    HW236165   2.962   1.703   3.565  1.0124  2.0761  0.9369
 8177SOL     OW36166   0.530   1.591   9.119  0.3430 -0.3891 -0.0743
 8177SOL    HW136167   0.594   1.636   9.065  0.2837  2.2226  2.0364
 8177SOL    HW236168   0.512   1.659   9.184 -2.4176 -1.1008 -0.1014
 8178SOL     OW36169   1.279   0.156   2.357  0.8464  0.3040  0.3472
 8178SOL    HW136170   1.336   0.102   2.302  1.4790  1.8860 -0.5393
 8178SOL    HW236171   1.279   0.231   2.297  0.1570  0.3690  0.4270
 8179SOL     OW36172   2.386   1.137   4.135  0.6383 -0.0684 -0.1355
 8179SOL    HW136173   2.449   1.096   4.076 -0.6535 -0.7125 -1.0553
 8179SOL    HW236174   2.325   1.065   4.144  0.4645 -0.3226 -3.2155
 8180SOL     OW36175   2.677   1.040  13.477  0.1035 -0.2838 -0.1564
 8180SOL    HW136176   2.689   1.117  13.422 -1.9798 -0.4323 -0.8417
 8180SOL    HW236177   2.678   1.080  13.564  1.9756 -0.9486  0.1171
 8181SOL     OW36178   3.212   4.670  17.144 -0.0487 -0.4720 -0.3032
 8181SOL    HW136179   3.296   4.703  17.177 -0.0937  0.4640 -1.1663
 8181SOL    HW236180   3.191   4.721  17.066  0.1072  0.6698  0.3996
 8182SOL     OW36181   3.048   1.530  14.487 -0.2037 -0.3021 -0.0639
 8182SOL    HW136182   3.009   1.450  14.455  2.1067 -0.4394 -2.5710
 8182SOL    HW236183   3.067   1.577  14.406 -0.2917  0.1895  0.2004
 8183SOL     OW36184   0.956   1.623   0.080 -0.3240 -0.0565  0.3427
 8183SOL    HW136185   1.037   1.572   0.087 -1.8915 -2.9297 -2.6167
 8183SOL    HW236186   0.901   1.546   0.075 -1.2692  0.5748  1.0763
 8184SOL     OW36187   1.112   0.672   2.901 -0.0700  0.3580  0.0183
 8184SOL    HW136188   1.080   0.625   2.825  1.3722  0.6831 -0.7908
 8184SOL    HW236189   1.204   0.647   2.899 -0.2650 -0.4116  0.6879
 8185SOL     OW36190   0.935   1.671   7.673  0.0359  0.2397 -0.3070
 8185SOL    HW136191   0.941   1.704   7.763 -0.5000 -1.9801  0.5516
 8185SOL    HW236192   1.012   1.614   7.673  0.8060  1.2774  2.6802
 8186SOL     OW36193   2.455   4.328   3.678 -0.0052  0.2852  0.1430
 8186SOL    HW136194   2.510   4.378   3.618 -0.6238  0.3531 -0.3677
 8186SOL    HW236195   2.479   4.241   3.646 -0.5246  0.6267 -1.1623
 8187SOL     OW36196   0.662   0.788   5.622 -0.3888  0.0862  0.3642
 8187SOL    HW136197   0.676   0.730   5.696  1.0812  1.0067  0.8024
 8187SOL    HW236198   0.626   0.866   5.663 -1.6771  0.7542 -2.0353
 8188SOL     OW36199   1.211   2.126   5.256  0.1935 -0.3201  0.5949
 8188SOL    HW136200   1.207   2.099   5.164 -0.0090 -0.0983  0.5385
 8188SOL    HW236201   1.180   2.045   5.296 -1.0812  0.2304  0.7121
 8189SOL     OW36202   0.673   4.351  13.103 -0.3605  0.4738 -0.1661
 8189SOL    HW136203   0.628   4.302  13.172  0.5811 -0.8603 -0.4908
 8189SOL    HW236204   0.767   4.343  13.122 -0.3345  0.7139 -0.1815
 8190SOL     OW36205   3.052   1.639  14.250 -0.6836 -0.2631 -1.0519
 8190SOL    HW136206   3.116   1.700  14.214 -1.3936  0.4846 -1.0583
 8190SOL    HW236207   3.028   1.598  14.166 -2.7009  3.2030 -2.1646
 8191SOL     OW36208   4.431   1.334   9.365 -0.6211  0.0200 -0.3711
 8191SOL    HW136209   4.521   1.315   9.391 -0.3842  1.9810  0.2626
 8191SOL    HW236210   4.386   1.287   9.435  2.4770 -1.6292  0.5063
 8192SOL     OW36211   3.947   3.788  10.449  0.0098  0.0957 -0.0720
 8192SOL    HW136212   3.899   3.749  10.375 -0.8406 -0.4642  0.7769
 8192SOL    HW236213   4.034   3.802  10.412  0.5275 -2.5511  0.1432
 8193SOL     OW36214   2.352   1.223   8.739  0.1271  0.2003 -0.1183
 8193SOL    HW136215   2.376   1.315   8.724  2.4681  0.0156  2.5705
 8193SOL    HW236216   2.340   1.214   8.833  0.5589  3.3936  0.2485
 8194SOL     OW36217   1.796   2.099   1.041 -0.0752  0.3865  0.3423
 8194SOL    HW136218   1.746   2.025   1.006  0.0186  1.8838 -2.9195
 8194SOL    HW236219   1.773   2.166   0.977 -0.0996  0.5430  0.5154
 8195SOL     OW36220   2.538   0.493   4.318 -0.0493  0.0790  0.3951
 8195SOL    HW136221   2.451   0.477   4.280  0.0166 -0.6970  0.5699
 8195SOL    HW236222   2.592   0.484   4.240  0.3828  0.0708  0.6995
 8196SOL     OW36223   1.965   0.732  14.865 -0.1948 -0.5623  0.3263
 8196SOL    HW136224   2.008   0.709  14.783  0.5825  1.4376  0.1815
 8196SOL    HW236225   1.883   0.684  14.856 -0.6821  0.5711 -1.3754
 8197SOL     OW36226   2.513   0.887   1.430 -0.2130 -0.3292  0.3341
 8197SOL    HW136227   2.548   0.801   1.453  0.8623 -0.1289 -0.5593
 8197SOL    HW236228   2.547   0.888   1.341  0.1416  0.3877  0.4795
 8198SOL     OW36229   3.112   2.641   4.644 -0.1012  0.2526 -0.3166
 8198SOL    HW136230   3.077   2.729   4.654 -1.0051 -0.1690  0.2338
 8198SOL    HW236231   3.163   2.645   4.564  0.7744  3.2911  0.3952
 8199SOL     OW36232   2.711   0.148   6.290  0.2205  0.5513  0.2378
 8199SOL    HW136233   2.689   0.059   6.316  1.3932  0.3167  0.4171
 8199SOL    HW236234   2.794   0.156   6.337  0.2843 -1.8049  0.5340
 8200SOL     OW36235   4.208   0.323  10.050  0.1715 -0.9243 -0.2004
 8200SOL    HW136236   4.198   0.358  10.138 -1.5700 -0.9461 -0.3898
 8200SOL    HW236237   4.276   0.385  10.027 -1.2959  0.2600 -1.3198
 8201SOL     OW36238   1.876   2.544  11.613  0.4144  0.0152  0.4720
 8201SOL    HW136239   1.924   2.566  11.693 -0.2984 -1.7789  1.3934
 8201SOL    HW236240   1.832   2.626  11.592  1.0587  0.3849  0.5668
 8202SOL     OW36241   1.578   2.606  11.324 -0.2117  0.4364  0.1869
 8202SOL    HW136242   1.599   2.685  11.275  0.7101  0.5192  0.7089
 8202SOL    HW236243   1.619   2.542  11.265 -2.0921  0.9979 -1.7182
 8203SOL     OW36244   2.962   2.238  17.105 -0.8772 -0.2233  0.2050
 8203SOL    HW136245   2.975   2.310  17.043  1.8409 -0.1349  0.8817
 8203SOL    HW236246   2.881   2.267  17.146 -1.3087 -0.6505 -0.3533
 8204SOL     OW36247   2.928   0.725   8.262  0.0973 -0.4826  0.5624
 8204SOL    HW136248   2.869   0.693   8.194 -0.0677 -0.7720  0.8445
 8204SOL    HW236249   2.983   0.789   8.217  0.2939 -0.6606  0.5523
 8205SOL     OW36250   4.548   1.149   4.328 -0.3450  0.3388 -0.0843
 8205SOL    HW136251   4.640   1.175   4.334 -0.2658  0.0809 -0.2025
 8205SOL    HW236252   4.530   1.117   4.416  1.3612 -2.7910 -0.8878
 8206SOL     OW36253   0.560   2.121  16.933 -0.7541 -0.1487  0.0928
 8206SOL    HW136254   0.530   2.058  16.868  1.4495 -1.4052  0.2998
 8206SOL    HW236255   0.622   2.061  16.974  1.3700  1.0096 -1.4404
 8207SOL     OW36256   0.388   2.334  13.740 -0.2520 -0.1061 -0.2760
 8207SOL    HW136257   0.406   2.312  13.648 -1.3343 -0.1215 -0.4853
 8207SOL    HW236258   0.360   2.425  13.737 -2.8057 -0.9091 -0.2690
 8208SOL     OW36259   4.341   0.716   6.559  0.0870 -0.1851  0.4041
 8208SOL    HW136260   4.291   0.636   6.543  0.5982 -0.5956  0.8499
 8208SOL    HW236261   4.386   0.692   6.641 -0.6343 -2.1833  0.2120
 8209SOL     OW36262   1.504   2.270   6.339  0.6813 -0.2373  0.2987
 8209SOL    HW136263   1.453   2.326   6.397 -0.0720 -0.3018 -0.3091
 8209SOL    HW236264   1.511   2.192   6.394  4.0898 -1.1262 -1.3834
 8210SOL     OW36265   1.642   3.017   6.591 -0.1665 -0.1998  0.2598
 8210SOL    HW136266   1.717   3.067   6.623  1.5400 -1.9642 -0.8883
 8210SOL    HW236267   1.686   2.953   6.534  0.0728  2.3472 -2.4358
 8211SOL     OW36268   3.310   2.191  12.261  0.1522  0.1799  0.0670
 8211SOL    HW136269   3.314   2.115  12.320 -0.3088 -0.7022 -1.0272
 8211SOL    HW236270   3.372   2.247  12.306  0.3236  0.8423 -1.0026
 8212SOL     OW36271   0.085   3.803   5.691  0.2332  0.6690  0.0697
 8212SOL    HW136272   0.144   3.831   5.621 -0.1039  1.6540  0.1728
 8212SOL    HW236273   0.134   3.729   5.727 -1.8783 -0.1765  1.2363
 8213SOL     OW36274   3.686   0.654   8.215 -0.0775  0.0848 -0.1765
 8213SOL    HW136275   3.720   0.702   8.139  1.4113 -0.6572  0.0308
 8213SOL    HW236276   3.726   0.567   8.213  2.1130  1.1184 -0.9573
 8214SOL     OW36277   3.962   1.207  14.266  0.6111 -0.0195 -0.0492
 8214SOL    HW136278   4.032   1.182  14.326 -0.7575 -1.1897  1.0674
 8214SOL    HW236279   3.963   1.142  14.195 -0.6857  0.7138 -0.7396
 8215SOL     OW36280   2.489   2.186  14.841 -0.9078 -0.2168  0.3663
 8215SOL    HW136281   2.473   2.188  14.747  0.8891 -0.9559  0.0433
 8215SOL    HW236282   2.418   2.128  14.869  0.2903 -2.0804 -0.4579
 8216SOL     OW36283   2.175   4.665  12.353 -0.1700  0.0999  0.4600
 8216SOL    HW136284   2.269   4.646  12.352  0.0220  1.1622 -1.1069
 8216SOL    HW236285   2.136   4.592  12.401  0.0738  0.4636  1.2088
 8217SOL     OW36286   2.003   0.816   1.556 -0.0357 -0.1996 -0.0365
 8217SOL    HW136287   2.043   0.847   1.474  0.3571 -0.6579 -0.0166
 8217SOL    HW236288   2.075   0.795   1.615  0.7062 -1.3541 -1.3435
 8218SOL     OW36289   4.151   3.598   5.535  0.1503 -0.3308 -0.4276
 8218SOL    HW136290   4.182   3.688   5.520 -0.2622 -0.0853  0.1829
 8218SOL    HW236291   4.216   3.535   5.503 -0.5295 -0.2954 -1.8863
 8219SOL     OW36292   1.972   2.885   5.986  0.1559 -0.1356 -0.1294
 8219SOL    HW136293   1.952   2.800   5.948 -1.6606  0.3847 -0.3571
 8219SOL    HW236294   1.925   2.937   5.921  1.3382 -0.5284 -1.2998
 8220SOL     OW36295   0.203   3.429   2.218  0.2520 -0.7439 -0.1281
 8220SOL    HW136296   0.285   3.478   2.206  0.8837 -1.3844  1.5992
 8220SOL    HW236297   0.193   3.426   2.313 -2.9126 -0.0250 -0.4241
 8221SOL     OW36298   2.175   3.351  14.374  0.4610  0.2249  0.2129
 8221SOL    HW136299   2.124   3.298  14.435  1.0600 -2.4412 -1.6067
 8221SOL    HW236300   2.124   3.432  14.365  0.2468  0.1310  0.6032
 8222SOL     OW36301   4.287   2.356   1.225 -0.0936 -0.4681 -0.1428
 8222SOL    HW136302   4.218   2.394   1.278  0.6843 -1.8176  1.8340
 8222SOL    HW236303   4.365   2.375   1.276 -0.5434  2.1236 -0.4475
 8223SOL     OW36304   2.794   1.872   6.086 -0.1971 -0.1684  0.2868
 8223SOL    HW136305   2.798   1.964   6.059  1.5274 -0.3697 -0.1148
 8223SOL    HW236306   2.704   1.855   6.058 -0.0485 -0.5532  0.0526
 8224SOL     OW36307   4.362   2.211  16.253 -0.2473  0.1914  0.0293
 8224SOL    HW136308   4.380   2.185  16.163 -0.5385  0.1978 -0.0297
 8224SOL    HW236309   4.405   2.294  16.232 -3.1962  1.2694 -1.7340
 8225SOL     OW36310   3.351   3.531   2.795  0.2652 -0.0846  0.4816
 8225SOL    HW136311   3.255   3.539   2.801  0.1396 -0.0162 -1.6423
 8225SOL    HW236312   3.369   3.604   2.736 -1.7860  0.3381  0.3563
 8226SOL     OW36313   3.539   1.680   7.537  0.6762 -0.1690  0.1513
 8226SOL    HW136314   3.536   1.624   7.614  0.4392  1.5152  1.3530
 8226SOL    HW236315   3.463   1.654   7.484  1.0666 -0.7458 -0.1267
 8227SOL     OW36316   3.559   0.538  16.531 -0.3876  0.9506  0.0549
 8227SOL    HW136317   3.653   0.550  16.535 -0.1326 -1.0528  0.2203
 8227SOL    HW236318   3.526   0.604  16.469 -1.3861 -2.7936 -3.4448
 8228SOL     OW36319   0.984   4.213  16.039 -0.1446 -0.5311 -0.3218
 8228SOL    HW136320   1.035   4.204  15.959 -1.2961 -1.9049 -0.9059
 8228SOL    HW236321   0.909   4.155  16.029 -1.7247  1.5177 -0.2586
 8229SOL     OW36322   3.506   0.759   9.956  0.8512  0.3360  0.3127
 8229SOL    HW136323   3.492   0.824   9.888  0.2990 -1.1251 -0.9560
 8229SOL    HW236324   3.499   0.684   9.897 -0.8607 -1.4234  2.7390
 8230SOL     OW36325   0.450   0.334   7.116  0.2147  0.8449 -0.0766
 8230SOL    HW136326   0.362   0.337   7.078 -0.7507 -0.5495  2.0330
 8230SOL    HW236327   0.514   0.346   7.046  0.0262 -0.8592 -0.5493
 8231SOL     OW36328   3.519   3.236   0.644  0.0940  0.2607  0.3162
 8231SOL    HW136329   3.491   3.165   0.702  1.6457 -0.5265  0.0898
 8231SOL    HW236330   3.439   3.265   0.601 -0.3991 -2.3564 -0.5476
 8232SOL     OW36331   3.747   1.002   6.352 -0.1356  0.0705 -0.3137
 8232SOL    HW136332   3.684   1.074   6.350 -0.7662 -0.4992 -0.8719
 8232SOL    HW236333   3.703   0.938   6.296  1.0133  0.5876 -1.8266
 8233SOL     OW36334   1.918   2.545  13.936  0.6575 -0.0249  0.2908
 8233SOL    HW136335   1.986   2.611  13.953 -0.5350  1.2303  0.1347
 8233SOL    HW236336   1.917   2.507  14.024 -1.4092  2.4520  1.3382
 8234SOL     OW36337   1.632   2.922  10.303 -1.4180 -0.1241  0.6184
 8234SOL    HW136338   1.549   2.953  10.339 -1.9878 -1.3895  0.3943
 8234SOL    HW236339   1.661   2.991  10.244  1.0816 -0.6619  1.2202
 8235SOL     OW36340   4.644   1.339   8.477  0.1890 -0.4954 -0.6274
 8235SOL    HW136341   4.554   1.336   8.445 -0.5388 -1.1461  1.5015
 8235SOL    HW236342   4.685   1.348   8.391  1.2227 -0.1215 -0.0978
 8236SOL     OW36343   3.717   3.438  16.874  0.4831 -0.7945 -0.0818
 8236SOL    HW136344   3.674   3.523  16.882  1.3520 -0.3762  0.1723
 8236SOL    HW236345   3.641   3.392  16.837  0.7809 -0.5280 -1.0045
 8237SOL     OW36346   3.466   3.253   4.368 -0.7670 -0.0763 -0.0209
 8237SOL    HW136347   3.499   3.256   4.458  1.0962 -0.0620 -0.7176
 8237SOL    HW236348   3.418   3.170   4.368  1.5608 -1.4131 -1.6885
 8238SOL     OW36349   2.750   1.829   2.161 -0.8096 -0.6047  0.4876
 8238SOL    HW136350   2.816   1.846   2.229 -1.8207  1.9439  0.8523
 8238SOL    HW236351   2.800   1.775   2.100  1.2750 -0.0235  1.6432
 8239SOL     OW36352   0.985   0.427   5.375  0.2310 -0.0122 -0.4396
 8239SOL    HW136353   1.051   0.363   5.349  0.3190  0.0577 -0.3892
 8239SOL    HW236354   0.914   0.368   5.402 -0.0397 -0.0886 -1.3297
 8240SOL     OW36355   0.224   2.882   2.039 -0.2333  0.5228  0.1168
 8240SOL    HW136356   0.219   2.899   1.945 -1.0705  0.1338  0.0899
 8240SOL    HW236357   0.280   2.953   2.071  0.0454  0.6651 -0.6842
 8241SOL     OW36358   1.716   1.001   4.893 -0.0848  0.1589  0.3341
 8241SOL    HW136359   1.636   0.948   4.892  0.4912 -0.6731 -1.6585
 8241SOL    HW236360   1.680   1.089   4.892 -3.3400 -1.1382  1.5948
 8242SOL     OW36361   1.012   4.169   4.837 -0.1748  0.6634  0.1328
 8242SOL    HW136362   1.103   4.166   4.868  0.0476  0.9585 -0.5032
 8242SOL    HW236363   1.022   4.120   4.755 -0.0320  0.1510  0.4551
 8243SOL     OW36364   1.894   3.578   6.616  0.1758 -0.1555 -0.0222
 8243SOL    HW136365   1.962   3.513   6.635 -0.4836 -0.8074  0.0676
 8243SOL    HW236366   1.813   3.529   6.602  0.0623 -0.0551  0.2831
 8244SOL     OW36367   2.901   1.791   1.189  0.8459 -0.1616  0.0513
 8244SOL    HW136368   2.811   1.797   1.157  0.3814 -1.4877  1.0642
 8244SOL    HW236369   2.901   1.804   1.284  2.7104  1.3464 -0.1715
 8245SOL     OW36370   0.608   0.252   0.642 -0.0812  0.4537 -0.4599
 8245SOL    HW136371   0.581   0.258   0.733  3.3450 -0.5626  0.6352
 8245SOL    HW236372   0.529   0.282   0.597 -0.3569 -1.0795 -0.9983
 8246SOL     OW36373   0.256   4.691   7.129 -0.1479  0.3666 -0.2332
 8246SOL    HW136374   0.205   4.695   7.210 -0.1675  0.4819 -0.2511
 8246SOL    HW236375   0.273   0.049   7.128  0.6588  0.2207 -0.3959
 8247SOL     OW36376   1.398   2.544   3.204  0.1094  0.1915 -0.0843
 8247SOL    HW136377   1.354   2.495   3.273 -0.5600 -1.0263 -1.3657
 8247SOL    HW236378   1.338   2.537   3.130 -1.4335  1.9840  1.0035
 8248SOL     OW36379   4.068   4.499   9.544  0.0530 -0.3672  0.4897
 8248SOL    HW136380   4.148   4.450   9.525  0.6871  0.2557  1.5227
 8248SOL    HW236381   4.065   4.500   9.640  0.8366 -1.6886  0.5245
 8249SOL     OW36382   0.360   1.729   7.829  0.2780  0.2328 -0.7221
 8249SOL    HW136383   0.327   1.715   7.741  0.6760  1.5846 -1.0865
 8249SOL    HW236384   0.287   1.777   7.868  0.2418 -1.1626  0.9574
 8250SOL     OW36385   0.026   4.659  14.863  0.2826 -0.0096 -0.1583
 8250SOL    HW136386   0.076   4.584  14.831  0.4548  0.2396 -0.4691
 8250SOL    HW236387   4.719   4.692  14.785  1.1395  1.2358 -0.1059
 8251SOL     OW36388   0.914   2.815   6.952 -0.8836 -0.2919 -0.2480
 8251SOL    HW136389   0.872   2.810   7.038  0.8845 -1.6129  0.5393
 8251SOL    HW236390   0.961   2.731   6.953  0.0337  0.2027 -1.6449
 8252SOL     OW36391   4.251   4.467   4.337 -0.7620 -0.1312 -0.2082
 8252SOL    HW136392   4.272   4.453   4.245  1.2703 -3.9127  0.7810
 8252SOL    HW236393   4.169   4.418   4.346  0.1506 -2.0352 -2.2163
 8253SOL     OW36394   3.590   4.707   7.100 -0.3479  0.0370 -0.3767
 8253SOL    HW136395   3.604   4.729   7.192  1.4944 -0.5338 -0.5315
 8253SOL    HW236396   3.565   4.616   7.113  0.1705 -0.2425 -1.3442
 8254SOL     OW36397   0.590   1.376  11.500  0.2128  0.1899 -0.2612
 8254SOL    HW136398   0.550   1.426  11.430 -0.1568 -1.4307 -1.2217
 8254SOL    HW236399   0.594   1.289  11.460  0.3145  0.2440 -0.3670
 8255SOL     OW36400   3.856   4.362  13.426  0.1764  0.0440 -0.3118
 8255SOL    HW136401   3.781   4.304  13.438 -0.2897  0.9979  1.3864
 8255SOL    HW236402   3.851   4.411  13.508 -2.6997 -0.6101 -0.1048
 8256SOL     OW36403   4.607   3.552  14.996 -0.2954 -0.0012  0.4335
 8256SOL    HW136404   4.696   3.587  14.998  0.0186 -0.8600  1.5317
 8256SOL    HW236405   4.550   3.611  15.046  1.9316  0.2764  2.6260
 8257SOL     OW36406   4.483   3.459   0.204  0.2086  0.1890  0.1195
 8257SOL    HW136407   4.503   3.481   0.113 -0.6209 -0.0438 -0.1183
 8257SOL    HW236408   4.389   3.450   0.189  0.2170 -0.4311  0.4272
 8258SOL     OW36409   4.142   1.623   3.557 -0.2133  0.2061  0.2276
 8258SOL    HW136410   4.171   1.535   3.584  1.5911  1.0449  1.0335
 8258SOL    HW236411   4.229   1.662   3.545 -1.0858  1.4633 -1.8684
 8259SOL     OW36412   3.161   0.990   2.652 -0.6755 -0.0850 -0.1561
 8259SOL    HW136413   3.170   1.065   2.711  0.2437 -1.1308  1.0314
 8259SOL    HW236414   3.246   1.001   2.610 -0.4964  1.2218  0.5478
 8260SOL     OW36415   0.972   1.977   8.113 -0.5125  0.4761 -0.7145
 8260SOL    HW136416   0.889   2.020   8.093 -0.1298  1.0473 -1.0668
 8260SOL    HW236417   1.004   2.036   8.181 -3.2836 -2.3821  3.1144
 8261SOL     OW36418   4.133   1.666  14.969  0.3846 -0.4375 -0.3248
 8261SOL    HW136419   4.226   1.681  14.955  0.1375  0.8638 -0.6434
 8261SOL    HW236420   4.130   1.572  14.982 -1.3769 -0.2242  0.8078
 8262SOL     OW36421   1.808   4.056   4.401 -0.0387  0.3090  0.3273
 8262SOL    HW136422   1.726   4.024   4.440  1.2471 -1.4687  1.5862
 8262SOL    HW236423   1.792   4.054   4.307  3.2786 -0.5703 -0.2121
 8263SOL     OW36424   2.284   3.861   9.376  0.3371  0.1177  0.6920
 8263SOL    HW136425   2.336   3.792   9.418  1.9541  1.4808  0.9424
 8263SOL    HW236426   2.339   3.938   9.396  1.3131 -0.4901  0.3523
 8264SOL     OW36427   2.601   2.815   2.554 -0.6510  0.4109  0.6944
 8264SOL    HW136428   2.514   2.819   2.594 -0.4968  1.6500  0.9049
 8264SOL    HW236429   2.591   2.883   2.488  0.8397 -0.4598 -0.4254
 8265SOL     OW36430   2.205   4.377   3.575  0.7107  0.6757 -0.3740
 8265SOL    HW136431   2.280   4.366   3.633  1.2005  3.3061 -0.4981
 8265SOL    HW236432   2.158   4.457   3.599  1.2442  1.3915 -1.6997
 8266SOL     OW36433   3.367   4.665   4.226  0.5112  0.7615 -0.3082
 8266SOL    HW136434   3.329   0.015   4.237  0.1398  0.8436 -2.2741
 8266SOL    HW236435   3.459   4.688   4.221  0.9665 -0.8868  0.4116
 8267SOL     OW36436   3.095   2.812  10.366  0.2696  0.2136 -0.7738
 8267SOL    HW136437   3.142   2.894  10.351 -1.0568  1.3711  1.3350
 8267SOL    HW236438   3.152   2.754  10.315  2.9401 -0.6304  3.1788
 8268SOL     OW36439   0.364   1.935   6.610 -0.3567  0.1128  0.4442
 8268SOL    HW136440   0.303   1.920   6.538  0.2739  0.7436 -0.2183
 8268SOL    HW236441   0.356   1.849   6.650  0.3666 -1.7834 -3.4977
 8269SOL     OW36442   2.249   2.961   4.676 -0.3918 -0.2259  0.1799
 8269SOL    HW136443   2.222   2.874   4.646 -0.6330  0.6883 -2.2380
 8269SOL    HW236444   2.166   2.996   4.708  0.9138  0.7803  2.4808
 8270SOL     OW36445   1.669   0.755   8.871  0.2334  0.4218  0.1184
 8270SOL    HW136446   1.598   0.820   8.870  0.3136  0.5086  0.0647
 8270SOL    HW236447   1.723   0.779   8.795  0.8218  1.8175  0.9629
 8271SOL     OW36448   0.078   1.193   3.605 -0.2541  0.3362 -0.5326
 8271SOL    HW136449   0.112   1.267   3.656 -0.1298 -0.7351  0.9555
 8271SOL    HW236450   0.123   1.117   3.642 -0.2357  0.4416 -0.3357
 8272SOL     OW36451   4.116   2.240   8.467  0.2258 -0.4847 -0.1743
 8272SOL    HW136452   4.210   2.223   8.460  0.6568  2.2412 -0.7660
 8272SOL    HW236453   4.109   2.247   8.562  0.4615 -1.4408 -0.0862
 8273SOL     OW36454   1.988   1.009  14.834 -0.0638  0.3757 -0.2245
 8273SOL    HW136455   1.911   1.011  14.776  0.6282  0.1878 -1.1583
 8273SOL    HW236456   2.017   0.919  14.821  2.0384  1.0929 -0.4998
 8274SOL     OW36457   0.734   3.993   4.998  0.9957 -1.1658  0.7098
 8274SOL    HW136458   0.708   4.071   5.046 -1.3215 -0.3825 -1.7777
 8274SOL    HW236459   0.771   3.942   5.069  0.1326 -1.3976  0.9977
 8275SOL     OW36460   2.442   1.521  13.334  0.0372  0.1931  0.2774
 8275SOL    HW136461   2.417   1.435  13.301 -2.2769  1.9136 -2.5136
 8275SOL    HW236462   2.493   1.504  13.413  1.2954  0.8956 -0.3700
 8276SOL     OW36463   1.442   0.072   9.432 -0.1307 -0.0567  0.2999
 8276SOL    HW136464   1.499   4.732   9.430 -1.3785 -0.9678 -0.0474
 8276SOL    HW236465   1.516   0.131   9.450 -0.4499  0.1770  0.8372
 8277SOL     OW36466   0.901   2.850  11.506  0.0312  1.0235  0.3027
 8277SOL    HW136467   0.938   2.835  11.419  0.6873 -0.9107  0.9118
 8277SOL    HW236468   0.925   2.940  11.524 -0.7433  1.4757 -0.9328
 8278SOL     OW36469   1.607   3.645   3.754  0.0981 -0.1644  0.5735
 8278SOL    HW136470   1.687   3.633   3.805  1.7427 -0.4759 -2.0911
 8278SOL    HW236471   1.631   3.626   3.663  1.3724 -0.5940  1.0000
 8279SOL     OW36472   0.665   4.054  11.127 -0.1349 -0.2026 -0.4159
 8279SOL    HW136473   0.581   4.053  11.171  0.4704 -1.2121  0.7101
 8279SOL    HW236474   0.683   4.144  11.098 -1.2190 -0.3516 -1.5234
 8280SOL     OW36475   2.735   1.731   4.292  0.4993  0.5154  0.6727
 8280SOL    HW136476   2.709   1.645   4.259 -0.2380  0.3694  1.6283
 8280SOL    HW236477   2.790   1.707   4.368  0.0094 -0.1903  0.7956
 8281SOL     OW36478   3.376   4.315   6.419 -0.4068  0.3377 -0.2607
 8281SOL    HW136479   3.353   4.241   6.362  1.8370 -0.5364 -0.0461
 8281SOL    HW236480   3.290   4.355   6.430 -0.5497  0.1610 -0.7485
 8282SOL     OW36481   1.979   2.402  16.249 -0.0092  0.4690  0.6163
 8282SOL    HW136482   1.991   2.470  16.182 -0.0471  0.7423  0.8875
 8282SOL    HW236483   1.939   2.449  16.321  0.8454  0.2472  1.2413
 8283SOL     OW36484   2.773   2.144   8.450 -0.7685  0.2077 -0.0761
 8283SOL    HW136485   2.772   2.238   8.469  0.3011  0.0632  0.6424
 8283SOL    HW236486   2.679   2.127   8.452 -0.7399 -0.1929 -1.7785
 8284SOL     OW36487   3.505   0.848   3.960  0.7035  0.0307 -0.0209
 8284SOL    HW136488   3.586   0.850   4.011  0.5394 -0.7171  0.2614
 8284SOL    HW236489   3.513   0.761   3.921  3.2882  0.3279 -0.1142
 8285SOL     OW36490   0.409   2.590   3.736 -0.7464  0.5103 -0.3660
 8285SOL    HW136491   0.441   2.555   3.819  0.0177  1.7499 -0.1370
 8285SOL    HW236492   0.450   2.676   3.726 -2.4193  0.8825 -4.1969
 8286SOL     OW36493   1.282   3.331   4.606 -0.0220  0.4613 -0.0998
 8286SOL    HW136494   1.286   3.388   4.529 -0.0221  0.1336 -0.3416
 8286SOL    HW236495   1.258   3.246   4.569  1.0538  1.1467 -2.3224
 8287SOL     OW36496   3.154   3.308   7.072  0.3036  0.0601 -0.1667
 8287SOL    HW136497   3.194   3.384   7.115 -1.5579  1.1986 -0.4742
 8287SOL    HW236498   3.068   3.300   7.112  0.4076 -0.5482 -0.0639
 8288SOL     OW36499   0.836   0.669   3.185 -0.4845 -0.2003 -0.2126
 8288SOL    HW136500   0.915   0.630   3.222  1.4452  1.8531 -2.1404
 8288SOL    HW236501   0.791   0.697   3.265  0.6077  2.5507 -0.5524
 8289SOL     OW36502   3.760   4.512  10.138  0.0355 -0.0781  0.5272
 8289SOL    HW136503   3.765   4.539  10.046  2.6684 -1.2669  0.3104
 8289SOL    HW236504   3.716   4.588  10.175 -1.1229  0.1852 -1.4059
 8290SOL     OW36505   4.716   0.960   2.459  0.5152 -0.2086 -0.3022
 8290SOL    HW136506   4.669   0.930   2.536 -0.5452  2.2514  0.0173
 8290SOL    HW236507   0.062   0.917   2.479  0.1484 -0.3110  0.9424
 8291SOL     OW36508   0.482   4.672   4.121  0.2113 -0.3784 -0.5108
 8291SOL    HW136509   0.439   0.013   4.157  0.2431  0.1102 -1.5365
 8291SOL    HW236510   0.411   4.611   4.101  1.2087 -2.5887  2.5950
 8292SOL     OW36511   2.178   1.096   8.573  0.3069  0.0197  0.5799
 8292SOL    HW136512   2.220   1.134   8.650  0.0086 -1.0155  1.2505
 8292SOL    HW236513   2.237   1.025   8.547  0.1266  0.3613 -0.7985
 8293SOL     OW36514   0.403   0.617   3.196  0.1282 -0.2046 -0.3932
 8293SOL    HW136515   0.459   0.586   3.267  0.1106 -3.0382 -1.6139
 8293SOL    HW236516   0.461   0.646   3.125  0.9477  1.7638  1.0831
 8294SOL     OW36517   1.182   1.958   0.257  0.0911  1.1015  0.3824
 8294SOL    HW136518   1.105   1.955   0.200 -0.3219  2.6102  0.8828
 8294SOL    HW236519   1.187   2.052   0.268  1.3222  1.2865 -1.6518
 8295SOL     OW36520   2.351   4.270  12.588 -0.3041 -0.4012 -0.4964
 8295SOL    HW136521   2.437   4.249  12.552 -0.0731  1.6696 -1.1886
 8295SOL    HW236522   2.374   4.314  12.671  1.8330  0.5616 -1.6143
 8296SOL     OW36523   3.992   1.000   9.175 -0.2938  0.0781 -0.2833
 8296SOL    HW136524   4.019   1.048   9.097  2.3718 -0.8744  0.0814
 8296SOL    HW236525   4.075   0.955   9.191 -0.0669  1.0154  1.1886
 8297SOL     OW36526   3.626   4.440  10.394 -0.1408  0.1925 -0.2645
 8297SOL    HW136527   3.586   4.510  10.445 -3.2791  0.3564 -2.8888
 8297SOL    HW236528   3.653   4.495  10.321 -0.1791 -0.6221 -0.8965
 8298SOL     OW36529   2.011   1.005   4.039 -0.2507  0.2706  0.1945
 8298SOL    HW136530   1.917   1.005   4.058 -0.2623 -1.3751  0.1047
 8298SOL    HW236531   2.046   0.994   4.128  1.0152 -0.7376 -0.4321
 8299SOL     OW36532   1.017   1.013   3.564 -0.0462  0.1742 -0.3971
 8299SOL    HW136533   1.045   0.939   3.511  0.0346  0.1556 -0.3266
 8299SOL    HW236534   1.073   1.012   3.641 -0.2285 -1.3508 -0.2870
 8300SOL     OW36535   0.641   3.740   5.888  0.8888  0.6188  0.0814
 8300SOL    HW136536   0.703   3.792   5.836  2.0971 -1.2994 -0.4140
 8300SOL    HW236537   0.686   3.725   5.971  0.1598 -0.7053  0.2297
 8301SOL     OW36538   2.680   3.331   2.710 -0.7079 -0.3649  0.8669
 8301SOL    HW136539   2.732   3.344   2.630 -0.3288  1.2013  1.3625
 8301SOL    HW236540   2.696   3.410   2.762  0.7861 -0.3983  0.4620
 8302SOL     OW36541   4.361   2.895  11.204 -0.4599  0.3179  0.7217
 8302SOL    HW136542   4.379   2.823  11.264 -0.6292  0.2468  0.6882
 8302SOL    HW236543   4.439   2.887  11.149 -0.4935  0.4900  0.6514
 8303SOL     OW36544   2.186   1.599  17.075  0.0147 -0.2683 -0.4207
 8303SOL    HW136545   2.205   1.541  17.001  0.5520  0.3401 -0.7605
 8303SOL    HW236546   2.254   1.664  17.062  1.6928 -2.2262 -1.4369
 8304SOL     OW36547   4.136   0.431   7.430  0.8811 -0.9360 -0.9273
 8304SOL    HW136548   4.143   0.363   7.496  2.0117  0.0059 -0.0781
 8304SOL    HW236549   4.190   0.498   7.472 -0.1650  1.1231 -2.8395
 8305SOL     OW36550   3.330   1.619   6.785 -0.1412  0.0737  0.3332
 8305SOL    HW136551   3.397   1.661   6.730  0.1491  1.0842  1.4677
 8305SOL    HW236552   3.263   1.591   6.723 -0.0530 -0.7348  0.6139
 8306SOL     OW36553   1.044   1.588   3.182 -0.4782  0.2146 -0.1050
 8306SOL    HW136554   1.048   1.587   3.278 -2.5074 -0.3383 -0.0275
 8306SOL    HW236555   1.113   1.523   3.164  0.3494  1.1091 -0.1841
 8307SOL     OW36556   4.213   3.818   1.812  0.4087  0.5268  0.3116
 8307SOL    HW136557   4.276   3.747   1.802 -0.6317 -0.3071 -0.2131
 8307SOL    HW236558   4.134   3.777   1.778 -0.5047  2.2799  0.3123
 8308SOL     OW36559   2.212   3.681   3.514  0.1289  0.1224  0.3268
 8308SOL    HW136560   2.261   3.718   3.440 -0.5507 -0.8736 -0.6268
 8308SOL    HW236561   2.277   3.618   3.542  2.1874  1.5906 -1.1183
 8309SOL     OW36562   2.732   0.714  13.645 -0.4687 -0.0132  0.3085
 8309SOL    HW136563   2.697   0.721  13.734  0.6662 -1.5558  0.8555
 8309SOL    HW236564   2.663   0.743  13.585  0.4249 -1.1795 -1.2660
 8310SOL     OW36565   4.726   3.706  10.984 -0.2713 -0.0789  0.0177
 8310SOL    HW136566   0.080   3.733  11.000 -0.4828  1.2540 -0.9849
 8310SOL    HW236567   4.685   3.787  11.016  1.8010  1.9097 -2.3129
 8311SOL     OW36568   3.633   3.598   2.491  0.4281 -0.0853  0.0675
 8311SOL    HW136569   3.589   3.621   2.409 -1.4693 -0.1823  1.0585
 8311SOL    HW236570   3.723   3.626   2.476  0.5921 -0.4015  0.4502
 8312SOL     OW36571   3.552   0.325  16.712 -0.3576 -0.2079  0.2762
 8312SOL    HW136572   3.575   0.371  16.793  0.4005 -0.8758  0.4337
 8312SOL    HW236573   3.575   0.392  16.647  0.1663 -0.1216  0.5531
 8313SOL     OW36574   4.314   4.121   9.319  0.3775 -0.1148 -0.0230
 8313SOL    HW136575   4.285   4.139   9.408  1.7752 -0.4527  0.5086
 8313SOL    HW236576   4.256   4.181   9.272  0.2707 -0.7891 -0.7784
 8314SOL     OW36577   0.332   3.494  13.662 -0.5048 -0.0547  0.4010
 8314SOL    HW136578   0.337   3.497  13.758  0.2956 -0.4148  0.3696
 8314SOL    HW236579   0.266   3.425  13.661  0.4969 -1.0457  2.2836
 8315SOL     OW36580   2.173   4.090   6.538  0.5168  0.3512 -0.0719
 8315SOL    HW136581   2.140   4.164   6.590  2.0198 -0.1395  1.5994
 8315SOL    HW236582   2.252   4.127   6.498  1.2012 -1.0819 -0.0339
 8316SOL     OW36583   4.102   4.718   5.946  0.2301 -0.7631  0.2149
 8316SOL    HW136584   4.074   0.006   6.035 -0.4592 -0.3059 -0.1329
 8316SOL    HW236585   4.104   4.623   5.957 -0.5548 -0.9052 -0.9466
 8317SOL     OW36586   1.293   4.151   3.798 -0.0703 -0.3801  0.4332
 8317SOL    HW136587   1.207   4.192   3.796  0.6033  0.9936 -0.0088
 8317SOL    HW236588   1.257   4.068   3.765  0.0538 -0.3824  0.3017
 8318SOL     OW36589   0.350   2.272  16.955 -0.1939 -0.7249  0.1240
 8318SOL    HW136590   0.360   2.340  16.888  1.1833 -0.0080  1.0512
 8318SOL    HW236591   0.435   2.229  16.944  0.0159 -0.4090  0.5473
 8319SOL     OW36592   1.532   1.316   1.998 -0.2319 -0.0983 -0.1452
 8319SOL    HW136593   1.515   1.223   2.012  0.6058 -0.5031 -1.7372
 8319SOL    HW236594   1.582   1.328   1.917 -1.3453 -0.1293 -0.8437
 8320SOL     OW36595   4.223   1.957   7.084 -0.0309  0.5917 -0.1254
 8320SOL    HW136596   4.289   1.888   7.073 -1.8109 -1.1675  0.2370
 8320SOL    HW236597   4.241   2.005   7.004 -1.2424  0.1226 -0.6799
 8321SOL     OW36598   0.525   0.643  14.964  0.2383  0.3990  0.2312
 8321SOL    HW136599   0.553   0.636  14.872  0.7141  1.7693  0.2767
 8321SOL    HW236600   0.581   0.715  14.991  1.0863  0.4662 -1.6921
 8322SOL     OW36601   4.341   1.463   2.688  0.0472  0.7979  0.6590
 8322SOL    HW136602   4.320   1.536   2.747  0.2337  1.4728 -0.1074
 8322SOL    HW236603   4.397   1.401   2.736 -0.1362  0.9291  1.0375
 8323SOL     OW36604   3.741   1.071   5.956  0.5999  0.1327 -0.3860
 8323SOL    HW136605   3.744   1.164   5.979  0.1117 -0.0476  0.3804
 8323SOL    HW236606   3.650   1.064   5.928 -0.2310  1.7210  1.9747
 8324SOL     OW36607   4.634   2.027   1.592  0.3711  0.1650  0.8674
 8324SOL    HW136608   4.609   2.057   1.679  0.9207  1.0142  0.7383
 8324SOL    HW236609   4.662   1.941   1.623  1.8109  0.7852  1.2849
 8325SOL     OW36610   3.608   2.910   1.885  0.5753  0.0539 -0.0057
 8325SOL    HW136611   3.602   2.961   1.804  2.6692  0.0260 -0.1862
 8325SOL    HW236612   3.531   2.945   1.930  0.9403  2.8608 -1.5883
 8326SOL     OW36613   2.477   4.284   3.372  0.1188 -0.0019 -0.1429
 8326SOL    HW136614   2.546   4.219   3.386  2.0489  2.1023  0.1172
 8326SOL    HW236615   2.478   4.295   3.277  2.0859 -1.1196 -0.2516
 8327SOL     OW36616   2.333   2.077   6.403  0.7011 -0.4292 -0.1371
 8327SOL    HW136617   2.266   2.055   6.339 -0.2273 -2.9543  1.6712
 8327SOL    HW236618   2.360   2.167   6.389  3.3858 -1.1164  0.5052
 8328SOL     OW36619   3.215   3.543   7.325  0.0403  0.0020 -0.4063
 8328SOL    HW136620   3.139   3.537   7.383 -0.2586  0.4322 -0.7503
 8328SOL    HW236621   3.252   3.456   7.341  0.5242 -0.2426 -2.8521
 8329SOL     OW36622   2.107   4.132   6.139  0.0464  0.8058  0.3457
 8329SOL    HW136623   2.194   4.097   6.161  0.0631 -0.0289 -1.0750
 8329SOL    HW236624   2.128   4.162   6.051  0.2791  0.5676  0.3185
 8330SOL     OW36625   3.558   2.019   3.598 -0.1699 -0.0317  1.2156
 8330SOL    HW136626   3.472   2.048   3.566 -0.0432 -1.3750 -0.3229
 8330SOL    HW236627   3.538   2.002   3.690  0.8657 -1.2812  1.2120
 8331SOL     OW36628   3.130   2.979  11.173  0.1496 -0.6342  0.5330
 8331SOL    HW136629   3.089   2.896  11.197  1.8118 -1.0383  1.9830
 8331SOL    HW236630   3.067   3.038  11.214  0.3082 -0.7438  0.9323
 8332SOL     OW36631   1.480   3.992  15.601 -0.5320  0.2837  0.2548
 8332SOL    HW136632   1.485   3.906  15.559 -1.3150 -0.8158  2.4129
 8332SOL    HW236633   1.562   4.038  15.583 -1.2841  1.3269 -0.4841
 8333SOL     OW36634   3.932   3.951   1.082  0.0113  0.0767  0.5786
 8333SOL    HW136635   3.930   3.981   1.172  1.1988 -1.9295  1.2846
 8333SOL    HW236636   3.920   3.857   1.097 -1.0227 -0.0437 -0.9919
 8334SOL     OW36637   1.060   0.539   3.286 -0.0225 -0.4251 -0.5253
 8334SOL    HW136638   1.074   0.493   3.203 -1.2683 -1.2272 -0.2916
 8334SOL    HW236639   1.137   0.596   3.285  0.5560 -1.1671  2.5206
 8335SOL     OW36640   1.599   0.336  13.725  0.0852  0.3497 -0.1320
 8335SOL    HW136641   1.630   0.419  13.761 -0.3792  0.7183 -0.5810
 8335SOL    HW236642   1.570   0.360  13.637  2.5023  2.3905 -0.3739
 8336SOL     OW36643   0.910   4.566   3.984  0.5060 -0.3880 -0.2736
 8336SOL    HW136644   0.877   4.643   3.939  5.7106  2.1038  0.1815
 8336SOL    HW236645   0.838   4.542   4.042 -0.0320 -0.3473 -0.9239
 8337SOL     OW36646   0.914   4.728   3.283 -0.1319  0.5401  0.7818
 8337SOL    HW136647   0.856   4.672   3.232 -0.1823 -0.4554  1.9376
 8337SOL    HW236648   0.946   4.659   3.340  0.0562  0.3808  0.4867
 8338SOL     OW36649   0.394   1.446  11.302 -0.0506  0.1140  0.4937
 8338SOL    HW136650   0.406   1.487  11.216 -2.7523 -0.4222 -0.1454
 8338SOL    HW236651   0.307   1.474  11.330  0.1617 -0.3094  1.5633
 8339SOL     OW36652   2.930   0.478   9.882  0.2036  0.3655 -0.1191
 8339SOL    HW136653   2.947   0.480   9.788 -1.1892  2.6944 -0.3194
 8339SOL    HW236654   2.987   0.547   9.916  0.0904  1.0034 -1.2287
 8340SOL     OW36655   3.503   1.706  16.539  0.3684  0.0046  0.0132
 8340SOL    HW136656   3.433   1.656  16.581  0.3696 -1.4529 -1.6844
 8340SOL    HW236657   3.532   1.658  16.461  1.4359 -0.5430  0.7501
 8341SOL     OW36658   1.835   2.972   6.257 -0.0891 -0.2071 -0.0252
 8341SOL    HW136659   1.871   2.997   6.172 -3.0484 -2.8286 -2.0350
 8341SOL    HW236660   1.749   2.947   6.223  0.3084 -0.6317 -0.7261
 8342SOL     OW36661   0.055   0.225  16.197 -0.4339  0.0925  0.2471
 8342SOL    HW136662   0.046   0.316  16.169  0.3277  0.1756  0.2704
 8342SOL    HW236663   4.736   0.196  16.124  1.8599 -0.7065 -1.1929
 8343SOL     OW36664   0.546   1.662   2.170 -0.2511  0.2248 -0.4836
 8343SOL    HW136665   0.588   1.744   2.143  0.8276 -0.2388 -0.1779
 8343SOL    HW236666   0.610   1.592   2.160  1.1994  1.5372 -0.3437
 8344SOL     OW36667   1.272   4.502   6.760  0.0917 -0.0411 -0.0073
 8344SOL    HW136668   1.270   4.532   6.669  3.8860  1.3768  0.3759
 8344SOL    HW236669   1.330   4.563   6.806  0.6795  0.7535 -1.8263
 8345SOL     OW36670   1.854   0.191  15.696  0.5479 -0.4242  0.1418
 8345SOL    HW136671   1.838   0.167  15.788  1.1453  1.0605  0.6372
 8345SOL    HW236672   1.843   0.286  15.703 -1.9101 -0.3756 -4.2639
 8346SOL     OW36673   2.814   1.109  11.921 -0.3882 -0.1127  0.2876
 8346SOL    HW136674   2.760   1.081  11.848 -0.6281  1.3813 -0.1054
 8346SOL    HW236675   2.764   1.088  12.000  0.1322  1.2536  0.9959
 8347SOL     OW36676   4.320   3.553   4.282 -0.3364 -0.2303  0.2682
 8347SOL    HW136677   4.395   3.591   4.327  0.9885 -1.9489 -0.4786
 8347SOL    HW236678   4.366   3.532   4.201  0.1134 -1.6080  0.8927
 8348SOL     OW36679   0.055   4.577  11.735  0.4005  0.1763  0.3263
 8348SOL    HW136680   0.022   4.663  11.759  0.9691 -0.3409  2.9896
 8348SOL    HW236681   0.148   4.590  11.748  0.8155 -2.5926  0.2204
 8349SOL     OW36682   3.428   2.274   6.434  0.0583 -0.3108  0.5485
 8349SOL    HW136683   3.497   2.221   6.475  2.2000  0.9945 -1.3726
 8349SOL    HW236684   3.375   2.284   6.513 -1.8133  1.0634 -0.9050
 8350SOL     OW36685   3.150   2.340   4.300 -0.2526 -0.9923 -0.3466
 8350SOL    HW136686   3.113   2.265   4.346  1.3178 -1.1484  0.6707
 8350SOL    HW236687   3.094   2.412   4.330  0.3623 -1.2968  1.5650
 8351SOL     OW36688   3.411   1.369   6.633  0.2037 -0.4545  0.2186
 8351SOL    HW136689   3.340   1.391   6.693 -0.1331 -0.7866 -0.0671
 8351SOL    HW236690   3.482   1.430   6.654 -1.0223  1.1140 -0.2523
 8352SOL     OW36691   0.118   2.616  16.888  0.4751 -0.0522 -0.7888
 8352SOL    HW136692   0.147   2.611  16.979 -0.5653 -0.3197 -0.4659
 8352SOL    HW236693   0.095   2.708  16.873 -0.8440 -0.3369 -0.5062
 8353SOL     OW36694   1.513   4.108  10.844 -0.0718  0.4101  0.3166
 8353SOL    HW136695   1.499   4.197  10.812  0.0880  0.5695  0.6996
 8353SOL    HW236696   1.582   4.125  10.908  0.3298 -0.2112  0.0516
 8354SOL     OW36697   2.935   0.252   2.522  0.0761  0.2199  0.4250
 8354SOL    HW136698   2.876   0.305   2.468 -0.2981 -0.7223 -0.0809
 8354SOL    HW236699   2.872   0.185   2.547  0.9677 -0.4935  0.7584
 8355SOL     OW36700   0.580   2.121   7.629 -0.1351  0.6372 -0.0988
 8355SOL    HW136701   0.523   2.192   7.599  1.4944  0.7812 -2.8829
 8355SOL    HW236702   0.520   2.046   7.624  1.2311 -0.2187 -3.3610
 8356SOL     OW36703   3.752   1.764   0.984 -0.2909 -0.3795  0.5259
 8356SOL    HW136704   3.801   1.807   1.054 -2.6961  1.3266  1.1816
 8356SOL    HW236705   3.680   1.731   1.039  1.2166 -0.5865  2.3740
 8357SOL     OW36706   0.024   2.384   2.429 -0.6174  0.3852  0.2199
 8357SOL    HW136707   0.078   2.338   2.492  0.9869  2.1988  0.1728
 8357SOL    HW236708   4.727   2.312   2.376 -1.4133  1.7467 -1.1217
 8358SOL     OW36709   1.086   3.873  14.837  0.8112  0.3418  0.1281
 8358SOL    HW136710   1.112   3.818  14.911  0.4811 -1.0774 -0.8083
 8358SOL    HW236711   0.994   3.895  14.848  0.6858 -0.2382  0.2099
 8359SOL     OW36712   1.646   2.691   6.388  0.1572 -0.2041  0.1247
 8359SOL    HW136713   1.589   2.713   6.462  1.9861  0.6483  1.2735
 8359SOL    HW236714   1.728   2.718   6.429 -1.6499  3.3294  1.4332
 8360SOL     OW36715   2.788   1.724   6.414 -0.0284  0.0275  0.0594
 8360SOL    HW136716   2.858   1.774   6.456  0.7036 -1.3305  0.4474
 8360SOL    HW236717   2.828   1.719   6.327  0.1217 -0.9458  0.1919
 8361SOL     OW36718   2.656   2.470   5.582  0.1724  0.1356 -0.1747
 8361SOL    HW136719   2.576   2.505   5.621  0.6348 -0.0928  0.9670
 8361SOL    HW236720   2.722   2.509   5.640 -0.6212  0.5431  0.4609
 8362SOL     OW36721   0.007   1.682   6.388 -0.1554 -0.0713  0.1232
 8362SOL    HW136722   0.043   1.652   6.305 -0.1322 -0.2501  0.1959
 8362SOL    HW236723   0.084   1.651   6.436 -1.1343 -1.4441  0.8273
 8363SOL     OW36724   2.532   0.711   9.673  0.4461  1.2847  0.2696
 8363SOL    HW136725   2.550   0.781   9.735  2.3358  1.6505 -0.7028
 8363SOL    HW236726   2.466   0.755   9.619 -1.4957 -0.1744  1.4238
 8364SOL     OW36727   0.165   2.168   8.506  0.6125 -0.1976 -0.2295
 8364SOL    HW136728   0.241   2.205   8.552  0.4575 -1.1246  0.7752
 8364SOL    HW236729   0.170   2.235   8.438  1.7595 -0.5484 -0.5037
 8365SOL     OW36730   3.721   3.767   1.049  0.5208 -0.6101 -0.4650
 8365SOL    HW136731   3.792   3.721   1.005 -1.5604 -3.0922 -1.2184
 8365SOL    HW236732   3.664   3.783   0.974  0.9578 -0.1155 -0.6873
 8366SOL     OW36733   1.660   2.854  12.776  0.4099  0.1326 -0.4401
 8366SOL    HW136734   1.568   2.869  12.797  1.4448  1.9042  2.7874
 8366SOL    HW236735   1.695   2.937  12.808  1.9834 -0.4709 -0.5804
 8367SOL     OW36736   0.291   3.852   3.276  0.2337 -1.0194 -0.1136
 8367SOL    HW136737   0.373   3.895   3.254 -0.5692  1.4430  1.6442
 8367SOL    HW236738   0.327   3.792   3.342  0.8712 -1.2026 -0.6258
 8368SOL     OW36739   0.632   1.308   5.716 -0.0007 -0.0942 -0.2995
 8368SOL    HW136740   0.566   1.356   5.665 -0.2508 -0.7857 -0.6297
 8368SOL    HW236741   0.709   1.330   5.663 -0.3201  0.4709 -0.5295
 8369SOL     OW36742   1.668   1.749  11.942  0.7118  0.4264  0.5250
 8369SOL    HW136743   1.611   1.805  11.889  1.1830  1.1106  0.7504
 8369SOL    HW236744   1.621   1.665  11.942  0.2378  0.6803 -0.5796
 8370SOL     OW36745   2.312   0.976   5.429 -0.3328  0.2357  0.2216
 8370SOL    HW136746   2.384   0.913   5.438 -1.5532 -0.7459  3.1302
 8370SOL    HW236747   2.302   0.967   5.334 -0.6423  2.8924  0.0204
 8371SOL     OW36748   0.837   1.231   4.405  0.0879 -0.1705 -0.0361
 8371SOL    HW136749   0.783   1.176   4.462  1.2049 -1.3047 -0.0620
 8371SOL    HW236750   0.864   1.166   4.340  1.1108  1.2833 -1.0471
 8372SOL     OW36751   0.473   2.319   5.024 -0.1718 -0.5720  0.0756
 8372SOL    HW136752   0.457   2.320   4.929 -0.0579 -2.2788  0.0403
 8372SOL    HW236753   0.564   2.290   5.026 -1.1253 -3.7091 -1.0632
 8373SOL     OW36754   2.522   0.232   2.731  0.9281  0.8965 -0.4769
 8373SOL    HW136755   2.565   0.149   2.753 -0.8352  0.0616 -0.1606
 8373SOL    HW236756   2.582   0.297   2.768  1.7135 -0.4624  0.6300
 8374SOL     OW36757   3.576   3.346   6.141  0.3107 -0.4955 -0.5004
 8374SOL    HW136758   3.670   3.337   6.126  0.8666  2.2224  1.2772
 8374SOL    HW236759   3.576   3.383   6.229  1.5854  0.0394 -0.7199
 8375SOL     OW36760   3.004   2.902   5.534  0.0530  0.2548  0.2037
 8375SOL    HW136761   3.018   2.997   5.534  0.1191  0.2405 -2.0960
 8375SOL    HW236762   3.055   2.867   5.607 -0.1388 -0.9771 -0.2530
 8376SOL     OW36763   3.621   3.306  10.142 -0.2101  0.6890 -0.2403
 8376SOL    HW136764   3.713   3.327  10.127 -0.0230 -0.1587 -0.3124
 8376SOL    HW236765   3.576   3.360  10.077 -1.7738 -1.1837 -0.7119
 8377SOL     OW36766   1.006   3.349   2.242  1.1149  0.0264  0.1634
 8377SOL    HW136767   1.070   3.405   2.286  2.0618 -0.0318 -1.1393
 8377SOL    HW236768   0.991   3.405   2.166 -0.3289  0.9326  1.1020
 8378SOL     OW36769   0.721   3.715   4.188  0.3620 -0.1119  0.1762
 8378SOL    HW136770   0.806   3.700   4.147 -0.7788  0.1997 -2.3238
 8378SOL    HW236771   0.701   3.632   4.230  1.2148 -1.3780 -1.9105
 8379SOL     OW36772   4.355   0.121   4.947 -0.7683 -0.1755 -0.1082
 8379SOL    HW136773   4.334   0.069   5.025  0.0224 -0.8301 -0.3405
 8379SOL    HW236774   4.357   0.057   4.876  0.5086  0.4140 -0.6000
 8380SOL     OW36775   4.494   3.351   8.759 -0.2356  0.2023 -0.1872
 8380SOL    HW136776   4.473   3.260   8.740 -1.6823 -0.2832  3.7357
 8380SOL    HW236777   4.511   3.382   8.670  0.6944 -1.4227 -0.5665
 8381SOL     OW36778   4.679   3.001   5.552  0.2659  0.2170 -0.5355
 8381SOL    HW136779   0.011   3.004   5.485 -0.6509 -1.0547 -1.5325
 8381SOL    HW236780   4.656   3.094   5.558  1.9219  0.6926 -1.5094
 8382SOL     OW36781   3.737   2.746  12.275 -0.2182  0.6434  0.1713
 8382SOL    HW136782   3.699   2.703  12.199  0.4878 -1.0516  0.7773
 8382SOL    HW236783   3.659   2.765  12.327  0.6949 -0.3968  1.9226
 8383SOL     OW36784   2.625   3.455  10.446 -0.3456 -0.3202  0.6963
 8383SOL    HW136785   2.677   3.447  10.527 -1.5438  0.4875  1.5421
 8383SOL    HW236786   2.663   3.391  10.386 -2.0963 -0.8383  0.1703
 8384SOL     OW36787   0.185   2.853   7.453 -0.1195 -0.2596  0.1505
 8384SOL    HW136788   0.094   2.878   7.438 -0.4902 -0.4338  2.1263
 8384SOL    HW236789   0.223   2.941   7.463 -1.8764  0.3876  1.0297
 8385SOL     OW36790   0.542   1.826   7.173 -0.3653 -0.1099  0.3423
 8385SOL    HW136791   0.564   1.805   7.082  2.5921 -2.8473  1.6966
 8385SOL    HW236792   0.560   1.920   7.175 -0.3470 -0.0572 -2.1712
 8386SOL     OW36793   4.093   0.801  16.612  0.1942  0.0276  0.1126
 8386SOL    HW136794   4.071   0.882  16.567 -0.3618 -0.9497 -1.3751
 8386SOL    HW236795   4.162   0.779  16.550  0.9659 -0.9864  1.3304
 8387SOL     OW36796   2.908   3.731   6.316  0.3610 -1.0927 -0.1037
 8387SOL    HW136797   2.819   3.727   6.281 -0.7483  0.3503  2.4878
 8387SOL    HW236798   2.955   3.667   6.264  2.1080  0.2992 -0.2233
 8388SOL     OW36799   4.477   0.126  15.455 -0.0022 -0.0172  0.7285
 8388SOL    HW136800   4.417   0.101  15.524 -1.4910 -1.5978 -1.1403
 8388SOL    HW236801   4.539   0.054  15.468  0.5464  0.1839 -0.6981
 8389SOL     OW36802   2.980   0.002   9.037  0.1397  0.4971 -0.2436
 8389SOL    HW136803   2.953   4.684   8.964  1.2459 -1.2423  0.6659
 8389SOL    HW236804   2.898   0.029   9.080 -0.4265  0.9133 -1.5946
 8390SOL     OW36805   0.984   2.717   7.436  0.4442 -0.9449  0.1304
 8390SOL    HW136806   1.010   2.778   7.505  0.9165 -1.5510  0.4911
 8390SOL    HW236807   1.047   2.646   7.450 -0.6958 -1.6475  1.7330
 8391SOL     OW36808   0.765   2.344   5.859  0.1666  0.4683  0.3624
 8391SOL    HW136809   0.839   2.322   5.803 -1.0521 -0.6286 -0.8030
 8391SOL    HW236810   0.719   2.404   5.799  1.6108  0.8252 -0.3745
 8392SOL     OW36811   0.548   0.526   4.942 -0.4171 -0.3814 -0.3530
 8392SOL    HW136812   0.601   0.498   4.867 -0.9107  0.5134 -1.0311
 8392SOL    HW236813   0.481   0.572   4.890 -1.1581 -0.8261  0.2088
 8393SOL     OW36814   3.346   4.208   8.780 -0.0863  0.2708 -0.1250
 8393SOL    HW136815   3.320   4.135   8.837 -1.4923  1.3693  0.6333
 8393SOL    HW236816   3.283   4.197   8.708 -1.0699 -1.3539  0.9743
 8394SOL     OW36817   3.071   1.337  15.235  0.1965 -0.5289 -0.8544
 8394SOL    HW136818   3.165   1.352  15.243 -0.4155  3.9396 -1.7328
 8394SOL    HW236819   3.064   1.334  15.140  1.3356  0.1719 -0.9712
 8395SOL     OW36820   2.233   0.668  14.733  0.0565  0.6634 -0.2138
 8395SOL    HW136821   2.179   0.673  14.654 -1.4986  1.5229  0.9241
 8395SOL    HW236822   2.252   0.761  14.747  0.4006  0.9651 -2.5958
 8396SOL     OW36823   2.776   2.578   9.253 -0.0184  0.3020 -0.0178
 8396SOL    HW136824   2.838   2.550   9.185  0.0708 -0.4791  0.3829
 8396SOL    HW236825   2.697   2.585   9.200  0.0647 -1.2162 -0.3341
 8397SOL     OW36826   3.337   2.477  15.912  0.2114  0.3562  0.5329
 8397SOL    HW136827   3.243   2.489  15.928 -0.3419 -0.8540 -1.7691
 8397SOL    HW236828   3.336   2.431  15.828  1.0910  0.5773  0.3988
 8398SOL     OW36829   3.284   0.091  13.058 -0.3004  0.6392  0.2938
 8398SOL    HW136830   3.191   0.107  13.071 -0.3051  1.9229 -1.2349
 8398SOL    HW236831   3.313   0.174  13.019 -1.7538  1.2468  0.5024
 8399SOL     OW36832   0.838   2.153   8.596 -0.3807  0.3005  0.1662
 8399SOL    HW136833   0.857   2.059   8.605  0.7760  0.5336  0.1836
 8399SOL    HW236834   0.914   2.195   8.636  1.5389 -1.1472 -1.9179
 8400SOL     OW36835   0.102   1.030   6.885  0.2732 -0.1006 -0.7022
 8400SOL    HW136836   0.164   0.958   6.897  2.5019  1.7539 -1.0940
 8400SOL    HW236837   0.098   1.058   6.976  0.2430 -1.3568 -0.3200
 8401SOL     OW36838   3.543   0.403   6.500 -0.0015 -0.1180 -0.1300
 8401SOL    HW136839   3.601   0.479   6.499  0.0726 -0.1941 -1.5752
 8401SOL    HW236840   3.469   0.433   6.446  0.0323  1.4308  0.6733
 8402SOL     OW36841   2.601   1.474   4.157 -0.1974 -0.8273 -0.4025
 8402SOL    HW136842   2.533   1.537   4.179  1.1235  1.2137 -2.1221
 8402SOL    HW236843   2.575   1.445   4.070  3.4755  0.5234 -1.9472
 8403SOL     OW36844   1.718   1.245   4.062 -0.4556 -0.6279  0.9000
 8403SOL    HW136845   1.717   1.233   3.967  0.3667  4.2801  0.2465
 8403SOL    HW236846   1.635   1.213   4.097 -2.0687  1.4647 -1.0608
 8404SOL     OW36847   0.537   3.005   7.068  0.3132 -0.0458  0.3136
 8404SOL    HW136848   0.549   3.035   6.978  0.1347 -0.7589  0.0509
 8404SOL    HW236849   0.511   2.914   7.054  0.2209 -0.0806  0.6999
 8405SOL     OW36850   4.405   0.751   3.735 -0.4233  0.4723  0.0901
 8405SOL    HW136851   4.311   0.740   3.753  0.0566  2.3556  3.7438
 8405SOL    HW236852   4.427   0.823   3.794 -1.5227 -1.5642  2.9498
 8406SOL     OW36853   0.964   0.222   7.572 -0.1129 -0.3243  0.3125
 8406SOL    HW136854   0.876   0.192   7.547 -1.0938  3.6287 -0.9943
 8406SOL    HW236855   0.940   0.284   7.641  0.1640  1.7502 -1.4745
 8407SOL     OW36856   1.603   1.647   6.677 -0.1031 -0.2998  0.1479
 8407SOL    HW136857   1.695   1.623   6.667  0.0505  0.4607 -0.2819
 8407SOL    HW236858   1.593   1.599   6.759  0.5984 -0.7910 -0.0582
 8408SOL     OW36859   2.908   1.674  13.676 -0.1831  0.7039  0.5283
 8408SOL    HW136860   2.971   1.737  13.712  0.3518  0.1897  0.4954
 8408SOL    HW236861   2.925   1.602  13.737 -1.2694  0.8759  1.0279
 8409SOL     OW36862   4.557   0.696   6.077  0.4215  0.3537 -0.4762
 8409SOL    HW136863   4.482   0.648   6.111  0.9113  0.6950  1.0950
 8409SOL    HW236864   4.510   0.769   6.036 -1.0022  0.0799  0.6628
 8410SOL     OW36865   2.761   2.591   2.637  0.2187  0.4384 -0.8774
 8410SOL    HW136866   2.724   2.520   2.689 -0.5565 -0.0518 -2.0930
 8410SOL    HW236867   2.698   2.660   2.654  1.1567  1.6263 -2.2148
 8411SOL     OW36868   1.442   0.953   3.905 -0.1544 -0.6050 -0.2509
 8411SOL    HW136869   1.494   0.875   3.925  0.2517 -0.0485  0.8465
 8411SOL    HW236870   1.509   1.017   3.881  0.4535 -1.0416  0.2616
 8412SOL     OW36871   2.420   0.602  10.376 -0.6962 -0.0957  0.1192
 8412SOL    HW136872   2.329   0.600  10.346 -1.0123  4.2290  0.8122
 8412SOL    HW236873   2.473   0.593  10.297  0.5321  2.0863  0.6866
 8413SOL     OW36874   0.156   4.439   7.458  0.3829  0.0275  0.4240
 8413SOL    HW136875   0.101   4.413   7.384  2.2294  0.3673 -1.0687
 8413SOL    HW236876   0.230   4.379   7.446  0.4564 -0.0873  1.4361
 8414SOL     OW36877   4.029   2.967   7.519 -0.2507  0.0662 -0.4038
 8414SOL    HW136878   3.954   3.019   7.549 -0.6829 -1.5000  1.2718
 8414SOL    HW236879   4.064   3.018   7.446 -0.0270  0.6650  0.1304
 8415SOL     OW36880   2.202   1.288  11.753 -1.1219 -0.7080  0.4858
 8415SOL    HW136881   2.204   1.353  11.683  0.5320 -1.0044  0.2508
 8415SOL    HW236882   2.284   1.309  11.797 -1.2087  2.2711 -0.7952
 8416SOL     OW36883   3.953   3.488   2.206 -0.7813 -0.1717 -0.1160
 8416SOL    HW136884   4.044   3.461   2.209 -0.6356  0.1752 -1.3391
 8416SOL    HW236885   3.925   3.422   2.143  0.2365 -1.2801  0.6054
 8417SOL     OW36886   2.564   1.992   7.186 -0.2205 -0.7769 -0.6194
 8417SOL    HW136887   2.576   2.053   7.258 -1.0187 -0.5623 -0.6740
 8417SOL    HW236888   2.650   1.949   7.189 -0.3730 -0.8750  2.0628
 8418SOL     OW36889   1.070   2.608   3.097  0.9605 -0.1923  1.1148
 8418SOL    HW136890   1.079   2.514   3.114 -1.0983 -0.7791 -1.1622
 8418SOL    HW236891   0.975   2.617   3.103  0.6959 -1.0898 -1.7462
 8419SOL     OW36892   4.214   2.647   3.474 -0.3901 -0.3009 -0.7431
 8419SOL    HW136893   4.246   2.650   3.384 -1.6796  0.1045 -1.1884
 8419SOL    HW236894   4.136   2.592   3.469 -0.7544  0.2750 -1.4486
 8420SOL     OW36895   3.074   1.936   2.118 -0.6081 -0.3206 -0.2861
 8420SOL    HW136896   3.139   2.006   2.109  0.0617 -0.3914  4.2083
 8420SOL    HW236897   3.001   1.968   2.064 -0.3174 -0.2490 -0.6381
 8421SOL     OW36898   2.578   3.988  12.870 -0.3330 -0.1404 -0.0766
 8421SOL    HW136899   2.570   3.977  12.965 -1.2891 -2.0136 -0.3671
 8421SOL    HW236900   2.488   4.010  12.845 -0.7828  0.8008  2.3325
 8422SOL     OW36901   3.522   3.255   9.023 -0.2611 -0.2424  0.4321
 8422SOL    HW136902   3.463   3.185   9.049 -0.8000  0.5785  1.4044
 8422SOL    HW236903   3.466   3.318   8.978  0.3117  0.2613  0.4192
 8423SOL     OW36904   1.540   4.106   7.965 -0.1100  0.6639 -0.2356
 8423SOL    HW136905   1.456   4.087   8.006 -0.7082  0.6287 -1.4542
 8423SOL    HW236906   1.563   4.191   8.003 -2.4149  0.9288  0.5776
 8424SOL     OW36907   0.722   3.000   4.443  0.3768 -0.0391  0.0872
 8424SOL    HW136908   0.729   3.021   4.536  1.0001  1.0279 -0.2002
 8424SOL    HW236909   0.690   2.911   4.455 -0.3216 -0.1298 -2.4315
 8425SOL     OW36910   2.760   0.097  10.538  0.1534  0.2148 -0.2728
 8425SOL    HW136911   2.749   0.025  10.476  0.0966  0.4721 -0.5629
 8425SOL    HW236912   2.813   0.060  10.608  0.4762  0.4386 -0.4021
 8426SOL     OW36913   0.982   4.664   4.712 -0.3874 -0.1804  0.1884
 8426SOL    HW136914   0.944   4.616   4.638  1.2413 -1.0251 -0.1013
 8426SOL    HW236915   1.037   4.600   4.757  0.8636  0.9245  0.2082
 8427SOL     OW36916   1.857   0.852  15.096  0.3280 -0.8436  0.2225
 8427SOL    HW136917   1.816   0.867  15.011 -2.2115  3.2597  2.2007
 8427SOL    HW236918   1.920   0.786  15.067 -1.2483 -2.0692 -0.4087
 8428SOL     OW36919   1.742   3.267   6.030 -0.7359  0.1937  0.2293
 8428SOL    HW136920   1.727   3.175   6.009  1.5546 -0.0459 -0.2888
 8428SOL    HW236921   1.651   3.297   6.041 -0.6078  0.0105  1.8025
 8429SOL     OW36922   0.425   1.293   6.247  0.8393  0.1688 -0.5889
 8429SOL    HW136923   0.348   1.331   6.203  1.1832  1.3236 -0.1715
 8429SOL    HW236924   0.414   1.198   6.239  0.4057  0.3637 -2.3642
 8430SOL     OW36925   4.518   3.063   7.266  0.4756 -0.4226 -0.3384
 8430SOL    HW136926   4.533   2.969   7.273  0.4903 -0.4761 -1.0284
 8430SOL    HW236927   4.425   3.074   7.286  0.5608  1.4299 -0.9417
 8431SOL     OW36928   1.482   4.078   6.440 -0.1921  1.0216 -0.3762
 8431SOL    HW136929   1.563   4.030   6.459 -1.6814 -1.2146  0.4206
 8431SOL    HW236930   1.462   4.111   6.528  0.2105 -2.3501  0.9810
 8432SOL     OW36931   2.060   0.760   2.442 -0.3122  0.4274 -0.2638
 8432SOL    HW136932   2.129   0.697   2.462  0.9075  1.2461 -1.8914
 8432SOL    HW236933   1.997   0.752   2.514  0.6444  1.7919  0.7217
 8433SOL     OW36934   0.202   1.551   4.254  0.6487  0.1705 -0.2659
 8433SOL    HW136935   0.185   1.617   4.187 -1.0544 -1.3424 -1.2970
 8433SOL    HW236936   0.289   1.580   4.284  1.3994 -1.5785 -0.7793
 8434SOL     OW36937   3.198   1.115  15.994 -0.3598  0.4579  0.3966
 8434SOL    HW136938   3.165   1.090  16.080 -0.6172 -1.4220 -0.2537
 8434SOL    HW236939   3.184   1.026  15.963 -0.5618  0.2187  1.1884
 8435SOL     OW36940   0.941   1.886   0.137 -0.0896  0.1769 -0.2412
 8435SOL    HW136941   0.957   1.795   0.110 -0.8716  0.4240 -1.5580
 8435SOL    HW236942   0.925   1.929   0.053 -1.4908 -1.9386 -1.0590
 8436SOL     OW36943   0.107   4.307  15.406 -0.0924 -0.1122  0.5046
 8436SOL    HW136944   0.168   4.261  15.348  0.6075 -1.1296  2.0560
 8436SOL    HW236945   0.072   4.234  15.456  2.1729 -1.5162  0.0905
 8437SOL     OW36946   3.108   0.330   2.717  0.0314 -0.2510  0.0997
 8437SOL    HW136947   3.105   0.420   2.749 -1.9979 -0.1288 -0.4404
 8437SOL    HW236948   3.045   0.316   2.646 -1.2006 -2.3073  1.5784
 8438SOL     OW36949   1.552   0.429  14.569  0.2468  0.0170  0.9101
 8438SOL    HW136950   1.634   0.410  14.615 -0.6489 -3.8510  0.9459
 8438SOL    HW236951   1.494   0.380  14.627 -0.9623  1.9309  1.2949
 8439SOL     OW36952   4.365   2.862  14.598 -0.3836 -0.8681 -0.1911
 8439SOL    HW136953   4.350   2.814  14.516 -0.1835  0.1189 -0.8201
 8439SOL    HW236954   4.456   2.891  14.603 -1.1861  1.7710 -0.7380
 8440SOL     OW36955   0.607   3.471   6.419  0.3220  0.3290 -0.4679
 8440SOL    HW136956   0.635   3.561   6.438  0.2454  0.0787  0.8051
 8440SOL    HW236957   0.626   3.441   6.507 -2.3925  0.9536  0.3186
 8441SOL     OW36958   2.093   1.370   1.202 -0.2202 -0.2860  0.5032
 8441SOL    HW136959   2.157   1.416   1.257  0.3850 -0.9462  0.3392
 8441SOL    HW236960   2.014   1.394   1.251 -0.4136  0.4942 -0.1927
 8442SOL     OW36961   0.508   4.477   7.498 -0.1890  0.1386 -0.2710
 8442SOL    HW136962   0.601   4.501   7.493 -0.3478  0.5213 -1.4144
 8442SOL    HW236963   0.499   4.468   7.403 -0.3572  1.5578 -0.3789
 8443SOL     OW36964   3.158   1.126   8.767 -0.3068 -0.0397 -0.0460
 8443SOL    HW136965   3.107   1.202   8.797  2.1461  1.1249  1.1433
 8443SOL    HW236966   3.099   1.054   8.791 -0.8377  0.2928 -0.3490
 8444SOL     OW36967   4.567   2.365   7.921  0.1300  0.3531  0.0509
 8444SOL    HW136968   4.560   2.457   7.897 -0.2096  0.6634  1.3382
 8444SOL    HW236969   4.551   2.330   7.833 -0.9599 -0.8929  0.7442
 8445SOL     OW36970   0.125   2.823   2.433  0.0862  0.2278  0.1317
 8445SOL    HW136971   0.054   2.814   2.498 -0.8210 -1.3713 -1.0884
 8445SOL    HW236972   0.105   2.906   2.389 -3.1071  0.1154  1.3364
 8446SOL     OW36973   4.012   1.920  17.665  0.4588 -0.3613  0.3257
 8446SOL    HW136974   3.998   1.992  17.726 -3.1035  0.0535 -0.9830
 8446SOL    HW236975   3.928   1.876  17.658  0.8129 -0.8155 -1.0787
 8447SOL     OW36976   0.322   1.523   5.146  0.5306  0.0536 -0.2541
 8447SOL    HW136977   0.345   1.602   5.194 -0.6876  0.9902 -1.2180
 8447SOL    HW236978   0.384   1.540   5.074 -0.1027  0.5467 -0.6790
 8448SOL     OW36979   1.980   3.688   4.835 -0.3027 -0.0349 -0.3878
 8448SOL    HW136980   1.940   3.759   4.786 -1.8853 -0.8397 -0.2692
 8448SOL    HW236981   1.916   3.617   4.828 -0.1140 -0.3330  0.7950
 8449SOL     OW36982   1.908   1.213   7.009 -0.2911 -0.5163  0.3114
 8449SOL    HW136983   1.884   1.301   6.983 -1.4859 -0.7207  0.7510
 8449SOL    HW236984   1.871   1.156   6.942  1.1625 -0.5910 -0.4444
 8450SOL     OW36985   0.616   2.446   4.457  0.0531 -0.5939  0.8759
 8450SOL    HW136986   0.701   2.486   4.476  0.4214 -1.1589  0.4538
 8450SOL    HW236987   0.622   2.426   4.363  0.3856  0.2965  0.7033
 8451SOL     OW36988   1.600   2.866   4.134 -0.0800 -0.0877  0.3557
 8451SOL    HW136989   1.537   2.915   4.080  0.6934  0.6810  0.1597
 8451SOL    HW236990   1.543   2.845   4.208  1.7122 -0.1419  1.6879
 8452SOL     OW36991   3.935   2.717  11.328 -0.2409 -0.2993 -0.5301
 8452SOL    HW136992   3.887   2.783  11.278  0.0415  0.2316 -0.1049
 8452SOL    HW236993   3.980   2.773  11.392  0.8402 -1.6841 -0.0596
 8453SOL     OW36994   4.463   2.096   7.808  0.1249  0.1842 -0.0655
 8453SOL    HW136995   4.464   2.131   7.897 -2.5528  2.8289 -1.0622
 8453SOL    HW236996   4.506   2.173   7.770  1.4151  0.1031  1.2805
 8454SOL     OW36997   2.138   2.358   3.475 -0.5427 -0.4830 -0.8527
 8454SOL    HW136998   2.132   2.303   3.554 -1.4104 -0.0878 -0.6494
 8454SOL    HW236999   2.231   2.381   3.472 -0.7178  0.3692  0.2224
 8455SOL     OW37000   3.006   4.539   8.337 -0.1768  0.1854 -0.5677
 8455SOL    HW137001   2.964   4.467   8.289  0.9235  0.0761 -1.3783
 8455SOL    HW237002   3.024   4.601   8.267  1.4120  2.1954  1.6096
 8456SOL     OW37003   2.911   2.515   3.799  0.0707 -0.4636  0.5614
 8456SOL    HW137004   2.934   2.478   3.885  0.8895  0.2731  0.6579
 8456SOL    HW237005   2.850   2.452   3.760  1.0508 -0.9267 -0.2209
 8457SOL     OW37006   4.529   2.952  10.990  0.0951 -0.3233  0.7567
 8457SOL    HW137007   4.500   2.900  10.916 -1.5431  0.0734  1.1128
 8457SOL    HW237008   4.617   2.919  11.008  1.1776  2.0224 -0.2571
 8458SOL     OW37009   4.465   0.785   4.425 -0.0150  0.8399  0.1555
 8458SOL    HW137010   4.465   0.866   4.374 -2.6645  0.2460 -0.8136
 8458SOL    HW237011   4.383   0.796   4.474 -0.0941  0.9494 -0.0045
 8459SOL     OW37012   4.111   3.054   4.060 -0.2005  0.3293 -0.3000
 8459SOL    HW137013   4.147   3.014   4.139 -0.6019  1.7563  0.5914
 8459SOL    HW237014   4.084   3.142   4.087 -0.6388 -0.6881  2.6210
 8460SOL     OW37015   0.933   0.812   1.685  0.2248 -0.0712  0.0762
 8460SOL    HW137016   1.000   0.875   1.658 -1.1790  1.0154 -0.8488
 8460SOL    HW237017   0.894   0.863   1.756  2.3910  0.6172  0.7576
 8461SOL     OW37018   1.753   0.928  11.924 -0.8530  0.1033  0.0813
 8461SOL    HW137019   1.725   1.003  11.871 -0.7562  0.6679  0.8390
 8461SOL    HW237020   1.684   0.867  11.898 -0.0262 -0.6123 -0.4439
 8462SOL     OW37021   3.377   3.072   3.707 -0.2110  0.4382 -0.4290
 8462SOL    HW137022   3.340   3.067   3.619 -2.6287 -0.6154  0.6475
 8462SOL    HW237023   3.470   3.051   3.698  0.1513  2.0219 -0.2664
 8463SOL     OW37024   0.283   2.314   5.193 -0.2996  0.6001  0.0070
 8463SOL    HW137025   0.373   2.310   5.160  0.5407  3.9133  1.9043
 8463SOL    HW237026   0.240   2.319   5.108  1.3398  1.6256 -0.7595
 8464SOL     OW37027   3.744   1.594  11.086  0.0866  0.3169 -0.1023
 8464SOL    HW137028   3.782   1.518  11.131  1.0994  2.1498  2.0989
 8464SOL    HW237029   3.720   1.633  11.169 -1.0575  2.2076 -1.3290
 8465SOL     OW37030   3.913   3.805   3.714 -0.1435  0.5172  0.2403
 8465SOL    HW137031   3.886   3.834   3.801  1.0851  0.6955  0.5488
 8465SOL    HW237032   3.983   3.749   3.748 -2.2329 -1.6639  0.9581
 8466SOL     OW37033   4.213   0.522   6.447 -0.3794 -0.3469 -0.3195
 8466SOL    HW137034   4.120   0.502   6.439 -0.2233 -0.8678 -0.8227
 8466SOL    HW237035   4.219   0.572   6.365 -0.1846 -1.9932 -1.3253
 8467SOL     OW37036   1.099   1.683   2.879  0.7973  0.0166 -0.1323
 8467SOL    HW137037   1.139   1.711   2.797  1.5224  0.6347  0.4363
 8467SOL    HW237038   1.092   1.589   2.860  1.4327  0.0305 -0.4289
 8468SOL     OW37039   1.920   3.944   3.873  1.0123  0.0914  0.5154
 8468SOL    HW137040   1.968   4.023   3.848  2.5651 -0.4186  1.9162
 8468SOL    HW237041   1.952   3.873   3.818  1.2784  0.6780 -0.0874
 8469SOL     OW37042   1.747   0.099   7.414  0.0237 -0.1037  0.0875
 8469SOL    HW137043   1.765   0.060   7.328  1.1579  1.7899 -0.5415
 8469SOL    HW237044   1.655   0.120   7.397  0.3899 -0.2347 -2.1297
 8470SOL     OW37045   3.643   3.362  11.841  0.5278  0.1450 -0.1279
 8470SOL    HW137046   3.588   3.434  11.809  1.3360  0.9016  0.1856
 8470SOL    HW237047   3.721   3.378  11.788 -0.5784 -0.9681 -2.1156
 8471SOL     OW37048   4.566   3.912  12.038  0.7430 -0.1226  0.0559
 8471SOL    HW137049   4.603   3.940  11.954  1.9833  0.9821  0.9603
 8471SOL    HW237050   4.474   3.904  12.013  0.5311 -1.9536  1.4663
 8472SOL     OW37051   1.106   2.418   1.061 -0.4457 -0.9101  0.2246
 8472SOL    HW137052   1.086   2.388   1.149 -0.9779 -1.3929 -0.0638
 8472SOL    HW237053   1.155   2.344   1.026  1.4044  0.5661 -0.2853
 8473SOL     OW37054   2.032   2.521   7.752 -0.4700 -0.0034  0.2513
 8473SOL    HW137055   2.077   2.440   7.776 -0.1726 -0.3632 -1.5424
 8473SOL    HW237056   1.957   2.486   7.705 -0.7676  0.7922  0.1264
 8474SOL     OW37057   4.068   3.199   1.253  0.3715  0.2709  0.0443
 8474SOL    HW137058   4.060   3.286   1.290  0.4682 -0.8373  2.6562
 8474SOL    HW237059   4.048   3.149   1.332  1.4674  1.8102  1.2834
 8475SOL     OW37060   0.792   0.280  15.817 -0.0726  0.6104  0.6625
 8475SOL    HW137061   0.777   0.235  15.900 -1.9393  4.4831  2.3884
 8475SOL    HW237062   0.717   0.252  15.764  0.6838  1.9721 -1.1303
 8476SOL     OW37063   2.505   2.802   4.895  0.5007  0.7078  0.2329
 8476SOL    HW137064   2.458   2.720   4.911  1.5424 -0.4259 -2.5254
 8476SOL    HW237065   2.504   2.793   4.799  2.3069  1.5141  0.1493
 8477SOL     OW37066   2.247   0.597   5.710 -0.0777  0.2620 -0.1593
 8477SOL    HW137067   2.173   0.657   5.726 -1.0761 -1.6890  2.5515
 8477SOL    HW237068   2.204   0.534   5.653  1.0963 -0.5133 -0.1703
 8478SOL     OW37069   1.201   1.979   0.896  0.5006 -0.0092 -0.2434
 8478SOL    HW137070   1.155   1.900   0.922  0.7869  0.0835  0.5434
 8478SOL    HW237071   1.276   1.936   0.853  1.3005  0.5295  0.6104
 8479SOL     OW37072   3.483   2.974   8.206 -0.2514  0.0408 -0.1190
 8479SOL    HW137073   3.536   2.997   8.130 -1.8212 -0.4784 -1.3770
 8479SOL    HW237074   3.497   2.880   8.197 -1.2472 -0.3318  2.2873
 8480SOL     OW37075   3.581   4.149   5.690  0.0590  0.8307  0.3323
 8480SOL    HW137076   3.496   4.106   5.682  0.6617 -0.6640  2.1272
 8480SOL    HW237077   3.590   4.160   5.784  1.8743 -0.1376  0.2661
 8481SOL     OW37078   1.053   1.425   1.366  0.0563  0.1024 -0.3824
 8481SOL    HW137079   1.013   1.508   1.338 -3.2903 -1.6937 -0.9934
 8481SOL    HW237080   1.064   1.373   1.286  0.7503  1.3257 -1.0845
 8482SOL     OW37081   1.380   4.539   8.973 -0.6180 -0.0839 -0.3062
 8482SOL    HW137082   1.446   4.510   9.037 -0.5055 -3.6980 -2.0530
 8482SOL    HW237083   1.304   4.488   9.003  0.1582 -1.6958 -1.0744
 8483SOL     OW37084   0.425   4.709   5.460  0.2269 -0.5134 -0.2441
 8483SOL    HW137085   0.492   0.018   5.410  1.6132 -0.2354  1.8727
 8483SOL    HW237086   0.466   4.622   5.458 -0.6663 -0.9250 -0.8703
 8484SOL     OW37087   4.225   0.785   4.543  0.5211 -0.0842  0.2721
 8484SOL    HW137088   4.177   0.866   4.521  0.2024  0.6944  3.7871
 8484SOL    HW237089   4.216   0.776   4.638  3.8161  0.4394  0.6446
 8485SOL     OW37090   1.096   1.851   5.338  0.2587 -0.0999 -0.1894
 8485SOL    HW137091   1.080   1.759   5.357 -2.4127  0.3085 -0.4246
 8485SOL    HW237092   1.026   1.900   5.381 -1.5622 -2.4812 -0.4673
 8486SOL     OW37093   2.206   0.299   0.213  0.3010 -0.3566  0.5018
 8486SOL    HW137094   2.198   0.324   0.305 -1.5138  1.7904 -0.2524
 8486SOL    HW237095   2.289   0.250   0.218  0.2532 -0.5139 -0.2444
 8487SOL     OW37096   2.411   4.446   5.226 -0.1045 -0.1355 -0.5780
 8487SOL    HW137097   2.485   4.455   5.286  0.9125 -4.4635 -1.1802
 8487SOL    HW237098   2.365   4.374   5.269  0.6035 -1.3713 -1.9092
 8488SOL     OW37099   4.225   0.482   5.654 -0.1254  0.0257 -0.2846
 8488SOL    HW137100   4.255   0.395   5.679  0.5770  0.0891 -0.8951
 8488SOL    HW237101   4.308   0.528   5.643 -1.4778  2.2362 -1.2751
 8489SOL     OW37102   3.043   2.256  12.151 -0.3045 -0.0099 -0.1473
 8489SOL    HW137103   3.005   2.197  12.216 -0.7647  0.8808  0.3962
 8489SOL    HW237104   3.127   2.264  12.196 -0.4931  1.6478 -0.0890
 8490SOL     OW37105   4.467   4.124   8.026  0.1049  0.3709 -0.1595
 8490SOL    HW137106   4.522   4.074   7.965 -1.1125 -0.8848 -0.2368
 8490SOL    HW237107   4.512   4.115   8.110  1.3321  1.0885 -0.7515
 8491SOL     OW37108   4.207   4.251   7.747 -0.2350  0.0253  0.3892
 8491SOL    HW137109   4.138   4.317   7.748 -0.8492 -0.6982  3.5941
 8491SOL    HW237110   4.204   4.208   7.833  0.0294 -0.6148  0.0846
 8492SOL     OW37111   3.970   3.200  16.932  1.0153 -0.4955  0.5341
 8492SOL    HW137112   3.984   3.235  17.019 -0.1104 -1.4136  1.0766
 8492SOL    HW237113   3.879   3.171  16.931 -0.0417  2.9057 -3.5569
 8493SOL     OW37114   2.723   1.280   4.459 -0.1336  0.1683 -0.2172
 8493SOL    HW137115   2.657   1.241   4.402 -0.6552  0.5818  0.0973
 8493SOL    HW237116   2.678   1.271   4.543  0.7065 -0.0126  0.2127
 8494SOL     OW37117   4.131   4.270   3.409  0.3045 -0.3670  0.3857
 8494SOL    HW137118   4.154   4.354   3.448 -2.9857  1.7692 -2.2295
 8494SOL    HW237119   4.203   4.211   3.429 -0.1847 -0.9751  0.3584
 8495SOL     OW37120   2.339   2.192  13.488  0.5091  0.4287 -0.4221
 8495SOL    HW137121   2.266   2.246  13.459  0.1854 -0.2864 -0.9357
 8495SOL    HW237122   2.306   2.109  13.524 -1.6897  1.5455  0.1082
 8496SOL     OW37123   2.393   3.965  17.742  0.0658 -0.1426 -0.0617
 8496SOL    HW137124   2.461   3.915  17.695 -1.2239 -1.9677  0.0393
 8496SOL    HW237125   2.451   3.997   0.066 -1.1902  2.4864 -0.2413
 8497SOL     OW37126   1.168   0.958   4.101 -0.0179 -0.0854 -0.4775
 8497SOL    HW137127   1.138   1.049   4.101 -2.2416 -0.8184  3.8798
 8497SOL    HW237128   1.119   0.912   4.033  0.0295 -0.3284 -0.3472
 8498SOL     OW37129   4.406   2.559   6.955  0.2457 -0.1566  0.0421
 8498SOL    HW137130   4.373   2.598   7.036  2.2121 -2.5799  2.0511
 8498SOL    HW237131   4.435   2.627   6.895  2.2914 -2.4292 -1.5543
 8499SOL     OW37132   4.622   1.636   4.854  0.1702 -0.1927  0.1822
 8499SOL    HW137133   4.715   1.614   4.854  0.4002  0.8146  1.0070
 8499SOL    HW237134   4.584   1.549   4.865 -0.6642  0.0989 -0.3645
 8500SOL     OW37135   0.604   2.616   8.161 -0.0621 -0.6830 -0.5402
 8500SOL    HW137136   0.636   2.702   8.135  0.4515 -1.1329 -1.4138
 8500SOL    HW237137   0.651   2.569   8.092 -0.7266 -1.3849 -0.5164
 8501SOL     OW37138   1.984   1.359  17.228 -0.6307 -0.0784 -0.2723
 8501SOL    HW137139   2.073   1.333  17.250 -0.1719  1.3017 -0.4821
 8501SOL    HW237140   1.935   1.282  17.200  1.6459 -2.1609  1.4906
 8502SOL     OW37141   4.003   2.343  13.297 -0.0991  0.6392 -0.1979
 8502SOL    HW137142   3.986   2.320  13.388  2.4237  0.8987  0.3307
 8502SOL    HW237143   4.086   2.297  13.297 -0.5036 -0.0897  0.3851
 8503SOL     OW37144   4.034   1.544   2.451 -0.0602  0.5289 -0.3571
 8503SOL    HW137145   3.991   1.540   2.365  0.1822 -2.0927 -0.3640
 8503SOL    HW237146   3.959   1.535   2.510  0.4191 -0.6410  0.0613
 8504SOL     OW37147   4.098   4.437   5.930 -0.4431  0.2554  0.2830
 8504SOL    HW137148   4.147   4.357   5.947  0.1755  0.9521  1.7952
 8504SOL    HW237149   4.012   4.397   5.917  0.6995 -1.6460 -1.3511
 8505SOL     OW37150   1.389   3.225  16.241  0.2043  0.2922  0.1471
 8505SOL    HW137151   1.377   3.256  16.151  0.9238  0.0437 -0.0339
 8505SOL    HW237152   1.468   3.173  16.226  2.0621  3.8141 -2.1738
 8506SOL     OW37153   1.888   4.600   5.123 -0.3414  0.3906 -0.3852
 8506SOL    HW137154   1.852   4.533   5.064  0.7774 -1.5645  1.1753
 8506SOL    HW237155   1.921   4.542   5.191 -1.0055  0.6513  0.1648
 8507SOL     OW37156   1.285   0.617  17.105  0.2205  0.6526  0.1396
 8507SOL    HW137157   1.229   0.674  17.052  0.0484  0.1581 -0.2099
 8507SOL    HW237158   1.268   0.531  17.066 -0.0408  0.0839  1.5149
 8508SOL     OW37159   2.970   0.243   7.966 -0.1375  0.0873 -0.3177
 8508SOL    HW137160   3.035   0.300   7.925  0.3138 -0.6472 -0.6400
 8508SOL    HW237161   2.891   0.296   7.958 -1.2022 -1.4544 -0.0062
 8509SOL     OW37162   4.508   3.720   5.738 -0.1556  0.4373  0.2543
 8509SOL    HW137163   4.595   3.757   5.749  0.1734 -0.0045 -0.9162
 8509SOL    HW237164   4.529   3.651   5.676 -3.3590 -0.0251 -0.2977
 8510SOL     OW37165   2.308   3.787   6.856  0.4486  0.4439  0.3202
 8510SOL    HW137166   2.255   3.720   6.898  0.4138 -1.2193 -2.4006
 8510SOL    HW237167   2.275   3.789   6.767 -0.0001 -1.4804  0.4468
 8511SOL     OW37168   1.525   3.806   7.044 -0.0112 -0.2957 -0.6916
 8511SOL    HW137169   1.470   3.872   7.003 -0.7761 -0.3161  0.3339
 8511SOL    HW237170   1.460   3.754   7.091 -0.5815 -0.5146 -1.7262
 8512SOL     OW37171   3.890   3.627   6.831 -1.1807 -0.1978  0.7778
 8512SOL    HW137172   3.881   3.568   6.756 -0.3544 -0.0182  0.5451
 8512SOL    HW237173   3.857   3.711   6.800 -0.7633  0.3406  1.7716
 8513SOL     OW37174   0.748   2.052   3.824 -0.0849 -0.0237 -0.2807
 8513SOL    HW137175   0.831   2.029   3.865 -0.0644  0.3594 -0.1126
 8513SOL    HW237176   0.692   1.990   3.871  2.9821 -2.4941  0.0922
 8514SOL     OW37177   3.177   2.774  17.739 -0.0902 -0.2410 -0.0101
 8514SOL    HW137178   3.106   2.714   0.019 -1.2478  1.6429  1.2305
 8514SOL    HW237179   3.246   2.708   0.001 -0.0689 -0.0177  1.8420
 8515SOL     OW37180   0.775   1.307   1.264 -0.0733 -0.3443 -0.1054
 8515SOL    HW137181   0.868   1.296   1.246  0.0125 -1.3456  0.9001
 8515SOL    HW237182   0.763   1.395   1.229  0.1167 -0.1556  0.2989
 8516SOL     OW37183   3.478   2.272   6.037 -0.4820  0.2842  0.6039
 8516SOL    HW137184   3.419   2.313   6.100  0.1986  0.4375  1.1425
 8516SOL    HW237185   3.536   2.218   6.092 -1.5798 -2.2910 -0.7806
 8517SOL     OW37186   2.534   2.417  17.706  0.0341  0.3333 -0.1249
 8517SOL    HW137187   2.530   2.395   0.053  0.4267 -1.9752 -0.6496
 8517SOL    HW237188   2.444   2.401  17.676  0.2041 -1.4896  0.3724
 8518SOL     OW37189   0.159   1.895   8.596  0.7745 -0.0429 -0.4403
 8518SOL    HW137190   0.064   1.887   8.594  0.5747  2.7156 -1.3139
 8518SOL    HW237191   0.148   1.984   8.563 -1.2209 -0.5610 -1.1887
 8519SOL     OW37192   2.981   2.040  17.295 -0.0462 -0.3295 -0.4186
 8519SOL    HW137193   3.057   2.026  17.351 -0.6289  0.6995  0.6168
 8519SOL    HW237194   2.993   2.127  17.259 -2.0583  0.1951  0.1735
 8520SOL     OW37195   0.504   0.388   1.865  0.4417 -0.3151  0.0324
 8520SOL    HW137196   0.505   0.292   1.873  3.6214 -0.2559  0.0768
 8520SOL    HW237197   0.419   0.396   1.821  0.3680  0.9108  0.3805
 8521SOL     OW37198   3.419   0.455   7.212 -0.5520  0.7955  0.0076
 8521SOL    HW137199   3.400   0.521   7.278 -2.4456  0.1406  0.1497
 8521SOL    HW237200   3.503   0.492   7.188 -0.5913  1.2902  0.6283
 8522SOL     OW37201   3.619   0.870  14.159 -0.3469  0.2792 -0.2428
 8522SOL    HW137202   3.552   0.937  14.173  0.1805  0.8601 -0.4894
 8522SOL    HW237203   3.650   0.879  14.069 -0.5270  0.5781 -0.2727
 8523SOL     OW37204   3.218   0.174   4.214 -0.2902  0.5981  0.3061
 8523SOL    HW137205   3.234   0.268   4.215  1.5957  0.2791 -2.1995
 8523SOL    HW237206   3.125   0.175   4.237  0.1835  0.9913  2.2680
 8524SOL     OW37207   2.784   1.385  11.344  0.0148 -0.0617 -0.0427
 8524SOL    HW137208   2.855   1.432  11.301  1.6013 -0.2779  2.3713
 8524SOL    HW237209   2.716   1.396  11.277 -2.0670  0.7548  2.1932
 8525SOL     OW37210   3.435   4.101   7.566  0.7867 -0.0309 -0.0126
 8525SOL    HW137211   3.387   4.025   7.533  1.0293  0.2706 -1.0507
 8525SOL    HW237212   3.422   4.154   7.487 -0.9378 -0.4950 -0.0259
 8526SOL     OW37213   0.646   3.996   8.249 -0.5000 -0.5128  0.1238
 8526SOL    HW137214   0.578   4.053   8.285 -1.8388 -0.0353 -3.1990
 8526SOL    HW237215   0.638   4.010   8.155 -0.1047 -0.2854  0.1220
 8527SOL     OW37216   4.597   1.736   9.131  0.3072 -0.2596  0.0184
 8527SOL    HW137217   4.531   1.748   9.200  1.1115 -1.0874  0.9471
 8527SOL    HW237218   4.670   1.791   9.160  0.6345 -1.4920  1.5350
 8528SOL     OW37219   3.511   4.085   6.101 -0.3557 -0.2907  0.3698
 8528SOL    HW137220   3.470   4.171   6.094  1.2238  0.3500 -1.0094
 8528SOL    HW237221   3.588   4.097   6.045 -0.0457  2.1407  1.3273
 8529SOL     OW37222   4.094   3.299   4.170  0.0065  0.3885  0.0506
 8529SOL    HW137223   4.136   3.376   4.131  1.1686 -1.0012 -1.4172
 8529SOL    HW237224   4.067   3.334   4.255 -0.7442 -2.4018  0.9773
 8530SOL     OW37225   1.303   3.861  13.200  0.5548  0.3103  0.4461
 8530SOL    HW137226   1.384   3.867  13.150 -0.6405  3.4267 -1.1246
 8530SOL    HW237227   1.332   3.898  13.283 -0.7809  2.5563 -0.0944
 8531SOL     OW37228   2.120   2.720   8.103  0.1201  0.0323  0.5007
 8531SOL    HW137229   2.188   2.744   8.041 -0.4620  0.7339  0.1243
 8531SOL    HW237230   2.145   2.632   8.130 -0.2432 -0.1458  0.2566
 8532SOL     OW37231   4.395   0.260   5.740 -0.0942  0.6200 -0.0359
 8532SOL    HW137232   4.489   0.275   5.738  0.2017 -0.8699  2.1536
 8532SOL    HW237233   4.372   0.272   5.832  2.3272  0.6882  0.5336
 8533SOL     OW37234   3.291   1.630  12.347  0.5707 -0.5283 -0.3801
 8533SOL    HW137235   3.245   1.547  12.339  1.2370 -0.8099 -1.3250
 8533SOL    HW237236   3.362   1.605  12.406 -1.8552 -3.0269  1.4604
 8534SOL     OW37237   0.049   1.302  14.032 -0.2109  0.6809 -0.4718
 8534SOL    HW137238   0.074   1.301  13.940 -0.5776  3.1389 -0.6057
 8534SOL    HW237239   0.133   1.282  14.073  0.3931  0.1899 -1.9568
 8535SOL     OW37240   3.753   1.293   2.382  0.1489 -1.1422 -0.5893
 8535SOL    HW137241   3.810   1.217   2.380  0.8921 -0.6682  1.6919
 8535SOL    HW237242   3.806   1.360   2.338 -0.5281  0.5348  1.1222
 8536SOL     OW37243   3.176   1.275   0.399  0.2842  0.0344 -0.0603
 8536SOL    HW137244   3.246   1.330   0.433  0.2260 -0.2038  0.4429
 8536SOL    HW237245   3.211   1.219   0.330  1.6919  2.4031 -1.2735
 8537SOL     OW37246   4.512   0.619   7.629  0.2499  0.0854  0.2170
 8537SOL    HW137247   4.538   0.605   7.721  1.2997 -1.3243 -0.2896
 8537SOL    HW237248   4.549   0.706   7.617  1.4596 -0.4259  0.2197
 8538SOL     OW37249   3.210   2.937  12.157  0.5141 -0.1920  0.3542
 8538SOL    HW137250   3.264   2.858  12.149 -1.5920 -1.5112 -0.9174
 8538SOL    HW237251   3.215   2.958  12.064 -0.1150  1.7651  0.7582
 8539SOL     OW37252   0.154   3.882   7.462  0.1254  0.0773  0.1438
 8539SOL    HW137253   0.101   3.962   7.459  0.8876  0.5858  0.0132
 8539SOL    HW237254   0.104   3.823   7.518 -0.3585  0.2034 -0.1549
 8540SOL     OW37255   3.690   3.290  11.232  0.3701 -0.0468 -0.4272
 8540SOL    HW137256   3.719   3.369  11.187  0.7314 -0.9081 -1.6928
 8540SOL    HW237257   3.618   3.257  11.177 -0.1859  0.7896 -0.2066
 8541SOL     OW37258   0.537   3.244   5.597 -0.0068  0.1970  0.0414
 8541SOL    HW137259   0.467   3.308   5.586  0.1926  0.4421  0.2113
 8541SOL    HW237260   0.555   3.265   5.688  1.6680  0.7769 -0.4258
 8542SOL     OW37261   0.319   0.618   6.229 -0.1035 -0.2753  0.4572
 8542SOL    HW137262   0.375   0.694   6.246  0.6832 -1.3815  2.7652
 8542SOL    HW237263   0.372   0.586   6.156 -0.4135  1.5757 -0.5925
 8543SOL     OW37264   2.674   1.402   8.182  0.1526  0.1266 -0.0826
 8543SOL    HW137265   2.692   1.471   8.118  0.2684  0.1987  0.0277
 8543SOL    HW237266   2.732   1.430   8.253  1.6071 -0.7372 -0.9249
 8544SOL     OW37267   4.317   0.285   6.019 -0.5834 -0.6321 -0.0781
 8544SOL    HW137268   4.343   0.309   6.108 -2.2206  0.1690  0.1850
 8544SOL    HW237269   4.224   0.300   6.034 -0.9251 -1.3873 -1.3906
 8545SOL     OW37270   3.537   2.944  15.686 -0.8188 -0.0533 -0.1949
 8545SOL    HW137271   3.602   3.014  15.695 -1.5182  0.3021  2.0127
 8545SOL    HW237272   3.521   2.925  15.778 -0.8755 -0.7679 -0.3545
 8546SOL     OW37273   1.267   4.125  12.641 -0.2128 -0.3359  0.2548
 8546SOL    HW137274   1.313   4.209  12.644  0.9653 -0.9827  0.5075
 8546SOL    HW237275   1.186   4.159  12.604 -0.5184 -4.2616 -2.6318
 8547SOL     OW37276   2.942   0.705   0.129  0.3447  0.1010 -0.2605
 8547SOL    HW137277   2.996   0.760   0.073 -1.1821  2.2781  0.3850
 8547SOL    HW237278   2.889   0.775   0.169  2.2392  0.6021  1.3272
 8548SOL     OW37279   4.223   4.131   5.422  0.1451 -0.1115 -0.3864
 8548SOL    HW137280   4.156   4.199   5.416 -3.9072 -3.8909  1.8552
 8548SOL    HW237281   4.272   4.158   5.500  0.9843 -0.0440 -0.9491
 8549SOL     OW37282   1.258   2.650  13.451  0.4302  0.1587  0.1379
 8549SOL    HW137283   1.169   2.666  13.482 -0.6144 -1.5668 -1.9437
 8549SOL    HW237284   1.255   2.567  13.403  2.2988 -0.2913  0.7806
 8550SOL     OW37285   4.269   4.334   7.157 -0.0901  0.0912 -0.2524
 8550SOL    HW137286   4.212   4.264   7.187  2.1234 -0.8664  1.6815
 8550SOL    HW237287   4.329   4.343   7.231 -0.0483  1.5755 -0.4557
 8551SOL     OW37288   2.375   3.727   5.077 -0.1018  0.1597  0.0861
 8551SOL    HW137289   2.439   3.672   5.122 -0.0805  0.5359  0.5140
 8551SOL    HW237290   2.297   3.679   5.103  1.2353 -1.3531  1.3175
 8552SOL     OW37291   4.673   2.667  14.602  0.6333  0.0900  0.2819
 8552SOL    HW137292   4.695   2.582  14.642 -0.7932 -0.6498 -0.5026
 8552SOL    HW237293   4.582   2.649  14.627  1.4218 -3.3735  0.7801
 8553SOL     OW37294   2.497   1.193   1.572 -0.1747 -0.2376  0.1843
 8553SOL    HW137295   2.519   1.121   1.630 -0.6483  0.4742  1.2352
 8553SOL    HW237296   2.438   1.235   1.634 -0.0537 -0.4937  0.4707
 8554SOL     OW37297   4.339   2.048   6.395  0.2428  0.2880  0.7027
 8554SOL    HW137298   4.303   1.992   6.327 -1.1310  0.4305  1.3120
 8554SOL    HW237299   4.270   2.038   6.461  0.5565 -0.5670  0.9007
 8555SOL     OW37300   1.542   0.271  14.929 -0.5278  0.0183  0.0727
 8555SOL    HW137301   1.567   0.185  14.897 -3.1895 -1.0914  0.9169
 8555SOL    HW237302   1.473   0.279  14.863 -0.0281  1.5675 -0.2717
 8556SOL     OW37303   2.434   4.635  12.411  0.6965  0.6184  0.0381
 8556SOL    HW137304   2.404   4.627  12.502 -1.7920  0.3910 -0.8078
 8556SOL    HW237305   2.524   4.611  12.436 -0.4780 -4.4287 -0.5937
 8557SOL     OW37306   2.427   3.257   2.643  0.5104  0.0691 -0.3645
 8557SOL    HW137307   2.515   3.262   2.680  0.3357 -0.9301  0.2089
 8557SOL    HW237308   2.433   3.327   2.579  2.5187  1.5451  1.4456
 8558SOL     OW37309   3.395   2.432   3.146  0.2432 -0.2527  0.4785
 8558SOL    HW137310   3.399   2.521   3.111 -1.1352  0.2239  1.5491
 8558SOL    HW237311   3.341   2.383   3.083 -2.0273  1.3622  1.1658
 8559SOL     OW37312   2.153   4.563   4.644 -0.9810 -0.2831 -0.1080
 8559SOL    HW137313   2.063   4.575   4.674 -1.6389 -1.5625 -1.5746
 8559SOL    HW237314   2.144   4.477   4.603 -1.7521 -0.0681 -0.4031
 8560SOL     OW37315   3.879   4.237   0.722 -0.3343 -0.6216 -0.2337
 8560SOL    HW137316   3.821   4.160   0.715  0.6006 -1.4036  0.5798
 8560SOL    HW237317   3.965   4.200   0.743  1.0422  2.7343 -0.1130
 8561SOL     OW37318   4.035   2.559   5.064  0.2002 -0.3936  0.2465
 8561SOL    HW137319   3.961   2.520   5.017  0.2195  0.1403 -0.2348
 8561SOL    HW237320   3.983   2.585   5.140  1.0675  0.2056  0.6350
 8562SOL     OW37321   1.443   3.032  11.879  0.2860 -0.0390  0.0401
 8562SOL    HW137322   1.430   3.008  11.970  0.2477 -0.4459 -0.0725
 8562SOL    HW237323   1.539   3.032  11.869  0.3359 -1.4647  0.4716
 8563SOL     OW37324   2.951   0.802   3.509  0.0803 -0.0836  0.0947
 8563SOL    HW137325   2.975   0.721   3.464  0.9629  1.5296 -2.3466
 8563SOL    HW237326   3.018   0.863   3.478  0.9992 -0.2875  1.6882
 8564SOL     OW37327   4.514   2.968   1.752  0.1289 -0.3397  0.4758
 8564SOL    HW137328   4.519   3.026   1.828 -0.2858 -0.6838  0.7637
 8564SOL    HW237329   4.606   2.984   1.731  0.3876 -1.6412  0.6239
 8565SOL     OW37330   1.839   4.116   7.136  0.8590  0.0768 -0.1133
 8565SOL    HW137331   1.820   4.024   7.121 -0.0334  0.6967 -2.7666
 8565SOL    HW237332   1.914   4.141   7.082 -0.4593 -1.0209 -2.4314
 8566SOL     OW37333   2.517   2.255   5.458 -0.5069  0.2625 -0.1935
 8566SOL    HW137334   2.479   2.211   5.534 -1.3436 -1.6346 -1.7268
 8566SOL    HW237335   2.570   2.319   5.506 -2.6006  0.6784  1.5923
 8567SOL     OW37336   2.717   0.511   2.242 -0.6637  0.5920  0.1355
 8567SOL    HW137337   2.679   0.552   2.164 -0.3185 -1.0412 -0.8869
 8567SOL    HW237338   2.805   0.489   2.210 -0.4893  1.0541  0.2985
 8568SOL     OW37339   0.261   1.031   8.891 -0.2179 -0.2659 -0.4198
 8568SOL    HW137340   0.280   1.125   8.896 -1.4211  0.0659 -2.0364
 8568SOL    HW237341   0.171   1.031   8.925 -0.2869 -1.0026 -0.6004
 8569SOL     OW37342   4.610   3.526   1.100 -0.2393 -0.3992  1.1463
 8569SOL    HW137343   4.638   3.516   1.190 -0.4301  3.0794  1.6083
 8569SOL    HW237344   4.528   3.574   1.116  0.2157  0.6811  0.2915
 8570SOL     OW37345   1.217   2.379   1.654 -0.1098  0.1367 -0.1196
 8570SOL    HW137346   1.182   2.362   1.566 -0.6020 -3.0075  0.7041
 8570SOL    HW237347   1.205   2.294   1.696 -2.4209 -0.3103 -1.7256
 8571SOL     OW37348   3.496   1.879   7.886  0.0747  0.5473 -0.4117
 8571SOL    HW137349   3.518   1.803   7.833  0.1784 -0.2604  0.8001
 8571SOL    HW237350   3.499   1.862   7.980  0.8193  0.4500 -0.4551
 8572SOL     OW37351   1.902   3.807   6.413  0.2908  0.1950 -0.3138
 8572SOL    HW137352   1.973   3.752   6.445  0.1293  0.2795  0.1794
 8572SOL    HW237353   1.919   3.806   6.318  0.5944 -0.6302 -0.2545
 8573SOL     OW37354   2.158   2.618  12.462 -0.2114  0.0853 -0.0118
 8573SOL    HW137355   2.252   2.609  12.453 -0.0698  0.5589  1.0343
 8573SOL    HW237356   2.130   2.615  12.370 -1.3251 -0.0330  0.3285
 8574SOL     OW37357   2.412   1.516   9.826 -0.4897  0.0743 -0.0565
 8574SOL    HW137358   2.479   1.584   9.833  1.5360 -1.9153 -0.3240
 8574SOL    HW237359   2.348   1.542   9.892 -1.6253 -1.6117 -0.5093
 8575SOL     OW37360   0.400   3.568   7.097 -0.3105 -0.0033  0.0357
 8575SOL    HW137361   0.356   3.491   7.061  2.9292 -1.2450 -1.3135
 8575SOL    HW237362   0.327   3.624   7.120  1.4832  0.5038  4.4825
 8576SOL     OW37363   1.987   4.256   0.665  0.2294 -0.3113  0.9006
 8576SOL    HW137364   2.076   4.286   0.681  0.0770 -0.1044  1.3611
 8576SOL    HW237365   1.984   4.246   0.569  2.5505 -2.1286  1.0232
 8577SOL     OW37366   2.923   1.226   6.690  0.0195  0.1255  0.4579
 8577SOL    HW137367   2.882   1.216   6.776 -0.1603 -1.3001  0.2108
 8577SOL    HW237368   2.853   1.190   6.635  1.9839  0.3855 -2.2687
 8578SOL     OW37369   0.408   0.380   4.477  0.3683 -0.2289  0.2547
 8578SOL    HW137370   0.356   0.318   4.528  1.0126 -0.4437  0.6492
 8578SOL    HW237371   0.349   0.455   4.477  1.9122  0.9793 -1.1592
 8579SOL     OW37372   1.801   4.689   2.935 -0.2972  0.4660  0.2951
 8579SOL    HW137373   1.872   4.684   2.870 -1.9627  1.7760 -1.6262
 8579SOL    HW237374   1.846   4.722   3.012 -0.3233  1.0502  0.0587
 8580SOL     OW37375   2.534   0.037   5.545  0.6957 -0.2616 -0.1704
 8580SOL    HW137376   2.499   0.008   5.629  0.0690  2.5788  0.5454
 8580SOL    HW237377   2.459   0.025   5.487 -0.3329  1.9952  0.7069
 8581SOL     OW37378   4.349   2.440   1.649  0.2382 -0.5632  0.5066
 8581SOL    HW137379   4.392   2.513   1.692  1.9916 -1.8550  0.9351
 8581SOL    HW237380   4.256   2.456   1.666 -0.4554 -3.3540 -0.6091
 8582SOL     OW37381   3.143   1.765  12.578  0.2831 -0.0372  0.3693
 8582SOL    HW137382   3.183   1.729  12.657 -1.1867  0.6488  1.4315
 8582SOL    HW237383   3.202   1.723  12.515  0.4357  0.2666  0.3121
 8583SOL     OW37384   0.031   2.660   5.174 -0.2924  0.0884  0.6437
 8583SOL    HW137385   4.717   2.701   5.104  0.6125 -0.9052 -0.5894
 8583SOL    HW237386   4.709   2.649   5.249 -0.4239 -2.5609  0.1310
 8584SOL     OW37387   4.707   0.156   4.566  0.0522  0.2693  0.1916
 8584SOL    HW137388   4.681   0.069   4.596 -0.6746  0.5177  0.2827
 8584SOL    HW237389   0.018   0.195   4.639  2.1844  0.0349 -1.0704
 8585SOL     OW37390   0.624   4.416   9.128  0.2077 -0.4966 -0.2203
 8585SOL    HW137391   0.556   4.353   9.152  0.4456 -0.3827  0.7548
 8585SOL    HW237392   0.580   4.475   9.067  2.1322  1.4364  0.2811
 8586SOL     OW37393   4.352   0.689   4.949 -0.5526 -0.5704  0.0122
 8586SOL    HW137394   4.365   0.595   4.964  2.8233 -0.2809 -1.0577
 8586SOL    HW237395   4.407   0.728   5.017 -0.5137  1.3639 -1.1392
 8587SOL     OW37396   3.909   2.326  11.536 -0.0688  0.0278 -0.4969
 8587SOL    HW137397   3.849   2.256  11.561  1.5203 -0.4768  1.9232
 8587SOL    HW237398   3.890   2.381  11.612 -0.0594  0.1891 -0.6097
 8588SOL     OW37399   3.676   4.730   7.362 -0.2136  0.1470  0.7641
 8588SOL    HW137400   3.680   4.637   7.383 -1.2505  0.8266  4.0120
 8588SOL    HW237401   3.618   0.013   7.436 -0.1519  0.0286  0.8446
 8589SOL     OW37402   2.297   3.206  16.198  0.3170  0.5867 -0.0477
 8589SOL    HW137403   2.262   3.174  16.115 -0.2886 -0.8144  0.7564
 8589SOL    HW237404   2.224   3.260  16.225 -0.9386 -1.2359  0.1665
 8590SOL     OW37405   3.843   1.806   4.625 -0.4912  0.0690 -0.4865
 8590SOL    HW137406   3.926   1.786   4.668 -1.1857  1.5373  1.5434
 8590SOL    HW237407   3.788   1.739   4.667 -2.6909  0.7733 -2.2337
 8591SOL     OW37408   1.750   2.625   4.264  1.0685  0.1011  0.2668
 8591SOL    HW137409   1.839   2.661   4.256  1.1292 -0.3521 -1.1698
 8591SOL    HW237410   1.727   2.602   4.174 -1.4780  1.0858  0.6825
 8592SOL     OW37411   3.490   0.857   2.367  0.3763  0.2558  0.7183
 8592SOL    HW137412   3.467   0.809   2.446 -0.1308  1.4302  1.2858
 8592SOL    HW237413   3.571   0.815   2.338  0.4421  1.8615 -1.4102
 8593SOL     OW37414   4.641   0.182   1.839  0.1780 -0.2872 -0.7676
 8593SOL    HW137415   4.704   0.175   1.911  0.7001  1.3154 -1.0671
 8593SOL    HW237416   4.562   0.216   1.882 -0.0084 -0.5485 -0.8987
 8594SOL     OW37417   4.318   4.374   9.515 -0.5682  0.4059 -0.4411
 8594SOL    HW137418   4.388   4.367   9.450  1.4208  1.9597  1.5217
 8594SOL    HW237419   4.344   4.304   9.576 -2.9713  1.4657  1.7906
 8595SOL     OW37420   1.829   3.502   7.384  0.6769  0.6637 -0.2499
 8595SOL    HW137421   1.860   3.493   7.294  0.7645  1.4667 -0.2955
 8595SOL    HW237422   1.798   3.593   7.381  3.9183  1.8089  1.0819
 8596SOL     OW37423   3.997   2.554   7.254 -0.0338  1.0942  0.2414
 8596SOL    HW137424   3.957   2.477   7.294  1.8710 -0.2472 -0.4837
 8596SOL    HW237425   3.963   2.627   7.307 -0.7265  1.1198 -0.2327
 8597SOL     OW37426   3.353   3.146   7.044 -0.2358  0.1619 -0.7135
 8597SOL    HW137427   3.346   3.113   7.134 -0.5071 -0.9063 -1.1258
 8597SOL    HW237428   3.271   3.194   7.031 -0.1887  0.2304 -0.7590
 8598SOL     OW37429   1.348   4.415   2.969 -0.3575  0.2726 -0.1415
 8598SOL    HW137430   1.441   4.403   2.949 -0.2165 -2.3830  2.1714
 8598SOL    HW237431   1.321   4.334   3.012  0.6628  0.2833  0.5193
 8599SOL     OW37432   4.563   2.719   5.374 -0.1265  0.1934 -0.0406
 8599SOL    HW137433   4.578   2.777   5.449 -2.4824  0.6718  0.0827
 8599SOL    HW237434   4.469   2.703   5.380  0.3954 -2.0938  1.6266
 8600SOL     OW37435   2.660   1.638   3.621 -0.5636 -0.7909  0.7206
 8600SOL    HW137436   2.648   1.607   3.531  1.6595 -3.4297  1.3613
 8600SOL    HW237437   2.755   1.632   3.630 -0.3891 -0.4959 -0.7852
 8601SOL     OW37438   1.697   1.941   4.880  0.6646  0.1478  0.5573
 8601SOL    HW137439   1.620   1.885   4.885  0.2573  0.6215 -0.4617
 8601SOL    HW237440   1.709   1.968   4.971  0.5064  1.2860  0.2445
 8602SOL     OW37441   0.566   3.152   4.266 -0.1772  0.3075 -0.0669
 8602SOL    HW137442   0.625   3.110   4.329  0.9883 -0.1872 -1.4982
 8602SOL    HW237443   0.589   3.117   4.180  4.0010 -0.3215  1.3348
 8603SOL     OW37444   4.560   0.012   3.899  0.2339  0.2731  1.0083
 8603SOL    HW137445   4.645   0.045   3.926  0.3028  1.0273 -0.1422
 8603SOL    HW237446   4.579   4.726   3.808 -1.2871  1.4592  0.3796
 8604SOL     OW37447   1.722   2.630   8.640  0.3552 -0.0009 -0.4387
 8604SOL    HW137448   1.734   2.722   8.661  3.0217 -0.5033  0.2019
 8604SOL    HW237449   1.784   2.612   8.569 -0.0470  0.3407 -0.8828
 8605SOL     OW37450   1.679   1.753   7.189  0.1937 -0.5947  0.5906
 8605SOL    HW137451   1.589   1.722   7.179 -0.2399  0.8897 -0.1270
 8605SOL    HW237452   1.668   1.796   7.274  1.8526 -0.7561  0.8859
 8606SOL     OW37453   2.222   2.664   9.032 -0.4430 -0.2162  0.2086
 8606SOL    HW137454   2.294   2.613   8.996  0.4944  0.6056  0.8944
 8606SOL    HW237455   2.200   2.624   9.116  2.0044 -0.1684  0.8758
 8607SOL     OW37456   4.388   3.567   5.963 -0.0431  0.7612 -0.4283
 8607SOL    HW137457   4.367   3.484   5.921 -0.3689  0.4988  0.2634
 8607SOL    HW237458   4.336   3.626   5.908 -1.2704 -0.4410 -0.5279
 8608SOL     OW37459   0.687   0.862   0.136  0.0101  0.0904  0.3290
 8608SOL    HW137460   0.602   0.905   0.124  0.0016 -0.7207 -2.5429
 8608SOL    HW237461   0.669   0.768   0.146 -0.9255  0.1708 -0.6013
 8609SOL     OW37462   1.763   3.086  10.571  0.2855  0.6038 -0.3443
 8609SOL    HW137463   1.685   3.127  10.534 -0.5057  0.2611  0.9414
 8609SOL    HW237464   1.719   3.027  10.633 -1.3343  0.8966 -1.2127
 8610SOL     OW37465   0.164   4.204   5.644  0.0854 -0.3944  0.0789
 8610SOL    HW137466   0.224   4.187   5.716  2.9091  2.6953 -1.5579
 8610SOL    HW237467   0.188   4.293   5.618 -0.4681 -0.3410 -0.2636
 8611SOL     OW37468   1.325   0.692   8.323  0.0026 -0.6758  0.1486
 8611SOL    HW137469   1.299   0.608   8.362  1.5732 -1.3691 -0.2965
 8611SOL    HW237470   1.294   0.765   8.376  0.1834 -1.1054  0.8503
 8612SOL     OW37471   1.569   4.434  10.269 -0.1643  0.3042 -0.2654
 8612SOL    HW137472   1.643   4.450  10.327  1.3085 -1.3069 -1.7437
 8612SOL    HW237473   1.584   4.509  10.211  1.2152  0.6105  0.5024
 8613SOL     OW37474   1.656   2.123   8.821  0.6996  0.0731  0.3375
 8613SOL    HW137475   1.663   2.217   8.803 -1.2359  0.4197  1.3589
 8613SOL    HW237476   1.572   2.100   8.782  0.2860 -2.1684  2.5943
 8614SOL     OW37477   4.075   3.083   8.515  0.2626  0.3835 -0.5957
 8614SOL    HW137478   4.063   3.049   8.426 -1.1042  1.1676 -0.7064
 8614SOL    HW237479   4.111   3.009   8.564  0.5953  1.3409  0.6021
 8615SOL     OW37480   1.224   0.059   0.877  0.6756  0.1688 -0.9159
 8615SOL    HW137481   1.181   0.128   0.926 -0.5679 -0.2540 -1.4085
 8615SOL    HW237482   1.247   4.736   0.948  0.9264 -0.7809 -1.7824
 8616SOL     OW37483   4.214   0.411   4.740 -0.4515  0.2774 -0.2632
 8616SOL    HW137484   4.143   0.364   4.695  0.1058  1.2235 -2.1522
 8616SOL    HW237485   4.251   0.468   4.672 -0.0039  0.2008 -0.0791
 8617SOL     OW37486   1.415   1.367   2.253 -0.0543 -0.2508  0.2410
 8617SOL    HW137487   1.329   1.333   2.227 -0.1967 -0.6803  1.2688
 8617SOL    HW237488   1.471   1.354   2.176  0.3429 -2.2147  0.8558
 8618SOL     OW37489   3.954   0.538  16.354  0.1897 -0.0972  0.3579
 8618SOL    HW137490   4.048   0.555  16.359  0.0541  0.8870 -0.5446
 8618SOL    HW237491   3.950   0.494  16.269 -0.4802  0.3438  0.1647
 8619SOL     OW37492   2.020   2.061   3.393  0.2156  0.0505  0.0977
 8619SOL    HW137493   1.960   2.126   3.432  0.5701  0.6786 -0.4072
 8619SOL    HW237494   2.102   2.083   3.438  1.0381 -0.5090 -1.1501
 8620SOL     OW37495   4.499   1.111   0.709  0.0922 -0.0285  0.0980
 8620SOL    HW137496   4.409   1.082   0.720 -0.5744  1.9222 -0.2333
 8620SOL    HW237497   4.482   1.202   0.733 -0.5330 -0.3391  0.8297
 8621SOL     OW37498   2.826   3.277   4.733 -0.4436  0.1820 -0.1697
 8621SOL    HW137499   2.860   3.215   4.798 -1.8243  0.5658  0.9381
 8621SOL    HW237500   2.895   3.293   4.670 -0.3677 -0.7328 -0.3203
 8622SOL     OW37501   2.530   3.500  17.668 -0.1486 -0.0338 -0.4515
 8622SOL    HW137502   2.476   3.563  17.622  0.9433 -0.2977 -2.0986
 8622SOL    HW237503   2.459   3.455  17.715  0.7771 -0.1386  0.8425
 8623SOL     OW37504   1.525   4.075   3.258 -0.4617 -0.3203  0.6886
 8623SOL    HW137505   1.491   4.053   3.171 -0.3511  1.0969  0.2987
 8623SOL    HW237506   1.612   4.035   3.262 -0.0448  0.4524 -0.8982
 8624SOL     OW37507   1.905   1.377   2.432  0.0898 -0.8538 -0.1887
 8624SOL    HW137508   1.941   1.292   2.405  1.2938 -0.3592 -0.1121
 8624SOL    HW237509   1.867   1.406   2.350  0.2635  1.3549  0.5210
 8625SOL     OW37510   0.845   2.124  12.230  0.1654 -0.0092  0.1746
 8625SOL    HW137511   0.854   2.219  12.224  0.0489 -0.0935 -1.4511
 8625SOL    HW237512   0.902   2.095  12.158 -1.9295 -1.0061 -1.1089
 8626SOL     OW37513   4.251   3.172  12.226 -0.2490 -0.0003 -0.4737
 8626SOL    HW137514   4.283   3.089  12.262  0.4919 -0.0320 -1.2007
 8626SOL    HW237515   4.209   3.217  12.299 -0.5325 -0.6209 -0.2591
 8627SOL     OW37516   1.370   1.650   1.878 -0.5949  0.1622 -0.8001
 8627SOL    HW137517   1.378   1.700   1.797  1.6473 -0.3139 -0.8778
 8627SOL    HW237518   1.324   1.710   1.937  0.8165  0.3520  0.1026
 8628SOL     OW37519   4.024   1.763   9.787  0.9651 -0.3453 -0.0127
 8628SOL    HW137520   3.931   1.772   9.809  0.6420 -0.5818 -1.2766
 8628SOL    HW237521   4.048   1.849   9.754  0.2517 -0.4806 -0.8806
 8629SOL     OW37522   1.979   0.825  10.545 -0.6043 -0.0369 -0.0267
 8629SOL    HW137523   1.959   0.863  10.630  1.6933  1.3976 -0.1481
 8629SOL    HW237524   1.915   0.754  10.553 -1.3880  0.7449  0.7180
 8630SOL     OW37525   1.849   2.194   2.988  0.2619  0.4997  0.0684
 8630SOL    HW137526   1.762   2.165   3.012  0.1370  0.5542 -0.3136
 8630SOL    HW237527   1.827   2.286   2.977  0.6140  0.4945 -0.7499
 8631SOL     OW37528   4.623   3.323   8.006 -0.0644 -0.3455  0.8947
 8631SOL    HW137529   4.689   3.386   8.034  0.6327 -1.9163  2.8003
 8631SOL    HW237530   4.538   3.366   8.021 -1.1502 -1.5368 -1.8595
 8632SOL     OW37531   3.109   2.244  10.745  0.0079  0.1108  0.4619
 8632SOL    HW137532   3.101   2.242  10.840  0.0571  0.8881  0.4784
 8632SOL    HW237533   3.108   2.339  10.736  1.3475 -0.0736 -1.5093
 8633SOL     OW37534   2.989   2.040   8.312  0.1583  0.6106 -0.0509
 8633SOL    HW137535   2.930   2.079   8.376  1.0604  1.5661  0.1913
 8633SOL    HW237536   3.056   2.107   8.302  1.0726 -0.4833 -1.3696
 8634SOL     OW37537   1.618   4.719  12.006 -0.0903  0.3057 -0.1244
 8634SOL    HW137538   1.573   4.640  12.034  0.4093  1.8291  4.8665
 8634SOL    HW237539   1.693   4.685  11.957  0.8125  0.6664  1.0018
 8635SOL     OW37540   3.364   3.230   8.051  0.2892 -0.0651 -0.3653
 8635SOL    HW137541   3.409   3.207   8.133  0.3217  0.6382 -0.1802
 8635SOL    HW237542   3.307   3.154   8.039  0.5520 -0.1438 -1.0747
 8636SOL     OW37543   3.407   0.711   4.987  0.3995 -0.4343  0.1119
 8636SOL    HW137544   3.444   0.733   5.073 -0.4693  0.1296  0.3416
 8636SOL    HW237545   3.392   0.616   4.988 -0.7612 -0.2622 -0.8776
 8637SOL     OW37546   4.323   1.942   9.037 -0.0596 -0.2145  0.1634
 8637SOL    HW137547   4.379   1.903   8.970 -0.1386 -0.5234  0.2789
 8637SOL    HW237548   4.275   1.869   9.075 -1.4912 -0.6768 -2.5462
 8638SOL     OW37549   3.087   3.353   9.545  0.2436  0.1808  0.3427
 8638SOL    HW137550   3.066   3.421   9.482  1.3124  0.0534 -0.1475
 8638SOL    HW237551   3.113   3.279   9.489  2.6054  1.0795  0.2536
 8639SOL     OW37552   0.743   1.258   5.015  0.2639  0.1554  0.1314
 8639SOL    HW137553   0.816   1.276   4.956 -0.4498  2.1773 -0.1636
 8639SOL    HW237554   0.763   1.167   5.037 -1.3511 -0.2178  0.0896
 8640SOL     OW37555   0.474   0.389   7.885  0.2742 -0.0563 -0.4329
 8640SOL    HW137556   0.501   0.335   7.810  1.2542  2.2821 -1.7572
 8640SOL    HW237557   0.556   0.409   7.930  0.8197 -2.4906 -0.2956
 8641SOL     OW37558   2.345   2.574   4.366 -0.6652  0.1704  0.0317
 8641SOL    HW137559   2.428   2.571   4.319 -0.3749  1.7922  0.4366
 8641SOL    HW237560   2.342   2.488   4.408  0.7967  0.7093  1.2444
 8642SOL     OW37561   2.049   2.316   7.436  0.5704  0.9784 -0.2153
 8642SOL    HW137562   1.955   2.322   7.455  0.4783 -0.9205 -0.0445
 8642SOL    HW237563   2.047   2.251   7.366 -0.1568  1.4103 -0.5882
 8643SOL     OW37564   0.455   1.091   8.590 -0.1157 -0.2625  0.2953
 8643SOL    HW137565   0.443   1.113   8.682  0.7804  0.9414  0.1171
 8643SOL    HW237566   0.467   1.179   8.553  0.8901 -0.6257 -0.2247
 8644SOL     OW37567   4.014   1.328  17.038  0.4246  0.2009 -0.0767
 8644SOL    HW137568   3.923   1.345  17.013 -0.2055  0.5925  2.4990
 8644SOL    HW237569   4.059   1.340  16.955 -1.7432 -0.7366 -1.4018
 8645SOL     OW37570   1.524   1.269   3.300 -0.1785  0.0496 -0.1543
 8645SOL    HW137571   1.615   1.295   3.285  0.5660 -1.2850  2.0875
 8645SOL    HW237572   1.525   1.189   3.248  0.7253 -1.3360  2.0093
 8646SOL     OW37573   0.574   3.022   1.994 -0.1402 -0.5080  0.0960
 8646SOL    HW137574   0.596   2.957   1.928 -0.4108 -1.7545  1.2273
 8646SOL    HW237575   0.497   3.057   1.948  0.0964 -0.9807 -0.6517
 8647SOL     OW37576   2.185   1.899   4.907 -0.1509  0.0095  0.4420
 8647SOL    HW137577   2.247   1.830   4.930 -1.1758 -0.5855  1.4296
 8647SOL    HW237578   2.105   1.862   4.942 -0.6160  1.8908  1.3641
 8648SOL     OW37579   4.285   3.976   8.843 -0.0815  0.0896 -0.0781
 8648SOL    HW137580   4.206   4.030   8.848  0.1842  0.5450 -0.9115
 8648SOL    HW237581   4.243   3.894   8.818 -0.1035  0.0134  0.1999
 8649SOL     OW37582   3.493   4.539   9.165  0.3248 -0.2308  0.1437
 8649SOL    HW137583   3.440   4.511   9.090 -0.2990 -2.1039  1.2913
 8649SOL    HW237584   3.551   4.463   9.169 -0.1861 -0.6788 -0.7388
 8650SOL     OW37585   3.567   4.450   3.233 -0.3839 -0.0772  0.0256
 8650SOL    HW137586   3.629   4.404   3.176 -0.4498 -0.2468  0.0918
 8650SOL    HW237587   3.528   4.515   3.174 -0.0923  1.3492  1.4040
 8651SOL     OW37588   3.188   2.176   5.086  0.2511 -0.0282  0.0462
 8651SOL    HW137589   3.112   2.212   5.133 -0.7273 -1.3940 -0.5171
 8651SOL    HW237590   3.198   2.219   5.001  0.2166 -2.1003 -1.0114
 8652SOL     OW37591   0.291   0.332  13.056  0.2832 -0.2041 -0.4515
 8652SOL    HW137592   0.379   0.354  13.086  0.4624 -0.6895 -0.6358
 8652SOL    HW237593   0.295   0.378  12.972 -1.2464  1.7733  0.5421
 8653SOL     OW37594   0.830   2.793   7.220  0.5964  0.1327 -0.0336
 8653SOL    HW137595   0.826   2.887   7.236 -0.2486  0.2322 -0.8658
 8653SOL    HW237596   0.909   2.778   7.272 -0.2672 -0.3620  1.1338
 8654SOL     OW37597   3.474   3.008  16.677  0.1361  0.3910 -0.2248
 8654SOL    HW137598   3.385   2.992  16.645  0.5830 -0.5963 -0.9417
 8654SOL    HW237599   3.487   2.950  16.753 -1.2658 -0.8164 -0.9083
 8655SOL     OW37600   3.703   2.540   7.570  0.2193  0.4804  0.4366
 8655SOL    HW137601   3.686   2.497   7.486 -0.0431  2.2379 -0.3977
 8655SOL    HW237602   3.734   2.461   7.615  0.0039  1.6268  2.5597
 8656SOL     OW37603   3.497   3.014   6.774 -0.1457  0.3143 -0.3978
 8656SOL    HW137604   3.546   3.003   6.692  1.3326  3.0112  0.1347
 8656SOL    HW237605   3.498   3.108   6.789 -0.2445  0.2615 -0.0594
 8657SOL     OW37606   2.488   3.831   9.753 -0.3161  0.3222 -0.0490
 8657SOL    HW137607   2.449   3.868   9.832 -0.1718 -1.0185  0.6441
 8657SOL    HW237608   2.538   3.906   9.720  0.8973 -0.2809  0.4028
 8658SOL     OW37609   3.651   3.021   4.047  0.0259 -0.3855  0.1410
 8658SOL    HW137610   3.704   3.098   4.065 -1.6313  0.8170 -0.0884
 8658SOL    HW237611   3.702   2.945   4.020 -2.1660 -1.9373  0.3269
 8659SOL     OW37612   4.235   2.212  13.277 -0.1376 -0.3302  0.1137
 8659SOL    HW137613   4.284   2.194  13.358  0.3321  1.1588  0.1690
 8659SOL    HW237614   4.300   2.193  13.210  0.4334  0.7253  0.3562
 8660SOL     OW37615   0.508   3.754  16.608 -0.5130  0.2835  0.2553
 8660SOL    HW137616   0.539   3.664  16.619  0.7420  1.0798  3.1386
 8660SOL    HW237617   0.452   3.776  16.683  2.3659  2.1679  1.8559
 8661SOL     OW37618   1.285   1.163   0.146  0.1401 -0.0329  0.5285
 8661SOL    HW137619   1.320   1.077   0.170  1.0503 -0.1220 -1.0709
 8661SOL    HW237620   1.352   1.229   0.165  1.7684 -0.9259 -2.1171
 8662SOL     OW37621   2.782   3.949   3.298 -0.8295 -0.2075  0.1835
 8662SOL    HW137622   2.820   3.876   3.249 -1.7650 -0.9622  0.5884
 8662SOL    HW237623   2.789   4.032   3.251 -0.3776  0.0078  0.6326
 8663SOL     OW37624   1.005   2.795   5.284  0.1837  0.4959  0.2626
 8663SOL    HW137625   1.086   2.838   5.314 -0.1326  2.1213 -1.2310
 8663SOL    HW237626   1.043   2.734   5.221 -0.7834 -0.4525  0.6019
 8664SOL     OW37627   2.745   2.676   5.018 -0.9882  0.0065  0.3981
 8664SOL    HW137628   2.654   2.674   4.988 -1.2426  0.8985  1.1077
 8664SOL    HW237629   2.736   2.728   5.098  1.8688  1.0773  0.0054
 8665SOL     OW37630   0.119   1.440   7.500  0.1051 -0.5980 -0.1958
 8665SOL    HW137631   0.106   1.400   7.586  2.0723 -0.1956  0.2768
 8665SOL    HW237632   0.032   1.439   7.461 -0.1126 -0.3257  0.2783
 8666SOL     OW37633   3.270   1.968  16.806  0.6420  0.1027  0.1571
 8666SOL    HW137634   3.213   1.987  16.880  0.1141  0.6615 -0.3964
 8666SOL    HW237635   3.348   1.935  16.851 -0.5106 -2.3013  0.3729
 8667SOL     OW37636   4.553   0.520  14.618  0.2675  0.1652  0.4692
 8667SOL    HW137637   4.464   0.556  14.618  0.5448  0.8496  2.2384
 8667SOL    HW237638   4.587   0.566  14.541 -0.5426  0.1743  0.1215
 8668SOL     OW37639   1.685   0.357   2.179  0.5853 -0.5628 -0.2466
 8668SOL    HW137640   1.714   0.412   2.105  0.7531 -1.7595 -1.0634
 8668SOL    HW237641   1.599   0.401   2.176  0.3123 -0.8917  2.9211
 8669SOL     OW37642   3.869   1.534  16.815  0.3773 -0.8607 -0.6978
 8669SOL    HW137643   3.832   1.605  16.763 -3.0434 -2.7470 -0.8341
 8669SOL    HW237644   3.922   1.586  16.875 -0.6531  1.4028 -1.7709
 8670SOL     OW37645   3.158   2.494  14.069  0.2301  0.3164 -0.7374
 8670SOL    HW137646   3.076   2.510  14.022  0.1730 -1.3530 -1.2113
 8670SOL    HW237647   3.121   2.442  14.140  0.7211  0.7959 -0.1407
 8671SOL     OW37648   2.911   2.830   9.386  0.0400  0.4819 -0.2947
 8671SOL    HW137649   2.881   2.758   9.329 -2.3427  0.3611  1.1170
 8671SOL    HW237650   2.856   2.901   9.354 -1.0445 -0.9261 -1.5715
 8672SOL     OW37651   1.380   1.176   9.794  0.2646  0.6469  0.2360
 8672SOL    HW137652   1.316   1.246   9.788 -1.4622 -0.8036  1.8026
 8672SOL    HW237653   1.355   1.115   9.725  0.1804 -0.1123  0.9385
 8673SOL     OW37654   0.812   0.030   4.348 -0.0846 -1.0082  0.2316
 8673SOL    HW137655   0.760   0.005   4.425 -0.7077 -2.3074 -0.6052
 8673SOL    HW237656   0.883   0.084   4.382  0.5180 -1.5030 -0.2272
 8674SOL     OW37657   3.773   3.875   4.975  0.0516 -0.1070 -0.1289
 8674SOL    HW137658   3.839   3.807   4.982  0.6951  0.5531  0.2125
 8674SOL    HW237659   3.692   3.833   5.003 -0.1601  0.9307  0.8392
 8675SOL     OW37660   0.633   1.103   7.928 -0.2155  0.0872  0.3436
 8675SOL    HW137661   0.658   1.110   7.836  2.2183  2.5805  1.1884
 8675SOL    HW237662   0.720   1.119   7.964 -0.4349  0.1317  0.8501
 8676SOL     OW37663   2.713   4.499   3.357 -0.3841  0.1841  0.2293
 8676SOL    HW137664   2.746   4.507   3.447 -3.3242  0.0555  1.3121
 8676SOL    HW237665   2.708   4.594   3.345 -0.4220  0.2510  0.7593
 8677SOL     OW37666   0.976   3.716   4.065  0.5446 -0.2287 -0.2206
 8677SOL    HW137667   0.962   3.760   3.981  0.1112 -1.5277 -0.8299
 8677SOL    HW237668   0.950   3.629   4.033 -0.1558  0.3625 -1.2647
 8678SOL     OW37669   0.116   0.942   4.771 -0.1496 -0.2903  0.4407
 8678SOL    HW137670   0.047   0.886   4.807 -1.0746 -0.6346 -1.8171
 8678SOL    HW237671   0.102   0.925   4.678  0.2923 -1.5134  0.5957
 8679SOL     OW37672   2.284   3.635  13.572  0.1823  0.2231  0.0180
 8679SOL    HW137673   2.374   3.610  13.592 -0.6292  0.2522  3.6240
 8679SOL    HW237674   2.276   3.730  13.572  0.2375  0.2286 -0.2711
 8680SOL     OW37675   0.365   2.716   4.295 -0.1252  0.2737 -0.0528
 8680SOL    HW137676   0.310   2.794   4.299  0.5745  0.6690  1.7077
 8680SOL    HW237677   0.335   2.662   4.368  2.4906 -1.4778 -0.2821
 8681SOL     OW37678   0.853   3.149   9.321 -0.0240 -0.0649  0.1185
 8681SOL    HW137679   0.901   3.084   9.371  0.6132  0.7442  0.5551
 8681SOL    HW237680   0.782   3.172   9.381  1.2849 -1.7223  2.2971
 8682SOL     OW37681   3.107   2.990   3.040  0.3296 -0.0884  0.1653
 8682SOL    HW137682   3.133   2.950   2.957 -2.0238 -1.4800  0.0768
 8682SOL    HW237683   3.184   2.957   3.086  0.0174 -1.1092 -0.0400
 8683SOL     OW37684   0.828   0.490   1.789 -0.2555  0.2776  0.7979
 8683SOL    HW137685   0.904   0.434   1.773 -1.1669 -1.1207  1.4353
 8683SOL    HW237686   0.872   0.551   1.848  1.8237 -0.1536 -0.2872
 8684SOL     OW37687   2.544   3.561   9.811 -0.2953  0.1533  0.3282
 8684SOL    HW137688   2.466   3.539   9.862  0.7879  1.1418  2.4372
 8684SOL    HW237689   2.530   3.653   9.787 -0.1882 -0.0398 -0.4653
 8685SOL     OW37690   0.439   0.778   2.381 -0.2443 -0.5517 -0.6130
 8685SOL    HW137691   0.432   0.693   2.338 -1.4336 -1.6157  1.6922
 8685SOL    HW237692   0.411   0.831   2.306  0.0966  0.9387  0.3146
 8686SOL     OW37693   1.411   2.996   5.504 -0.2655 -0.0320  0.4479
 8686SOL    HW137694   1.458   3.074   5.533 -1.4321  0.4360  1.1114
 8686SOL    HW237695   1.462   2.922   5.536  1.6849  1.1372  0.0342
 8687SOL     OW37696   3.255   2.323   3.711  0.3559 -0.1094  0.7622
 8687SOL    HW137697   3.208   2.241   3.727  1.2302 -0.3186  2.2413
 8687SOL    HW237698   3.335   2.290   3.670 -0.2680 -1.5474  0.7114
 8688SOL     OW37699   0.047   3.946  13.003 -0.1666  0.3541  0.2761
 8688SOL    HW137700   4.712   3.888  12.977  0.2028 -0.5473  1.2599
 8688SOL    HW237701   0.020   4.020  12.949 -1.3553 -0.1261  0.2192
 8689SOL     OW37702   1.577   3.395  17.624 -0.1206  0.4186 -0.0117
 8689SOL    HW137703   1.578   3.480  17.666 -0.2990  0.1901  0.4606
 8689SOL    HW237704   1.503   3.420  17.568  1.1216  1.2896 -1.2381
 8690SOL     OW37705   4.453   1.335  16.939 -0.0152 -0.2032  0.4455
 8690SOL    HW137706   4.427   1.392  16.867 -0.5808  0.8205  1.4640
 8690SOL    HW237707   4.412   1.376  17.015 -0.4956  0.6929 -0.2964
 8691SOL     OW37708   0.720   0.118   7.465  0.6402  0.0735  0.1396
 8691SOL    HW137709   0.699   0.170   7.387 -4.5508 -0.0328  1.4162
 8691SOL    HW237710   0.639   0.124   7.516 -0.2886  2.2628 -1.5728
 8692SOL     OW37711   4.705   0.204   3.565 -0.3544 -0.0278 -0.1649
 8692SOL    HW137712   4.674   0.276   3.620 -1.0471  0.1883 -0.8368
 8692SOL    HW237713   4.650   0.210   3.487  0.1501 -3.7385 -0.8125
 8693SOL     OW37714   1.579   0.443   7.713  0.0393  0.4200  0.0446
 8693SOL    HW137715   1.653   0.476   7.762 -0.6576  0.3147  1.1579
 8693SOL    HW237716   1.619   0.407   7.634 -0.1041  0.9285 -0.2605
 8694SOL     OW37717   1.097   2.505  15.973 -0.2269  0.2610  0.0853
 8694SOL    HW137718   1.081   2.459  16.055 -1.7345 -1.2059 -1.0355
 8694SOL    HW237719   1.087   2.597  15.998 -0.4424 -0.2225  1.7697
 8695SOL     OW37720   3.914   4.164   5.133  0.1477 -0.0264 -0.3534
 8695SOL    HW137721   3.891   4.184   5.042  0.8941 -0.3840 -0.6181
 8695SOL    HW237722   3.922   4.069   5.137  3.0115  0.1955 -0.9143
 8696SOL     OW37723   2.708   0.500  10.258  0.1493 -0.4163 -0.1854
 8696SOL    HW137724   2.773   0.461  10.317  0.8784  0.4334 -0.4180
 8696SOL    HW237725   2.645   0.428  10.257 -1.5431  1.0280  0.9844
 8697SOL     OW37726   0.614   3.508  16.648  0.4263 -0.0949  0.1725
 8697SOL    HW137727   0.627   3.522  16.742 -0.2537 -1.2403  0.4348
 8697SOL    HW237728   0.705   3.486  16.627  0.4955  1.2354 -0.8711
 8698SOL     OW37729   2.007   0.289  11.008 -0.5250 -0.2252 -0.4632
 8698SOL    HW137730   2.026   0.354  11.075 -0.4768 -0.0587 -0.6397
 8698SOL    HW237731   1.933   0.256  11.058  0.9062 -1.0428  1.1263
 8699SOL     OW37732   1.294   0.371   3.026  0.6983  0.7087 -0.6803
 8699SOL    HW137733   1.328   0.460   3.021 -0.2181  1.1182  0.3601
 8699SOL    HW237734   1.324   0.350   3.114  0.9098 -1.1354 -1.1880
 8700SOL     OW37735   3.770   1.208   3.908  0.4123  0.2375 -0.3234
 8700SOL    HW137736   3.740   1.279   3.964  1.4464 -1.0965  1.9080
 8700SOL    HW237737   3.694   1.160   3.876  1.4571 -0.3804 -1.8913
 8701SOL     OW37738   2.981   0.750   5.068 -0.5997  0.1650  0.3908
 8701SOL    HW137739   3.022   0.754   4.982 -1.3767 -0.2240  0.0065
 8701SOL    HW237740   2.925   0.674   5.054 -0.3082 -0.7696  4.1969
 8702SOL     OW37741   3.069   2.593   3.296 -0.7546 -0.1885 -0.2171
 8702SOL    HW137742   3.035   2.582   3.206 -1.1289  1.0241 -0.2295
 8702SOL    HW237743   3.089   2.501   3.311 -0.8601 -0.3413 -0.9899
 8703SOL     OW37744   4.229   0.913  12.488  0.5985 -0.0190 -0.2929
 8703SOL    HW137745   4.134   0.903  12.476  0.6494  1.0721 -1.7272
 8703SOL    HW237746   4.239   0.881  12.577 -1.1416 -0.0402 -0.1016
 8704SOL     OW37747   3.349   2.665   8.195  0.7976  0.4060 -0.2561
 8704SOL    HW137748   3.303   2.719   8.132  0.0517  0.0759 -0.0024
 8704SOL    HW237749   3.439   2.677   8.165  0.5981 -0.4313 -1.1974
 8705SOL     OW37750   3.356   3.994  10.953 -0.1789 -0.4613  0.2338
 8705SOL    HW137751   3.355   3.899  10.939 -1.3670 -0.3585 -0.3792
 8705SOL    HW237752   3.364   3.998  11.049 -3.5325 -1.0355  0.5323
 8706SOL     OW37753   2.998   2.897   8.810  0.5922 -0.0193 -0.8096
 8706SOL    HW137754   3.069   2.936   8.861 -0.3456  1.7336 -0.8400
 8706SOL    HW237755   3.039   2.833   8.751  0.6226  0.8844 -1.7638
 8707SOL     OW37756   2.921   1.576   3.261 -0.0665  0.2740  0.2131
 8707SOL    HW137757   2.852   1.641   3.247 -1.3703 -0.7593  1.8776
 8707SOL    HW237758   2.985   1.615   3.321 -1.1326 -0.2405  1.6814
 8708SOL     OW37759   0.046   2.118  13.755  0.0397  0.5564  0.5101
 8708SOL    HW137760   0.023   2.211  13.763  0.7523  0.5352  2.6251
 8708SOL    HW237761   0.051   2.089  13.846  2.3380  2.6463  1.0448
 8709SOL     OW37762   3.809   4.316   3.926 -0.0944 -0.3186  0.3528
 8709SOL    HW137763   3.839   4.226   3.938  1.1185  0.2272  1.3630
 8709SOL    HW237764   3.824   4.352   4.013  1.3858 -0.1353  0.0106
 8710SOL     OW37765   0.247   0.768   2.583  0.1820 -0.9739 -0.0416
 8710SOL    HW137766   0.236   0.673   2.586  0.2613 -0.9758  0.1714
 8710SOL    HW237767   0.326   0.780   2.530 -0.7374  1.9417 -0.7051
 8711SOL     OW37768   0.704   2.819  14.128 -0.0870  0.4373 -0.1815
 8711SOL    HW137769   0.664   2.874  14.060 -0.7304  0.6069  0.3319
 8711SOL    HW237770   0.786   2.867  14.142  0.0689 -0.0737  0.6609
 8712SOL     OW37771   2.347   3.167   7.252  0.4637  0.2143 -0.0319
 8712SOL    HW137772   2.430   3.190   7.294  0.4446 -0.2359  0.2498
 8712SOL    HW237773   2.280   3.179   7.319 -2.1657  0.4842 -2.7186
 8713SOL     OW37774   0.624   0.827  11.044  0.3057 -0.4942 -0.0324
 8713SOL    HW137775   0.700   0.882  11.025 -0.7199  0.1747 -2.2629
 8713SOL    HW237776   0.577   0.893  11.094  1.4543  0.0209  0.3569
 8714SOL     OW37777   1.159   3.410   1.198 -0.0462  0.3037 -0.2734
 8714SOL    HW137778   1.170   3.493   1.152 -0.7405 -0.9468 -2.7037
 8714SOL    HW237779   1.074   3.380   1.165  0.4885  1.1701 -2.4332
 8715SOL     OW37780   3.457   1.580   4.961  0.4525  0.0903  0.3192
 8715SOL    HW137781   3.437   1.629   5.041 -2.2924 -1.4084  0.5482
 8715SOL    HW237782   3.443   1.490   4.988 -3.4452  0.6799  0.2669
 8716SOL     OW37783   4.195   3.307  15.082 -0.2624 -0.5982  0.2885
 8716SOL    HW137784   4.207   3.396  15.116 -1.4170 -0.1642 -0.4440
 8716SOL    HW237785   4.284   3.278  15.066 -0.2475 -0.6119  0.3924
 8717SOL     OW37786   3.857   1.055   8.538  0.1327  0.1458  0.5596
 8717SOL    HW137787   3.780   1.029   8.487  1.3594 -2.2041 -0.1019
 8717SOL    HW237788   3.920   0.985   8.518  1.5560  0.3157  4.5236
 8718SOL     OW37789   2.961   4.625   8.600  0.0949  0.6656 -0.0526
 8718SOL    HW137790   2.922   4.538   8.591 -0.6351  0.7623  2.3982
 8718SOL    HW237791   2.998   4.635   8.512 -0.1260 -0.8992 -0.3108
 8719SOL     OW37792   0.024   3.887   5.941  0.8624  0.6321 -0.4722
 8719SOL    HW137793   0.040   3.864   5.849 -1.7248  0.6057 -0.9303
 8719SOL    HW237794   4.720   3.804   5.967 -0.8240  1.3118 -0.9412
 8720SOL     OW37795   4.019   1.883   3.257  0.5042 -0.1342  0.2718
 8720SOL    HW137796   3.935   1.844   3.283 -1.2885  2.3005 -1.9239
 8720SOL    HW237797   3.987   1.970   3.234  0.6868  0.1318  1.0095
 8721SOL     OW37798   3.138   1.789   7.635 -0.1961 -0.3016  0.4239
 8721SOL    HW137799   3.209   1.849   7.657  0.5092 -1.3034  0.9228
 8721SOL    HW237800   3.113   1.817   7.547 -0.5588 -0.3880  0.5020
 8722SOL     OW37801   3.031   2.726   7.404 -0.1047 -0.1688 -0.2204
 8722SOL    HW137802   2.941   2.708   7.377  0.3846 -2.1756 -0.5297
 8722SOL    HW237803   3.067   2.790   7.342 -1.1516  0.9854  0.3889
 8723SOL     OW37804   4.211   4.299   2.523 -0.3410  0.4727  0.4330
 8723SOL    HW137805   4.250   4.386   2.515 -2.8171  1.5599 -0.0322
 8723SOL    HW237806   4.289   4.244   2.518 -0.3307  0.2666  2.6576
 8724SOL     OW37807   2.775   0.601   1.237  0.2788 -0.3671 -0.0018
 8724SOL    HW137808   2.684   0.608   1.266 -1.2429 -2.2662 -4.2296
 8724SOL    HW237809   2.804   0.692   1.238 -3.1334  0.7416 -0.2734
 8725SOL     OW37810   0.275   4.012   8.399  0.6260 -0.3723 -0.1861
 8725SOL    HW137811   0.269   4.103   8.429  1.7476 -0.2158 -0.4705
 8725SOL    HW237812   0.355   3.973   8.433  1.3259  2.2008  1.1245
 8726SOL     OW37813   4.550   4.467   6.509  0.2721 -0.3121 -0.5312
 8726SOL    HW137814   4.509   4.380   6.514 -0.6372  0.1091 -0.6703
 8726SOL    HW237815   4.476   4.526   6.498  0.1626  0.0870  2.4366
 8727SOL     OW37816   4.736   3.449   6.966  0.9318  0.0569  0.1355
 8727SOL    HW137817   4.715   3.542   6.961 -0.7742 -0.2540  1.4318
 8727SOL    HW237818   4.668   3.421   7.028 -1.1231  1.4072 -1.5125
 8728SOL     OW37819   2.324   2.071  16.882  0.0946 -0.5186  0.4797
 8728SOL    HW137820   2.388   2.081  16.811 -0.9078 -2.3245 -0.6831
 8728SOL    HW237821   2.276   2.153  16.871  1.0931  0.2340  1.8458
 8729SOL     OW37822   4.634   4.272   3.804  0.4315  0.2002  0.4742
 8729SOL    HW137823   4.557   4.326   3.786  0.0059  0.3870  2.8378
 8729SOL    HW237824   4.706   4.333   3.785  0.9035 -0.1740  1.0813
 8730SOL     OW37825   3.272   4.670   1.947 -0.0320 -0.3728  0.4242
 8730SOL    HW137826   3.368   4.674   1.937  0.0835  0.1403  1.7469
 8730SOL    HW237827   3.241   4.698   1.860  1.3224 -2.0504 -0.5965
 8731SOL     OW37828   4.577   1.414   2.209  0.1465  0.6108  0.5695
 8731SOL    HW137829   4.510   1.481   2.201 -0.2814  0.0374 -0.5171
 8731SOL    HW237830   4.620   1.418   2.124  0.5269 -2.2786  0.6430
 8732SOL     OW37831   1.893   0.574   7.728  0.1997  0.6066 -0.0874
 8732SOL    HW137832   1.974   0.523   7.731 -0.1719 -0.1011 -1.9396
 8732SOL    HW237833   1.863   0.540   7.644  2.1842  0.9104 -0.9354
 8733SOL     OW37834   4.141   0.740   3.845 -0.6105 -0.0431  0.2518
 8733SOL    HW137835   4.138   0.822   3.894  1.0325  1.1567 -1.6751
 8733SOL    HW237836   4.139   0.680   3.919 -2.7955  0.6459  0.7697
 8734SOL     OW37837   1.676   1.819   6.917  0.4516  0.1092  0.0617
 8734SOL    HW137838   1.679   1.760   6.993  2.8003  0.7084  0.4127
 8734SOL    HW237839   1.598   1.874   6.928  1.0313  1.4445 -2.5468
 8735SOL     OW37840   2.458   1.126   2.713 -0.4375  0.1649  0.5715
 8735SOL    HW137841   2.442   1.081   2.630 -0.0495 -0.7202  0.9774
 8735SOL    HW237842   2.438   1.219   2.699  0.9420  0.4916  0.8251
 8736SOL     OW37843   1.901   1.913   0.797 -0.4618 -0.3582 -0.1544
 8736SOL    HW137844   1.943   1.863   0.867  1.0637  1.6374  0.3217
 8736SOL    HW237845   1.867   1.990   0.841 -1.2560 -1.2289  0.7516
 8737SOL     OW37846   4.506   4.378   4.897 -0.2282  0.4118  0.0516
 8737SOL    HW137847   4.524   4.448   4.959 -1.6190  0.1044  0.8150
 8737SOL    HW237848   4.591   4.364   4.854 -0.5224 -0.5250 -0.2382
 8738SOL     OW37849   2.083   3.585   3.207  0.4760 -0.0044 -0.4039
 8738SOL    HW137850   2.145   3.524   3.168  0.2772  0.6196 -1.7054
 8738SOL    HW237851   2.136   3.615   3.280 -1.5740  1.4776  0.4877
 8739SOL     OW37852   4.037   3.476   1.364 -0.3941 -0.1385 -0.5310
 8739SOL    HW137853   4.069   3.534   1.295  0.7052  0.3096  0.3355
 8739SOL    HW237854   3.942   3.485   1.363 -0.1918  2.1109  0.4994
 8740SOL     OW37855   2.594   1.817  16.888 -0.1776  0.0826 -0.1338
 8740SOL    HW137856   2.639   1.844  16.808 -0.0231  1.2304  0.3458
 8740SOL    HW237857   2.633   1.881  16.948  0.0905 -1.8046  1.7220
 8741SOL     OW37858   2.973   1.821   8.915  0.0189  0.5719 -0.1028
 8741SOL    HW137859   3.046   1.763   8.893 -1.3013 -1.1753  0.1545
 8741SOL    HW237860   2.909   1.773   8.863  1.5601 -0.7256 -0.7979
 8742SOL     OW37861   0.056   3.822   2.826 -0.3491 -0.1898 -0.3141
 8742SOL    HW137862   4.712   3.843   2.780  0.6814 -1.5884 -2.7487
 8742SOL    HW237863   0.027   3.781   2.908 -2.3527 -0.5560 -1.2145
 8743SOL     OW37864   0.665   2.493   0.769  0.6328  0.2565 -0.2196
 8743SOL    HW137865   0.746   2.469   0.814  0.0186  0.3681  0.9471
 8743SOL    HW237866   0.699   2.525   0.686 -1.3125 -3.2641 -2.4038
 8744SOL     OW37867   0.794   0.056   4.868 -0.4154  0.8937 -0.3141
 8744SOL    HW137868   0.847   0.001   4.811 -1.5755  0.5999 -1.1033
 8744SOL    HW237869   0.820   0.143   4.838 -0.3010  0.7987 -0.4931
 8745SOL     OW37870   3.954   4.660   7.828  0.1263 -0.2885  0.2131
 8745SOL    HW137871   3.896   4.585   7.843  1.5059 -1.2480  0.7339
 8745SOL    HW237872   3.899   0.001   7.818 -0.8154 -0.8475  1.0599
 8746SOL     OW37873   2.712   4.316   9.680 -0.4849 -0.5396 -0.1563
 8746SOL    HW137874   2.788   4.373   9.682 -1.8572  1.2865  0.0590
 8746SOL    HW237875   2.660   4.362   9.614  0.4475  1.6809  0.6568
 8747SOL     OW37876   1.557   0.552   4.932 -0.1988 -0.5235 -0.1155
 8747SOL    HW137877   1.555   0.457   4.945 -1.0227 -0.3881  0.7922
 8747SOL    HW237878   1.606   0.560   4.850 -0.0779  1.7219  0.1653
 8748SOL     OW37879   2.168   4.366   4.890  0.1250  0.1974 -0.5343
 8748SOL    HW137880   2.251   4.408   4.911 -0.3435  0.6589  0.3889
 8748SOL    HW237881   2.192   4.337   4.802  1.3098 -1.5253  0.3538
 8749SOL     OW37882   0.881   2.947   8.892  0.3010 -0.6470 -0.1315
 8749SOL    HW137883   0.812   2.890   8.859 -2.3680  1.1175  2.4580
 8749SOL    HW237884   0.844   2.985   8.972 -0.9038  0.4594 -1.2027
 8750SOL     OW37885   2.445   2.450   7.895  0.2263 -0.0245  0.1630
 8750SOL    HW137886   2.370   2.395   7.914  1.0391 -0.5175  1.8870
 8750SOL    HW237887   2.491   2.375   7.858 -2.1827 -2.6264  2.5098
 8751SOL     OW37888   2.910   0.160   7.299 -0.1026  0.3155 -0.6889
 8751SOL    HW137889   2.859   0.138   7.378 -1.1039  1.7405 -0.9471
 8751SOL    HW237890   2.844   0.140   7.234 -0.3316  0.8684 -0.6205
 8752SOL     OW37891   2.645   0.984   3.597  0.1298 -0.5938  0.0578
 8752SOL    HW137892   2.720   1.043   3.605 -0.0010 -0.5608  1.1726
 8752SOL    HW237893   2.688   0.919   3.542  0.2159 -1.4882  1.1868
 8753SOL     OW37894   4.561   4.459   8.335 -0.5421  0.0404 -0.0541
 8753SOL    HW137895   4.642   4.470   8.385 -0.4198  1.1824 -0.5102
 8753SOL    HW237896   4.512   4.433   8.414  2.2100 -1.7079  1.0666
 8754SOL     OW37897   4.280   2.196   6.037  0.1449 -0.0307  0.4750
 8754SOL    HW137898   4.338   2.254   6.085 -0.4537  0.9637 -0.0041
 8754SOL    HW237899   4.197   2.229   6.071  1.3282  2.3362  1.0405
 8755SOL     OW37900   4.298   4.709   1.902  0.1521  0.3188 -0.2124
 8755SOL    HW137901   4.231   4.641   1.911 -0.5472  0.9548 -0.6249
 8755SOL    HW237902   4.286   0.000   1.811  0.4035  1.1785  0.0242
 8756SOL     OW37903   0.256   4.515   1.210 -0.0319 -0.1146  0.1547
 8756SOL    HW137904   0.249   4.603   1.173  0.8562 -0.1674 -0.1249
 8756SOL    HW237905   0.185   4.486   1.152 -0.3711 -1.7763  1.3882
 8757SOL     OW37906   2.888   0.957   0.622 -0.6729 -0.2753  0.5377
 8757SOL    HW137907   2.969   0.999   0.591 -0.1441 -0.0361  2.2438
 8757SOL    HW237908   2.816   1.005   0.581 -1.4043 -0.7636  1.2573
 8758SOL     OW37909   0.976   4.024   7.616 -0.0655 -0.6453  1.4141
 8758SOL    HW137910   0.983   4.027   7.521  0.5402 -1.0937  1.4496
 8758SOL    HW237911   1.046   4.081   7.648  0.2740 -0.8132  0.9681
 8759SOL     OW37912   0.773   4.578  16.026  0.2415 -0.5465 -0.3323
 8759SOL    HW137913   0.749   4.551  16.114 -1.5053  0.3751 -0.5200
 8759SOL    HW237914   0.697   4.552  15.974 -0.2587 -1.6987  1.0084
 8760SOL     OW37915   1.239   0.625   0.652 -0.7927 -0.0759  0.0428
 8760SOL    HW137916   1.285   0.543   0.638 -0.5742  0.1716 -0.6632
 8760SOL    HW237917   1.212   0.668   0.571 -0.6727 -1.5038 -0.7454
 8761SOL     OW37918   4.408   1.183   4.111  0.5293  0.3917 -0.4518
 8761SOL    HW137919   4.471   1.230   4.057  0.1927  0.4575 -0.7834
 8761SOL    HW237920   4.470   1.153   4.179 -0.1732  0.7693  0.3508
 8762SOL     OW37921   4.534   3.874   5.000 -0.4468 -0.3406 -0.3951
 8762SOL    HW137922   4.607   3.929   4.972 -0.3462  0.0961  0.7065
 8762SOL    HW237923   4.552   3.837   5.086  0.1703 -0.3685 -0.5378
 8763SOL     OW37924   3.943   1.076   5.486 -0.6411 -0.0649  0.2004
 8763SOL    HW137925   3.951   0.993   5.439 -0.0904 -0.3114  0.7277
 8763SOL    HW237926   3.848   1.085   5.492 -0.6954  0.2911 -1.0072
 8764SOL     OW37927   3.879   4.027  15.765 -0.1971  0.1051  0.3940
 8764SOL    HW137928   3.930   4.108  15.769  1.0962 -0.8764  3.5311
 8764SOL    HW237929   3.868   4.031  15.670 -2.1826 -1.9503  0.5404
 8765SOL     OW37930   1.250   2.265  16.930  0.4499  0.4733  0.1533
 8765SOL    HW137931   1.307   2.286  17.004 -1.4852  0.0814  1.7518
 8765SOL    HW237932   1.163   2.247  16.965  0.9248 -0.2250  0.9723
 8766SOL     OW37933   1.676   3.518  15.512  0.1735  0.7111 -0.4027
 8766SOL    HW137934   1.687   3.445  15.451  1.6308  0.1853  0.4813
 8766SOL    HW237935   1.749   3.573  15.483  0.5271  0.1672 -0.5439
 8767SOL     OW37936   0.844   3.751   5.156 -0.4610 -0.1641  0.2724
 8767SOL    HW137937   0.932   3.784   5.138  0.8526 -3.4535  0.7270
 8767SOL    HW237938   0.832   3.659   5.131  0.4414 -0.5890  1.4511
 8768SOL     OW37939   1.518   2.971   8.654  0.3301 -0.4799  0.0145
 8768SOL    HW137940   1.428   2.996   8.673  0.0407 -0.1219 -1.9263
 8768SOL    HW237941   1.522   2.896   8.713 -0.6338 -0.3011  0.2939
 8769SOL     OW37942   0.401   2.896  16.115  0.7790 -0.1019  0.4521
 8769SOL    HW137943   0.331   2.862  16.061 -0.9033  1.1168  1.8584
 8769SOL    HW237944   0.438   2.970  16.067  1.1699 -1.5711 -1.5003
 8770SOL     OW37945   3.650   0.670   2.055  0.3884 -0.2263 -0.2346
 8770SOL    HW137946   3.709   0.689   1.982 -0.5522  1.2909 -0.5925
 8770SOL    HW237947   3.570   0.647   2.008  2.7595 -0.5300 -4.1408
 8771SOL     OW37948   1.128   1.474  17.542  0.1293  0.2959 -0.0578
 8771SOL    HW137949   1.146   1.480  17.636  1.3645 -0.1386 -0.2624
 8771SOL    HW237950   1.081   1.555  17.523 -1.3955 -0.2788  1.2016
 8772SOL     OW37951   0.696   4.635   1.637  0.9121 -0.2781 -0.2363
 8772SOL    HW137952   0.664   4.719   1.604 -0.1147 -1.2032 -1.6105
 8772SOL    HW237953   0.610   4.593   1.637  0.1053  1.3876  0.6015
 8773SOL     OW37954   4.134   4.650  12.640 -0.0828 -0.5510  0.2218
 8773SOL    HW137955   4.152   4.720  12.578 -0.1576  0.5278  1.4263
 8773SOL    HW237956   4.162   4.681  12.725  0.5592 -1.2828  0.2725
 8774SOL     OW37957   1.779   2.374   7.944 -0.2737 -0.6494 -0.4417
 8774SOL    HW137958   1.850   2.312   7.927 -0.0001 -0.1304 -1.2180
 8774SOL    HW237959   1.737   2.321   8.011  1.0922 -1.9448 -0.6220
 8775SOL     OW37960   4.708   1.385   4.761 -0.2244  0.4084  0.2436
 8775SOL    HW137961   4.678   1.448   4.695  1.0360  0.5885 -0.1473
 8775SOL    HW237962   0.054   1.410   4.801 -0.5087 -0.2968  1.2850
 8776SOL     OW37963   3.786   1.510   2.569  0.1514 -0.0930 -0.0532
 8776SOL    HW137964   3.708   1.518   2.623  0.3220 -0.8313  0.2973
 8776SOL    HW237965   3.757   1.435   2.518 -0.2341  0.6516 -0.9369
 8777SOL     OW37966   4.722   4.476  14.620 -0.0788 -0.6527 -0.3071
 8777SOL    HW137967   4.734   4.571  14.612  0.1504 -0.4493  2.3318
 8777SOL    HW237968   0.056   4.457  14.681  0.8949  0.2097 -1.1581
 8778SOL     OW37969   1.978   2.740   3.969 -0.4325  0.1768 -0.4244
 8778SOL    HW137970   2.041   2.668   3.970 -0.6372  0.0251  0.8901
 8778SOL    HW237971   1.979   2.750   3.873  3.3005 -1.7946 -0.5850
 8779SOL     OW37972   0.368   4.262   5.047 -0.5881  0.2873 -0.2196
 8779SOL    HW137973   0.292   4.206   5.064 -1.6665  1.3482 -1.6249
 8779SOL    HW237974   0.346   4.355   5.042 -1.5765  0.0015 -1.0385
 8780SOL     OW37975   4.206   3.738   8.119 -0.1173 -0.0344  0.0210
 8780SOL    HW137976   4.300   3.757   8.120 -0.0201 -0.5249  0.4778
 8780SOL    HW237977   4.192   3.709   8.028  1.3610 -0.4254 -0.0909
 8781SOL     OW37978   3.082   4.199   8.075 -0.8845 -0.5620  0.1527
 8781SOL    HW137979   3.047   4.128   8.022  0.0836  0.7724 -2.2716
 8781SOL    HW237980   3.041   4.278   8.041  2.2295  0.9370 -0.1307
 8782SOL     OW37981   3.618   2.767   9.205 -0.0144  0.9668  0.2926
 8782SOL    HW137982   3.647   2.841   9.260  1.3346 -0.0913  1.0067
 8782SOL    HW237983   3.528   2.760   9.238  0.2060  0.3933  0.7806
 8783SOL     OW37984   2.670   4.130   6.492 -0.0367  0.0672 -0.0452
 8783SOL    HW137985   2.746   4.080   6.464  0.2655  0.3765  0.2320
 8783SOL    HW237986   2.623   4.061   6.540  3.5350 -2.2603  0.0476
 8784SOL     OW37987   1.890   3.237   3.155 -0.1103  0.2385 -0.1286
 8784SOL    HW137988   1.976   3.199   3.174 -0.3555 -0.8031 -1.1291
 8784SOL    HW237989   1.900   3.280   3.070  0.2764 -0.3410 -0.3788
 8785SOL     OW37990   1.348   4.396   0.962  0.8471  0.1438  0.0228
 8785SOL    HW137991   1.366   4.307   0.993 -2.1993  0.0723  1.6047
 8785SOL    HW237992   1.433   4.426   0.931  0.5321 -0.1216 -1.1083
 8786SOL     OW37993   0.392   2.404   6.752  1.1583 -0.4174 -0.1843
 8786SOL    HW137994   0.423   2.314   6.740  3.3744  0.4219 -0.7232
 8786SOL    HW237995   0.334   2.394   6.827  3.7768  0.4010  1.9591
 8787SOL     OW37996   1.269   1.452   3.937 -0.5827  0.1480  0.3000
 8787SOL    HW137997   1.176   1.447   3.914 -0.3338  1.1826 -0.9009
 8787SOL    HW237998   1.309   1.412   3.860 -2.8381  0.0535 -0.8164
 8788SOL     OW37999   0.693   1.063  14.883 -0.0909  0.3830 -0.1553
 8788SOL    HW138000   0.704   1.125  14.811 -1.1788 -0.4973 -1.0924
 8788SOL    HW238001   0.782   1.055  14.917 -0.9288  0.5302  2.0656
 8789SOL     OW38002   2.256   3.796   6.342  0.5003  0.8421 -0.2624
 8789SOL    HW138003   2.319   3.815   6.273  0.8620 -1.5815 -0.5958
 8789SOL    HW238004   2.209   3.723   6.300 -0.4606  0.1305  1.9972
 8790SOL     OW38005   3.356   3.280   0.953 -0.4747  0.1610 -0.1322
 8790SOL    HW138006   3.373   3.229   0.873 -0.0761 -1.3343  0.8943
 8790SOL    HW238007   3.262   3.262   0.952 -0.1463 -1.4726 -1.5508
 8791SOL     OW38008   1.422   1.326   1.662 -0.5638 -0.4550  0.0135
 8791SOL    HW138009   1.502   1.310   1.712  0.9394  0.7871 -2.0603
 8791SOL    HW238010   1.356   1.317   1.732 -0.9285 -1.3081 -0.4403
 8792SOL     OW38011   0.963   3.496   6.630 -0.1297  0.2105 -0.3089
 8792SOL    HW138012   0.947   3.417   6.682  0.9541 -0.4269 -0.9423
 8792SOL    HW238013   0.899   3.555   6.668  0.2931 -0.0347  0.7763
 8793SOL     OW38014   4.258   3.389   9.450  0.2646 -0.5115  0.2971
 8793SOL    HW138015   4.171   3.388   9.490  0.5519  1.7369  0.9357
 8793SOL    HW238016   4.261   3.472   9.403  2.8714  0.4648  2.1737
 8794SOL     OW38017   2.268   3.620   9.123 -0.5600 -0.4720  0.4917
 8794SOL    HW138018   2.282   3.620   9.028  1.2393  0.6081  0.7501
 8794SOL    HW238019   2.202   3.686   9.142  0.7026  0.7616  0.6780
 8795SOL     OW38020   4.564   3.709   6.674  0.6970  0.0789 -0.6606
 8795SOL    HW138021   4.652   3.741   6.655  1.9533 -2.1115  1.4522
 8795SOL    HW238022   4.581   3.618   6.648 -0.7934 -0.4138  0.0872
 8796SOL     OW38023   1.644   2.668  14.371  0.1181  1.0890 -0.2337
 8796SOL    HW138024   1.551   2.685  14.357 -0.7559 -0.8813  2.9303
 8796SOL    HW238025   1.646   2.635  14.461 -1.3292  1.7355  0.0390
 8797SOL     OW38026   3.335   3.615  16.144 -0.1963 -0.8425 -0.8902
 8797SOL    HW138027   3.422   3.654  16.149 -0.1807 -0.6518 -2.6582
 8797SOL    HW238028   3.287   3.691  16.176 -0.5979 -1.4582 -0.0286
 8798SOL     OW38029   2.154   3.332   8.086 -0.3820 -0.4146  0.4725
 8798SOL    HW138030   2.191   3.411   8.047  0.6987 -1.0881  0.1400
 8798SOL    HW238031   2.083   3.317   8.024  0.2668  2.7263 -1.0007
 8799SOL     OW38032   1.245   2.443  15.745 -0.5009  0.0674 -0.3376
 8799SOL    HW138033   1.219   2.520  15.695 -3.5035  0.7417  2.2265
 8799SOL    HW238034   1.207   2.459  15.832  0.1046  0.5593 -0.1623
 8800SOL     OW38035   0.512   4.149  10.430  0.7326 -0.2299 -0.1415
 8800SOL    HW138036   0.582   4.204  10.464  0.4915 -0.0841  0.1243
 8800SOL    HW238037   0.454   4.149  10.506  2.5873  0.6817  1.2659
 8801SOL     OW38038   3.948   4.276   8.260 -0.0366  0.1422  0.2848
 8801SOL    HW138039   4.030   4.230   8.239  0.0534 -0.0221  1.0157
 8801SOL    HW238040   3.887   4.256   8.189  0.6591  1.0588 -0.5691
 8802SOL     OW38041   0.019   2.844  13.559  0.1274  0.6095 -0.5906
 8802SOL    HW138042   4.706   2.816  13.636  1.7268  0.1300  0.2573
 8802SOL    HW238043   0.012   2.764  13.506 -1.8787  3.2442 -4.3839
 8803SOL     OW38044   3.221   3.135  16.050  0.5183  0.1047 -0.0292
 8803SOL    HW138045   3.314   3.148  16.031  0.4333  1.3128  0.3690
 8803SOL    HW238046   3.193   3.227  16.054  1.5219  0.4577 -0.8190
 8804SOL     OW38047   3.101   2.322   3.347 -0.3029  0.2014 -0.4723
 8804SOL    HW138048   3.057   2.285   3.423 -1.8518  0.3825 -1.2922
 8804SOL    HW238049   3.180   2.272   3.328 -0.9597 -0.1007 -2.4574
 8805SOL     OW38050   2.299   1.960  13.640  0.3428  0.7840 -0.8047
 8805SOL    HW138051   2.306   1.871  13.605  1.7245  0.2861  0.7370
 8805SOL    HW238052   2.273   1.949  13.731 -0.1307 -0.1307 -1.0435
 8806SOL     OW38053   3.379   3.557   4.124 -0.3567 -0.4171 -0.0985
 8806SOL    HW138054   3.470   3.554   4.094 -0.9250  1.5972 -2.0050
 8806SOL    HW238055   3.335   3.589   4.045 -2.3451  2.1561  2.0608
 8807SOL     OW38056   3.270   2.126   3.262  0.3308 -0.7941 -0.5400
 8807SOL    HW138057   3.211   2.092   3.195 -1.7218 -0.0678  0.8593
 8807SOL    HW238058   3.340   2.064   3.242  2.2907  1.1560  0.2237
 8808SOL     OW38059   3.170   0.912   3.390 -0.2745  0.3547  0.6847
 8808SOL    HW138060   3.212   0.848   3.332 -2.7464 -0.5464 -0.1250
 8808SOL    HW238061   3.219   0.993   3.380 -0.9288  1.0022  2.6580
 8809SOL     OW38062   4.580   4.205  13.103  0.2266  0.6606 -0.1352
 8809SOL    HW138063   4.666   4.216  13.063 -0.6306  2.4295 -1.4839
 8809SOL    HW238064   4.518   4.194  13.031 -1.2948 -0.7716  1.3987
 8810SOL     OW38065   4.014   4.547  11.770 -0.1705  0.1692  0.0682
 8810SOL    HW138066   4.105   4.575  11.782 -0.6746  0.7115  2.5686
 8810SOL    HW238067   4.024   4.498  11.688 -0.4283 -0.5845  0.4924
 8811SOL     OW38068   1.792   0.608   0.583  0.3522  0.5152 -0.2914
 8811SOL    HW138069   1.733   0.682   0.591  1.9494  1.7042  0.4006
 8811SOL    HW238070   1.750   0.553   0.517  0.4386  0.0301  0.0575
 8812SOL     OW38071   0.747   2.189   7.373  0.1634 -0.6988 -0.0186
 8812SOL    HW138072   0.738   2.189   7.469 -1.6040 -2.2325 -0.1751
 8812SOL    HW238073   0.838   2.162   7.362  0.7291  1.6184 -0.8994
 8813SOL     OW38074   3.010   4.432   1.255  0.0197 -0.3893  0.1013
 8813SOL    HW138075   3.102   4.452   1.271 -0.0831 -1.2379  1.7867
 8813SOL    HW238076   3.031   4.352   1.206  1.1786 -0.1136  0.1488
 8814SOL     OW38077   4.440   4.534   5.831 -0.3846 -0.2172  0.0125
 8814SOL    HW138078   4.435   4.466   5.898  0.5474 -0.1133  0.1926
 8814SOL    HW238079   4.406   4.496   5.750 -3.3581  1.6542  0.3966
 8815SOL     OW38080   2.944   0.776  17.463 -0.3305  0.0778 -0.2463
 8815SOL    HW138081   2.856   0.739  17.460 -0.2285 -0.3048  1.4602
 8815SOL    HW238082   2.916   0.867  17.453  0.0342 -0.0036 -1.8754
 8816SOL     OW38083   3.668   0.817   4.687  0.0900 -0.1345 -0.1848
 8816SOL    HW138084   3.622   0.887   4.732 -0.3518  0.6902 -1.9379
 8816SOL    HW238085   3.675   0.848   4.597 -3.7634 -2.0426 -1.1532
 8817SOL     OW38086   1.483   0.885   7.646 -0.0240 -0.2554 -0.0523
 8817SOL    HW138087   1.472   0.809   7.703  2.2041  0.5290  1.4692
 8817SOL    HW238088   1.572   0.914   7.669  0.6530 -2.3026 -0.1247
 8818SOL     OW38089   1.197   2.751   2.603  0.4487 -0.5204 -0.3056
 8818SOL    HW138090   1.154   2.830   2.569 -0.0543 -0.6183  0.0908
 8818SOL    HW238091   1.122   2.728   2.659  1.2645 -1.4519  0.3945
 8819SOL     OW38092   1.578   2.349  14.351 -0.3370  0.4695  0.3561
 8819SOL    HW138093   1.500   2.377  14.303 -0.3858  0.0994  0.2186
 8819SOL    HW238094   1.634   2.426  14.338 -2.8109  2.2966  0.5965
 8820SOL     OW38095   0.543   0.576   5.293  0.6680  0.0450 -0.6008
 8820SOL    HW138096   0.543   0.511   5.363  0.4296  1.3350  0.6086
 8820SOL    HW238097   0.508   0.648   5.345  0.8892  1.0848 -1.8876
 8821SOL     OW38098   0.492   1.038  14.472  0.1572  0.4072  0.0648
 8821SOL    HW138099   0.449   1.085  14.543 -1.7676 -2.5286  0.7974
 8821SOL    HW238100   0.427   1.040  14.401  2.4751 -2.6465 -2.1093
 8822SOL     OW38101   3.762   4.370   5.985  0.2145 -0.3357 -0.6661
 8822SOL    HW138102   3.780   4.439   6.049 -1.7341 -1.9702  1.6427
 8822SOL    HW238103   3.672   4.395   5.962  0.2478  2.8664  2.6199
 8823SOL     OW38104   0.153   0.995   8.644  0.2685 -0.1456  0.6916
 8823SOL    HW138105   0.195   0.977   8.728  0.7803  0.4383  0.5519
 8823SOL    HW238106   0.217   1.045   8.594  1.6378 -0.4312  2.1844
 8824SOL     OW38107   4.072   3.787   7.609  0.1146  0.1240 -0.1360
 8824SOL    HW138108   4.082   3.733   7.531  1.8219 -1.5877  1.2698
 8824SOL    HW238109   3.976   3.784   7.607  0.1587 -0.5896 -1.1465
 8825SOL     OW38110   0.712   2.834   7.853 -0.2805  0.2673 -0.3849
 8825SOL    HW138111   0.764   2.844   7.932  0.0444 -0.0107 -0.5627
 8825SOL    HW238112   0.624   2.856   7.885  0.7953  0.0576  2.7492
 8826SOL     OW38113   2.858   3.518   5.962  0.7511  0.2220  0.2649
 8826SOL    HW138114   2.892   3.507   6.050  0.8900 -1.9349 -0.0610
 8826SOL    HW238115   2.862   3.430   5.926  0.9636  0.1176  0.5459
 8827SOL     OW38116   0.035   1.170   2.026 -0.3478  0.9613  0.7315
 8827SOL    HW138117   0.004   1.079   2.028  1.6056  0.2639 -1.3706
 8827SOL    HW238118   4.710   1.216   1.969 -0.5145  0.1104  0.2236
 8828SOL     OW38119   3.614   3.110   5.403  0.0152  0.0670 -0.2366
 8828SOL    HW138120   3.569   3.193   5.387 -2.2646 -0.9670  0.7622
 8828SOL    HW238121   3.669   3.126   5.479  0.0848  1.2972 -0.5376
 8829SOL     OW38122   2.840   3.704   6.783  0.0553 -0.1677 -0.4089
 8829SOL    HW138123   2.928   3.696   6.747 -0.1257 -1.3189 -0.6080
 8829SOL    HW238124   2.805   3.625   6.741  1.0566 -1.1452  0.5648
 8830SOL     OW38125   0.372   2.405   7.883  0.2070 -0.2726  0.0876
 8830SOL    HW138126   0.422   2.479   7.849  0.7301 -0.4446  0.4812
 8830SOL    HW238127   0.289   2.414   7.836 -0.9647 -1.1001  2.0052
 8831SOL     OW38128   4.097   1.007   2.068  0.2904 -0.3127  0.1919
 8831SOL    HW138129   4.162   1.012   1.998  0.6122  0.0792  0.5161
 8831SOL    HW238130   4.137   1.078   2.120  1.4494  0.8033 -2.2386
 8832SOL     OW38131   4.638   1.654   8.163  0.4788  0.7047 -0.4420
 8832SOL    HW138132   4.560   1.611   8.128  3.5393 -3.8204 -1.8052
 8832SOL    HW238133   4.595   1.730   8.201  0.3486 -0.6328  2.0998
 8833SOL     OW38134   4.053   1.583   3.800 -0.3158 -0.3854  0.2257
 8833SOL    HW138135   4.068   1.583   3.705  0.7759  0.1922  0.4073
 8833SOL    HW238136   4.142   1.616   3.815 -0.7328  0.7915  0.1079
 8834SOL     OW38137   3.257   2.247   1.076 -0.0750 -0.1565 -0.5230
 8834SOL    HW138138   3.228   2.264   0.986 -1.9578  2.6455  0.5874
 8834SOL    HW238139   3.176   2.219   1.119  0.0937 -0.2275 -0.2547
 8835SOL     OW38140   3.200   2.847   2.769 -0.0551 -0.0703  0.1933
 8835SOL    HW138141   3.144   2.886   2.702  0.9599 -1.3704 -1.4057
 8835SOL    HW238142   3.286   2.864   2.731  0.4785 -0.5639  1.1849
 8836SOL     OW38143   3.029   2.570   6.043  0.1450  0.0399  0.4821
 8836SOL    HW138144   3.034   2.662   6.069 -0.1951  0.2977 -0.3713
 8836SOL    HW238145   2.938   2.561   6.015  1.8506  1.4199 -5.3886
 8837SOL     OW38146   0.108   2.156   9.003 -0.2298 -0.0228 -0.0464
 8837SOL    HW138147   0.110   2.062   8.983  4.0868 -0.1638  0.9427
 8837SOL    HW238148   0.193   2.179   8.965 -0.5741 -0.4457 -1.0543
 8838SOL     OW38149   4.035   4.403   9.801 -0.4078  0.3256  0.5258
 8838SOL    HW138150   3.996   4.473   9.854 -0.0519  1.9420 -1.3210
 8838SOL    HW238151   3.957   4.350   9.786 -0.2873  0.2247  0.2480
 8839SOL     OW38152   2.342   4.556   4.402 -0.0318  0.2170  0.1597
 8839SOL    HW138153   2.350   4.531   4.494  1.4609  0.3471  0.0690
 8839SOL    HW238154   2.378   4.481   4.354 -0.7334  0.7985 -1.2655
 8840SOL     OW38155   3.393   3.755   2.629  0.1374 -0.9370  0.1973
 8840SOL    HW138156   3.448   3.744   2.551  1.0004 -0.7265  0.7802
 8840SOL    HW238157   3.412   3.842   2.663  4.5446 -1.7983 -0.0592
 8841SOL     OW38158   2.668   0.726   4.434  0.5361  0.2139  0.0368
 8841SOL    HW138159   2.728   0.678   4.490 -3.0864 -1.8922  2.0841
 8841SOL    HW238160   2.621   0.652   4.394  1.6649 -1.0902  1.1215
 8842SOL     OW38161   2.687   4.248  12.061  0.5617  0.2721 -0.2562
 8842SOL    HW138162   2.595   4.273  12.061  0.6752  0.6884  0.6671
 8842SOL    HW238163   2.721   4.326  12.105 -1.9990  3.0153 -3.1309
 8843SOL     OW38164   4.633   4.198  11.128 -0.0576 -0.1644 -0.5009
 8843SOL    HW138165   4.557   4.210  11.071 -0.2358  0.8297 -0.0563
 8843SOL    HW238166   4.618   4.269  11.191 -0.3930 -1.2537  0.6506
 8844SOL     OW38167   1.373   1.394  17.186  0.1306  0.3232 -0.2643
 8844SOL    HW138168   1.400   1.309  17.152  0.4661 -0.4993  2.1040
 8844SOL    HW238169   1.433   1.461  17.156  0.9171 -1.3654 -2.4967
 8845SOL     OW38170   1.917   0.814  15.836  0.3790  0.4505 -0.5490
 8845SOL    HW138171   1.945   0.734  15.882  0.9629  1.0848  0.2181
 8845SOL    HW238172   2.001   0.845  15.801  0.8308 -0.7170 -0.4887
 8846SOL     OW38173   1.538   1.170   0.370 -0.5150 -0.7171 -0.3377
 8846SOL    HW138174   1.582   1.225   0.304 -1.7179 -0.8386 -1.2525
 8846SOL    HW238175   1.525   1.228   0.445 -0.0817 -2.8389  1.3811
 8847SOL     OW38176   3.174   4.597   5.053 -0.3004 -0.0408  0.5332
 8847SOL    HW138177   3.128   4.676   5.025  0.9795  1.4339  2.6408
 8847SOL    HW238178   3.117   4.528   5.019  0.6749 -0.2708 -0.6778
 8848SOL     OW38179   3.121   3.818   2.694 -0.2621 -0.5817  0.0827
 8848SOL    HW138180   3.109   3.885   2.627  0.7467 -0.2260  0.2521
 8848SOL    HW238181   3.213   3.796   2.679 -0.6173 -0.9877 -1.4766
 8849SOL     OW38182   4.717   0.565   5.833 -1.0457  0.0794  0.2323
 8849SOL    HW138183   4.693   0.616   5.911  2.0030  0.2100  1.0915
 8849SOL    HW238184   0.062   0.529   5.868 -1.3550 -0.7455  0.0996
 8850SOL     OW38185   0.566   0.265   2.656  0.4195  0.7080  0.2428
 8850SOL    HW138186   0.574   0.358   2.679  2.0484  0.6758 -0.1969
 8850SOL    HW238187   0.526   0.265   2.569 -2.4157  1.2180  1.5362
 8851SOL     OW38188   0.654   2.637  17.189  0.3274  0.2409  0.4521
 8851SOL    HW138189   0.671   2.593  17.106 -2.5947  2.1157 -1.1390
 8851SOL    HW238190   0.720   2.706  17.187 -1.8033  2.3058  2.0953
 8852SOL     OW38191   0.519   0.758   0.438  0.0309 -0.0506  0.2858
 8852SOL    HW138192   0.560   0.726   0.519 -0.0824  2.0974  1.1784
 8852SOL    HW238193   0.476   0.840   0.461  0.2883  0.1538  0.0302
 8853SOL     OW38194   0.019   1.534   0.734  0.0851  0.0577  0.3536
 8853SOL    HW138195   0.056   1.613   0.773 -3.8332  2.9801 -1.7671
 8853SOL    HW238196   4.698   1.501   0.803 -2.2833  0.9375 -1.2082
 8854SOL     OW38197   1.585   0.608  16.987 -0.0008  0.3156 -0.5607
 8854SOL    HW138198   1.517   0.672  17.009 -1.3332 -0.6128 -1.9489
 8854SOL    HW238199   1.535   0.568  16.916 -2.5378  1.3399  0.6474
 8855SOL     OW38200   4.687   1.039   3.264  0.8254 -0.5243  0.0452
 8855SOL    HW138201   4.623   1.091   3.216  0.1279 -0.3678  1.1443
 8855SOL    HW238202   0.030   1.079   3.229 -0.5799  1.4433 -0.8789
 8856SOL     OW38203   4.216   1.007   6.987 -0.3078  0.0987  0.9440
 8856SOL    HW138204   4.205   0.912   6.992  0.2666  0.1207  2.5173
 8856SOL    HW238205   4.196   1.033   7.077  3.2587  2.0209  1.1818
 8857SOL     OW38206   2.318   0.747   7.654  0.3487  0.8892  0.0820
 8857SOL    HW138207   2.333   0.842   7.661 -1.2503  1.1492 -0.0049
 8857SOL    HW238208   2.254   0.751   7.724  0.4837  0.9709  0.2005
 8858SOL     OW38209   3.592   1.794   6.284 -0.2060 -0.2312 -0.3045
 8858SOL    HW138210   3.521   1.757   6.232 -0.5867 -0.5658  0.4563
 8858SOL    HW238211   3.553   1.819   6.367  2.3195  2.5165  0.0676
 8859SOL     OW38212   3.539   0.979   7.573 -0.8337  0.7658  0.3020
 8859SOL    HW138213   3.601   0.935   7.631  1.7206  0.9637 -2.2908
 8859SOL    HW238214   3.596   1.038   7.525 -1.5428 -0.5957 -2.2352
 8860SOL     OW38215   3.722   4.542   6.197 -0.1121 -0.1004 -0.3351
 8860SOL    HW138216   3.710   4.516   6.288 -1.9284 -0.5783 -0.7096
 8860SOL    HW238217   3.630   4.561   6.179 -0.1921  0.5860  0.7958
 8861SOL     OW38218   3.663   3.591   7.915 -0.5194 -0.1136 -0.6235
 8861SOL    HW138219   3.594   3.615   7.854 -0.5541 -0.2128 -0.6230
 8861SOL    HW238220   3.624   3.548   7.991  0.0282 -0.2077 -0.3926
 8862SOL     OW38221   4.418   1.459   7.052  0.4434 -0.1920 -0.3304
 8862SOL    HW138222   4.490   1.471   6.990  2.1392  0.7329  1.7910
 8862SOL    HW238223   4.467   1.393   7.101 -0.6611 -0.0277  0.9911
 8863SOL     OW38224   0.740   1.762   9.059  0.1759  0.0523 -0.1287
 8863SOL    HW138225   0.700   1.839   9.018  0.6066  0.7215  0.7033
 8863SOL    HW238226   0.798   1.798   9.126  2.5219  0.8096 -2.5710
 8864SOL     OW38227   4.701   3.187   6.857 -0.1820  0.2315  0.2300
 8864SOL    HW138228   0.040   3.153   6.810 -0.7556  1.2572 -1.4333
 8864SOL    HW238229   4.734   3.259   6.910 -1.0088  0.4954  0.3980
 8865SOL     OW38230   0.176   2.917   5.380 -0.0741 -0.5000 -0.5743
 8865SOL    HW138231   0.235   2.869   5.322 -0.5464 -0.4118 -1.1238
 8865SOL    HW238232   0.201   2.887   5.468 -1.5919  2.4434  0.8679
 8866SOL     OW38233   4.280   1.618   8.225 -0.1538 -0.0305 -0.1367
 8866SOL    HW138234   4.330   1.613   8.307 -2.5729  1.3868  1.3881
 8866SOL    HW238235   4.239   1.704   8.227  0.3478  0.2175 -0.6287
 8867SOL     OW38236   1.121   1.272  14.343 -0.6670  0.3321  0.2034
 8867SOL    HW138237   1.050   1.232  14.293 -0.8913 -0.2235  0.9600
 8867SOL    HW238238   1.190   1.206  14.336  0.2115  1.2091  0.5521
 8868SOL     OW38239   2.619   4.180   9.239  0.6567 -0.7865  0.1176
 8868SOL    HW138240   2.713   4.166   9.249  0.8164  0.7630  0.8119
 8868SOL    HW238241   2.612   4.275   9.247 -2.4264 -1.2130  2.4629
 8869SOL     OW38242   1.017   0.289  12.134  0.0796  0.1942  0.0833
 8869SOL    HW138243   1.040   0.313  12.224 -0.2144  1.8233 -0.2787
 8869SOL    HW238244   1.061   0.205  12.121 -0.1263  0.1172 -0.1205
 8870SOL     OW38245   3.846   2.365  10.911  0.4013  0.1955  0.3634
 8870SOL    HW138246   3.901   2.418  10.968  0.1217  1.3990 -0.4974
 8870SOL    HW238247   3.862   2.415  10.831  0.4971  0.6774  0.6843
 8871SOL     OW38248   2.943   4.266   5.612 -0.3796 -0.3085  0.4640
 8871SOL    HW138249   2.923   4.319   5.689  3.4735 -0.4857  1.6291
 8871SOL    HW238250   2.922   4.177   5.639  0.8267 -0.2254  1.6774
 8872SOL     OW38251   1.396   1.320  13.654  0.2927 -0.2941  0.4732
 8872SOL    HW138252   1.345   1.313  13.735 -0.2885  0.4872  0.1696
 8872SOL    HW238253   1.368   1.239  13.610 -1.4496 -0.0441  1.1040
 8873SOL     OW38254   1.030   1.199   2.923  0.2564 -0.2484  0.0797
 8873SOL    HW138255   0.995   1.256   2.991 -0.9203 -1.5772  0.5847
 8873SOL    HW238256   1.097   1.156   2.978 -0.7594 -1.2868  0.4948
 8874SOL     OW38257   2.240   2.732   6.861 -0.4115  0.2235 -0.6623
 8874SOL    HW138258   2.232   2.660   6.924 -1.4070  3.1129  2.5206
 8874SOL    HW238259   2.174   2.703   6.798 -1.3343 -0.7410  0.7453
 8875SOL     OW38260   0.325   3.381   6.399  0.1785  0.1581 -0.0280
 8875SOL    HW138261   0.319   3.383   6.303  0.7707 -0.3348 -0.0725
 8875SOL    HW238262   0.408   3.427   6.408 -0.2973  0.8494  0.9080
 8876SOL     OW38263   3.866   2.321   5.958  0.0074  0.0092  0.0273
 8876SOL    HW138264   3.822   2.236   5.961 -2.0230  1.0810  1.0978
 8876SOL    HW238265   3.890   2.335   5.866  1.3581 -2.0928  0.0486
 8877SOL     OW38266   4.675   3.725   7.920 -0.3430 -0.3763  0.2171
 8877SOL    HW138267   4.597   3.710   7.973 -0.6537  1.1448  0.1989
 8877SOL    HW238268   0.014   3.719   7.979 -3.0737  0.6783  3.8088
 8878SOL     OW38269   1.332   0.280   4.971  0.4721  0.1403  0.2006
 8878SOL    HW138270   1.338   0.188   4.944 -0.5656 -0.0409  0.5943
 8878SOL    HW238271   1.424   0.295   4.948  0.4997  0.7972  0.7354
 8879SOL     OW38272   2.274   2.710   7.733  0.1882 -0.6313 -0.0021
 8879SOL    HW138273   2.218   2.634   7.749  0.4467 -0.9674 -0.6763
 8879SOL    HW238274   2.247   2.770   7.802  0.3891 -1.4162  0.7502
 8880SOL     OW38275   3.943   3.226   9.433  0.0900  0.3124  0.2707
 8880SOL    HW138276   3.954   3.158   9.367 -0.0257  1.4631 -0.9497
 8880SOL    HW238277   3.929   3.168   9.508  1.2856  0.5406  0.6717
 8881SOL     OW38278   1.912   1.242   8.864 -0.4444 -0.0788 -0.3580
 8881SOL    HW138279   1.837   1.185   8.848 -2.0580  1.8313  0.2870
 8881SOL    HW238280   1.957   1.198   8.936 -0.3823 -0.6683 -0.7556
 8882SOL     OW38281   3.710   3.331  16.364 -0.1180  0.1916  0.1627
 8882SOL    HW138282   3.799   3.340  16.399  0.4500  0.0212 -1.2499
 8882SOL    HW238283   3.690   3.240  16.386 -0.3547 -0.2688 -1.9526
 8883SOL     OW38284   3.882   1.081  15.192  0.1140  0.1364  1.2543
 8883SOL    HW138285   3.950   1.064  15.127 -1.3262 -0.0178 -0.2063
 8883SOL    HW238286   3.887   1.004  15.249  0.9628 -1.5199 -1.0475
 8884SOL     OW38287   0.793   4.402   9.516 -0.3164  0.0644 -0.7137
 8884SOL    HW138288   0.871   4.458   9.518 -0.1675 -0.1415 -0.6834
 8884SOL    HW238289   0.725   4.466   9.500 -1.6948 -0.4526  3.0977
 8885SOL     OW38290   2.872   0.781   7.208  0.0186 -0.5663  0.0236
 8885SOL    HW138291   2.937   0.829   7.260  0.8041 -1.6511  0.0485
 8885SOL    HW238292   2.906   0.805   7.122  0.0252 -0.0017  0.1866
 8886SOL     OW38293   0.517   3.922  15.817 -0.2602  0.2783 -0.0843
 8886SOL    HW138294   0.529   3.987  15.886  0.9471 -1.0965  1.0137
 8886SOL    HW238295   0.545   3.964  15.736 -0.0804  0.7083  0.2027
 8887SOL     OW38296   2.078   4.536   9.151  0.0952  0.0133  0.3809
 8887SOL    HW138297   2.072   4.533   9.056  2.9000 -1.7263  0.2465
 8887SOL    HW238298   2.089   4.628   9.176 -1.0104 -0.2485  1.8532
 8888SOL     OW38299   1.571   4.480  17.093  0.3032  0.2232 -0.5816
 8888SOL    HW138300   1.588   4.434  17.176  3.3381  1.6370 -0.4281
 8888SOL    HW238301   1.656   4.470  17.051  0.0110  0.0984 -1.1416
 8889SOL     OW38302   2.577   2.778  12.395 -0.0000  0.0895  0.0659
 8889SOL    HW138303   2.589   2.788  12.490 -2.2820 -0.5608  0.4315
 8889SOL    HW238304   2.665   2.786  12.360 -0.3959  3.3170 -0.1593
 8890SOL     OW38305   3.007   2.391   9.397  0.0750 -0.6163 -0.1889
 8890SOL    HW138306   3.031   2.445   9.321  0.1665  1.1530  1.0982
 8890SOL    HW238307   3.040   2.304   9.379  1.5732 -0.1541  0.3246
 8891SOL     OW38308   4.331   0.830   3.447 -0.7974 -0.1159  0.2945
 8891SOL    HW138309   4.384   0.859   3.521 -0.4626 -1.2364  0.5052
 8891SOL    HW238310   4.250   0.797   3.485 -0.7658 -0.2028  0.2880
 8892SOL     OW38311   1.955   1.364   0.710  0.1807  0.0687 -0.2703
 8892SOL    HW138312   2.045   1.398   0.706 -0.2630  1.3335  0.3303
 8892SOL    HW238313   1.971   1.311   0.788 -0.4019  1.8786  1.0814
 8893SOL     OW38314   4.348   0.060  11.964  0.2343 -0.5146  0.3848
 8893SOL    HW138315   4.275   0.037  12.022 -0.1761 -1.2084 -0.4195
 8893SOL    HW238316   4.334   4.722  11.907  3.3674  0.4058 -1.5821
 8894SOL     OW38317   4.010   2.997   1.758 -0.9033  0.0399 -0.1924
 8894SOL    HW138318   4.071   2.945   1.810 -1.2933  0.1691  0.3929
 8894SOL    HW238319   3.961   2.918   1.734 -1.8720  1.3563 -2.4705
 8895SOL     OW38320   4.651   3.857   1.246 -0.2969 -0.2136  0.4310
 8895SOL    HW138321   4.704   3.873   1.324 -0.5735  0.4992  0.4715
 8895SOL    HW238322   4.662   3.934   1.190 -0.7104  0.1276  0.8271
 8896SOL     OW38323   0.160   3.941   0.965  0.5280 -0.4367 -0.2266
 8896SOL    HW138324   0.184   3.887   1.041  0.1161  1.5771  1.3492
 8896SOL    HW238325   0.131   3.875   0.902  0.8210 -2.2258  1.4865
 8897SOL     OW38326   3.736   1.381   5.592  1.0929  0.0602 -0.3881
 8897SOL    HW138327   3.683   1.301   5.592  1.2329 -0.0309  0.6758
 8897SOL    HW238328   3.668   1.447   5.576  2.6242  2.0055  1.1483
 8898SOL     OW38329   0.075   2.808   5.806  0.0397  0.1298  0.0702
 8898SOL    HW138330   0.153   2.796   5.752  1.7959 -2.1625  3.0690
 8898SOL    HW238331   0.091   2.898   5.835 -2.5781  1.1682 -1.7087
 8899SOL     OW38332   4.581   4.110   3.573 -0.6670  0.0837 -0.2115
 8899SOL    HW138333   4.651   4.060   3.533 -0.2545  0.1963  0.3740
 8899SOL    HW238334   4.624   4.160   3.642  1.4744 -0.9025 -0.8400
 8900SOL     OW38335   3.694   3.233   6.994 -0.4098 -0.0456  0.0750
 8900SOL    HW138336   3.682   3.224   6.899 -0.7050  0.4533  0.0655
 8900SOL    HW238337   3.607   3.261   7.022  0.5329  0.9499  1.9144
 8901SOL     OW38338   3.804   1.318  15.288  0.4303  0.0667  0.1667
 8901SOL    HW138339   3.828   1.239  15.240 -0.0219 -0.4515  0.8058
 8901SOL    HW238340   3.833   1.293  15.375  3.4903  0.7236 -0.6693
 8902SOL     OW38341   0.943   3.330   4.540  0.3415 -0.7732  0.9959
 8902SOL    HW138342   1.005   3.257   4.544 -1.0046 -1.9532  0.5176
 8902SOL    HW238343   0.984   3.398   4.594  1.7498  0.2870 -1.4054
 8903SOL     OW38344   2.543   0.331   0.566 -0.0145  0.7092  0.0431
 8903SOL    HW138345   2.536   0.249   0.614  0.4215  0.8590  0.3664
 8903SOL    HW238346   2.638   0.337   0.550 -0.3628 -1.7287 -3.0596
 8904SOL     OW38347   4.200   1.657   6.360 -0.7847  0.7987  0.1384
 8904SOL    HW138348   4.195   1.746   6.325  0.8381  1.7466  2.2999
 8904SOL    HW238349   4.207   1.607   6.279 -1.2411 -1.0879  1.2849
 8905SOL     OW38350   2.913   1.639  16.682 -0.4865 -0.1793  0.1813
 8905SOL    HW138351   2.909   1.717  16.737  1.8676 -0.2453  0.4807
 8905SOL    HW238352   2.944   1.574  16.744 -1.6122 -1.1654 -0.2874
 8906SOL     OW38353   0.881   1.654  17.554 -0.2237  0.0711 -0.3127
 8906SOL    HW138354   0.804   1.598  17.559 -1.3546  1.6823  0.6809
 8906SOL    HW238355   0.895   1.661  17.648  0.3153  1.1388 -0.4716
 8907SOL     OW38356   2.430   3.265   4.113 -0.1076  0.0761  0.1897
 8907SOL    HW138357   2.490   3.299   4.046 -0.4896  1.6751  0.6602
 8907SOL    HW238358   2.375   3.341   4.131 -1.5870 -1.1604  0.8516
 8908SOL     OW38359   3.352   3.444   8.904  0.1964 -0.6753 -0.1763
 8908SOL    HW138360   3.368   3.434   8.811  0.7067 -0.4658 -0.1124
 8908SOL    HW238361   3.257   3.450   8.904  0.1631 -0.9312  1.7458
 8909SOL     OW38362   2.875   4.648   6.466  0.3188  0.0268 -0.4771
 8909SOL    HW138363   2.873   4.641   6.371 -1.5425  0.0368 -0.4265
 8909SOL    HW238364   2.825   4.569   6.486 -0.1325  0.4408  0.0283
 8910SOL     OW38365   0.259   3.941   4.005  0.6068  0.2075 -0.2251
 8910SOL    HW138366   0.260   3.949   4.101  0.1643  1.1790 -0.2997
 8910SOL    HW238367   0.339   3.891   3.989  1.4399  1.0899  1.1808
 8911SOL     OW38368   2.919   3.995   6.342  0.2932 -0.1718  0.4554
 8911SOL    HW138369   2.932   3.900   6.352  0.5223  0.0408  2.2045
 8911SOL    HW238370   2.989   4.015   6.280  1.2887  0.2241  1.7259
 8912SOL     OW38371   3.866   4.673   4.750 -0.6473 -0.4149 -0.0662
 8912SOL    HW138372   3.778   4.637   4.758 -0.2999 -0.7324  2.2620
 8912SOL    HW238373   3.859   0.022   4.792 -1.2841 -1.1830  1.3863
 8913SOL     OW38374   0.881   2.000   4.524 -0.7126  0.0078 -0.2968
 8913SOL    HW138375   0.803   1.985   4.469 -0.6875  1.0032 -0.5977
 8913SOL    HW238376   0.850   2.062   4.590  2.1319  2.1087 -0.9414
 8914SOL     OW38377   0.489   3.937   8.560 -0.2926  0.7827  0.2847
 8914SOL    HW138378   0.554   3.888   8.509  0.0005  1.6671 -0.1923
 8914SOL    HW238379   0.543   3.997   8.611  0.1342  0.3802  0.3088
 8915SOL     OW38380   0.995   4.258   2.384 -0.0487 -0.7482 -0.0554
 8915SOL    HW138381   1.003   4.262   2.289  2.3900 -1.0041  0.1445
 8915SOL    HW238382   1.080   4.296   2.404 -0.4478  0.0683  0.0769
 8916SOL     OW38383   0.216   4.184   7.317 -0.1631 -0.1333  0.0810
 8916SOL    HW138384   0.275   4.169   7.391 -1.6330 -0.7133  1.1437
 8916SOL    HW238385   0.137   4.139   7.347 -1.2435  1.7939  0.1472
 8917SOL     OW38386   0.615   4.120   5.561 -0.1743  0.0836  0.1537
 8917SOL    HW138387   0.637   4.139   5.469 -2.3717  2.3652  0.1100
 8917SOL    HW238388   0.686   4.162   5.610  0.6813  0.8267 -1.6974
 8918SOL     OW38389   1.579   2.419   0.235  0.2369  0.1631 -0.0752
 8918SOL    HW138390   1.506   2.481   0.231  0.0105  0.0310  1.7825
 8918SOL    HW238391   1.528   2.341   0.258 -2.0658  1.1106 -1.9961
 8919SOL     OW38392   4.409   0.212   6.705  0.0411  0.0650 -0.3167
 8919SOL    HW138393   4.456   0.283   6.749  2.1274 -1.2016 -0.5038
 8919SOL    HW238394   4.419   0.235   6.613 -0.9297  1.7877  0.0220
 8920SOL     OW38395   4.574   3.115   3.276 -0.0857 -0.5177 -0.6496
 8920SOL    HW138396   4.590   3.201   3.316 -0.9868 -0.6028 -0.0945
 8920SOL    HW238397   4.596   3.059   3.351 -0.0660  0.9118  0.4274
 8921SOL     OW38398   4.303   0.935   2.610  0.2044 -0.0767 -0.0584
 8921SOL    HW138399   4.243   0.972   2.675 -0.1594 -1.3230  0.3183
 8921SOL    HW238400   4.334   0.860   2.662  2.9053  1.4348  0.5081
 8922SOL     OW38401   1.823   1.605   8.625  0.1104  0.6735  0.1994
 8922SOL    HW138402   1.814   1.527   8.571 -0.3505  0.3527  0.7387
 8922SOL    HW238403   1.884   1.568   8.689 -0.6981 -1.1856 -0.1122
 8923SOL     OW38404   3.063   3.552   8.937 -0.3363 -0.3292  0.5038
 8923SOL    HW138405   2.973   3.535   8.909 -0.2970  3.3294 -1.7536
 8923SOL    HW238406   3.049   3.586   9.025  1.6852  0.5338  0.5001
 8924SOL     OW38407   1.162   2.778   1.942  0.0107  0.0117 -0.3037
 8924SOL    HW138408   1.199   2.690   1.933 -1.9285 -0.8130 -0.2241
 8924SOL    HW238409   1.156   2.783   2.038 -1.9128  0.5487 -0.4667
 8925SOL     OW38410   3.139   4.186   2.772 -0.0641 -0.6447  0.0616
 8925SOL    HW138411   3.197   4.134   2.828 -0.0127  1.8029  2.2904
 8925SOL    HW238412   3.124   4.265   2.824  0.1743 -0.7707  0.3196
 8926SOL     OW38413   3.807   1.315  13.874  0.7431  0.3896  0.2450
 8926SOL    HW138414   3.777   1.317  13.783 -0.7962  0.1967  0.7467
 8926SOL    HW238415   3.796   1.409  13.888 -2.9377 -0.1819  1.1301
 8927SOL     OW38416   3.821   4.707   9.221  0.3161  0.3976  0.1226
 8927SOL    HW138417   3.885   4.705   9.291  0.7538 -1.7348 -0.3213
 8927SOL    HW238418   3.847   0.032   9.153  3.1283  1.3104  2.0483
 8928SOL     OW38419   4.016   3.373   2.532 -0.8474  0.0178  0.2607
 8928SOL    HW138420   4.063   3.307   2.482  2.0604  0.4128  2.4255
 8928SOL    HW238421   3.986   3.443   2.473  1.1365 -1.3230 -2.3476
 8929SOL     OW38422   2.783   0.989   2.153 -0.3673 -0.6695 -0.4653
 8929SOL    HW138423   2.803   0.925   2.084 -2.3107  0.6716 -2.2755
 8929SOL    HW238424   2.860   1.043   2.137 -2.3481  2.4414  0.4131
 8930SOL     OW38425   0.966   0.903  16.339 -0.5379 -0.3466 -0.1194
 8930SOL    HW138426   1.032   0.835  16.323  0.2033 -0.0546  1.6631
 8930SOL    HW238427   0.893   0.862  16.293 -0.6951  0.3020 -0.4447
 8931SOL     OW38428   4.055   4.072   0.852  0.6117 -0.0550  0.2200
 8931SOL    HW138429   4.133   4.020   0.870  1.1293  1.1478  1.4288
 8931SOL    HW238430   4.023   4.084   0.941 -2.0952 -3.5123 -0.2746
 8932SOL     OW38431   3.002   2.934   4.140 -0.9966  0.2967 -0.4311
 8932SOL    HW138432   2.921   2.966   4.101 -0.6133 -2.0626 -3.1386
 8932SOL    HW238433   3.047   3.015   4.163 -0.7971  0.2324 -0.5976
 8933SOL     OW38434   1.563   0.732   7.436 -0.8148 -0.3330  0.1792
 8933SOL    HW138435   1.548   0.778   7.519 -0.3963  0.2622 -0.0704
 8933SOL    HW238436   1.473   0.725   7.405 -0.2310 -2.9872 -0.8421
 8934SOL     OW38437   1.519   3.867  12.461 -0.0162  0.3048 -0.4280
 8934SOL    HW138438   1.500   3.786  12.414 -3.6130  0.3900  0.8776
 8934SOL    HW238439   1.440   3.914  12.437  1.4572  2.4383 -1.0676
 8935SOL     OW38440   3.617   0.478   8.541 -0.0020  0.4647  0.2222
 8935SOL    HW138441   3.606   0.394   8.585  2.5453 -0.4500 -0.8791
 8935SOL    HW238442   3.542   0.479   8.482  0.8049 -0.5496 -0.8188
 8936SOL     OW38443   2.628   3.808   6.896 -0.4578 -0.3648 -0.5511
 8936SOL    HW138444   2.706   3.795   6.842 -0.9088 -0.1811 -1.2418
 8936SOL    HW238445   2.561   3.767   6.842 -0.5688  0.7073 -1.2318
 8937SOL     OW38446   1.008   3.096  13.893 -0.0256 -0.1759  0.3507
 8937SOL    HW138447   0.951   3.162  13.931  0.7097 -0.8353  2.5725
 8937SOL    HW238448   1.087   3.107  13.945 -0.6480  1.2204  0.9791
 8938SOL     OW38449   3.385   2.935  15.483 -0.3793  0.2071 -0.1065
 8938SOL    HW138450   3.397   2.844  15.454 -1.2469 -0.4181  1.4860
 8938SOL    HW238451   3.439   2.945  15.561 -0.8101  0.3546  0.1717
 8939SOL     OW38452   2.785   2.943   7.295  0.3114 -0.2835 -0.3178
 8939SOL    HW138453   2.841   2.960   7.219 -0.9904 -2.3530 -1.7436
 8939SOL    HW238454   2.776   2.848   7.285 -0.1430 -0.1608 -1.1101
 8940SOL     OW38455   1.092   2.431   2.560  0.3350 -0.0518 -0.0226
 8940SOL    HW138456   1.164   2.369   2.552 -0.0195 -0.3986 -0.5821
 8940SOL    HW238457   1.098   2.441   2.655 -1.3854  0.6558  0.0153
 8941SOL     OW38458   4.238   4.709   9.829 -0.9523 -0.6700 -0.0893
 8941SOL    HW138459   4.213   0.065   9.835  1.1201 -0.1762  0.8842
 8941SOL    HW238460   4.270   4.694   9.740 -1.0301  0.4562 -0.3069
 8942SOL     OW38461   3.421   0.979   8.197  0.2640 -0.6956  0.0327
 8942SOL    HW138462   3.464   0.895   8.184  0.0274 -0.6456 -1.0206
 8942SOL    HW238463   3.483   1.037   8.244  2.6842 -2.8253 -0.5275
 8943SOL     OW38464   1.063   3.144   6.352 -0.2304  0.0501  0.2032
 8943SOL    HW138465   1.121   3.130   6.427 -0.2009 -0.2400  0.1289
 8943SOL    HW238466   0.974   3.144   6.387  0.0371  1.6338  0.8644
 8944SOL     OW38467   4.449   0.983   1.319  0.0529 -0.7653 -0.2791
 8944SOL    HW138468   4.360   1.013   1.298 -0.3967 -2.5881 -0.9239
 8944SOL    HW238469   4.436   0.960   1.411  1.2736 -0.9720 -0.1580
 8945SOL     OW38470   3.222   2.103   8.893 -0.0134  0.4931 -0.2790
 8945SOL    HW138471   3.286   2.101   8.821 -1.3633  0.1863 -1.4805
 8945SOL    HW238472   3.255   2.186   8.929  1.6358 -1.1499  1.9666
 8946SOL     OW38473   2.323   2.560  10.727  0.5542 -0.0590 -0.0438
 8946SOL    HW138474   2.411   2.571  10.690 -0.3624  1.5171 -1.7201
 8946SOL    HW238475   2.271   2.595  10.655  0.4940  1.8318  0.9393
 8947SOL     OW38476   1.990   0.847   0.504  0.3396  0.2168  0.1973
 8947SOL    HW138477   1.907   0.802   0.521  1.0681 -0.9472  0.6752
 8947SOL    HW238478   1.968   0.919   0.444 -0.7463  1.9249  2.6380
 8948SOL     OW38479   1.741   1.984  15.499 -0.0613  0.0201 -0.2620
 8948SOL    HW138480   1.729   2.055  15.563  1.3012 -1.0956  1.2262
 8948SOL    HW238481   1.833   1.997  15.480  0.3406 -1.8901  0.4231
 8949SOL     OW38482   0.458   0.844   5.943 -0.7081  0.0626 -0.0553
 8949SOL    HW138483   0.395   0.863   5.873 -1.2328  0.0915  0.4347
 8949SOL    HW238484   0.508   0.775   5.898  1.7942  0.2937  2.3370
 8950SOL     OW38485   2.368   1.512  17.685  0.0568  0.2066  0.1590
 8950SOL    HW138486   2.287   1.465  17.662 -0.4237  0.5971  1.0529
 8950SOL    HW238487   2.354   1.526   0.033 -0.2456  0.7123  0.0416
 8951SOL     OW38488   4.286   2.842  14.864  0.0185 -0.5987  0.1178
 8951SOL    HW138489   4.321   2.852  14.775  0.0137  0.4817  0.2353
 8951SOL    HW238490   4.303   2.753  14.893  0.2561 -1.1651 -1.7642
 8952SOL     OW38491   2.819   2.504   7.097  0.0944 -0.2966 -0.0368
 8952SOL    HW138492   2.761   2.542   7.032  2.3161  1.6082 -0.8653
 8952SOL    HW238493   2.906   2.515   7.060 -0.2055 -0.7777 -0.8918
 8953SOL     OW38494   3.926   2.872   6.372  0.4711  0.4683 -0.7409
 8953SOL    HW138495   3.872   2.943   6.407  0.4589  0.3609 -0.5410
 8953SOL    HW238496   3.873   2.862   6.293 -1.0013  1.3018  0.1516
 8954SOL     OW38497   3.954   3.839   2.703 -0.1655  0.4420 -0.1016
 8954SOL    HW138498   3.969   3.909   2.639 -0.2107  0.4428 -0.1108
 8954SOL    HW238499   3.863   3.812   2.696 -0.2214  0.5637  0.1370
 8955SOL     OW38500   0.830   1.612   2.999 -0.1461  0.1968  0.3754
 8955SOL    HW138501   0.843   1.597   2.906  2.2631  4.2000  0.0312
 8955SOL    HW238502   0.920   1.605   3.033  0.0526  2.0771  0.2178
 8956SOL     OW38503   2.447   4.250   5.987  0.5085 -0.5925 -0.2961
 8956SOL    HW138504   2.469   4.191   5.914  0.8744  0.6841 -1.2172
 8956SOL    HW238505   2.358   4.269   5.958  1.0448  1.8791 -0.3296
 8957SOL     OW38506   2.920   3.538   9.398  0.0765 -0.2971 -0.1562
 8957SOL    HW138507   2.831   3.538   9.433 -0.3548  0.7625 -1.2368
 8957SOL    HW238508   2.952   3.619   9.439 -1.3479 -0.0654  0.4965
 8958SOL     OW38509   0.605   1.914  17.144 -0.0047  0.0954 -0.1651
 8958SOL    HW138510   0.562   1.945  17.224 -0.6101 -0.9187 -0.0982
 8958SOL    HW238511   0.544   1.844  17.120 -0.9208  1.4202 -1.6372
 8959SOL     OW38512   1.091   4.517   6.468 -0.2743 -0.2486 -0.0343
 8959SOL    HW138513   1.008   4.495   6.427 -1.7211 -0.6081  3.0910
 8959SOL    HW238514   1.144   4.550   6.395 -1.2128  1.7646  0.1892
 8960SOL     OW38515   1.440   1.945   6.920  0.3972  0.3127 -0.0395
 8960SOL    HW138516   1.360   1.931   6.969 -0.4881 -0.3693 -1.6680
 8960SOL    HW238517   1.464   2.033   6.948  0.2538  0.0896  0.7676
 8961SOL     OW38518   3.966   0.043   5.144  0.5172  0.7583  0.1622
 8961SOL    HW138519   4.007   4.696   5.125  0.1188  0.5234  0.3419
 8961SOL    HW238520   4.013   0.053   5.227 -2.5211 -1.3072  2.1216
 8962SOL     OW38521   3.748   2.688  10.997  0.0982 -0.0265  0.4462
 8962SOL    HW138522   3.833   2.651  11.020 -0.2156 -0.1900  1.3066
 8962SOL    HW238523   3.697   2.654  11.070 -0.0061  1.1461  0.9160
 8963SOL     OW38524   2.659   1.068   3.172 -0.6034  0.2901  0.1951
 8963SOL    HW138525   2.743   1.022   3.181 -0.4896  0.0925 -1.8092
 8963SOL    HW238526   2.643   1.071   3.078  2.9421  0.3429 -0.4270
 8964SOL     OW38527   0.522   1.643  10.063 -0.1967 -1.1119  0.0511
 8964SOL    HW138528   0.449   1.583  10.081 -1.0603  0.7336  2.6961
 8964SOL    HW238529   0.549   1.676  10.149  0.3652 -1.3696 -0.0286
 8965SOL     OW38530   0.520   0.922   6.590 -0.6879 -0.1912  0.2989
 8965SOL    HW138531   0.485   0.969   6.666 -1.7172 -0.9036  0.2600
 8965SOL    HW238532   0.449   0.928   6.526  0.9191 -0.6305 -1.5370
 8966SOL     OW38533   1.408   0.542   4.067  0.6583 -0.1219  0.0229
 8966SOL    HW138534   1.334   0.596   4.097  1.1556  0.6035 -0.0657
 8966SOL    HW238535   1.371   0.453   4.063 -1.9012  0.8750  1.1932
 8967SOL     OW38536   0.554   3.218  14.598  0.2732  0.2522 -0.3693
 8967SOL    HW138537   0.495   3.236  14.671  1.0539 -1.8541  0.7723
 8967SOL    HW238538   0.604   3.142  14.627 -0.3747 -0.0010  0.0866
 8968SOL     OW38539   1.407   4.372   8.528  0.3764  0.0818 -0.2943
 8968SOL    HW138540   1.434   4.448   8.580 -0.5314  1.2045 -1.4504
 8968SOL    HW238541   1.329   4.346   8.575 -0.3260 -0.1292 -1.5661
 8969SOL     OW38542   2.368   1.660  10.777 -0.6771  0.2196 -0.0236
 8969SOL    HW138543   2.297   1.621  10.828  0.0157  0.9871  1.5201
 8969SOL    HW238544   2.385   1.574  10.738 -0.3155  0.4334 -0.3385
 8970SOL     OW38545   1.739   1.675   6.063 -0.2736  0.2899  0.0347
 8970SOL    HW138546   1.648   1.645   6.066  0.0230 -0.5715  0.3765
 8970SOL    HW238547   1.792   1.603   6.097  1.0670  1.3838  0.2791
 8971SOL     OW38548   1.515   4.689   7.881 -0.2766 -0.5605 -0.3890
 8971SOL    HW138549   1.569   4.706   7.958  1.0207  2.3597 -1.9430
 8971SOL    HW238550   1.573   4.699   7.806 -0.0007 -0.3507 -0.1467
 8972SOL     OW38551   0.714   0.098   7.837  0.4509 -0.1834 -0.1655
 8972SOL    HW138552   0.773   0.173   7.846 -2.0013  1.7719 -0.4785
 8972SOL    HW238553   0.665   0.129   7.762  0.3332  1.4276  0.5790
 8973SOL     OW38554   0.106   0.484  16.390  0.1734  0.8150 -0.6836
 8973SOL    HW138555   0.028   0.519  16.348  1.2154  1.3878 -2.1252
 8973SOL    HW238556   0.171   0.499  16.322  1.0096  0.7233  0.0942
 8974SOL     OW38557   3.799   0.041   1.802  0.2134 -0.2611 -0.5696
 8974SOL    HW138558   3.882   0.028   1.756 -0.6289  0.3105 -2.2331
 8974SOL    HW238559   3.838   0.063   1.886 -1.8450 -2.7904  1.0515
 8975SOL     OW38560   1.446   1.805   0.241  0.4403 -0.0133 -0.3558
 8975SOL    HW138561   1.373   1.866   0.253  0.9060  0.2749  0.9754
 8975SOL    HW238562   1.449   1.768   0.329 -1.6770  0.9237  0.0922
 8976SOL     OW38563   2.383   0.569  14.381  0.2452 -0.4199 -0.1072
 8976SOL    HW138564   2.386   0.629  14.455  3.3988  0.2005 -0.7281
 8976SOL    HW238565   2.302   0.584  14.332 -0.2298  1.0159  1.1491
 8977SOL     OW38566   1.705   1.151   6.520  0.3590 -0.2239  0.0083
 8977SOL    HW138567   1.648   1.080   6.490  1.3260 -0.9352 -0.1409
 8977SOL    HW238568   1.651   1.200   6.583 -0.0225  0.7453 -1.0601
 8978SOL     OW38569   1.695   3.137  17.398  0.2715 -0.7704 -0.0821
 8978SOL    HW138570   1.686   3.087  17.317 -1.2629 -0.0159 -0.3778
 8978SOL    HW238571   1.679   3.230  17.381 -0.4610 -0.6559  1.1969
 8979SOL     OW38572   3.110   3.528  11.604 -0.2912  0.5754  0.0129
 8979SOL    HW138573   3.076   3.452  11.652 -1.6111  1.6846  0.8177
 8979SOL    HW238574   3.150   3.594  11.660  0.2916  2.0854 -2.1828
 8980SOL     OW38575   4.173   0.602   7.906 -0.2446  0.1463  0.3131
 8980SOL    HW138576   4.216   0.630   7.987  0.2628  1.9116 -0.5882
 8980SOL    HW238577   4.148   0.510   7.911  1.1229 -0.2637 -0.6526
 8981SOL     OW38578   0.194   0.452   7.891 -0.1595 -0.0193  0.9226
 8981SOL    HW138579   0.227   0.541   7.901  0.7856 -0.1135 -1.3380
 8981SOL    HW238580   0.279   0.409   7.888 -0.7301 -1.0592 -0.7947
 8982SOL     OW38581   3.742   2.434   6.319  0.3117 -0.0873 -0.1265
 8982SOL    HW138582   3.834   2.415   6.336  0.0890 -1.6952 -0.6645
 8982SOL    HW238583   3.704   2.348   6.335 -0.1465  0.4720  1.7857
 8983SOL     OW38584   2.635   2.167  16.298  0.0358 -0.1949 -0.2110
 8983SOL    HW138585   2.654   2.231  16.229 -0.0130 -2.1512 -2.0535
 8983SOL    HW238586   2.541   2.149  16.299  0.4741 -2.6579 -1.6443
 8984SOL     OW38587   4.311   3.487   0.835  0.0602 -0.3349  0.4750
 8984SOL    HW138588   4.361   3.407   0.852 -0.8475 -0.6752  1.5151
 8984SOL    HW238589   4.241   3.477   0.900  0.1775  1.2126  0.8384
 8985SOL     OW38590   3.431   4.312   2.945  1.1086 -0.1599  0.2641
 8985SOL    HW138591   3.391   4.285   3.027 -1.7054 -2.2021 -1.7905
 8985SOL    HW238592   3.361   4.360   2.901  1.3709  1.0577  1.1873
 8986SOL     OW38593   1.618   2.511   3.454  0.3718 -0.3596  0.0119
 8986SOL    HW138594   1.661   2.487   3.536  0.6760  0.3203  0.0510
 8986SOL    HW238595   1.529   2.517   3.487  0.4331  0.9004 -0.0808
 8987SOL     OW38596   1.562   1.337   8.650  0.1383 -0.1695  0.1177
 8987SOL    HW138597   1.583   1.421   8.692 -1.5282 -2.4026  5.4127
 8987SOL    HW238598   1.600   1.352   8.563  2.5415 -2.4458  0.7857
 8988SOL     OW38599   3.200   2.671  13.559  0.5957 -0.0839  0.0581
 8988SOL    HW138600   3.285   2.692  13.598 -0.2506 -1.2096  2.5022
 8988SOL    HW238601   3.142   2.718  13.619  0.4172 -0.0994 -0.1021
 8989SOL     OW38602   2.138   1.818  11.600 -0.5157 -0.5463 -0.2596
 8989SOL    HW138603   2.043   1.812  11.584 -0.3110 -1.7382 -0.9859
 8989SOL    HW238604   2.167   1.832  11.510  0.3634 -1.5643 -0.1263
 8990SOL     OW38605   3.098   0.830   9.549  0.4519 -0.2931 -0.2622
 8990SOL    HW138606   3.097   0.770   9.474  0.5162 -0.3640 -0.2069
 8990SOL    HW238607   3.025   0.890   9.538 -0.6978 -2.0238 -2.0523
 8991SOL     OW38608   4.694   1.981   8.065 -0.2636  0.6146 -0.5733
 8991SOL    HW138609   4.711   2.036   8.142  0.6265  0.6398 -0.7919
 8991SOL    HW238610   4.611   1.936   8.082 -0.6832  0.4719 -2.9888
 8992SOL     OW38611   3.518   0.254  12.858  0.6438  0.6766  0.1544
 8992SOL    HW138612   3.479   0.308  12.926  2.5521  0.3251  1.5179
 8992SOL    HW238613   3.534   0.333  12.806 -1.2013  0.6929 -0.3947
 8993SOL     OW38614   4.686   0.815   3.067 -0.3413 -0.3145  0.1233
 8993SOL    HW138615   4.621   0.799   3.135  1.0847  0.7523  1.7323
 8993SOL    HW238616   0.029   0.802   3.119  2.2889 -0.4508 -3.8915
 8994SOL     OW38617   0.551   0.290   3.495  0.2560  0.0692  0.2830
 8994SOL    HW138618   0.472   0.345   3.495 -0.5416 -1.0532 -1.6465
 8994SOL    HW238619   0.579   0.289   3.403 -1.7008 -0.2051 -0.3133
 8995SOL     OW38620   1.054   1.741  16.757 -0.4761  0.1957  0.1730
 8995SOL    HW138621   1.141   1.777  16.740 -0.7607  0.3880 -0.8794
 8995SOL    HW238622   1.039   1.743  16.852  1.3145  1.6525  0.4433
 8996SOL     OW38623   0.338   1.776   3.200 -0.3240  0.0800  0.2742
 8996SOL    HW138624   0.417   1.723   3.208 -0.2283  0.3783  1.3938
 8996SOL    HW238625   0.386   1.858   3.185 -0.9179  0.5473  0.9381
 8997SOL     OW38626   1.447   1.863   6.665  0.3527 -0.2236 -0.0435
 8997SOL    HW138627   1.426   1.881   6.756 -0.7506  0.2497 -0.4040
 8997SOL    HW238628   1.507   1.788   6.666  0.4730 -0.1351 -0.7886
 8998SOL     OW38629   0.268   3.394   1.038 -0.3160 -0.2435 -0.4567
 8998SOL    HW138630   0.325   3.377   0.964 -0.1473 -2.8316  0.2813
 8998SOL    HW238631   0.180   3.402   1.001  0.0295  3.3801 -0.4987
 8999SOL     OW38632   0.221   4.290  13.471  0.5805 -0.3033  0.8704
 8999SOL    HW138633   0.146   4.259  13.419  1.2514 -0.3928 -0.0462
 8999SOL    HW238634   0.287   4.259  13.410 -0.5538  0.3392 -0.6904
 9000SOL     OW38635   1.013   4.369   7.999 -0.6102  0.1526  0.1003
 9000SOL    HW138636   1.026   4.458   8.030 -0.6524 -0.2742  1.3820
 9000SOL    HW238637   1.099   4.340   7.968 -1.2976 -2.7926  0.8821
 9001SOL     OW38638   1.502   0.183  17.342 -0.2300 -0.1010 -0.2980
 9001SOL    HW138639   1.480   0.118  17.276  0.2132  0.2417 -0.7820
 9001SOL    HW238640   1.415   0.218  17.363  0.5340  0.7420  1.5328
 9002SOL     OW38641   3.778   4.196  10.440  0.4862  0.4146 -0.0538
 9002SOL    HW138642   3.716   4.262  10.408  2.1791  2.2130  0.3995
 9002SOL    HW238643   3.845   4.198  10.372 -1.0705  1.6199 -1.5411
 9003SOL     OW38644   0.865   3.087   7.255  0.5270 -0.1100 -0.7816
 9003SOL    HW138645   0.815   3.169   7.258  1.1509  0.3013 -1.7841
 9003SOL    HW238646   0.879   3.075   7.349  1.0859 -0.5970 -0.9279
 9004SOL     OW38647   2.714   0.309   6.677  0.0821  0.3260  0.2952
 9004SOL    HW138648   2.752   0.251   6.743  1.7921  0.9466 -0.1285
 9004SOL    HW238649   2.787   0.309   6.615 -0.8748 -0.0544 -0.8164
 9005SOL     OW38650   1.007   1.870   2.116 -0.6538  0.3292 -0.3863
 9005SOL    HW138651   1.029   1.897   2.205  0.1247 -0.6953 -0.2752
 9005SOL    HW238652   1.017   1.959   2.081 -2.2278  0.5454 -0.3028
 9006SOL     OW38653   4.434   4.382   1.661  0.0016  0.0564 -0.0670
 9006SOL    HW138654   4.395   4.395   1.575  0.9035  0.5666 -0.4066
 9006SOL    HW238655   4.368   4.325   1.699 -0.3994  1.7827  1.8485
 9007SOL     OW38656   2.160   0.181   2.632  0.1133 -0.1340  0.8479
 9007SOL    HW138657   2.142   0.250   2.567 -0.6937 -0.8069  0.3522
 9007SOL    HW238658   2.177   0.105   2.577  2.3993  1.2630 -0.3754
 9008SOL     OW38659   4.707   0.732   4.882 -0.1660 -0.0484 -0.0617
 9008SOL    HW138660   4.702   0.637   4.892 -0.2371 -0.1455 -0.9978
 9008SOL    HW238661   0.003   0.768   4.964  3.0065  2.9908 -2.6708
 9009SOL     OW38662   0.527   4.067   2.394  0.2491  0.2463  0.4133
 9009SOL    HW138663   0.514   4.120   2.316 -0.5728 -2.5642 -1.3866
 9009SOL    HW238664   0.584   3.993   2.373 -1.3956 -0.5674 -1.1875
 9010SOL     OW38665   1.957   0.239   5.401 -0.1405  0.3395  0.2806
 9010SOL    HW138666   2.047   0.234   5.368 -1.0573 -1.4373 -2.0152
 9010SOL    HW238667   1.950   0.334   5.394 -0.5033  0.3416  0.6684
 9011SOL     OW38668   0.878   0.071   3.805 -0.2854  0.1390 -0.2650
 9011SOL    HW138669   0.803   0.035   3.852 -1.4380  0.7607 -1.6369
 9011SOL    HW238670   0.861   0.056   3.712 -0.4566 -1.6284  0.0549
 9012SOL     OW38671   1.376   1.800  15.294  0.2047 -0.3779  0.5321
 9012SOL    HW138672   1.383   1.705  15.286 -1.0903 -0.4767  0.4644
 9012SOL    HW238673   1.283   1.825  15.295  0.2053 -0.3377 -0.6447
 9013SOL     OW38674   3.150   1.953   7.963 -0.0113 -0.4551  0.6299
 9013SOL    HW138675   3.221   1.933   8.023 -0.8810 -2.2686  1.0559
 9013SOL    HW238676   3.201   1.993   7.893 -0.2395  1.3286  1.4919
 9014SOL     OW38677   4.501   3.779   1.711  0.2006 -0.5706  0.0423
 9014SOL    HW138678   4.520   3.693   1.749 -0.2476 -1.0565 -0.8321
 9014SOL    HW238679   4.545   3.847   1.762  0.4362 -1.8670  1.5847
 9015SOL     OW38680   2.458   2.842   5.364 -0.2750 -0.2745 -0.6034
 9015SOL    HW138681   2.429   2.754   5.388 -1.1865 -0.0077 -0.7638
 9015SOL    HW238682   2.517   2.825   5.290 -1.2558 -0.8827 -1.2361
 9016SOL     OW38683   2.085   2.474   3.968  0.2651 -0.3686 -0.2114
 9016SOL    HW138684   2.180   2.464   3.959  0.5022  2.1156 -0.3637
 9016SOL    HW238685   2.059   2.390   3.929  5.1247 -1.0549 -2.0479
 9017SOL     OW38686   3.512   0.455  12.420  0.3244  0.0348  0.5982
 9017SOL    HW138687   3.418   0.445  12.431  0.1772  2.4821  1.6094
 9017SOL    HW238688   3.525   0.549  12.435  0.1887 -0.0522  1.2717
 9018SOL     OW38689   0.517   0.627   8.638  0.9539 -0.0804  0.1417
 9018SOL    HW138690   0.487   0.711   8.604 -0.9688 -0.8030  0.0637
 9018SOL    HW238691   0.437   0.575   8.626  1.4252 -1.0558  1.1662
 9019SOL     OW38692   3.899   3.518   3.107 -0.0455 -0.4382  0.0200
 9019SOL    HW138693   3.992   3.533   3.090  0.1524 -1.6307  0.1019
 9019SOL    HW238694   3.863   3.601   3.140  2.6925  0.5876  0.3835
 9020SOL     OW38695   4.037   2.104  12.132 -0.2614 -0.4860 -0.1120
 9020SOL    HW138696   4.007   2.039  12.069 -0.3532 -0.6900  0.1400
 9020SOL    HW238697   3.992   2.181  12.098 -0.2446 -0.7581 -0.7497
 9021SOL     OW38698   3.241   3.389   3.555  0.0691 -0.0947 -0.1500
 9021SOL    HW138699   3.146   3.373   3.562  0.2315  0.1657  2.4535
 9021SOL    HW238700   3.251   3.407   3.461 -1.7302 -2.5439 -0.8005
 9022SOL     OW38701   2.045   0.822  10.117 -0.0286  0.8031 -0.9765
 9022SOL    HW138702   1.994   0.903  10.122  1.3499  1.4816  2.3578
 9022SOL    HW238703   2.031   0.799  10.025  0.6071  0.5005 -0.9998
 9023SOL     OW38704   4.139   3.281  17.733 -0.1589  0.1819  0.0111
 9023SOL    HW138705   4.046   3.275  17.711 -0.6965  0.7226  2.1040
 9023SOL    HW238706   4.144   3.202   0.041  1.2049  0.3178  0.0863
 9024SOL     OW38707   4.139   1.334   8.652 -0.0885  0.3730  0.5529
 9024SOL    HW138708   4.056   1.381   8.639  0.9672  1.6022 -1.7419
 9024SOL    HW238709   4.137   1.341   8.747 -1.3805 -0.1505  0.5738
 9025SOL     OW38710   3.143   2.451  11.933  0.0981 -0.1173  0.3153
 9025SOL    HW138711   3.139   2.456  11.838  2.6266  2.6055  0.3321
 9025SOL    HW238712   3.084   2.381  11.958  1.0195 -0.2902  2.0377
 9026SOL     OW38713   1.311   0.406   7.835  0.4309  0.2831 -0.2995
 9026SOL    HW138714   1.394   0.426   7.791  0.7611  0.1830  0.2713
 9026SOL    HW238715   1.346   0.381   7.921  1.6228 -1.2971 -1.2326
 9027SOL     OW38716   0.850   3.318   9.031 -0.0100  0.5169 -0.3768
 9027SOL    HW138717   0.774   3.262   9.043 -0.7009  1.3738 -0.7387
 9027SOL    HW238718   0.894   3.273   8.959  1.2875 -1.8166  1.9003
 9028SOL     OW38719   2.034   3.206   3.525  0.3001  0.1558  0.5180
 9028SOL    HW138720   2.087   3.273   3.482 -2.8901  2.6243  0.4083
 9028SOL    HW238721   2.101   3.155   3.570  0.5871 -1.3971 -1.6590
 9029SOL     OW38722   3.868   4.031   2.877  0.1385 -0.2540 -0.2508
 9029SOL    HW138723   3.885   3.951   2.827  2.3959  0.1304 -0.0821
 9029SOL    HW238724   3.862   4.093   2.804 -2.2928  1.7650  1.6697
 9030SOL     OW38725   3.367   0.612   2.076 -0.5787  0.0803 -0.0418
 9030SOL    HW138726   3.357   0.696   2.122 -0.6948 -0.2706  0.5819
 9030SOL    HW238727   3.396   0.564   2.154  0.1613 -0.1995 -0.4869
 9031SOL     OW38728   2.556   2.613   6.889 -0.2645  0.0065 -0.4429
 9031SOL    HW138729   2.495   2.632   6.818  1.7235  0.2942 -2.0795
 9031SOL    HW238730   2.523   2.528   6.919 -0.1098  0.0948 -0.0331
 9032SOL     OW38731   0.941   3.696   3.572 -0.3088 -1.0184 -0.4371
 9032SOL    HW138732   0.853   3.661   3.556 -0.2132 -0.1003 -2.9562
 9032SOL    HW238733   0.941   3.773   3.516  0.9599  0.1185  1.1417
 9033SOL     OW38734   4.105   3.489   8.827  0.3734 -0.3518 -0.1594
 9033SOL    HW138735   4.086   3.430   8.754 -0.0148  1.7173 -1.7256
 9033SOL    HW238736   4.025   3.468   8.875  0.7986 -1.4472  0.0802
 9034SOL     OW38737   2.485   0.073   4.311 -0.6188 -0.5486  0.4223
 9034SOL    HW138738   2.434   4.729   4.311 -0.6012 -0.5539 -1.1793
 9034SOL    HW238739   2.428   0.124   4.254 -1.4938 -0.2027  1.6019
 9035SOL     OW38740   0.973   0.872   7.254  0.3523 -0.1128  0.2776
 9035SOL    HW138741   0.946   0.790   7.214 -1.2224  1.0097 -0.9436
 9035SOL    HW238742   0.972   0.848   7.347  2.6846 -0.7313  0.1202
 9036SOL     OW38743   1.177   1.963   9.078  0.5946 -0.2758 -0.0928
 9036SOL    HW138744   1.171   1.926   8.991  0.6786  0.6694 -0.4993
 9036SOL    HW238745   1.267   1.998   9.075 -0.3364  2.2518  1.1520
 9037SOL     OW38746   0.892   3.738   2.871  0.0162  0.1208 -0.1242
 9037SOL    HW138747   0.880   3.651   2.831  2.7835  0.5802 -1.9367
 9037SOL    HW238748   0.983   3.754   2.847  0.0285  2.2257  1.3145
 9038SOL     OW38749   1.632   3.406  16.853  0.0696 -0.4779  0.1398
 9038SOL    HW138750   1.685   3.374  16.780  0.0331  1.7036 -0.8645
 9038SOL    HW238751   1.664   3.345  16.920  0.1129 -1.8123 -1.1085
 9039SOL     OW38752   3.661   3.271   8.769  0.3055  0.2719 -0.1234
 9039SOL    HW138753   3.616   3.263   8.853  0.2017  0.7984 -0.1258
 9039SOL    HW238754   3.586   3.268   8.710  0.9995 -0.0548 -0.9878
 9040SOL     OW38755   1.921   2.049   4.778 -1.2479 -0.0726 -0.2780
 9040SOL    HW138756   1.837   2.028   4.818  0.0164 -2.0184  1.3342
 9040SOL    HW238757   1.908   2.144   4.789  0.9537  0.3783 -1.4884
 9041SOL     OW38758   1.649   0.003  12.549 -0.0606 -0.7068 -0.4085
 9041SOL    HW138759   1.650   0.083  12.495 -1.9009  0.8514  1.8565
 9041SOL    HW238760   1.687   4.690  12.477 -0.6657  0.6346 -1.6642
 9042SOL     OW38761   0.706   2.884   7.580  0.0126  0.2677  0.1820
 9042SOL    HW138762   0.790   2.920   7.552  0.9254 -0.4724  1.9541
 9042SOL    HW238763   0.719   2.881   7.675  1.5043 -0.6473 -0.0422
 9043SOL     OW38764   2.865   2.129  14.886 -0.8206  0.6833 -0.0535
 9043SOL    HW138765   2.861   2.036  14.863  1.1043  1.0702 -1.9024
 9043SOL    HW238766   2.895   2.129  14.978  0.2898 -0.6521 -0.3977
 9044SOL     OW38767   1.826   2.873   9.969 -0.3842 -0.0691  0.3273
 9044SOL    HW138768   1.855   2.802   9.912 -2.6529  0.4177 -1.4447
 9044SOL    HW238769   1.906   2.923   9.983 -0.2901 -0.3501  0.8069
 9045SOL     OW38770   1.026   1.218   6.168  0.5295 -0.4301 -0.0208
 9045SOL    HW138771   1.103   1.164   6.151  1.3503  0.9034 -0.4895
 9045SOL    HW238772   0.990   1.186   6.251  1.2638 -2.7507 -0.5825
 9046SOL     OW38773   3.725   1.628   0.734  0.4896 -0.4906 -0.3500
 9046SOL    HW138774   3.802   1.583   0.769  1.5862 -0.1296 -2.2362
 9046SOL    HW238775   3.738   1.709   0.782 -1.9898 -1.0797  1.3047
 9047SOL     OW38776   4.699   2.022  11.638  0.0225 -0.0071 -0.3168
 9047SOL    HW138777   0.054   2.047  11.648 -0.5620  2.2073 -0.4799
 9047SOL    HW238778   4.674   2.080  11.566  1.4592 -0.9306 -1.5737
 9048SOL     OW38779   3.370   1.657   3.436  0.5662 -0.4735 -0.0173
 9048SOL    HW138780   3.432   1.653   3.508  1.0243 -2.0685 -0.5118
 9048SOL    HW238781   3.423   1.624   3.364 -2.8692 -0.0998 -2.7511
 9049SOL     OW38782   0.545   2.274   6.191  0.0349 -0.1752 -0.1144
 9049SOL    HW138783   0.498   2.355   6.177 -1.2460 -0.8936  0.0556
 9049SOL    HW238784   0.477   2.214   6.222 -0.0854  0.4985  0.8961
 9050SOL     OW38785   2.025   1.216   6.679 -0.3242  0.2727 -0.1430
 9050SOL    HW138786   1.959   1.153   6.707 -0.5911  0.7530  0.3101
 9050SOL    HW238787   2.053   1.165   6.603 -1.3298  0.5993 -0.7455
 9051SOL     OW38788   3.403   0.160  10.293 -0.0938  0.3757  0.5798
 9051SOL    HW138789   3.314   0.125  10.300  0.9037 -1.9159  1.6596
 9051SOL    HW238790   3.385   0.246  10.254  1.1735  0.5184  0.3149
 9052SOL     OW38791   0.947   2.263   1.242  0.4528  0.1583  0.6261
 9052SOL    HW138792   0.853   2.273   1.258  0.2603 -0.2621 -0.2007
 9052SOL    HW238793   0.983   2.249   1.330 -1.3806 -1.7682  1.0881
 9053SOL     OW38794   2.944   4.036  17.577  0.0907 -0.3125  0.2946
 9053SOL    HW138795   2.991   4.114  17.606 -0.0583  0.0478 -0.4435
 9053SOL    HW238796   2.904   4.008  17.660  0.8642  0.2832  0.8795
 9054SOL     OW38797   1.035   3.556  13.420 -0.2488 -0.2780 -0.1872
 9054SOL    HW138798   1.001   3.568  13.331 -2.4155 -2.8577  0.3250
 9054SOL    HW238799   1.026   3.463  13.438 -0.6738  0.1566  1.8036
 9055SOL     OW38800   1.249   2.566  15.452 -0.7774 -0.4014 -0.7740
 9055SOL    HW138801   1.273   2.657  15.473  3.4030 -1.1307 -2.3986
 9055SOL    HW238802   1.311   2.557  15.380  3.5911  1.0779  2.7481
 9056SOL     OW38803   0.026   0.456   9.697 -0.6215  0.0915  0.5458
 9056SOL    HW138804   0.016   0.403   9.777 -1.7753 -1.3882 -0.5703
 9056SOL    HW238805   0.084   0.523   9.732 -3.3608  1.8122  1.8202
 9057SOL     OW38806   4.361   3.199   7.731 -0.4207  0.1174 -0.0704
 9057SOL    HW138807   4.311   3.122   7.759  0.1044 -1.2715 -2.9311
 9057SOL    HW238808   4.289   3.260   7.744 -0.8492 -0.5791  0.8006
 9058SOL     OW38809   3.636   4.144   9.354  0.2509  0.5695 -0.4034
 9058SOL    HW138810   3.632   4.232   9.393  3.4454 -0.2647  1.7891
 9058SOL    HW238811   3.686   4.166   9.276 -0.6546 -0.6750 -1.3424
 9059SOL     OW38812   3.716   4.201   8.471  0.4273  0.2061  0.4965
 9059SOL    HW138813   3.754   4.175   8.387 -3.1102  0.8138 -1.2759
 9059SOL    HW238814   3.673   4.118   8.492  1.1524 -0.7374 -1.7160
 9060SOL     OW38815   2.421   1.594  12.479  0.1962 -0.1987 -0.1910
 9060SOL    HW138816   2.485   1.663  12.463  1.8056 -1.5185  0.5627
 9060SOL    HW238817   2.352   1.632  12.534 -1.3678 -1.1681 -1.4744
 9061SOL     OW38818   0.279   1.419   3.233 -0.2130  0.0437 -0.4730
 9061SOL    HW138819   0.200   1.418   3.287  1.2268 -0.4113  1.6146
 9061SOL    HW238820   0.349   1.438   3.295 -0.6884 -1.3581  0.4864
 9062SOL     OW38821   2.311   4.679   5.699  0.7635  0.5453  0.1745
 9062SOL    HW138822   2.293   4.635   5.615  1.7084  1.2588 -0.4029
 9062SOL    HW238823   2.231   4.732   5.702 -0.1687 -0.8133 -0.7793
 9063SOL     OW38824   2.767   0.415   7.925  0.3939  0.8055 -0.3451
 9063SOL    HW138825   2.838   0.479   7.923  1.3938 -0.3822 -2.1949
 9063SOL    HW238826   2.721   0.450   8.001  1.5535  0.2502  0.6169
 9064SOL     OW38827   2.096   0.843   5.789 -0.1302 -0.1555 -0.2416
 9064SOL    HW138828   2.174   0.892   5.762 -1.6919  1.1375 -2.4282
 9064SOL    HW238829   2.037   0.853   5.714 -0.6941  0.9554  0.3663
 9065SOL     OW38830   4.421   0.500   4.131 -0.2341  0.2628 -0.2325
 9065SOL    HW138831   4.434   0.409   4.103  0.7509  0.1546  0.5513
 9065SOL    HW238832   4.329   0.490   4.153 -0.4421  0.6581 -0.9322
 9066SOL     OW38833   3.674   1.834   2.555 -0.7010  0.0436  0.0309
 9066SOL    HW138834   3.755   1.791   2.582 -0.2540  1.5675  1.1432
 9066SOL    HW238835   3.622   1.755   2.541  0.6390 -0.6799 -0.8140
 9067SOL     OW38836   3.997   4.086   6.030  0.0719 -0.0428 -0.2664
 9067SOL    HW138837   4.085   4.112   6.004 -0.1046  1.9780  1.1766
 9067SOL    HW238838   4.010   4.059   6.121  1.4089  0.7894 -0.2202
 9068SOL     OW38839   2.991   4.315   3.701  0.0204 -0.4610  0.1896
 9068SOL    HW138840   3.043   4.236   3.682  0.1538  0.3994 -3.0128
 9068SOL    HW238841   2.937   4.281   3.773  1.4679 -0.7096  1.1570
 9069SOL     OW38842   0.762   2.446  17.483 -0.3944  0.3087  0.1792
 9069SOL    HW138843   0.807   2.466  17.566  0.8914  2.6786 -1.0945
 9069SOL    HW238844   0.809   2.499  17.419 -1.2934  0.5192 -0.3034
 9070SOL     OW38845   2.441   2.649  12.019 -0.6000 -0.4031 -0.5784
 9070SOL    HW138846   2.417   2.578  11.961 -0.3006 -1.2331  0.3089
 9070SOL    HW238847   2.407   2.614  12.102 -0.2790 -1.3461 -0.8425
 9071SOL     OW38848   2.222   4.088   4.186  0.6525  0.0203 -0.3651
 9071SOL    HW138849   2.155   4.144   4.147 -0.0130  1.1679  2.4029
 9071SOL    HW238850   2.206   4.005   4.141  0.5529  0.1107 -0.4973
 9072SOL     OW38851   4.186   3.304   7.099 -0.0373 -0.0933  0.1388
 9072SOL    HW138852   4.190   3.355   7.180  0.4802 -0.4328  0.3236
 9072SOL    HW238853   4.097   3.329   7.075 -0.4013 -1.1243  0.4298
 9073SOL     OW38854   1.792   3.744  12.054 -0.2141 -0.2197  0.3758
 9073SOL    HW138855   1.815   3.822  12.105  1.8745 -1.3723  1.1775
 9073SOL    HW238856   1.806   3.668  12.111  1.2153  1.1573  1.8762
 9074SOL     OW38857   1.096   1.922  10.226 -0.1660 -0.2782 -0.9855
 9074SOL    HW138858   1.032   1.992  10.213 -0.7001 -0.5862 -0.0063
 9074SOL    HW238859   1.179   1.966  10.207 -0.3653 -0.6196 -2.6314
 9075SOL     OW38860   1.344   2.043  15.082  0.3533  0.0305  0.0090
 9075SOL    HW138861   1.346   2.009  14.992  1.3763  0.2298 -0.0443
 9075SOL    HW238862   1.432   2.022  15.113  0.6495 -0.3329 -1.0638
 9076SOL     OW38863   3.819   0.566   7.910 -0.1813  0.8241  0.1167
 9076SOL    HW138864   3.870   0.499   7.954 -0.6802  1.0525  1.0387
 9076SOL    HW238865   3.874   0.644   7.917 -0.9346  1.1783  1.9215
 9077SOL     OW38866   3.070   0.946   7.345 -0.3247  0.5267 -0.4196
 9077SOL    HW138867   3.140   0.981   7.290 -0.6384  0.3995 -0.9019
 9077SOL    HW238868   3.124   0.936   7.424 -0.4540  1.5320 -0.2050
 9078SOL     OW38869   3.509   1.055   4.775  0.5082  0.6763 -0.1927
 9078SOL    HW138870   3.583   1.110   4.750  0.1144  2.9763  3.8422
 9078SOL    HW238871   3.493   1.097   4.859  0.0589  1.2217 -0.5436
 9079SOL     OW38872   2.198   4.000   7.124  0.0503  0.1785  0.6417
 9079SOL    HW138873   2.174   4.005   7.217 -2.0561 -1.4749  0.1777
 9079SOL    HW238874   2.259   4.074   7.116  1.3021 -1.0902 -1.4339
 9080SOL     OW38875   4.003   4.629   6.221  0.3520  0.0990 -0.2485
 9080SOL    HW138876   3.919   4.595   6.190  0.7166 -0.9881 -0.0220
 9080SOL    HW238877   4.052   4.550   6.243  2.3927  1.2983 -0.5143
 9081SOL     OW38878   4.324   4.541  14.635 -0.6291  0.9351 -0.3361
 9081SOL    HW138879   4.394   4.596  14.670 -0.9757  0.5551  0.9537
 9081SOL    HW238880   4.282   4.512  14.716  3.0313 -0.4974  1.0178
 9082SOL     OW38881   0.781   3.445  17.126 -0.0728  0.1960  0.1530
 9082SOL    HW138882   0.855   3.495  17.161  1.1953 -1.4443 -0.1787
 9082SOL    HW238883   0.756   3.384  17.196 -0.6962 -2.1722 -2.1504
 9083SOL     OW38884   2.804   0.765  10.159  0.8339 -0.2720  0.1642
 9083SOL    HW138885   2.734   0.815  10.201  0.6627 -1.6244  1.5178
 9083SOL    HW238886   2.805   0.682  10.207  0.6177  0.1349  0.8752
 9084SOL     OW38887   2.987   4.441   9.699  0.6317 -0.1187  0.2247
 9084SOL    HW138888   2.964   4.434   9.791  0.0760 -1.0893  0.0161
 9084SOL    HW238889   3.049   4.514   9.699 -0.4993  0.8353  0.4761
 9085SOL     OW38890   1.285   2.701   4.590 -0.1564  0.1418  0.1573
 9085SOL    HW138891   1.262   2.787   4.555  1.6044  0.5006 -0.1164
 9085SOL    HW238892   1.252   2.644   4.520 -2.1870 -0.9839  2.0360
 9086SOL     OW38893   0.924   2.638  14.460 -0.0312  0.2542  0.1594
 9086SOL    HW138894   0.828   2.640  14.456 -0.0317 -0.2218 -0.0116
 9086SOL    HW238895   0.943   2.559  14.510 -0.3206  0.3546  0.4288
 9087SOL     OW38896   1.320   3.364   6.541  0.2551  0.8412 -0.4497
 9087SOL    HW138897   1.337   3.450   6.579 -3.7984  0.9812  1.0959
 9087SOL    HW238898   1.286   3.325   6.622 -1.1349  2.1418 -0.3948
 9088SOL     OW38899   2.907   1.581   5.818  0.0254  0.2552  0.3023
 9088SOL    HW138900   2.831   1.523   5.818 -0.8127  1.3680  0.2013
 9088SOL    HW238901   2.949   1.551   5.737 -1.0434  1.3127 -0.6271
 9089SOL     OW38902   3.916   3.222   2.727  0.3183  0.5560  0.7174
 9089SOL    HW138903   3.946   3.276   2.655 -1.7034 -0.5587 -0.9706
 9089SOL    HW238904   3.847   3.282   2.756  0.4694  0.8176  0.5314
 9090SOL     OW38905   1.497   4.237   7.664  0.4763  0.0433  0.5246
 9090SOL    HW138906   1.485   4.309   7.727  0.5956 -0.9123  1.6468
 9090SOL    HW238907   1.489   4.286   7.582 -2.6896 -1.0578  0.1669
 9091SOL     OW38908   1.240   0.713   7.313 -0.0339  0.1433 -0.5605
 9091SOL    HW138909   1.193   0.762   7.381 -2.1127 -3.5027  0.6425
 9091SOL    HW238910   1.201   0.763   7.242 -1.4140  0.1077  0.1728
 9092SOL     OW38911   0.832   2.883   3.290 -0.0047 -0.3867 -0.4194
 9092SOL    HW138912   0.831   2.789   3.305 -1.5046  0.0069  1.9907
 9092SOL    HW238913   0.747   2.888   3.247 -0.1022  0.9038 -0.1066
 9093SOL     OW38914   1.693   3.368   8.052 -0.2439  0.0323  0.3140
 9093SOL    HW138915   1.630   3.382   7.981  1.4293  2.9702 -0.6045
 9093SOL    HW238916   1.651   3.296   8.098  0.5506  0.6072  1.9287
 9094SOL     OW38917   3.287   2.770   3.221 -0.3468  0.1690  0.0290
 9094SOL    HW138918   3.340   2.766   3.142 -2.8177 -0.3621 -1.6151
 9094SOL    HW238919   3.252   2.681   3.225  1.1129 -0.3429  1.6985
 9095SOL     OW38920   1.288   0.986   5.086 -0.5578 -0.1982 -0.2016
 9095SOL    HW138921   1.285   0.948   5.174 -1.0731 -1.3457 -0.7155
 9095SOL    HW238922   1.339   0.925   5.033  0.7514  1.4166 -0.7739
 9096SOL     OW38923   4.484   0.304   4.743 -0.0062  0.6485  1.0650
 9096SOL    HW138924   4.391   0.325   4.733 -0.2192 -0.5715  0.4451
 9096SOL    HW238925   4.514   0.318   4.654  1.6486 -0.1237  1.4914
 9097SOL     OW38926   3.511   3.335   5.271  0.2061  0.1334  0.4753
 9097SOL    HW138927   3.509   3.430   5.280  1.6489  0.3730 -1.7948
 9097SOL    HW238928   3.546   3.334   5.182 -2.6097  0.1375 -0.6363
 9098SOL     OW38929   2.704   0.782   9.899  0.2943  0.3063  0.0754
 9098SOL    HW138930   2.679   0.822   9.982  1.1378  0.8714  0.0583
 9098SOL    HW238931   2.710   0.693   9.935  2.4082  0.4174 -0.0123
 9099SOL     OW38932   4.624   3.094  17.001 -0.5058 -0.6758  0.2413
 9099SOL    HW138933   4.674   3.024  17.043  0.3298 -1.4496 -2.0720
 9099SOL    HW238934   4.657   3.169  17.052  1.0676 -0.1026 -1.5980
 9100SOL     OW38935   2.808   4.012   9.421  0.3255  0.1682  0.4437
 9100SOL    HW138936   2.850   4.096   9.438 -1.1749  0.7623  1.2223
 9100SOL    HW238937   2.877   3.952   9.394  0.2544 -0.1297  0.9260
 9101SOL     OW38938   2.904   2.445  14.879  0.0635 -0.1890  0.0548
 9101SOL    HW138939   2.916   2.350  14.875 -0.5153 -0.2516 -0.2170
 9101SOL    HW238940   2.927   2.463  14.970  0.4109 -0.1272 -0.0450
 9102SOL     OW38941   4.172   4.552   3.885  0.5239 -1.1337 -0.4711
 9102SOL    HW138942   4.225   4.632   3.893 -1.5454  0.1050  0.7777
 9102SOL    HW238943   4.111   4.566   3.957  1.8295 -0.1387  0.4504
 9103SOL     OW38944   2.659   0.269   3.797  0.3990  0.0256 -0.0762
 9103SOL    HW138945   2.670   0.176   3.819 -0.4366  0.6415  2.9117
 9103SOL    HW238946   2.574   0.294   3.834 -0.7408 -0.7521 -2.1550
 9104SOL     OW38947   0.509   1.963   9.116  0.1250 -0.7357  0.4777
 9104SOL    HW138948   0.480   1.916   9.037  2.6874 -0.8645 -0.3929
 9104SOL    HW238949   0.499   1.898   9.186 -0.8016  0.3946  1.3932
 9105SOL     OW38950   1.962   2.730  11.842  0.4537 -0.4068 -0.2963
 9105SOL    HW138951   2.029   2.750  11.777  1.2004 -2.7526 -0.2451
 9105SOL    HW238952   1.986   2.793  11.910 -2.1107 -0.5448  0.7281
 9106SOL     OW38953   2.147   2.296   4.479 -0.3913  0.5254  0.1578
 9106SOL    HW138954   2.135   2.202   4.463  0.2152  0.2808  1.1559
 9106SOL    HW238955   2.080   2.316   4.545 -1.3024 -1.9780 -0.0195
 9107SOL     OW38956   0.097   3.212   7.229  0.5987  0.1022  0.0397
 9107SOL    HW138957   0.084   3.194   7.322 -1.8993  0.3303 -0.2652
 9107SOL    HW238958   0.032   3.159   7.184 -0.0781  0.4153  0.6349
 9108SOL     OW38959   4.564   1.485   7.387 -0.6417 -0.3621  0.1274
 9108SOL    HW138960   4.557   1.395   7.420  1.4957 -1.6385 -2.8190
 9108SOL    HW238961   4.478   1.521   7.405 -0.2059  0.1632  1.1314
 9109SOL     OW38962   2.866   0.637   4.022 -0.4934 -0.3022  0.3871
 9109SOL    HW138963   2.897   0.701   3.958  0.8003  1.0677  2.4149
 9109SOL    HW238964   2.955   0.606   4.042 -0.5586 -2.1999 -2.2263
 9110SOL     OW38965   0.559   2.575   6.235  0.0854 -0.2215  0.0592
 9110SOL    HW138966   0.553   2.670   6.239  1.2983 -0.1890  0.9340
 9110SOL    HW238967   0.622   2.556   6.305  0.1618 -0.0790  0.0284
 9111SOL     OW38968   4.654   2.953   8.518 -0.1470  0.0269  0.0452
 9111SOL    HW138969   4.575   2.971   8.467 -1.7783 -4.0221  1.1250
 9111SOL    HW238970   4.669   3.031   8.571 -0.5724 -0.3227  0.6765
 9112SOL     OW38971   3.309   1.934   9.575 -0.7357  0.0551  0.3016
 9112SOL    HW138972   3.337   1.883   9.498 -1.1791 -0.4063  0.4478
 9112SOL    HW238973   3.315   2.019   9.532  2.2437 -0.1142  0.3706
 9113SOL     OW38974   4.699   1.758  12.377  0.2023 -0.4793  0.1909
 9113SOL    HW138975   4.695   1.671  12.338  0.3833  0.2297 -1.4260
 9113SOL    HW238976   4.737   1.810  12.306  0.1175 -0.5779  0.0738
 9114SOL     OW38977   1.145   3.872   3.473 -0.1374 -0.1415 -0.3764
 9114SOL    HW138978   1.173   3.896   3.562 -0.8245  0.5756 -0.3559
 9114SOL    HW238979   1.229   3.831   3.450  0.3728  0.5064  0.3099
 9115SOL     OW38980   1.134   1.226   0.794 -0.0155 -0.0876  0.3834
 9115SOL    HW138981   1.052   1.201   0.837 -0.3465 -1.8482 -1.2971
 9115SOL    HW238982   1.203   1.208   0.858  0.0733  1.6446  0.7706
 9116SOL     OW38983   3.789   3.161   7.546 -0.5608  0.1181  0.5649
 9116SOL    HW138984   3.778   3.163   7.451  0.2494  0.0029  0.4649
 9116SOL    HW238985   3.852   3.233   7.547  0.8505 -1.1085  2.4932
 9117SOL     OW38986   3.616   0.295   5.618  0.0950  0.4430  0.5072
 9117SOL    HW138987   3.678   0.238   5.664 -1.1024 -1.9761 -0.9077
 9117SOL    HW238988   3.680   0.359   5.586  0.7027 -1.3067 -1.8016
 9118SOL     OW38989   4.689   2.627   1.923 -0.3388 -0.3192 -0.1112
 9118SOL    HW138990   4.695   2.566   1.996  1.9880  0.7692  0.6136
 9118SOL    HW238991   4.728   2.708   1.957  2.1936 -1.6251  0.1002
 9119SOL     OW38992   1.653   2.534  15.115  0.2479 -0.6628 -0.6197
 9119SOL    HW138993   1.577   2.489  15.151 -0.8111 -0.0006 -2.0093
 9119SOL    HW238994   1.614   2.619  15.096  1.1834 -0.1838 -0.3866
 9120SOL     OW38995   3.819   2.799  17.213 -0.4782 -0.6460 -0.1199
 9120SOL    HW138996   3.744   2.801  17.274 -1.4486  1.0752 -1.3629
 9120SOL    HW238997   3.812   2.712  17.174 -3.1685 -0.8574  0.7969
 9121SOL     OW38998   0.569   3.212   7.833 -0.3097  1.0669 -0.2826
 9121SOL    HW138999   0.573   3.199   7.738 -2.7507  0.3402 -0.2688
 9121SOL    HW239000   0.486   3.165   7.843  0.7753 -0.3490  1.9761
 9122SOL     OW39001   1.859   2.024   3.820  0.3447  0.4433  0.2412
 9122SOL    HW139002   1.802   1.955   3.854 -0.0719  0.5759 -0.1873
 9122SOL    HW239003   1.916   1.966   3.770  1.0279  0.4451  1.0109
 9123SOL     OW39004   3.006   2.983  11.501 -0.2001  0.1135  0.0301
 9123SOL    HW139005   3.078   2.924  11.522  0.6547  0.8448 -0.8168
 9123SOL    HW239006   2.939   2.927  11.462  2.2201 -1.6236 -1.6248
 9124SOL     OW39007   1.887   0.963  17.311 -0.2580 -0.5221 -0.3906
 9124SOL    HW139008   1.930   1.019  17.246  0.1796 -0.3315  0.0536
 9124SOL    HW239009   1.846   0.895  17.259 -0.9682 -1.1728  1.0489
 9125SOL     OW39010   2.387   3.946   5.430  0.5358  0.6167 -0.4000
 9125SOL    HW139011   2.458   3.884   5.412  2.4462  2.0227  2.2676
 9125SOL    HW239012   2.377   3.998   5.350 -2.3850  1.0550  0.2499
 9126SOL     OW39013   0.655   0.532   2.033  0.4769 -0.2856 -0.4664
 9126SOL    HW139014   0.748   0.531   2.011  0.6967  1.3049  0.4176
 9126SOL    HW239015   0.597   0.497   1.965  1.8817 -1.1282 -1.2224
 9127SOL     OW39016   4.218   3.450   2.184 -0.1096  0.3934  0.1794
 9127SOL    HW139017   4.241   3.539   2.211 -0.0938  0.3031  0.4627
 9127SOL    HW239018   4.291   3.402   2.223 -1.0442 -0.7624  0.4770
 9128SOL     OW39019   0.215   4.098  16.346  0.4016  0.2531 -0.0118
 9128SOL    HW139020   0.202   4.166  16.412 -1.4932 -0.4007  0.2866
 9128SOL    HW239021   0.272   4.030  16.383  0.4393 -0.3907 -1.2436
 9129SOL     OW39022   2.100   4.592   0.718  0.7077  0.6934 -0.3915
 9129SOL    HW139023   2.066   4.616   0.632  0.8633  0.1149 -0.6126
 9129SOL    HW239024   2.165   4.524   0.697  0.2829 -0.6036  2.5298
 9130SOL     OW39025   0.948   1.708   1.407 -0.0290 -0.2172  0.8376
 9130SOL    HW139026   0.890   1.673   1.338  1.2865 -0.3291 -0.2175
 9130SOL    HW239027   0.889   1.707   1.482  1.3048  1.0011  1.9027
 9131SOL     OW39028   0.646   1.201   2.037 -0.4316 -0.6269 -0.3297
 9131SOL    HW139029   0.556   1.228   2.050  0.3100  1.4072  0.5858
 9131SOL    HW239030   0.636   1.133   1.970  1.6599 -2.3051  1.0515
 9132SOL     OW39031   3.035   1.182   5.477  0.6496  0.6689 -0.4823
 9132SOL    HW139032   3.089   1.115   5.435  1.5887 -0.6768  2.9348
 9132SOL    HW239033   3.080   1.198   5.560 -1.1632 -1.7267  0.9758
 9133SOL     OW39034   3.803   0.828   4.988 -0.5517 -0.6695  0.3029
 9133SOL    HW139035   3.765   0.786   4.910  1.1269 -1.3953 -0.1287
 9133SOL    HW239036   3.894   0.799   4.986 -0.2847  0.1764  0.1890
 9134SOL     OW39037   2.349   0.020  13.531 -0.0821 -0.1864  0.4613
 9134SOL    HW139038   2.336   0.032  13.625  0.0345 -3.5312  0.9037
 9134SOL    HW239039   2.439   4.724  13.533 -0.4830 -1.4392 -2.4324
 9135SOL     OW39040   0.623   4.369  13.386 -0.1147  0.0662 -0.0368
 9135SOL    HW139041   0.662   4.311  13.452 -0.5339 -0.1751  0.0037
 9135SOL    HW239042   0.554   4.313  13.352  0.7872 -1.0849  0.0299
 9136SOL     OW39043   0.796   3.345   8.664 -0.5786  0.6555  0.4471
 9136SOL    HW139044   0.883   3.378   8.641 -0.0965 -0.0506  1.2721
 9136SOL    HW239045   0.742   3.387   8.597 -1.3565 -0.0095  0.6664
 9137SOL     OW39046   3.526   0.169   0.388 -0.5386 -0.3426 -0.0896
 9137SOL    HW139047   3.460   0.102   0.368 -1.1991  0.2772 -0.0004
 9137SOL    HW239048   3.546   0.204   0.302  0.2287 -0.2596  0.1202
 9138SOL     OW39049   2.905   4.028   8.409 -0.0708 -0.2567  0.7316
 9138SOL    HW139050   2.968   4.028   8.481  3.0719  3.6477 -2.0403
 9138SOL    HW239051   2.932   3.946   8.367 -0.6959  0.5517 -1.2645
 9139SOL     OW39052   0.730   1.249  14.695  0.1362  0.2180  0.7293
 9139SOL    HW139053   0.772   1.321  14.742  2.0541 -0.9417  0.8188
 9139SOL    HW239054   0.727   1.280  14.605 -0.3046  0.5894  0.8767
 9140SOL     OW39055   3.276   0.328   8.588 -0.2408 -0.1955 -0.2620
 9140SOL    HW139056   3.303   0.417   8.610 -0.2341  0.1193 -1.5381
 9140SOL    HW239057   3.361   0.284   8.593  0.8521  1.6719 -2.2862
 9141SOL     OW39058   1.847   0.495   0.241  0.6037  0.0733  0.5226
 9141SOL    HW139059   1.762   0.503   0.284  0.5683  1.4993  0.1774
 9141SOL    HW239060   1.815   0.479   0.152  0.6849 -0.7462  0.6400
 9142SOL     OW39061   3.324   0.809   4.765  0.2416  0.4774  0.0894
 9142SOL    HW139062   3.363   0.801   4.852 -0.7446  3.9485  0.8391
 9142SOL    HW239063   3.385   0.873   4.730 -0.4970  0.8552 -0.5120
 9143SOL     OW39064   4.050   4.096   8.898  0.1726  0.0185  0.5763
 9143SOL    HW139065   4.004   4.052   8.970  0.0728 -1.3280 -0.3070
 9143SOL    HW239066   3.985   4.074   8.832 -1.1505  1.4474  1.4211
 9144SOL     OW39067   3.132   4.548   4.140  0.2178  0.1168  0.0870
 9144SOL    HW139068   3.209   4.602   4.158  1.1594 -0.4947 -2.1041
 9144SOL    HW239069   3.121   4.506   4.225  0.0110  2.0316  1.0133
 9145SOL     OW39070   2.425   4.035  16.027 -0.1494 -0.2843 -0.3902
 9145SOL    HW139071   2.452   4.125  16.009 -1.6294  0.3944  0.8380
 9145SOL    HW239072   2.510   3.992  16.022 -0.1431 -0.1543 -1.5849
 9146SOL     OW39073   2.405   1.075   9.145  0.5399  0.2055  0.5489
 9146SOL    HW139074   2.395   1.007   9.078  1.4840  0.8264 -0.2222
 9146SOL    HW239075   2.470   1.033   9.200  0.6199 -0.9194 -0.4171
 9147SOL     OW39076   2.474   4.695   1.503 -0.0034 -0.5177 -0.4337
 9147SOL    HW139077   2.378   4.688   1.508  0.2150 -2.6792  0.9053
 9147SOL    HW239078   2.475   0.054   1.497 -0.7438 -0.4763  0.0972
 9148SOL     OW39079   1.623   2.640   9.698  0.1707 -0.0548  0.3020
 9148SOL    HW139080   1.708   2.669   9.666  0.7072  0.9448  2.7144
 9148SOL    HW239081   1.570   2.649   9.618  1.2037 -1.0534 -0.4925
 9149SOL     OW39082   0.457   3.542   2.169 -0.0739 -0.6094  0.3551
 9149SOL    HW139083   0.505   3.534   2.087 -0.2759  0.7654  0.0966
 9149SOL    HW239084   0.471   3.636   2.184  0.1803 -0.8308  1.5608
 9150SOL     OW39085   3.909   0.684  12.197  0.4595 -0.5673 -0.0289
 9150SOL    HW139086   4.000   0.695  12.169 -0.6522  1.8557 -2.7120
 9150SOL    HW239087   3.881   0.770  12.227  1.4295 -0.5501  0.8309
 9151SOL     OW39088   4.004   4.528  13.841  0.2796 -0.2385 -0.6185
 9151SOL    HW139089   4.064   4.592  13.881 -0.3163  1.3626 -2.2705
 9151SOL    HW239090   4.043   4.450  13.880  0.3677 -0.4153 -1.0575
 9152SOL     OW39091   0.622   3.852   4.408  0.1551 -0.1064 -0.0989
 9152SOL    HW139092   0.626   3.809   4.323 -0.5312  0.9566 -0.6701
 9152SOL    HW239093   0.706   3.822   4.443  0.7970  0.1742 -1.4330
 9153SOL     OW39094   4.085   0.914   4.057 -0.0984 -0.2333 -0.2696
 9153SOL    HW139095   4.146   0.985   4.079 -0.9491 -0.2396  2.1650
 9153SOL    HW239096   4.055   0.877   4.140  0.1595 -1.4815 -0.7446
 9154SOL     OW39097   1.422   0.766   8.694  0.3528  0.1106 -0.7454
 9154SOL    HW139098   1.356   0.699   8.713 -0.8834  1.5208 -0.0524
 9154SOL    HW239099   1.486   0.702   8.662 -0.1010 -0.9926  0.5543
 9155SOL     OW39100   1.559   4.091   6.081 -0.2988 -0.0230 -0.2907
 9155SOL    HW139101   1.476   4.060   6.117  0.0922  2.5027  2.8077
 9155SOL    HW239102   1.620   4.041   6.135 -0.0659  0.4819 -0.0855
 9156SOL     OW39103   1.471   1.608   3.334  0.5367 -0.1479  0.1705
 9156SOL    HW139104   1.436   1.544   3.396  0.1992 -0.6968 -0.5951
 9156SOL    HW239105   1.454   1.564   3.251 -1.6999 -0.4038  0.7711
 9157SOL     OW39106   0.480   0.092   9.582 -0.3925  0.9077 -0.1087
 9157SOL    HW139107   0.516   0.172   9.621 -2.2709  0.5525  2.3180
 9157SOL    HW239108   0.555   0.038   9.558 -2.3970 -1.2048 -1.6413
 9158SOL     OW39109   1.113   0.594   9.559  0.1644 -0.2131  0.2434
 9158SOL    HW139110   1.087   0.682   9.531 -2.4416 -2.2271 -3.5971
 9158SOL    HW239111   1.033   0.552   9.591  0.3707 -0.6455  0.1867
 9159SOL     OW39112   2.025   3.044  17.056 -0.2979  0.2779  0.0084
 9159SOL    HW139113   2.052   3.092  17.135  0.8199 -2.6600  1.3986
 9159SOL    HW239114   1.951   3.098  17.029 -1.6158 -1.1398  0.8398
 9160SOL     OW39115   0.486   3.293   2.367 -0.2741  0.1136 -0.6358
 9160SOL    HW139116   0.581   3.292   2.355 -0.3824 -0.8377 -1.3911
 9160SOL    HW239117   0.474   3.373   2.315  0.0021 -0.2042 -1.1852
 9161SOL     OW39118   4.679   3.893  17.143  0.1011 -0.5922  0.4747
 9161SOL    HW139119   4.734   3.823  17.106  0.6337  0.6270 -1.0123
 9161SOL    HW239120   4.727   3.965  17.104 -0.8645 -0.6456 -0.8309
 9162SOL     OW39121   1.993   1.317   9.285  0.1059 -0.3116  0.7374
 9162SOL    HW139122   2.014   1.238   9.235 -1.0289  0.6418 -1.2395
 9162SOL    HW239123   1.901   1.334   9.266  0.9829  2.5636 -0.8809
 9163SOL     OW39124   4.340   0.394  16.634  0.4276 -0.1043  0.6893
 9163SOL    HW139125   4.258   0.441  16.622  1.0781  0.4441 -1.7815
 9163SOL    HW239126   4.396   0.456  16.586  0.4578 -0.8884 -0.3085
 9164SOL     OW39127   4.712   4.200  13.360 -0.1564  0.0068  0.0637
 9164SOL    HW139128   4.635   4.185  13.305  0.0526 -0.7914 -0.0046
 9164SOL    HW239129   4.669   4.221  13.442 -2.3230 -0.3870 -0.9704
 9165SOL     OW39130   1.992   2.535   5.084 -0.2854  0.0629  0.5161
 9165SOL    HW139131   2.050   2.560   5.156 -1.1118  1.6904  0.6228
 9165SOL    HW239132   1.914   2.576   5.123 -0.9133  0.1774 -0.8558
 9166SOL     OW39133   1.842   4.725   5.403 -0.0191  0.5922  0.3851
 9166SOL    HW139134   1.864   0.082   5.410  0.5562  0.6616 -2.4233
 9166SOL    HW239135   1.863   4.704   5.312  0.6866 -0.0352  0.6972
 9167SOL     OW39136   3.148   0.156   7.167 -0.0077 -0.2045  0.6185
 9167SOL    HW139137   3.114   0.142   7.078 -0.4292 -1.4890  0.9851
 9167SOL    HW239138   3.068   0.144   7.218  0.2412  0.6032  1.1852
 9168SOL     OW39139   0.604   1.715  14.134 -0.0732  0.4518 -0.4891
 9168SOL    HW139140   0.591   1.638  14.079  1.0441 -0.7434  0.9402
 9168SOL    HW239141   0.562   1.777  14.074  2.3956  0.8506 -1.8088
 9169SOL     OW39142   3.649   2.702   4.149 -0.6312  0.6065 -0.0791
 9169SOL    HW139143   3.739   2.669   4.143 -0.3045  2.0268 -2.8853
 9169SOL    HW239144   3.598   2.644   4.206  0.4571 -0.0792  0.2035
 9170SOL     OW39145   3.502   2.118   2.845  0.0370 -0.2115  0.0937
 9170SOL    HW139146   3.533   2.177   2.914  0.7108 -1.1201  0.5643
 9170SOL    HW239147   3.569   2.050   2.848 -1.7998 -2.0248  0.3337
 9171SOL     OW39148   0.037   1.436   7.206  1.0886  0.0218 -0.4570
 9171SOL    HW139149   4.692   1.463   7.249  1.2714 -0.7715  0.3943
 9171SOL    HW239150   0.092   1.481   7.271  0.4332  0.2427 -0.0545
 9172SOL     OW39151   1.415   1.996  12.864 -0.5978  0.4925 -0.0488
 9172SOL    HW139152   1.320   1.989  12.879 -0.7906  0.0774 -1.4840
 9172SOL    HW239153   1.449   1.926  12.921 -0.0179  0.3457 -0.5827
 9173SOL     OW39154   3.794   3.748   3.220 -0.2209  0.2411  0.0819
 9173SOL    HW139155   3.772   3.758   3.313 -0.2612 -1.3983  0.2534
 9173SOL    HW239156   3.704   3.766   3.195  0.5658 -0.4985 -3.2638
 9174SOL     OW39157   0.190   1.506   6.784 -0.0769 -0.5377 -0.3235
 9174SOL    HW139158   0.180   1.547   6.870  1.3162 -0.3895 -0.2277
 9174SOL    HW239159   0.245   1.429   6.798 -2.0626 -1.5356  2.0997
 9175SOL     OW39160   3.102   2.621  11.155  0.1823  0.0310 -0.2859
 9175SOL    HW139161   3.052   2.579  11.085 -3.3916  0.2754  2.0872
 9175SOL    HW239162   3.029   2.681  11.172 -0.4252 -0.9414  0.4943
 9176SOL     OW39163   4.070   0.097   8.027 -0.4302  0.3625 -0.3967
 9176SOL    HW139164   4.042   0.024   7.973 -0.5237  1.0179 -1.2282
 9176SOL    HW239165   4.006   0.089   8.098  0.7073  0.6972  0.6583
 9177SOL     OW39166   2.877   0.988   2.688 -0.3054 -0.4902 -0.1296
 9177SOL    HW139167   2.876   1.082   2.670  0.0495 -0.6135 -0.8222
 9177SOL    HW239168   2.963   0.960   2.654 -0.9522 -0.9141 -1.4436
 9178SOL     OW39169   2.268   3.731  14.244  0.4242  0.0336  0.4041
 9178SOL    HW139170   2.288   3.690  14.328 -0.9503  1.5123  1.4505
 9178SOL    HW239171   2.214   3.807  14.265  1.4036  0.5398  1.1414
 9179SOL     OW39172   3.240   2.616   1.694  0.1012  0.6106  0.3935
 9179SOL    HW139173   3.211   2.705   1.713 -2.8136 -0.0235 -0.9685
 9179SOL    HW239174   3.195   2.568   1.763 -0.2549  0.1678 -0.1453
 9180SOL     OW39175   3.120   2.824   5.753 -0.0284 -0.2653 -0.6240
 9180SOL    HW139176   3.204   2.778   5.755 -0.2052 -0.5366  1.2157
 9180SOL    HW239177   3.128   2.879   5.831  1.2455  0.8334 -1.5264
 9181SOL     OW39178   3.489   1.323   2.368 -0.0644  0.2290  0.0283
 9181SOL    HW139179   3.486   1.414   2.340 -3.2022 -0.2373 -1.1828
 9181SOL    HW239180   3.584   1.312   2.364  0.0820  2.1029 -1.7878
 9182SOL     OW39181   1.466   1.205  12.000 -0.5154  0.4748 -0.3181
 9182SOL    HW139182   1.544   1.162  11.966  0.6212  0.8159  1.8597
 9182SOL    HW239183   1.511   1.279  12.041 -0.4350  0.5346 -0.5133
 9183SOL     OW39184   1.273   3.967   7.803 -0.5379 -0.0485  0.6276
 9183SOL    HW139185   1.241   4.054   7.777 -0.4966 -0.3595 -0.4711
 9183SOL    HW239186   1.285   3.968   7.898 -0.0251 -0.3276  0.5622
 9184SOL     OW39187   4.536   1.253   1.418  0.0899  0.1031 -0.6155
 9184SOL    HW139188   4.596   1.326   1.402 -0.3092  0.9561  1.7188
 9184SOL    HW239189   4.563   1.191   1.351  2.7028  0.5621  0.0362
 9185SOL     OW39190   1.330   4.163   5.387 -0.3490  0.2809  0.1823
 9185SOL    HW139191   1.374   4.200   5.463 -0.0766 -1.1239  0.7185
 9185SOL    HW239192   1.237   4.173   5.409 -0.7277  2.2124 -2.3163
 9186SOL     OW39193   3.809   1.436  14.291 -0.4419 -0.2427 -0.2481
 9186SOL    HW139194   3.862   1.357  14.300 -3.3492 -2.1306  0.2112
 9186SOL    HW239195   3.850   1.467  14.211 -1.2517 -0.3203 -0.6979
 9187SOL     OW39196   1.814   2.590   5.652 -0.0042  0.4982  0.2604
 9187SOL    HW139197   1.741   2.534   5.625  1.0671 -0.9198  0.3179
 9187SOL    HW239198   1.833   2.636   5.570 -1.0702  0.4458 -0.0251
 9188SOL     OW39199   3.800   3.264   4.087 -0.2757  0.6243  0.0400
 9188SOL    HW139200   3.773   3.288   3.999 -2.5637 -1.6412  0.1354
 9188SOL    HW239201   3.888   3.302   4.083 -0.2684  0.8297  1.9048
 9189SOL     OW39202   0.813   1.503   8.214 -0.1433 -0.1266 -0.0278
 9189SOL    HW139203   0.768   1.482   8.296  0.2131  0.5780  0.3582
 9189SOL    HW239204   0.763   1.456   8.148  0.1772  2.2508 -1.9534
 9190SOL     OW39205   4.068   0.181   7.640  0.1424  0.4539 -0.2792
 9190SOL    HW139206   4.025   0.098   7.661 -1.5630  1.2596 -0.5937
 9190SOL    HW239207   4.159   0.153   7.650 -0.8108 -2.0355  1.2919
 9191SOL     OW39208   1.673   0.460   1.163  0.3394  0.2301  0.2409
 9191SOL    HW139209   1.691   0.511   1.084  0.5756  0.6986  0.6016
 9191SOL    HW239210   1.620   0.385   1.134  0.2971 -0.0051  0.9220
 9192SOL     OW39211   3.652   4.328   5.187  0.2186  0.2261 -0.0757
 9192SOL    HW139212   3.732   4.291   5.151 -0.4167 -0.6063 -0.6523
 9192SOL    HW239213   3.635   4.263   5.255 -0.9490  0.7477  0.1391
 9193SOL     OW39214   2.366   1.340  10.216 -0.4398  0.2092  0.0435
 9193SOL    HW139215   2.273   1.357  10.205 -0.6554 -0.7563  0.3269
 9193SOL    HW239216   2.344   1.249  10.239 -1.0891  0.4623  0.4096
 9194SOL     OW39217   2.634   3.226   8.864  0.8364  0.2755  1.0074
 9194SOL    HW139218   2.542   3.251   8.871  0.5476  0.5765 -3.5676
 9194SOL    HW239219   2.624   3.153   8.802 -0.1096  1.2066  0.0713
 9195SOL     OW39220   1.375   2.943   7.890  0.2229  0.6738 -0.0797
 9195SOL    HW139221   1.445   3.002   7.863 -0.1323  1.5374  0.9223
 9195SOL    HW239222   1.324   3.009   7.936 -0.0892 -0.1057  0.6976
 9196SOL     OW39223   4.416   4.474   8.707 -0.1370 -0.6002  0.3809
 9196SOL    HW139224   4.341   4.444   8.758  0.1051  1.7091  2.0924
 9196SOL    HW239225   4.479   4.425   8.760 -1.3685  1.3176  3.6477
 9197SOL     OW39226   1.954   0.543  16.847  0.0060  0.0399  0.0273
 9197SOL    HW139227   1.874   0.588  16.820  0.1369 -0.4796 -1.2326
 9197SOL    HW239228   1.993   0.532  16.760 -2.1123 -1.8529 -0.6877
 9198SOL     OW39229   0.950   2.800   1.771 -0.6406  0.1642 -0.7037
 9198SOL    HW139230   1.034   2.795   1.816 -0.8117  0.7763 -0.3160
 9198SOL    HW239231   0.932   2.711   1.742 -0.6024  0.5416 -1.9089
 9199SOL     OW39232   2.700   0.399   1.427  0.2560 -0.0881  0.0510
 9199SOL    HW139233   2.759   0.435   1.361 -0.1395  1.1733  0.3943
 9199SOL    HW239234   2.759   0.400   1.503 -0.6847  0.1377  0.7784
 9200SOL     OW39235   0.915   2.988  16.595 -0.5583 -0.2827 -0.0653
 9200SOL    HW139236   0.899   3.069  16.643 -0.2490 -1.4897  2.0468
 9200SOL    HW239237   0.940   3.019  16.508  1.5816  4.0260  2.0722
 9201SOL     OW39238   0.215   0.440   5.510 -0.9821 -0.4870  0.5024
 9201SOL    HW139239   0.141   0.452   5.450  0.1292  3.3483 -0.0976
 9201SOL    HW239240   0.259   0.524   5.519 -0.1985 -0.6669 -1.7842
 9202SOL     OW39241   2.574   3.744  16.570 -0.2560 -0.5125  0.3078
 9202SOL    HW139242   2.576   3.653  16.598  1.4595 -0.5287  0.1179
 9202SOL    HW239243   2.545   3.752  16.479  0.5521  1.8073  0.2567
 9203SOL     OW39244   1.400   4.167   6.685 -0.1794 -0.1116 -0.0474
 9203SOL    HW139245   1.317   4.198   6.649  0.2908  1.4452  0.2234
 9203SOL    HW239246   1.434   4.251   6.713  2.2591 -1.1684  0.1256
 9204SOL     OW39247   2.730   2.167   5.744  0.1617  0.4056 -0.0712
 9204SOL    HW139248   2.769   2.135   5.825 -0.7431 -3.4298 -1.1217
 9204SOL    HW239249   2.746   2.260   5.755  1.5237  0.5200 -2.9364
 9205SOL     OW39250   3.395   2.586   7.416  0.3067 -1.1135 -0.6423
 9205SOL    HW139251   3.420   2.595   7.324 -2.4679  0.2666 -1.2578
 9205SOL    HW239252   3.463   2.523   7.442  1.3309  0.6908  1.0603
 9206SOL     OW39253   2.683   0.706  17.386 -0.1811 -0.3959 -0.1611
 9206SOL    HW139254   2.702   0.785  17.335 -0.2251 -1.1505 -1.3257
 9206SOL    HW239255   2.587   0.710  17.392 -0.1234 -1.0616  1.2392
 9207SOL     OW39256   3.910   4.348   7.171  0.7115  0.3459 -0.4054
 9207SOL    HW139257   3.925   4.257   7.195 -0.9319  0.2832  0.4071
 9207SOL    HW239258   3.971   4.395   7.228  0.4928 -0.5997  0.6139
 9208SOL     OW39259   1.504   1.810  13.022  0.0465 -0.3013 -0.2717
 9208SOL    HW139260   1.481   1.722  12.991 -1.1622 -0.4836  1.1353
 9208SOL    HW239261   1.471   1.808  13.112 -2.1669 -1.3904 -1.0897
 9209SOL     OW39262   4.502   2.106   2.451  0.0731  0.1962  0.3678
 9209SOL    HW139263   4.471   2.030   2.401 -1.3664  1.2998 -0.4242
 9209SOL    HW239264   4.569   2.131   2.387  0.8673 -0.6157  0.8926
 9210SOL     OW39265   1.788   0.891   6.014 -0.2206  0.3699  0.3392
 9210SOL    HW139266   1.874   0.853   6.033 -0.6245 -0.3969  0.6411
 9210SOL    HW239267   1.770   0.844   5.932  0.5943  0.0624  0.3416
 9211SOL     OW39268   3.923   4.613   9.899 -0.2755 -0.1474 -0.4730
 9211SOL    HW139269   3.849   4.672   9.885 -0.4662  0.0129  1.2320
 9211SOL    HW239270   3.998   4.673   9.894 -1.7904  1.7856  0.2385
 9212SOL     OW39271   3.033   1.560   4.695  0.4536  0.4074  0.7703
 9212SOL    HW139272   2.967   1.531   4.758  0.0555  1.2164  0.7240
 9212SOL    HW239273   2.977   1.634   4.670 -0.1318  0.2655  1.6610
 9213SOL     OW39274   4.045   0.700  15.796  0.1908 -0.5117 -0.6776
 9213SOL    HW139275   4.021   0.632  15.733 -0.9127 -1.8800  1.2257
 9213SOL    HW239276   4.139   0.691  15.814  0.4854  0.6791 -1.6475
 9214SOL     OW39277   0.204   0.174   0.865  0.5305  0.6629  0.3587
 9214SOL    HW139278   0.292   0.212   0.856  0.6226  0.0644 -1.1637
 9214SOL    HW239279   0.151   0.243   0.905 -2.9877 -0.8800 -1.6205
 9215SOL     OW39280   1.812   0.348   7.921 -0.1638  0.5605 -0.5620
 9215SOL    HW139281   1.757   0.396   7.984 -0.9506  0.8608 -1.4703
 9215SOL    HW239282   1.875   0.413   7.890  1.3709 -0.4259  0.5172
 9216SOL     OW39283   2.647   2.048  17.007  0.3114 -0.0125  0.3297
 9216SOL    HW139284   2.716   2.112  17.021  0.5593 -0.9016  3.3289
 9216SOL    HW239285   2.572   2.108  17.009  1.8947  1.9552  0.7976
 9217SOL     OW39286   2.556   4.426  17.147 -0.3248  0.1249  0.1025
 9217SOL    HW139287   2.593   4.478  17.218 -0.6734  0.8166 -0.2259
 9217SOL    HW239288   2.500   4.365  17.195 -1.4172  1.6999  0.8591
 9218SOL     OW39289   4.160   0.983   0.501 -0.1228 -0.2386  0.2087
 9218SOL    HW139290   4.125   1.057   0.453 -1.2903 -2.2578 -2.0825
 9218SOL    HW239291   4.254   0.984   0.482 -0.1831  3.0519  0.2383
 9219SOL     OW39292   3.419   1.596   3.781  0.1441  0.0154 -0.4548
 9219SOL    HW139293   3.493   1.656   3.792 -0.1698  0.4726 -0.8242
 9219SOL    HW239294   3.370   1.615   3.861  0.9947  0.3858 -0.0091
 9220SOL     OW39295   0.425   2.748   7.014 -0.7347 -0.2890 -0.3810
 9220SOL    HW139296   0.384   2.768   7.098 -0.0234  1.3240 -0.4220
 9220SOL    HW239297   0.431   2.654   7.032  1.4390 -0.5152 -2.3072
 9221SOL     OW39298   2.171   3.956  15.860 -0.0584  0.1604  0.3429
 9221SOL    HW139299   2.246   3.991  15.908  2.1500  1.1809 -3.9004
 9221SOL    HW239300   2.103   4.019  15.883 -3.0299 -2.1941 -1.9379
 9222SOL     OW39301   4.024   4.118   6.453 -0.7262  0.3023 -0.1073
 9222SOL    HW139302   4.043   4.062   6.377  0.1008 -0.1360  0.4223
 9222SOL    HW239303   4.104   4.115   6.505 -0.2443 -3.9572 -1.0662
 9223SOL     OW39304   1.079   1.586   8.943 -0.1567  0.5364  0.5420
 9223SOL    HW139305   1.087   1.500   8.984 -2.3577 -0.0653 -0.2931
 9223SOL    HW239306   1.041   1.631   9.018 -0.0518  1.2572  0.1613
 9224SOL     OW39307   1.828   2.507   6.302  0.3467  0.2107 -0.0958
 9224SOL    HW139308   1.827   2.444   6.375  2.6292 -0.0076 -0.2445
 9224SOL    HW239309   1.749   2.555   6.325 -0.6839 -1.2792 -0.5578
 9225SOL     OW39310   3.787   3.089   6.694  0.1410 -0.3201  0.4063
 9225SOL    HW139311   3.805   3.072   6.602  1.8184 -3.2814  1.2771
 9225SOL    HW239312   3.797   3.006   6.740  1.7984 -0.2413  0.2040
 9226SOL     OW39313   2.649   0.968   5.576 -0.1838  0.1163 -0.7446
 9226SOL    HW139314   2.596   0.888   5.585  2.3141 -1.5651 -1.0700
 9226SOL    HW239315   2.715   0.937   5.514  1.7034  0.0945  1.2793
 9227SOL     OW39316   3.566   1.294   5.178  0.6506 -0.1597 -0.5597
 9227SOL    HW139317   3.531   1.291   5.267  0.4044  0.7349 -0.6304
 9227SOL    HW239318   3.549   1.206   5.144 -1.7872  0.2253 -0.3488
 9228SOL     OW39319   3.749   4.575  11.772 -0.3416  0.0753 -0.1395
 9228SOL    HW139320   3.730   4.549  11.682  1.2289 -1.6597  0.0323
 9228SOL    HW239321   3.844   4.564  11.767 -0.4182 -1.5524  2.1877
 9229SOL     OW39322   1.354   1.600   4.182  0.0716  0.3092 -0.3423
 9229SOL    HW139323   1.380   1.689   4.157  0.5387  0.2696  0.0054
 9229SOL    HW239324   1.355   1.558   4.096 -0.7742  0.2705 -0.3322
 9230SOL     OW39325   3.860   1.509  10.405 -0.1322 -0.4927  0.4754
 9230SOL    HW139326   3.839   1.484  10.495  1.0106 -0.3721  0.7750
 9230SOL    HW239327   3.955   1.523  10.409 -0.3259  0.7504  0.8341
 9231SOL     OW39328   0.601   0.962   2.993 -0.2394 -0.2924  0.1488
 9231SOL    HW139329   0.664   0.892   2.978  0.6866  0.3372  1.0493
 9231SOL    HW239330   0.615   1.022   2.920 -0.5614 -1.4170 -0.8413
 9232SOL     OW39331   3.923   3.886  16.149  0.4273 -0.5253  0.3562
 9232SOL    HW139332   3.915   3.815  16.085 -1.5343 -0.4354  0.4987
 9232SOL    HW239333   3.940   3.839  16.230  0.5953  0.7899  1.0818
 9233SOL     OW39334   4.040   0.728   0.478 -0.0679 -0.1543 -0.0898
 9233SOL    HW139335   4.063   0.821   0.478 -1.6747  0.2601  1.5014
 9233SOL    HW239336   3.994   0.723   0.394 -2.1378  0.2498  1.0138
 9234SOL     OW39337   3.788   2.027   2.812 -0.2080  0.0425  0.4206
 9234SOL    HW139338   3.844   2.098   2.844 -0.6295  0.1166  0.9856
 9234SOL    HW239339   3.769   2.056   2.723 -0.5177 -1.4057  0.0160
 9235SOL     OW39340   0.679   0.996   2.683 -0.3661 -0.5590  0.1370
 9235SOL    HW139341   0.655   1.024   2.595  0.8043  2.0195  0.6252
 9235SOL    HW239342   0.661   0.903   2.670 -0.8758 -0.2570 -1.2759
 9236SOL     OW39343   0.700   3.628  12.486 -0.5195 -0.6545  0.4482
 9236SOL    HW139344   0.747   3.596  12.409 -2.6269 -1.5623 -0.4577
 9236SOL    HW239345   0.775   3.645  12.543 -1.0705  3.6290 -0.1058
 9237SOL     OW39346   3.917   4.694  12.878  0.0330 -0.3057 -0.0884
 9237SOL    HW139347   3.877   0.035  12.840 -0.7433 -1.7616 -2.2990
 9237SOL    HW239348   3.995   4.724  12.924 -1.1533  1.7465  0.5641
 9238SOL     OW39349   2.944   1.453   2.719  0.2132  0.1197  0.0886
 9238SOL    HW139350   2.968   1.473   2.809 -1.1234  0.8308  0.2810
 9238SOL    HW239351   2.908   1.540   2.703  0.0134 -0.0155 -0.2017
 9239SOL     OW39352   3.495   1.076   7.835  0.6584  0.1769  0.1488
 9239SOL    HW139353   3.510   1.054   7.744 -0.1739 -0.9548  0.2905
 9239SOL    HW239354   3.544   1.004   7.876  1.7552  1.4550  1.1034
 9240SOL     OW39355   1.227   0.822  16.926 -0.1574 -0.2429 -0.5441
 9240SOL    HW139356   1.153   0.835  16.866  0.0487  1.2215 -0.4792
 9240SOL    HW239357   1.244   0.907  16.966 -0.5250 -0.7701  0.7423
 9241SOL     OW39358   3.123   2.063   7.177  0.2644 -0.6538  0.3789
 9241SOL    HW139359   3.161   2.115   7.106 -0.6980 -1.4348 -0.7173
 9241SOL    HW239360   3.041   2.028   7.142  0.0208 -1.1368  1.4311
 9242SOL     OW39361   4.654   4.400  14.022  0.3615  0.0087  0.0360
 9242SOL    HW139362   4.644   4.312  14.060  1.1436 -0.8644 -1.7929
 9242SOL    HW239363   4.726   4.396  13.960  1.7933  3.2422  1.5384
 9243SOL     OW39364   2.533   1.652  12.094  0.3672  0.0368  0.2684
 9243SOL    HW139365   2.628   1.655  12.099  0.3766 -0.3193  0.3698
 9243SOL    HW239366   2.504   1.739  12.068 -2.5059 -1.1501 -0.6544
 9244SOL     OW39367   4.190   2.724   6.427 -0.0863 -0.4262 -0.3853
 9244SOL    HW139368   4.100   2.757   6.417  0.2583  1.3842  2.4403
 9244SOL    HW239369   4.219   2.697   6.340  0.0452  0.3726 -0.5961
 9245SOL     OW39370   1.462   1.756  10.039  0.3464 -0.3563 -0.1373
 9245SOL    HW139371   1.450   1.791  10.127 -3.2242 -1.2448 -0.2795
 9245SOL    HW239372   1.522   1.683  10.049 -0.6157 -1.3485 -1.7220
 9246SOL     OW39373   0.086   3.156   8.932 -0.1001 -0.2202 -0.6891
 9246SOL    HW139374   0.157   3.099   8.900 -0.1239 -0.2096 -0.7595
 9246SOL    HW239375   0.108   3.240   8.894  0.9530 -1.4450 -2.7860
 9247SOL     OW39376   1.561   1.355   0.105  0.0200  0.6146 -0.0156
 9247SOL    HW139377   1.523   1.418   0.044  1.1818  1.0177 -0.3360
 9247SOL    HW239378   1.569   1.275   0.053 -0.0841 -0.2144  1.2335
 9248SOL     OW39379   1.097   1.450  17.164 -0.2554  0.2942  0.7026
 9248SOL    HW139380   1.072   1.394  17.237  2.8192 -1.8891  0.0891
 9248SOL    HW239381   1.191   1.433  17.159 -0.5439 -2.0277  3.2034
 9249SOL     OW39382   1.552   4.054   9.724  0.6367  0.2832 -0.6541
 9249SOL    HW139383   1.620   4.032   9.660  0.6524 -2.9819  0.4811
 9249SOL    HW239384   1.600   4.101   9.792  0.4358 -1.6501  0.8095
 9250SOL     OW39385   1.450   4.734   0.006 -0.3049  0.2286  0.4141
 9250SOL    HW139386   1.499   0.060  17.699  1.7516 -1.5071  0.2547
 9250SOL    HW239387   1.422   4.673  17.682  0.3859 -0.2942  0.5968
 9251SOL     OW39388   4.470   3.312   0.966 -0.2319  0.0007 -0.0015
 9251SOL    HW139389   4.537   3.252   0.999  0.6298  0.4045 -1.0247
 9251SOL    HW239390   4.434   3.348   1.048  3.5115  2.4908  0.5456
 9252SOL     OW39391   1.656   1.378  17.414  0.1050  0.2486 -0.0692
 9252SOL    HW139392   1.561   1.377  17.430  0.1497  1.4273  0.2383
 9252SOL    HW239393   1.679   1.285  17.418 -1.0447 -0.0472 -0.3985
 9253SOL     OW39394   4.116   4.695   6.456 -0.4739 -0.2965  0.3207
 9253SOL    HW139395   4.081   4.697   6.367 -0.0115 -1.5338  0.1114
 9253SOL    HW239396   4.032   4.693   6.503 -0.4025 -0.3031  0.4501
 9254SOL     OW39397   0.885   1.559   2.286 -0.0156 -0.9494 -0.0791
 9254SOL    HW139398   0.910   1.481   2.335  1.1202 -0.4712  0.0978
 9254SOL    HW239399   0.829   1.523   2.217  0.1859  0.7955 -1.1775
 9255SOL     OW39400   1.182   2.743   8.249 -0.4081  0.0068  0.2361
 9255SOL    HW139401   1.257   2.696   8.285  0.8343  0.4299 -1.8186
 9255SOL    HW239402   1.114   2.725   8.314 -2.0881  2.4936 -0.8700
 9256SOL     OW39403   2.502   4.080   3.612  0.9768  0.1073 -0.1605
 9256SOL    HW139404   2.547   4.001   3.583  1.9798  0.1603  1.2125
 9256SOL    HW239405   2.421   4.053   3.653  0.5476  1.5871 -0.0219
 9257SOL     OW39406   1.040   4.570  15.851  0.0424 -0.4766 -0.0522
 9257SOL    HW139407   1.063   4.562  15.943 -1.2206  0.9460  0.3861
 9257SOL    HW239408   0.946   4.574  15.869  0.2896 -0.5154  1.2293
 9258SOL     OW39409   0.467   4.155   7.459 -0.0502  0.0461  0.0041
 9258SOL    HW139410   0.491   4.236   7.503  2.5727 -1.1502  0.7983
 9258SOL    HW239411   0.386   4.138   7.507  1.0381  0.2840  1.8970
 9259SOL     OW39412   1.807   3.675  15.364 -0.4073 -0.1254 -0.5062
 9259SOL    HW139413   1.719   3.691  15.331  0.3950 -1.2286 -3.1771
 9259SOL    HW239414   1.839   3.765  15.375  2.0286 -1.1080  0.4996
 9260SOL     OW39415   3.262   0.725   3.746 -0.1755 -0.0896 -0.3194
 9260SOL    HW139416   3.213   0.644   3.732 -0.1957 -0.3956  1.5955
 9260SOL    HW239417   3.351   0.697   3.765  0.4872  2.7868  0.8402
 9261SOL     OW39418   4.583   0.353   3.349  0.3914 -0.4633 -0.1519
 9261SOL    HW139419   4.596   0.397   3.265 -0.5246  0.2881  0.0968
 9261SOL    HW239420   4.496   0.383   3.376  0.4324 -0.0997 -0.4252
 9262SOL     OW39421   2.346   1.230   8.383 -0.4116 -0.3701  0.1306
 9262SOL    HW139422   2.290   1.218   8.307  1.3086 -1.7645 -0.9339
 9262SOL    HW239423   2.283   1.202   8.450 -1.1760  1.0229 -0.0174
 9263SOL     OW39424   3.501   4.440   2.197  0.6010  0.3114 -0.0487
 9263SOL    HW139425   3.426   4.464   2.251  0.2022  0.6681 -0.7578
 9263SOL    HW239426   3.450   4.401   2.126  0.6442  1.9591 -0.9901
 9264SOL     OW39427   2.875   1.366   4.163 -0.4166 -0.4257 -0.3677
 9264SOL    HW139428   2.787   1.378   4.199 -1.4257 -3.2129 -1.9366
 9264SOL    HW239429   2.889   1.273   4.183 -1.3698 -0.4699  0.0901
 9265SOL     OW39430   1.535   0.294  15.548 -0.1659  0.3735  0.5901
 9265SOL    HW139431   1.584   0.253  15.477  0.0941 -0.5002  1.2680
 9265SOL    HW239432   1.607   0.324  15.603  1.9746 -2.3685 -0.6930
 9266SOL     OW39433   4.673   3.134   1.055 -0.3502  0.4515 -0.2776
 9266SOL    HW139434   4.693   3.050   1.097  0.3182  0.5247 -0.4566
 9266SOL    HW239435   4.732   3.199   1.093 -0.8461  0.8007 -0.1028
 9267SOL     OW39436   2.386   4.664  15.446  0.3242 -0.2119  0.6097
 9267SOL    HW139437   2.440   4.586  15.441  0.4679 -0.1824  1.7148
 9267SOL    HW239438   2.453   4.731  15.431 -1.7543  1.4302 -1.4234
 9268SOL     OW39439   4.305   0.754   5.500  0.0060  0.0613  0.2847
 9268SOL    HW139440   4.396   0.725   5.494 -0.0725  0.0210 -0.7583
 9268SOL    HW239441   4.316   0.838   5.454  0.4394 -0.3030 -0.2762
 9269SOL     OW39442   4.572   1.472   6.359 -0.0955 -0.3486  0.4192
 9269SOL    HW139443   4.598   1.553   6.403 -0.2054  0.0651 -0.2901
 9269SOL    HW239444   4.600   1.501   6.273 -1.4531  1.3645  0.5473
 9270SOL     OW39445   3.045   3.587   0.895 -0.0273  0.4338  0.5537
 9270SOL    HW139446   3.128   3.564   0.852  1.1709  1.6993  2.1991
 9270SOL    HW239447   3.007   3.656   0.841  1.6056  1.9003  1.2917
 9271SOL     OW39448   1.631   0.451   0.082  0.1060  0.0291 -0.2717
 9271SOL    HW139449   1.628   0.472  17.734  0.8603 -0.2928 -0.3647
 9271SOL    HW239450   1.550   0.491   0.114  0.8366  0.5366  0.9162
 9272SOL     OW39451   0.382   0.895  13.774 -0.1299 -0.5260  0.5855
 9272SOL    HW139452   0.359   0.987  13.762  1.0335 -0.1995  0.8539
 9272SOL    HW239453   0.302   0.859  13.735 -0.8522  0.4373  1.1899
 9273SOL     OW39454   2.801   1.245   2.658 -0.2915  0.6905  0.0258
 9273SOL    HW139455   2.865   1.312   2.680  0.5575 -0.0925 -0.0799
 9273SOL    HW239456   2.723   1.301   2.661  0.2898  1.5087  0.1363
 9274SOL     OW39457   1.601   2.887   0.029  0.1429  0.0338  0.1205
 9274SOL    HW139458   1.594   2.969  17.726 -1.1323 -1.0540 -1.5076
 9274SOL    HW239459   1.682   2.855  17.736  1.5049  0.7650  2.3299
 9275SOL     OW39460   2.553   4.315   6.222 -0.6128  0.7141 -0.2941
 9275SOL    HW139461   2.640   4.277   6.208 -1.2136 -1.4627  1.6938
 9275SOL    HW239462   2.510   4.291   6.140 -2.5755 -0.3634  1.0515
 9276SOL     OW39463   1.217   1.597   7.843 -0.0277  0.5235  0.1021
 9276SOL    HW139464   1.146   1.536   7.866  0.7164 -0.7407 -0.9573
 9276SOL    HW239465   1.231   1.643   7.925 -0.7175 -1.1413  1.1693
 9277SOL     OW39466   0.492   3.487   9.665 -0.0119  0.3555 -0.3013
 9277SOL    HW139467   0.555   3.459   9.732 -0.4915  2.7455  1.1689
 9277SOL    HW239468   0.541   3.559   9.625 -0.2733  1.4719  1.3940
 9278SOL     OW39469   3.158   3.634   4.673 -0.1657  0.2903 -0.2309
 9278SOL    HW139470   3.065   3.638   4.651 -0.3894 -0.7818  0.4991
 9278SOL    HW239471   3.137   3.697   4.743 -0.6635 -1.3129  1.0692
 9279SOL     OW39472   3.829   0.093   0.774 -0.0458 -0.0955  0.2754
 9279SOL    HW139473   3.761   0.157   0.749 -1.0617 -1.1807  0.2604
 9279SOL    HW239474   3.796   0.025   0.715 -0.2188  2.4284 -2.5613
 9280SOL     OW39475   2.659   0.047  15.338 -0.0088 -0.0994 -0.2948
 9280SOL    HW139476   2.745   0.084  15.355 -0.8898  0.7040  2.4231
 9280SOL    HW239477   2.690   4.703  15.297 -1.4044 -0.4757 -0.6297
 9281SOL     OW39478   0.302   1.645   8.149 -0.6891  0.1374 -1.3564
 9281SOL    HW139479   0.234   1.639   8.082 -1.7027  0.4467 -0.3562
 9281SOL    HW239480   0.299   1.737   8.172 -0.9890 -0.3318  0.5121
 9282SOL     OW39481   1.316   1.411   7.136  0.4175  1.3823  0.4794
 9282SOL    HW139482   1.296   1.336   7.191 -1.0141  1.0249 -0.5335
 9282SOL    HW239483   1.270   1.383   7.057  0.0367 -0.8926  1.5327
 9283SOL     OW39484   3.203   3.538   6.457  0.2220 -0.0438 -0.4230
 9283SOL    HW139485   3.241   3.614   6.413 -0.3304  1.0200  0.9393
 9283SOL    HW239486   3.184   3.479   6.384 -0.4555  1.1929 -1.2460
 9284SOL     OW39487   0.090   3.449   7.634 -0.0328  0.4195  1.1571
 9284SOL    HW139488   0.156   3.403   7.582 -0.9879 -0.8659  1.0805
 9284SOL    HW239489   0.080   3.392   7.711  0.6462 -1.2497  0.0127
 9285SOL     OW39490   2.327   0.165  12.361  0.1579 -0.0385  0.5073
 9285SOL    HW139491   2.279   0.161  12.443  2.9855  2.0861  2.2590
 9285SOL    HW239492   2.328   0.071  12.343 -1.7461 -0.0355  0.4306
 9286SOL     OW39493   1.488   3.170   0.714 -0.0937 -0.2431 -0.5062
 9286SOL    HW139494   1.459   3.250   0.670 -0.6163 -1.1528 -1.8241
 9286SOL    HW239495   1.496   3.196   0.806  0.1976  1.2479 -0.9611
 9287SOL     OW39496   1.556   2.763   5.497 -0.5238  0.2366  0.4278
 9287SOL    HW139497   1.622   2.776   5.429 -0.0831  2.0550  1.2126
 9287SOL    HW239498   1.500   2.705   5.445 -0.6600  1.2937 -0.5992
 9288SOL     OW39499   3.192   3.985   5.540 -0.3354  0.6339  0.0755
 9288SOL    HW139500   3.272   4.027   5.571  0.7973 -2.8681  1.9281
 9288SOL    HW239501   3.164   4.045   5.472  0.3782 -0.5575 -1.2755
 9289SOL     OW39502   0.993   3.600   6.232  0.0918 -0.1449  0.2246
 9289SOL    HW139503   1.043   3.668   6.186 -0.2397 -0.4798 -0.6280
 9289SOL    HW239504   1.047   3.603   6.311 -1.7008  1.4850  1.3750
 9290SOL     OW39505   1.102   2.869   7.648 -0.5172  0.2633 -0.0842
 9290SOL    HW139506   1.194   2.852   7.627  0.3671  2.9802  1.6010
 9290SOL    HW239507   1.118   2.892   7.740 -1.4826  2.6281 -0.4986
 9291SOL     OW39508   2.165   1.576   8.578 -0.2021  0.0421 -0.2066
 9291SOL    HW139509   2.233   1.510   8.569  1.4023  1.3334  2.2708
 9291SOL    HW239510   2.111   1.536   8.647  0.5573  0.1268  0.4434
 9292SOL     OW39511   3.677   4.155   1.227 -0.1614 -0.0668 -0.3071
 9292SOL    HW139512   3.754   4.105   1.256  0.4156  1.8519  1.4402
 9292SOL    HW239513   3.701   4.247   1.234 -1.5562  0.3194 -0.6145
 9293SOL     OW39514   1.453   0.468   3.256 -0.0493  0.2963 -0.1236
 9293SOL    HW139515   1.470   0.404   3.325 -1.6601  0.1843  0.1645
 9293SOL    HW239516   1.515   0.539   3.270  2.0665 -2.0237  2.2851
 9294SOL     OW39517   2.107   1.026   6.511 -0.2778  0.1539 -0.5041
 9294SOL    HW139518   2.145   0.938   6.511  0.4574  0.4725 -1.3241
 9294SOL    HW239519   2.169   1.065   6.450 -0.4589  1.1663 -0.0484
 9295SOL     OW39520   1.358   0.526   0.960  0.0711  0.4146  0.1840
 9295SOL    HW139521   1.444   0.486   0.973  0.5516  1.7318  1.0581
 9295SOL    HW239522   1.308   0.449   0.987 -0.0345  0.5048  0.2450
 9296SOL     OW39523   0.396   4.201  10.181 -0.3690  0.1086  0.1562
 9296SOL    HW139524   0.425   4.180  10.270 -3.4852 -0.1952  1.1175
 9296SOL    HW239525   0.481   4.201  10.137 -0.1592 -3.4227  0.5249
 9297SOL     OW39526   0.847   0.293   4.730 -0.3192  0.2711 -0.2332
 9297SOL    HW139527   0.778   0.349   4.695 -1.1849  0.1167  1.2678
 9297SOL    HW239528   0.898   0.361   4.774 -2.4571  0.5282  1.7976
 9298SOL     OW39529   2.835   1.634   1.761  0.2643  0.1613 -0.2609
 9298SOL    HW139530   2.865   1.674   1.680 -0.5968  0.9651 -0.1895
 9298SOL    HW239531   2.841   1.543   1.735 -0.1539  0.4528 -1.4036
 9299SOL     OW39532   4.609   2.333   4.454  0.1136  0.4400  0.2788
 9299SOL    HW139533   4.546   2.340   4.383 -0.5350  0.2584  0.8326
 9299SOL    HW239534   4.560   2.259   4.490  2.1762 -1.7072 -1.3613
 9300SOL     OW39535   3.521   3.316   2.489 -0.7623  0.1709 -0.1950
 9300SOL    HW139536   3.532   3.411   2.485 -0.4077  0.1234 -0.3376
 9300SOL    HW239537   3.510   3.303   2.583  2.4976  1.6526  0.3790
 9301SOL     OW39538   3.709   0.471  10.964  0.1104 -0.2295  0.0022
 9301SOL    HW139539   3.721   0.513  10.879  1.9889 -0.7036  0.0364
 9301SOL    HW239540   3.779   0.509  11.017 -0.5639 -0.7209  1.2481
 9302SOL     OW39541   1.085   0.722   4.861  1.0735 -0.2832  0.3753
 9302SOL    HW139542   1.121   0.643   4.901 -0.6505 -1.6536 -0.7956
 9302SOL    HW239543   1.100   0.710   4.767 -2.8382 -0.4140 -0.2250
 9303SOL     OW39544   0.079   2.141   1.072  0.0331 -0.0126 -0.2808
 9303SOL    HW139545   0.155   2.186   1.107 -0.6624  2.8703 -2.4204
 9303SOL    HW239546   0.020   2.161   1.145 -1.4215 -1.9043 -0.9469
 9304SOL     OW39547   0.567   3.353   8.798 -0.1137 -0.5469  0.5317
 9304SOL    HW139548   0.544   3.330   8.707 -0.8138  0.9110  0.3530
 9304SOL    HW239549   0.661   3.354   8.779  0.1785 -0.2561  2.0521
 9305SOL     OW39550   0.371   0.371   2.316  0.0992 -0.0269 -0.3148
 9305SOL    HW139551   0.461   0.339   2.304 -0.0749 -0.5834 -0.1674
 9305SOL    HW239552   0.322   0.292   2.292 -0.0679  0.2625 -0.9265
 9306SOL     OW39553   4.378   4.146   9.672 -0.5219  0.0748 -0.4275
 9306SOL    HW139554   4.395   4.059   9.709  0.6214  1.1245  1.5342
 9306SOL    HW239555   4.333   4.194   9.741 -0.5279 -0.3849 -0.1148
 9307SOL     OW39556   2.001   3.015   7.657 -0.5355 -0.0619  0.9630
 9307SOL    HW139557   1.985   2.921   7.668 -1.1085 -0.0377  0.3832
 9307SOL    HW239558   1.919   3.048   7.693  0.6751  1.0208  2.7527
 9308SOL     OW39559   2.364   4.021   7.742  0.0088 -0.0165  0.2155
 9308SOL    HW139560   2.420   3.976   7.806  0.6137  0.5828  0.1043
 9308SOL    HW239561   2.280   4.035   7.786  0.7206 -1.1451  1.9229
 9309SOL     OW39562   0.891   0.980   9.111 -0.5861  0.3092  1.0868
 9309SOL    HW139563   0.949   0.963   9.037  0.0230  1.1487  1.3760
 9309SOL    HW239564   0.830   0.907   9.121  1.2094 -1.6567 -2.3066
 9310SOL     OW39565   0.345   2.311   7.475 -0.1891  0.3178 -0.0554
 9310SOL    HW139566   0.270   2.272   7.430 -0.4149  0.0557  0.5409
 9310SOL    HW239567   0.303   2.363   7.543  0.7490  1.8301 -0.6235
 9311SOL     OW39568   4.271   3.055   2.588 -0.5553  0.5268 -0.5671
 9311SOL    HW139569   4.203   3.033   2.652 -0.6397  1.3043 -0.3881
 9311SOL    HW239570   4.330   2.980   2.590 -3.1086 -1.5055 -1.3384
 9312SOL     OW39571   3.049   1.161   2.372 -0.7426  0.5449 -0.1197
 9312SOL    HW139572   3.025   1.253   2.378  0.8624  1.0786 -2.1004
 9312SOL    HW239573   3.112   1.153   2.444 -0.5980 -0.9965 -0.3991
 9313SOL     OW39574   0.799   2.375   3.447  0.7896  0.5678 -0.7239
 9313SOL    HW139575   0.872   2.332   3.492  1.1159  1.3262 -0.5435
 9313SOL    HW239576   0.726   2.312   3.450  1.5817 -0.2647  1.3095
 9314SOL     OW39577   3.724   4.387   8.722 -0.0342 -0.2917 -0.3003
 9314SOL    HW139578   3.658   4.403   8.655  0.2078 -0.9699 -0.7001
 9314SOL    HW239579   3.781   4.333   8.667 -0.4010 -1.1624  0.1842
 9315SOL     OW39580   1.112   4.039   7.108 -0.4713 -0.3684 -0.0515
 9315SOL    HW139581   1.020   4.014   7.108 -0.3691 -0.7976 -2.8026
 9315SOL    HW239582   1.131   4.059   7.199 -0.6983 -3.1465  0.6027
 9316SOL     OW39583   0.242   1.656   3.901 -0.3117  0.1004  0.4571
 9316SOL    HW139584   0.225   1.703   3.819  0.3312 -2.0287 -0.8928
 9316SOL    HW239585   0.187   1.703   3.964  0.9054  1.8412  0.2330
 9317SOL     OW39586   0.248   3.678   7.803  0.3222  0.2162 -0.1280
 9317SOL    HW139587   0.217   3.594   7.769  0.4100 -0.3982  1.2909
 9317SOL    HW239588   0.313   3.705   7.739  1.2112 -1.5272  0.0459
 9318SOL     OW39589   2.201   3.107   2.744 -0.7467  0.2629  0.1971
 9318SOL    HW139590   2.268   3.163   2.705  0.4819 -0.6670  1.0028
 9318SOL    HW239591   2.247   3.080   2.823  0.3765  1.1559 -0.1423
 9319SOL     OW39592   3.952   1.458   0.753  0.1177  0.1955  0.0082
 9319SOL    HW139593   3.989   1.371   0.772  2.6694  1.7013  1.9101
 9319SOL    HW239594   4.029   1.515   0.757  1.0128 -0.9231 -0.9620
 9320SOL     OW39595   2.637   2.236   1.241 -0.4895 -0.0400 -0.3606
 9320SOL    HW139596   2.634   2.192   1.156  0.2316 -2.3813  0.8000
 9320SOL    HW239597   2.596   2.319   1.218 -1.0125 -0.4306 -0.8419
 9321SOL     OW39598   1.815   2.143  17.320  0.2266 -0.6828  0.1962
 9321SOL    HW139599   1.867   2.080  17.269  1.1277 -0.3851  0.7561
 9321SOL    HW239600   1.818   2.219  17.262 -2.1138 -1.8328 -1.4082
 9322SOL     OW39601   1.533   3.559  15.244  0.0918 -0.0456 -0.2748
 9322SOL    HW139602   1.452   3.573  15.196  0.3877 -1.2604 -1.1356
 9322SOL    HW239603   1.500   3.589  15.329 -0.7831  1.5819 -1.1884
 9323SOL     OW39604   0.592   0.332  12.881  0.6979  0.2049  0.6854
 9323SOL    HW139605   0.561   0.255  12.928  4.2990 -1.7705 -0.1468
 9323SOL    HW239606   0.588   0.301  12.790 -2.0492  1.5664  0.3515
 9324SOL     OW39607   2.962   0.090   2.784 -0.1692  0.9058  0.1161
 9324SOL    HW139608   2.889   0.128   2.833  0.0875  2.1929 -0.5033
 9324SOL    HW239609   2.993   0.176   2.756  2.1166 -0.5823 -1.8701
 9325SOL     OW39610   0.932   3.276   6.798 -0.2830  0.0527  0.2738
 9325SOL    HW139611   0.926   3.208   6.865 -0.4751 -0.3948 -0.1868
 9325SOL    HW239612   0.897   3.338   6.861 -1.9668 -0.2713 -0.3358
 9326SOL     OW39613   4.729   3.036   0.177 -0.3344 -0.0485  0.0860
 9326SOL    HW139614   0.076   3.072   0.148 -0.9019  0.5556 -0.8038
 9326SOL    HW239615   4.681   3.113   0.206  2.1798  1.1271  1.1048
 9327SOL     OW39616   0.306   1.349   4.077  0.4015  0.4046 -0.3102
 9327SOL    HW139617   0.255   1.368   4.156 -0.9386  0.8447 -1.2663
 9327SOL    HW239618   0.377   1.411   4.092 -1.0153  1.6232  1.4198
 9328SOL     OW39619   2.895   4.332  11.231 -0.4811 -0.1315 -0.2397
 9328SOL    HW139620   2.806   4.328  11.268 -1.2439 -1.3932 -2.2009
 9328SOL    HW239621   2.933   4.371  11.309 -1.8075 -0.6304  0.6656
 9329SOL     OW39622   2.916   1.363   9.518  0.1460 -0.5131 -0.5692
 9329SOL    HW139623   2.954   1.337   9.434  2.0478 -1.8089  0.7164
 9329SOL    HW239624   2.860   1.288   9.539 -0.4315 -0.5155 -2.0554
 9330SOL     OW39625   0.319   4.548   9.196  0.4064  0.1095 -0.2932
 9330SOL    HW139626   0.250   4.613   9.190 -0.6473 -0.8919  0.9691
 9330SOL    HW239627   0.363   4.560   9.112  0.1449  2.1287 -0.1366
 9331SOL     OW39628   0.760   4.602   8.807  0.0329 -0.1782  0.3621
 9331SOL    HW139629   0.836   4.651   8.773 -1.8354  1.1900 -1.8133
 9331SOL    HW239630   0.811   4.531   8.845  0.3000  0.3634  1.0245
 9332SOL     OW39631   0.179   2.079   3.014  0.1674 -0.5636  0.1435
 9332SOL    HW139632   0.124   2.147   2.975 -0.5048 -1.1952 -0.0150
 9332SOL    HW239633   0.144   1.996   2.982 -1.7940 -0.1367  1.1933
 9333SOL     OW39634   1.088   2.854  14.412  0.5804 -0.1101  0.3731
 9333SOL    HW139635   1.026   2.781  14.409 -0.2241  0.6676 -1.8902
 9333SOL    HW239636   1.018   2.918  14.428 -0.8964 -1.2311 -1.6128
 9334SOL     OW39637   2.430   4.350   7.791  0.3335 -0.2719 -0.3793
 9334SOL    HW139638   2.345   4.371   7.827  1.2363  3.2426 -0.2995
 9334SOL    HW239639   2.469   4.279   7.841 -0.4747  0.0919  0.7521
 9335SOL     OW39640   1.894   2.378  13.702  0.0379  0.2330  0.0343
 9335SOL    HW139641   1.983   2.391  13.735 -0.6451 -1.9571  2.6555
 9335SOL    HW239642   1.905   2.303  13.643 -1.3849  0.4950 -0.5720
 9336SOL     OW39643   2.408   1.649   1.147 -0.1524 -0.0521  0.1808
 9336SOL    HW139644   2.365   1.731   1.172 -2.5304 -1.3827  0.4222
 9336SOL    HW239645   2.360   1.619   1.070 -1.1066  2.8847 -0.3757
 9337SOL     OW39646   3.328   2.275  12.829 -0.1915  0.5103 -1.0033
 9337SOL    HW139647   3.337   2.232  12.914  1.7696  0.2858 -1.3207
 9337SOL    HW239648   3.264   2.226  12.779  0.0691 -0.6129 -0.2356
 9338SOL     OW39649   0.946   0.951   2.857  0.2393  0.0127 -0.4042
 9338SOL    HW139650   0.856   0.963   2.827 -0.2955  0.1518  1.3048
 9338SOL    HW239651   0.983   1.040   2.854  0.9614 -0.3383 -1.8024
 9339SOL     OW39652   0.199   4.028   2.473 -0.3886 -0.1186  0.3046
 9339SOL    HW139653   0.214   4.009   2.566 -0.3750  1.0275  0.5320
 9339SOL    HW239654   0.293   4.025   2.453 -0.8856  2.1730 -2.2713
 9340SOL     OW39655   3.898   3.034   9.031 -0.4712 -0.2314 -0.0317
 9340SOL    HW139656   3.869   3.124   9.043 -1.6748 -0.3689 -1.8420
 9340SOL    HW239657   3.896   3.016   9.125 -1.7575  2.0641  0.3728
 9341SOL     OW39658   3.064   3.530   5.630 -0.1140 -0.2576 -0.1750
 9341SOL    HW139659   2.982   3.482   5.618  0.0375 -0.1075 -1.9301
 9341SOL    HW239660   3.094   3.488   5.711 -2.0483 -1.5885 -0.1488
 9342SOL     OW39661   2.004   4.586   5.623 -0.3072  0.3056  0.1110
 9342SOL    HW139662   1.958   4.592   5.540 -1.4303 -0.9105  0.6327
 9342SOL    HW239663   2.042   4.498   5.625 -2.8379 -0.7969 -0.2022
 9343SOL     OW39664   0.897   2.547   4.533 -0.2878 -0.0813  0.9559
 9343SOL    HW139665   0.978   2.495   4.531  0.0949  0.6343 -1.6432
 9343SOL    HW239666   0.916   2.600   4.611 -0.8076  0.5982  0.6138
 9344SOL     OW39667   3.728   4.432  15.095 -0.3294 -0.5637  0.2032
 9344SOL    HW139668   3.675   4.360  15.130 -1.9053 -0.1134 -1.2582
 9344SOL    HW239669   3.662   4.498  15.074 -0.1820 -0.1667  0.9881
 9345SOL     OW39670   1.069   3.445  16.261 -0.0810 -0.2138 -0.1738
 9345SOL    HW139671   1.093   3.476  16.174  0.3518  0.2986  0.1269
 9345SOL    HW239672   1.154   3.459  16.301 -0.2822  1.6091 -0.3848
 9346SOL     OW39673   1.683   0.300   5.491 -0.7038  0.1134  0.0414
 9346SOL    HW139674   1.770   0.265   5.471 -0.0915  0.9025  1.2850
 9346SOL    HW239675   1.635   0.227   5.452  0.9084 -2.0100  1.9884
 9347SOL     OW39676   1.887   3.591  10.568  0.7054  0.1938  0.6106
 9347SOL    HW139677   1.960   3.530  10.571  1.0211  0.4999 -0.7328
 9347SOL    HW239678   1.899   3.630  10.654 -1.9701  1.4574  0.4323
 9348SOL     OW39679   0.944   4.722  11.786  0.0336  0.4416  0.1220
 9348SOL    HW139680   0.876   4.655  11.786 -0.0321  0.5155  1.4343
 9348SOL    HW239681   1.008   4.671  11.836  1.1901  0.7913 -0.9983
 9349SOL     OW39682   1.562   2.167  17.669 -0.4183  0.0210 -0.5165
 9349SOL    HW139683   1.655   2.159  17.648 -0.3723  1.5598 -0.8896
 9349SOL    HW239684   1.552   2.084  17.716  1.4265 -0.4112 -0.8976
 9350SOL     OW39685   4.574   0.903  15.385 -0.2703 -0.1770 -0.0292
 9350SOL    HW139686   4.598   0.837  15.450 -1.3502  0.3183  0.8560
 9350SOL    HW239687   4.661   0.921  15.348 -0.1939 -2.3193 -0.9205
 9351SOL     OW39688   0.223   2.775   9.395 -0.0867  0.5204 -0.1610
 9351SOL    HW139689   0.235   2.687   9.359 -1.6860  0.2625 -0.0902
 9351SOL    HW239690   0.151   2.771   9.458  0.4662 -0.6567  0.3970
 9352SOL     OW39691   4.437   4.606   4.485 -0.3554  0.5786 -0.1756
 9352SOL    HW139692   4.360   4.564   4.447  0.0150 -0.6238  0.3774
 9352SOL    HW239693   4.483   4.527   4.515 -0.9049 -0.8649 -3.1892
 9353SOL     OW39694   0.849   1.811  17.214 -0.1092 -0.0151 -0.5177
 9353SOL    HW139695   0.759   1.838  17.198  0.5956  0.6051 -3.4270
 9353SOL    HW239696   0.870   1.885  17.272  0.3979 -0.3549 -0.2636
 9354SOL     OW39697   1.883   3.638  16.362 -0.2347  0.0808 -0.2832
 9354SOL    HW139698   1.794   3.670  16.346 -0.3794  0.4530  1.2036
 9354SOL    HW239699   1.924   3.625  16.277 -1.5626 -1.0222 -0.7532
 9355SOL     OW39700   2.560   1.832   2.627 -0.4679  0.3989  0.2573
 9355SOL    HW139701   2.524   1.807   2.711 -0.5220 -0.1441  0.0728
 9355SOL    HW239702   2.514   1.916   2.619 -1.7384 -0.5183 -2.1689
 9356SOL     OW39703   2.556   2.949   5.604 -0.2660 -0.0653  0.0530
 9356SOL    HW139704   2.546   2.941   5.509 -0.1359  0.8499 -0.0349
 9356SOL    HW239705   2.480   2.913   5.651 -2.4671  3.7181 -0.6664
 9357SOL     OW39706   0.071   2.651   4.500 -0.2722 -0.2748  0.3342
 9357SOL    HW139707   0.129   2.591   4.453  0.0926  1.5614 -1.5973
 9357SOL    HW239708   0.075   2.632   4.594  0.7183  2.3651  0.8565
 9358SOL     OW39709   1.944   3.425   4.151 -0.4210  0.8728  1.0371
 9358SOL    HW139710   1.932   3.341   4.108  0.3309  1.9142 -1.2141
 9358SOL    HW239711   1.866   3.421   4.208 -0.3123 -0.8974  1.0587
 9359SOL     OW39712   1.503   1.055   8.392 -0.3625  0.1550  0.2418
 9359SOL    HW139713   1.417   1.027   8.425 -0.4371 -0.3231 -0.3652
 9359SOL    HW239714   1.483   1.098   8.309 -0.7438 -0.2745  0.1069
 9360SOL     OW39715   3.131   4.429   7.839  0.7221  0.1302  0.3260
 9360SOL    HW139716   3.155   4.428   7.746 -1.1550  0.9959 -0.1672
 9360SOL    HW239717   3.177   4.509   7.866 -2.2237  2.4034 -1.4345
 9361SOL     OW39718   4.214   1.169   2.260 -0.8246  0.3818  0.1639
 9361SOL    HW139719   4.197   1.205   2.347 -1.7473  0.5708 -0.0999
 9361SOL    HW239720   4.282   1.105   2.283 -0.8042 -0.1566 -1.3843
 9362SOL     OW39721   2.160   4.492  13.470 -0.5266 -0.1154 -0.3877
 9362SOL    HW139722   2.222   4.565  13.459 -1.5164  0.6864 -0.6465
 9362SOL    HW239723   2.183   4.450  13.553  1.9434  2.5103  0.2548
 9363SOL     OW39724   4.046   3.208   8.124 -0.6794 -0.1274  0.5527
 9363SOL    HW139725   3.979   3.259   8.079  0.4297  0.3495 -0.5468
 9363SOL    HW239726   4.038   3.254   8.207 -0.4476  0.6654  0.1332
 9364SOL     OW39727   1.726   4.652  15.663  0.0379  0.6254 -0.0486
 9364SOL    HW139728   1.747   0.009  15.654  0.2294  0.5576 -0.3150
 9364SOL    HW239729   1.808   4.618  15.698  0.6172 -1.0437 -3.0322
 9365SOL     OW39730   4.690   3.299  14.628  0.4288 -0.3590  0.5610
 9365SOL    HW139731   0.019   3.353  14.583 -0.1534  2.0844  2.6960
 9365SOL    HW239732   4.640   3.372  14.664 -0.3867 -0.1523 -0.9946
 9366SOL     OW39733   4.155   1.851   5.095  0.6887  0.6345 -0.8643
 9366SOL    HW139734   4.181   1.829   5.184 -1.6371  0.2226 -0.2752
 9366SOL    HW239735   4.172   1.944   5.109  0.1113  0.3040  1.9373
 9367SOL     OW39736   2.484   1.610   0.700 -0.4419  0.1903 -0.0657
 9367SOL    HW139737   2.411   1.589   0.758 -0.5171 -1.0288 -0.6149
 9367SOL    HW239738   2.505   1.524   0.664  2.1591  0.0823  1.6978
 9368SOL     OW39739   3.810   3.204   5.198 -0.5276  0.6019 -0.2181
 9368SOL    HW139740   3.838   3.293   5.220  0.8245  0.0983  0.1019
 9368SOL    HW239741   3.761   3.174   5.275  0.7063 -0.9410 -0.0512
 9369SOL     OW39742   3.811   3.465   1.845  0.1688  0.3267 -0.2593
 9369SOL    HW139743   3.820   3.461   1.750 -1.4257 -0.1231 -0.3902
 9369SOL    HW239744   3.747   3.396   1.864  0.4822 -0.0334 -0.5232
 9370SOL     OW39745   0.331   1.935   5.981  0.7962 -0.1254 -0.2972
 9370SOL    HW139746   0.392   1.913   6.052 -0.2737  0.6710  0.8828
 9370SOL    HW239747   0.350   2.028   5.968  3.0314 -0.5054  0.1861
 9371SOL     OW39748   2.996   0.602   5.367 -0.4756  0.0314 -0.3786
 9371SOL    HW139749   3.001   0.528   5.428 -0.5694  0.0201 -0.3845
 9371SOL    HW239750   2.943   0.571   5.293 -1.1274 -0.3460  0.2465
 9372SOL     OW39751   3.060   1.918   4.298 -0.2784  0.0125 -0.5469
 9372SOL    HW139752   3.056   1.991   4.359  0.1966  0.4359 -1.0258
 9372SOL    HW239753   3.071   1.843   4.356 -1.5433  0.5674  0.4131
 9373SOL     OW39754   4.700   4.682  17.055 -0.6071  0.1251 -0.3296
 9373SOL    HW139755   0.005   4.716  17.134  1.4727 -0.2429 -1.2773
 9373SOL    HW239756   4.692   4.590  17.080 -2.0583  0.3592  0.0815
 9374SOL     OW39757   3.903   4.050   1.335  0.1994 -0.3661 -0.1440
 9374SOL    HW139758   3.955   4.118   1.377 -0.1780  0.5012 -1.0648
 9374SOL    HW239759   3.949   3.976   1.374  0.0161 -0.6287 -0.4268
 9375SOL     OW39760   4.211   0.493   4.482 -0.7191  0.0112  0.3407
 9375SOL    HW139761   4.207   0.586   4.462  2.4103  0.1168  0.2344
 9375SOL    HW239762   4.198   0.453   4.396 -3.5387 -0.0105  0.7711
 9376SOL     OW39763   4.216   4.173  10.902  0.1722  0.3427  0.2682
 9376SOL    HW139764   4.215   4.120  10.982  0.4175  1.0256  0.7257
 9376SOL    HW239765   4.150   4.123  10.855 -0.0021  1.3540 -0.5431
 9377SOL     OW39766   2.159   3.095  16.005 -0.1897 -0.2069  0.2775
 9377SOL    HW139767   2.212   3.045  15.943  1.7480  0.6367  1.2244
 9377SOL    HW239768   2.081   3.111  15.953  0.3902  0.2132 -0.4590
 9378SOL     OW39769   2.532   0.835   8.772 -0.6870 -0.1161  0.2068
 9378SOL    HW139770   2.599   0.903   8.772 -2.0664  1.2543  0.1492
 9378SOL    HW239771   2.577   0.752   8.786 -0.5163 -0.1941 -0.7715
 9379SOL     OW39772   2.070   0.037   6.539 -0.2195 -0.2861 -0.0483
 9379SOL    HW139773   2.086   4.679   6.528 -0.6683 -0.2843 -0.7428
 9379SOL    HW239774   2.139   0.067   6.480  0.4342  0.9156  1.3458
 9380SOL     OW39775   0.021   3.449   3.832 -0.5921 -0.0823 -1.2120
 9380SOL    HW139776   4.667   3.480   3.824 -0.6114 -0.0771 -0.9836
 9380SOL    HW239777   0.003   3.355   3.827  1.7946 -0.5794 -0.1437
 9381SOL     OW39778   0.246   1.635   8.988  0.2892  0.4851 -0.0026
 9381SOL    HW139779   0.326   1.621   9.039  0.5333  0.6969 -0.3229
 9381SOL    HW239780   0.269   1.589   8.907  1.0999 -0.1252  0.5725
 9382SOL     OW39781   1.860   4.659   4.724  0.1009  0.2499 -0.4483
 9382SOL    HW139782   1.859   4.713   4.803 -1.8953 -0.8561  0.2871
 9382SOL    HW239783   1.818   4.713   4.656  2.6555  1.8170 -0.7852
 9383SOL     OW39784   3.724   3.284   8.316  0.0529 -0.3856 -0.0390
 9383SOL    HW139785   3.720   3.205   8.370 -1.8143  0.1965  0.6782
 9383SOL    HW239786   3.818   3.286   8.295  0.0789  1.8312  0.3280
 9384SOL     OW39787   1.151   4.361   1.336  0.1919 -0.3115 -0.2643
 9384SOL    HW139788   1.238   4.395   1.313 -1.1164  1.5749 -2.3656
 9384SOL    HW239789   1.118   4.339   1.249 -1.2063 -0.1759  0.2424
 9385SOL     OW39790   3.004   0.756   7.691  0.4426  0.1893 -0.3915
 9385SOL    HW139791   3.079   0.734   7.635  1.5345  0.4591  0.9647
 9385SOL    HW239792   3.023   0.850   7.700  1.0736  0.1241 -0.9721
 9386SOL     OW39793   1.521   1.048  13.793  0.0168 -0.4982 -0.4127
 9386SOL    HW139794   1.508   1.129  13.842 -2.2809 -0.9003 -0.3407
 9386SOL    HW239795   1.446   1.045  13.734  0.2119  2.5072 -0.8257
 9387SOL     OW39796   3.592   0.077   2.450 -0.5163 -0.2589 -0.2869
 9387SOL    HW139797   3.514   0.049   2.402  0.2370 -2.5798 -0.1503
 9387SOL    HW239798   3.567   0.170   2.451 -0.0890 -0.1613  1.3706
 9388SOL     OW39799   4.180   0.161   3.927 -0.5293  0.0627 -0.3390
 9388SOL    HW139800   4.192   0.256   3.931 -0.5428  0.0241  0.5103
 9388SOL    HW239801   4.196   0.139   4.019 -3.8335 -0.8601  0.0235
 9389SOL     OW39802   2.993   3.290  17.199 -0.6050  0.1307 -0.1292
 9389SOL    HW139803   3.060   3.283  17.131 -1.5687 -1.0797 -0.9499
 9389SOL    HW239804   2.912   3.265  17.156 -0.6479  1.1966 -0.6931
 9390SOL     OW39805   4.696   3.614   0.333 -0.4651  0.2056 -0.2244
 9390SOL    HW139806   0.010   3.613   0.252 -0.6955 -0.7600 -0.3580
 9390SOL    HW239807   4.651   3.531   0.318  1.5409 -0.6526 -1.4173
 9391SOL     OW39808   3.192   1.407   5.804 -0.2476 -0.2459 -0.2462
 9391SOL    HW139809   3.125   1.340   5.812 -1.1486  0.7730  0.5811
 9391SOL    HW239810   3.263   1.358   5.761 -0.5350 -0.9532  0.0996
 9392SOL     OW39811   3.363   4.325   0.047 -0.3293  0.8305  0.0754
 9392SOL    HW139812   3.390   4.278   0.126 -0.3870 -0.4248 -0.6593
 9392SOL    HW239813   3.284   4.280   0.020 -0.4473  0.1178  1.6326
 9393SOL     OW39814   4.434   1.107   3.079 -0.2147  0.3245  0.4186
 9393SOL    HW139815   4.492   1.137   3.009 -0.4197 -0.8844 -0.2654
 9393SOL    HW239816   4.428   1.014   3.055  2.2054  0.5374 -0.9680
 9394SOL     OW39817   3.874   4.133   2.619  0.2275 -0.3346  0.0054
 9394SOL    HW139818   3.963   4.107   2.592 -0.3965  0.0533 -2.3891
 9394SOL    HW239819   3.877   4.226   2.596 -0.5546 -0.6248 -1.2538
 9395SOL     OW39820   2.332   2.540   0.268  0.3611 -0.1601  0.0054
 9395SOL    HW139821   2.377   2.486   0.334 -2.0091 -2.1152  0.0476
 9395SOL    HW239822   2.286   2.477   0.212 -1.5763  2.5806 -1.4350
 9396SOL     OW39823   2.699   1.665   1.402  0.3477 -0.3684  0.5345
 9396SOL    HW139824   2.603   1.668   1.405  0.3599 -0.4226  0.9328
 9396SOL    HW239825   2.721   1.737   1.461  2.1202 -0.7271  0.3111
 9397SOL     OW39826   3.210   4.278   2.528  0.1729 -0.8302  0.5381
 9397SOL    HW139827   3.182   4.235   2.609 -0.4624 -3.2401 -0.9761
 9397SOL    HW239828   3.209   4.207   2.464  2.1338  0.9908 -1.5259
 9398SOL     OW39829   3.917   2.448   1.518  0.6890 -0.8135 -0.0531
 9398SOL    HW139830   3.837   2.404   1.489  1.5440 -1.2903 -1.7282
 9398SOL    HW239831   3.885   2.538   1.522 -0.3274 -1.1409 -0.7960
 9399SOL     OW39832   0.976   1.661  15.048  0.0097 -0.1723 -0.0400
 9399SOL    HW139833   1.036   1.656  14.974  2.1042 -2.8356  1.8298
 9399SOL    HW239834   1.035   1.720  15.095 -0.4465 -1.1703  1.7659
 9400SOL     OW39835   4.223   1.766   7.846  0.2842 -0.1093  0.6304
 9400SOL    HW139836   4.160   1.701   7.815 -1.1754  1.7885 -0.3670
 9400SOL    HW239837   4.181   1.849   7.823  1.9597  1.0053  1.5153
 9401SOL     OW39838   3.439   4.660   3.713  0.0126 -0.0974  0.6347
 9401SOL    HW139839   3.373   4.591   3.714  0.3549 -0.4293 -0.1174
 9401SOL    HW239840   3.435   4.703   3.799 -3.3460  0.9152 -0.0356
 9402SOL     OW39841   2.307   0.463  16.821 -0.1724  0.7833 -0.6716
 9402SOL    HW139842   2.243   0.468  16.750 -2.0044 -0.6294  0.8908
 9402SOL    HW239843   2.263   0.500  16.897  1.6498  0.8999  0.3319
 9403SOL     OW39844   0.325   1.589  13.036 -0.2801  0.2740  0.7666
 9403SOL    HW139845   0.296   1.680  13.044 -0.7976 -0.1210  3.0706
 9403SOL    HW239846   0.273   1.557  12.962  0.5188  3.0359 -1.0371
 9404SOL     OW39847   0.471   2.431   0.949 -0.7792  0.1297 -0.0868
 9404SOL    HW139848   0.547   2.449   0.894 -1.5756  0.0332 -1.2249
 9404SOL    HW239849   0.405   2.490   0.911 -0.1372  0.0224 -1.3792
 9405SOL     OW39850   2.528   2.148   3.686 -0.5061 -0.1778 -0.0919
 9405SOL    HW139851   2.508   2.072   3.741  2.7607 -1.2556 -0.4018
 9405SOL    HW239852   2.442   2.169   3.651 -0.0281  0.3850 -0.9323
 9406SOL     OW39853   1.675   1.535  14.595  0.6165  0.2246 -0.3072
 9406SOL    HW139854   1.715   1.550  14.509  0.2884  0.5213 -0.4064
 9406SOL    HW239855   1.592   1.578  14.571  0.8925  0.4123 -0.9324
 9407SOL     OW39856   1.347   0.696  14.732  0.3275  0.7305 -0.3273
 9407SOL    HW139857   1.275   0.635  14.715  0.6853  1.0148 -2.8210
 9407SOL    HW239858   1.402   0.641  14.788 -3.1421 -1.5981  0.7707
 9408SOL     OW39859   2.779   3.820   7.629 -0.6826  0.3634  0.2175
 9408SOL    HW139860   2.775   3.752   7.696 -0.6101 -1.0700 -1.2557
 9408SOL    HW239861   2.686   3.832   7.608 -0.5592 -1.3595 -1.2599
 9409SOL     OW39862   3.939   3.941  11.729  0.0183  0.1710 -0.3813
 9409SOL    HW139863   3.953   3.980  11.816  1.2491 -1.7406  0.2916
 9409SOL    HW239864   3.895   3.859  11.753  0.2015  0.4064  0.8003
 9410SOL     OW39865   3.436   4.101   4.990  0.3831  0.3359  0.0584
 9410SOL    HW139866   3.369   4.050   5.035  0.9837 -0.3045  0.2265
 9410SOL    HW239867   3.444   4.063   4.903  1.6258 -0.7271  0.6283
 9411SOL     OW39868   3.940   3.611   7.134  0.6314 -0.5983  0.2952
 9411SOL    HW139869   3.984   3.670   7.072 -0.3307 -0.2987 -0.1092
 9411SOL    HW239870   3.917   3.541   7.074 -0.8855 -0.2605  0.4771
 9412SOL     OW39871   1.284   3.080   6.140 -0.2428 -0.4854  0.8882
 9412SOL    HW139872   1.249   3.128   6.215  1.2962  0.6333  0.8776
 9412SOL    HW239873   1.276   2.987   6.163  2.7983 -1.0908 -0.5499
 9413SOL     OW39874   3.442   3.902   8.100 -0.4460  0.5792  0.2823
 9413SOL    HW139875   3.409   3.978   8.052 -1.0975  1.1499  1.6283
 9413SOL    HW239876   3.460   3.841   8.028  0.8868 -0.1927  1.2741
 9414SOL     OW39877   0.072   3.248   7.802 -0.7142 -0.0026  0.5481
 9414SOL    HW139878   0.018   3.288   7.870 -0.1927  0.7938  0.4961
 9414SOL    HW239879   0.049   3.156   7.814  2.1779 -1.1288 -2.3505
 9415SOL     OW39880   2.899   1.806  17.476  0.1634  0.0075  0.7926
 9415SOL    HW139881   2.875   1.895  17.449  2.0124  0.3554  0.2877
 9415SOL    HW239882   2.995   1.807  17.474  0.1144  2.7956 -0.0174
 9416SOL     OW39883   0.454   0.154   7.312  0.0128  0.2120  0.4534
 9416SOL    HW139884   0.446   0.230   7.255 -0.8127 -0.8230 -0.8294
 9416SOL    HW239885   0.393   0.177   7.381  0.9587  0.0092  1.3477
 9417SOL     OW39886   1.878   0.016   8.370 -0.0422  0.3808 -0.4154
 9417SOL    HW139887   1.827   0.082   8.324 -0.2096 -0.5618 -1.6000
 9417SOL    HW239888   1.816   4.710   8.430  0.5556  0.0437 -0.0297
 9418SOL     OW39889   3.146   1.757   6.957  0.0998 -0.0358 -0.2039
 9418SOL    HW139890   3.124   1.795   6.872  0.8846  1.4423  0.2642
 9418SOL    HW239891   3.226   1.710   6.932  0.5918  0.8984 -0.3789
 9419SOL     OW39892   4.520   4.338   4.568 -0.1826 -0.3030  0.6220
 9419SOL    HW139893   4.514   4.303   4.657 -1.6954 -3.6931 -0.8138
 9419SOL    HW239894   4.611   4.311   4.557 -0.3212 -0.8892  0.8927
 9420SOL     OW39895   3.213   1.062   9.669  0.1250 -0.7293  0.2783
 9420SOL    HW139896   3.139   1.099   9.717 -0.5960  0.7518 -1.9454
 9420SOL    HW239897   3.169   0.979   9.649 -0.0713 -0.3177 -1.0147
 9421SOL     OW39898   2.040   0.466  13.185 -0.7146 -0.1736 -0.5006
 9421SOL    HW139899   1.996   0.387  13.217  1.2327 -0.4913  1.3636
 9421SOL    HW239900   2.125   0.430  13.160 -0.1992 -0.0246  1.0777
 9422SOL     OW39901   3.470   4.112  10.752 -0.2195 -0.8093 -0.4517
 9422SOL    HW139902   3.437   4.052  10.819  3.3445 -1.5293  0.6839
 9422SOL    HW239903   3.541   4.156  10.800 -1.2584  2.2929 -1.7809
 9423SOL     OW39904   0.775   0.037   3.506  0.5543  0.2190 -0.2557
 9423SOL    HW139905   0.730   0.120   3.523 -0.7441 -0.1928 -1.7095
 9423SOL    HW239906   0.797   0.044   3.413 -0.6661  2.5710 -0.3640
 9424SOL     OW39907   0.804   1.041   6.749 -0.4479  0.5633 -0.9304
 9424SOL    HW139908   0.747   1.116   6.732 -0.0897  0.7499 -1.2955
 9424SOL    HW239909   0.890   1.082   6.742  0.1078 -0.6572 -1.1947
 9425SOL     OW39910   2.005   2.862  12.076  0.4993  1.4519 -0.3148
 9425SOL    HW139911   1.910   2.870  12.088  0.5569 -0.5656  1.4070
 9425SOL    HW239912   2.030   2.954  12.084  3.5822  0.3808  2.5147
 9426SOL     OW39913   2.352   3.385   0.666  0.1876  0.4329 -0.3328
 9426SOL    HW139914   2.287   3.396   0.735  1.5612 -1.9094  1.3542
 9426SOL    HW239915   2.413   3.322   0.705 -2.2880 -1.3811  0.5851
 9427SOL     OW39916   4.341   3.059   2.891  0.2704 -0.7349 -0.1016
 9427SOL    HW139917   4.357   3.149   2.920 -0.4605 -0.1907 -1.3578
 9427SOL    HW239918   4.264   3.068   2.834 -0.0480  1.3070  0.6420
 9428SOL     OW39919   3.658   1.779   3.534 -0.4758 -0.2028 -0.3510
 9428SOL    HW139920   3.635   1.872   3.535 -0.4158 -0.1930  0.2740
 9428SOL    HW239921   3.721   1.772   3.462  1.0537  0.6937  0.8898
 9429SOL     OW39922   3.134   0.406   7.796 -0.0426 -0.0685  1.0436
 9429SOL    HW139923   3.104   0.382   7.709 -1.3836  1.5381  1.0751
 9429SOL    HW239924   3.227   0.417   7.776 -0.1786 -0.6595  0.0751
 9430SOL     OW39925   3.574   3.785   0.804  0.3111  0.7697  0.4438
 9430SOL    HW139926   3.565   3.691   0.820 -0.2234  0.4664 -1.5769
 9430SOL    HW239927   3.509   3.802   0.736  2.5242 -1.0970 -2.1821
 9431SOL     OW39928   4.528   0.543   4.558 -0.1238  0.6780  0.5462
 9431SOL    HW139929   4.541   0.629   4.518 -0.1797  0.0882 -0.7396
 9431SOL    HW239930   4.434   0.529   4.562 -0.1035  0.2324 -0.4047
 9432SOL     OW39931   4.446   3.803  15.187  0.0493  0.0078 -0.2761
 9432SOL    HW139932   4.487   3.864  15.126 -0.8294  0.3213 -0.5538
 9432SOL    HW239933   4.496   3.815  15.268 -1.0769 -0.6432  0.5152
 9433SOL     OW39934   4.462   4.464  15.122  0.6113  0.6058  0.1462
 9433SOL    HW139935   4.445   4.552  15.090 -1.6239 -0.3365 -1.2884
 9433SOL    HW239936   4.432   4.411  15.048  0.9193 -2.6052  2.3179
 9434SOL     OW39937   2.602   4.631   7.754 -0.5793 -0.5231  0.0790
 9434SOL    HW139938   2.678   4.642   7.811 -1.5024  2.4796  0.7369
 9434SOL    HW239939   2.544   4.704   7.775 -1.4461 -1.2358  0.1326
 9435SOL     OW39940   0.709   0.573   6.938  0.5366 -0.0133  0.1193
 9435SOL    HW139941   0.628   0.534   6.905  0.2823  1.5366 -1.0969
 9435SOL    HW239942   0.766   0.499   6.921 -2.4501 -2.4302  0.5749
 9436SOL     OW39943   3.662   4.012   8.244  0.1130 -0.4625 -0.0592
 9436SOL    HW139944   3.593   3.980   8.186 -1.0522 -1.2806  1.7810
 9436SOL    HW239945   3.664   3.948   8.315  2.4429  1.0450  1.2395
 9437SOL     OW39946   0.268   3.847   9.215 -0.0732  0.4871 -0.0225
 9437SOL    HW139947   0.236   3.935   9.197 -3.6393 -0.7678  0.2035
 9437SOL    HW239948   0.186   3.809   9.247  1.3841 -2.7681 -0.1300
 9438SOL     OW39949   1.213   2.699   5.728  0.0534  0.2147  0.1170
 9438SOL    HW139950   1.214   2.794   5.728 -2.7085  0.2478  0.7183
 9438SOL    HW239951   1.148   2.682   5.796  0.5584 -1.2790  0.2408
 9439SOL     OW39952   2.037   4.343  11.223 -0.2364  0.1239  0.0941
 9439SOL    HW139953   2.085   4.286  11.162  1.3551  1.9982 -0.3961
 9439SOL    HW239954   2.108   4.374  11.279  1.6207 -1.2220 -1.4855
 9440SOL     OW39955   3.322   2.775   3.661 -0.3685  0.5003 -0.3143
 9440SOL    HW139956   3.246   2.717   3.655 -0.2683  0.5233 -2.0083
 9440SOL    HW239957   3.293   2.836   3.729 -0.3620  1.4501 -1.1532
 9441SOL     OW39958   0.160   3.324   2.760 -0.0618 -0.0789 -0.1790
 9441SOL    HW139959   0.167   3.413   2.796 -0.3639 -0.2596  0.3363
 9441SOL    HW239960   0.068   3.307   2.783 -0.1424 -2.3417 -2.2190
 9442SOL     OW39961   0.972   0.793   7.789 -0.3547  0.1253  0.4666
 9442SOL    HW139962   1.035   0.723   7.803 -1.1338 -0.9407 -1.4023
 9442SOL    HW239963   0.973   0.832   7.877 -2.5435  0.9189  0.1377
 9443SOL     OW39964   1.244   2.308  14.758 -0.7153 -0.6544  0.1022
 9443SOL    HW139965   1.317   2.368  14.742  0.2853 -1.6981  0.7654
 9443SOL    HW239966   1.266   2.247  14.828 -0.1642  0.0854  0.5617
 9444SOL     OW39967   1.512   1.839  10.341  0.3456 -0.5129 -0.1726
 9444SOL    HW139968   1.514   1.756  10.390 -1.6342 -0.0279  0.6956
 9444SOL    HW239969   1.603   1.849  10.312  0.3966  0.8342  0.4648
 9445SOL     OW39970   4.281   1.656   1.850  0.2358  0.1533  0.5219
 9445SOL    HW139971   4.250   1.742   1.878  1.4462  1.1036 -1.0088
 9445SOL    HW239972   4.206   1.620   1.804 -1.1266  1.7466  1.4977
 9446SOL     OW39973   4.706   1.138   4.600  0.3044  0.2358 -0.9114
 9446SOL    HW139974   4.735   1.193   4.673  3.0987 -2.6700  0.1632
 9446SOL    HW239975   4.621   1.108   4.633  1.3390 -0.8366  0.7597
 9447SOL     OW39976   1.438   1.283   6.625 -0.3384  1.1829  0.1273
 9447SOL    HW139977   1.353   1.312   6.658 -0.0272 -0.8353  2.7619
 9447SOL    HW239978   1.415   1.203   6.578  2.6001  0.9659 -0.9110
 9448SOL     OW39979   2.205   2.150   2.273  0.0620  0.0061 -0.1893
 9448SOL    HW139980   2.189   2.235   2.231  0.6259 -0.7438 -1.8921
 9448SOL    HW239981   2.153   2.093   2.217  0.6438  0.0466 -0.7678
 9449SOL     OW39982   2.532   1.541  16.934  0.0063  0.0461 -0.2554
 9449SOL    HW139983   2.552   1.627  16.897 -3.6556  1.4216  0.9759
 9449SOL    HW239984   2.522   1.556  17.028  0.9077  1.2008 -0.3357
 9450SOL     OW39985   3.076   0.887   8.125  0.3299  0.7795 -0.0125
 9450SOL    HW139986   3.125   0.823   8.073  0.6499  0.5827  0.5248
 9450SOL    HW239987   3.035   0.938   8.056  2.0430  2.6983  0.4119
 9451SOL     OW39988   0.676   4.037  14.384 -0.1104  0.0356  0.5529
 9451SOL    HW139989   0.726   3.956  14.372 -1.9458 -1.1643  0.9394
 9451SOL    HW239990   0.726   4.098  14.329  1.9135 -0.9920  1.2535
 9452SOL     OW39991   2.036   1.106   7.195 -0.2233 -0.2213 -0.1650
 9452SOL    HW139992   2.123   1.147   7.188  0.5150 -1.7665 -0.2048
 9452SOL    HW239993   1.987   1.142   7.122  1.5672  1.7527 -0.3991
 9453SOL     OW39994   2.714   2.626   3.327  0.0483 -0.6415  0.0555
 9453SOL    HW139995   2.753   2.557   3.273 -1.5223 -1.1111 -0.4846
 9453SOL    HW239996   2.756   2.706   3.296 -0.9951 -0.5562 -1.1565
 9454SOL     OW39997   1.839   0.759   4.575  1.0651  0.1029  0.8624
 9454SOL    HW139998   1.859   0.749   4.482  1.1535  1.5875  0.7210
 9454SOL    HW239999   1.913   0.812   4.603  0.1496  2.0114 -0.3379
 9455SOL     OW40000   4.350   4.251  10.142 -0.3617  0.1405  0.7217
 9455SOL    HW140001   4.332   4.290  10.057  1.0772 -0.1841  0.2784
 9455SOL    HW240002   4.312   4.307  10.210  1.8117  0.6060  1.5729
 9456SOL     OW40003   4.317   1.876   3.452  0.4023 -0.0581  0.0828
 9456SOL    HW140004   4.270   1.958   3.467  0.5632  0.8436 -4.2337
 9456SOL    HW240005   4.403   1.894   3.489 -0.3574  1.7575  0.9390
 9457SOL     OW40006   4.381   3.363   6.535  0.2302 -0.1999  0.1803
 9457SOL    HW140007   4.408   3.280   6.576  1.1392 -0.4942 -1.0335
 9457SOL    HW240008   4.440   3.428   6.573 -2.9393  2.7501 -0.0218
 9458SOL     OW40009   3.930   1.926   2.332 -0.6668 -0.3823  0.2269
 9458SOL    HW140010   3.973   2.007   2.302 -3.9116  0.6135 -1.6658
 9458SOL    HW240011   3.942   1.914   2.426  1.0543 -0.1963  0.0364
 9459SOL     OW40012   0.566   2.998   8.583  0.1296 -0.6576 -0.3449
 9459SOL    HW140013   0.629   2.998   8.511  1.8331 -0.6401  1.1367
 9459SOL    HW240014   0.545   3.091   8.580 -0.7674 -0.8703 -0.6513
 9460SOL     OW40015   2.575   2.659   8.747  0.2887  0.1231 -0.4360
 9460SOL    HW140016   2.652   2.679   8.800  0.1052 -0.3022 -0.0111
 9460SOL    HW240017   2.607   2.625   8.664  0.3418 -1.7399  0.3364
 9461SOL     OW40018   0.138   2.475   2.944  0.3793  0.9216  0.3857
 9461SOL    HW140019   0.188   2.457   2.864 -0.4366 -2.8938  0.7366
 9461SOL    HW240020   0.207   2.485   3.009  0.3074 -2.0243  0.9062
 9462SOL     OW40021   2.157   2.036   7.709 -0.0269 -0.3587 -0.5136
 9462SOL    HW140022   2.249   2.063   7.708  0.1838 -1.1573 -2.4838
 9462SOL    HW240023   2.158   1.975   7.783  0.7459  0.3147  0.0232
 9463SOL     OW40024   3.161   0.857   4.497 -0.9199 -0.3693  0.6295
 9463SOL    HW140025   3.214   0.804   4.557 -0.5154 -0.8199 -0.1126
 9463SOL    HW240026   3.085   0.888   4.546 -2.7369  1.6272 -3.4839
 9464SOL     OW40027   0.069   3.521  14.484 -0.5730  0.2610  0.2262
 9464SOL    HW140028   0.040   3.592  14.427  2.2452 -0.4395 -2.0681
 9464SOL    HW240029   0.095   3.568  14.563 -0.8191 -0.7279  0.8932
 9465SOL     OW40030   2.577   1.943   4.204 -0.3960 -0.1731 -0.1574
 9465SOL    HW140031   2.604   1.865   4.253 -0.5570 -0.2398 -0.1746
 9465SOL    HW240032   2.568   1.911   4.114 -3.3005 -2.4966  0.9957
 9466SOL     OW40033   1.356   0.294  14.734 -0.0006 -0.1454  0.0809
 9466SOL    HW140034   1.330   0.238  14.661 -0.9224  0.4798 -0.0715
 9466SOL    HW240035   1.282   0.354  14.727 -0.0596 -0.1279  0.8266
 9467SOL     OW40036   0.425   3.514   4.261 -0.1705 -0.0424  0.0401
 9467SOL    HW140037   0.332   3.526   4.280 -1.0213 -2.5249 -2.4893
 9467SOL    HW240038   0.445   3.446   4.325  1.9381  0.8806  0.3243
 9468SOL     OW40039   3.871   2.544   6.103 -0.5039  0.4184  0.0307
 9468SOL    HW140040   3.872   2.459   6.059 -1.2872 -0.0705  0.9623
 9468SOL    HW240041   3.777   2.561   6.104 -0.4478  0.6904  0.8979
 9469SOL     OW40042   2.316   1.002   3.842  0.3266  0.3451 -0.0636
 9469SOL    HW140043   2.407   1.031   3.836  1.1073 -2.1425 -0.2761
 9469SOL    HW240044   2.272   1.056   3.777  2.7157  3.0244  0.5574
 9470SOL     OW40045   0.659   2.866  15.544 -1.0176 -0.3071 -0.7769
 9470SOL    HW140046   0.670   2.775  15.572  0.8138 -0.1017 -0.8369
 9470SOL    HW240047   0.565   2.882  15.541 -0.6230  2.0122 -1.0999
 9471SOL     OW40048   3.381   1.545   2.739 -0.1923 -0.1638 -0.1029
 9471SOL    HW140049   3.413   1.456   2.754  1.4964  0.3246 -0.8403
 9471SOL    HW240050   3.335   1.551   2.823 -1.2519 -0.4071 -0.6769
 9472SOL     OW40051   3.487   2.410   1.961  0.3721  0.1192  0.1553
 9472SOL    HW140052   3.431   2.424   2.037  0.6573  3.4006 -0.2429
 9472SOL    HW240053   3.562   2.467   1.975  0.2977  0.2374  0.0610
 9473SOL     OW40054   1.270   3.318   7.369 -0.3599 -0.5546 -0.1283
 9473SOL    HW140055   1.348   3.372   7.355 -1.6499  1.1343 -0.8259
 9473SOL    HW240056   1.258   3.264   7.291  0.7166  0.3198 -0.8899
 9474SOL     OW40057   4.304   2.184   1.868 -0.8181 -0.3496  1.1822
 9474SOL    HW140058   4.321   2.259   1.812 -0.3681  0.1508  1.9888
 9474SOL    HW240059   4.390   2.148   1.889 -0.6850 -1.4837 -1.4266
 9475SOL     OW40060   3.971   1.652   9.402  0.4520  0.1641 -0.1627
 9475SOL    HW140061   3.896   1.705   9.428 -0.4084  0.0225 -2.3502
 9475SOL    HW240062   4.029   1.728   9.402 -2.7117  2.5705 -0.1772
 9476SOL     OW40063   1.797   3.514  13.649 -0.2865 -0.1260 -0.1883
 9476SOL    HW140064   1.859   3.527  13.577 -2.9297 -1.6537 -2.7426
 9476SOL    HW240065   1.710   3.514  13.610  0.1603  0.2709 -1.1996
 9477SOL     OW40066   4.437   0.480  10.034  0.0978  0.3519 -0.0331
 9477SOL    HW140067   4.503   0.417  10.004 -0.4416 -0.3694  0.2900
 9477SOL    HW240068   4.479   0.566  10.029 -1.7157  1.3649  2.5899
 9478SOL     OW40069   3.000   1.548   7.446  0.7201  0.7247  0.2879
 9478SOL    HW140070   3.046   1.599   7.380 -2.4922  0.8013 -1.8911
 9478SOL    HW240071   2.915   1.559   7.402 -0.1159  0.4027  1.8139
 9479SOL     OW40072   3.965   2.617   8.889  0.0989  0.3429  0.5584
 9479SOL    HW140073   3.926   2.642   8.973 -0.3800 -0.7211  0.6484
 9479SOL    HW240074   4.050   2.662   8.897  0.4592 -0.3968  0.9178
 9480SOL     OW40075   3.436   0.144   6.087 -0.1850 -0.0159 -0.1985
 9480SOL    HW140076   3.358   0.199   6.094 -0.9578 -1.1866  0.4422
 9480SOL    HW240077   3.506   0.204   6.061  1.0593 -0.3140  2.4893
 9481SOL     OW40078   0.415   2.127  16.479 -0.1279 -0.7540  0.0702
 9481SOL    HW140079   0.373   2.211  16.501 -0.3673 -0.8247 -0.1162
 9481SOL    HW240080   0.503   2.160  16.460 -0.6901  0.8937  0.3140
 9482SOL     OW40081   4.488   3.641   8.108 -0.1299 -0.3474 -0.3878
 9482SOL    HW140082   4.481   3.599   8.194 -0.1401  0.5035  0.0306
 9482SOL    HW240083   4.454   3.565   8.061 -1.7950  0.9873 -1.3445
 9483SOL     OW40084   0.364   2.840   4.761  0.5314 -0.6094  0.3272
 9483SOL    HW140085   0.443   2.799   4.727 -1.1079 -3.9411  0.5301
 9483SOL    HW240086   0.385   2.853   4.853  3.7404 -0.3486 -0.4506
 9484SOL     OW40087   2.214   0.243   0.774 -0.0793 -0.0087  0.3283
 9484SOL    HW140088   2.213   0.306   0.846  1.8255 -0.0028  0.3517
 9484SOL    HW240089   2.136   0.271   0.726  1.4716  0.5539 -1.8829
 9485SOL     OW40090   2.383   3.109  13.396  0.2086 -0.8976  0.0782
 9485SOL    HW140091   2.475   3.096  13.420  0.2850 -0.3958  0.0673
 9485SOL    HW240092   2.371   3.194  13.438  2.1760 -1.1208  1.0899
 9486SOL     OW40093   0.035   0.840  17.178  0.1368 -0.3018 -0.1634
 9486SOL    HW140094   4.700   0.828  17.116  0.4639 -3.1136  0.0047
 9486SOL    HW240095   0.030   0.934  17.194 -0.4528 -0.8654  2.9918
 9487SOL     OW40096   1.372   0.896   0.141 -0.3308  0.4626  0.1898
 9487SOL    HW140097   1.464   0.876   0.157 -0.7513 -1.7263 -0.0172
 9487SOL    HW240098   1.359   0.836   0.067  1.7338 -0.5415  0.6505
 9488SOL     OW40099   1.679   2.697   3.850  0.6416  0.1685 -0.0885
 9488SOL    HW140100   1.749   2.739   3.900 -0.5918  1.9727  0.1517
 9488SOL    HW240101   1.666   2.756   3.776 -1.4706 -2.3064 -1.6774
 9489SOL     OW40102   0.408   2.400   9.843  0.1875  0.1907 -0.2705
 9489SOL    HW140103   0.365   2.367   9.764 -1.1634 -0.7920  0.8540
 9489SOL    HW240104   0.429   2.314   9.878  1.0181 -0.0261 -1.3108
 9490SOL     OW40105   3.968   3.342   6.439  0.5013  0.3188 -0.2461
 9490SOL    HW140106   4.000   3.270   6.385 -1.9103 -1.4853  0.7475
 9490SOL    HW240107   4.037   3.408   6.429 -1.9910  2.6921 -1.8185
 9491SOL     OW40108   3.589   3.936   6.687  0.5205 -0.4915 -0.2313
 9491SOL    HW140109   3.589   4.022   6.644 -0.1956  0.2967  1.3702
 9491SOL    HW240110   3.508   3.895   6.656 -0.5329  0.3811  1.4119
 9492SOL     OW40111   3.415   1.124  12.981  0.0112  0.3274  0.0701
 9492SOL    HW140112   3.509   1.130  12.967 -0.1079 -1.3031 -1.3433
 9492SOL    HW240113   3.404   1.030  12.994  1.3043  0.3269  1.2029
 9493SOL     OW40114   3.598   4.177   0.575 -0.1323 -0.3813 -0.2937
 9493SOL    HW140115   3.650   4.128   0.511  0.0011  1.8711 -1.9129
 9493SOL    HW240116   3.638   4.160   0.661  0.1861  0.2332 -0.3177
 9494SOL     OW40117   4.306   3.533  11.721  0.8341 -0.1870 -0.4101
 9494SOL    HW140118   4.295   3.467  11.790 -1.0396  0.1061 -0.4229
 9494SOL    HW240119   4.222   3.522  11.676  0.9455 -0.1748 -0.6186
 9495SOL     OW40120   2.903   3.255   9.741 -0.5834  0.5311  0.6728
 9495SOL    HW140121   2.985   3.293   9.710 -0.9246  0.0953 -0.7549
 9495SOL    HW240122   2.861   3.339   9.757 -0.4715  1.0092 -1.5667
 9496SOL     OW40123   4.693   3.479   1.355 -0.6579  0.3693 -0.0332
 9496SOL    HW140124   4.651   3.423   1.421 -0.5809 -1.2934 -1.4125
 9496SOL    HW240125   0.010   3.539   1.407  0.0774  1.5787 -2.1917
 9497SOL     OW40126   0.505   3.870   5.491  0.2832  0.6140 -0.1895
 9497SOL    HW140127   0.531   3.955   5.528 -0.5417  0.5884  0.4439
 9497SOL    HW240128   0.527   3.823   5.571  0.3286 -0.5875 -0.9068
 9498SOL     OW40129   2.923   1.920   0.648  0.3364  0.2038 -0.2086
 9498SOL    HW140130   2.919   1.918   0.744 -1.2750 -0.7402 -0.3098
 9498SOL    HW240131   2.995   1.858   0.636 -0.8989 -1.2471  0.0397
 9499SOL     OW40132   2.828   0.269  16.658 -0.1185 -0.3769  0.1928
 9499SOL    HW140133   2.736   0.282  16.681  0.3523  1.5367  1.0119
 9499SOL    HW240134   2.862   0.229  16.738 -2.2145  0.0069  1.2795
 9500SOL     OW40135   4.735   1.765   7.556 -0.3247 -0.1133  0.1704
 9500SOL    HW140136   4.696   1.820   7.624  0.7656  1.0747 -0.1519
 9500SOL    HW240137   4.693   1.680   7.569  1.8752 -0.7890  2.8526
 9501SOL     OW40138   4.092   4.040   7.029  0.8435  0.3684 -0.0511
 9501SOL    HW140139   4.078   3.961   6.977  0.9483  0.7261 -0.6188
 9501SOL    HW240140   4.088   4.104   6.958  1.4553  0.5575  0.0839
 9502SOL     OW40141   2.050   2.828   8.789 -0.4198 -0.0643  0.1221
 9502SOL    HW140142   2.107   2.791   8.856  1.6473 -0.6737 -1.9910
 9502SOL    HW240143   2.082   2.770   8.719  1.7540  0.2756  0.8539
 9503SOL     OW40144   2.185   1.333  16.860 -0.3150  0.6938  0.0575
 9503SOL    HW140145   2.208   1.363  16.772  0.1939 -0.4985 -0.2172
 9503SOL    HW240146   2.093   1.358  16.863 -0.6592 -0.7324  1.2994
 9504SOL     OW40147   2.644   4.307   2.644  0.0167 -0.2817 -0.2467
 9504SOL    HW140148   2.629   4.216   2.667 -0.7858  0.1296  0.8679
 9504SOL    HW240149   2.714   4.317   2.709 -1.5065  0.3272  1.2981
 9505SOL     OW40150   2.978   1.720   6.197 -0.1663  0.5659 -0.4330
 9505SOL    HW140151   2.928   1.785   6.147  0.7250 -0.6343 -2.8733
 9505SOL    HW240152   3.041   1.709   6.126 -2.1933 -0.3612 -2.0829
 9506SOL     OW40153   2.848   1.897   7.491  0.0433 -0.3314 -0.3049
 9506SOL    HW140154   2.941   1.887   7.470  0.4027  0.0965  1.0619
 9506SOL    HW240155   2.847   1.945   7.574  3.3458 -0.2548 -0.3106
 9507SOL     OW40156   4.300   3.225   4.784 -0.0036  0.3501 -0.2683
 9507SOL    HW140157   4.294   3.238   4.879 -0.1367 -1.7191  0.0036
 9507SOL    HW240158   4.386   3.263   4.764  1.6607 -1.4289  3.5294
 9508SOL     OW40159   1.722   0.917   3.746  0.2087 -0.1968  0.6934
 9508SOL    HW140160   1.712   0.852   3.677 -1.5507  0.0276  0.7443
 9508SOL    HW240161   1.800   0.890   3.795  0.5233  0.1733  0.4022
 9509SOL     OW40162   2.576   4.512  14.696 -0.0809 -0.0845 -0.1578
 9509SOL    HW140163   2.587   4.594  14.745  1.6188  1.0134 -2.3613
 9509SOL    HW240164   2.509   4.456  14.736 -1.2754  2.7225  1.8422
 9510SOL     OW40165   3.665   2.641   1.910 -0.2441  0.2908  0.1616
 9510SOL    HW140166   3.658   2.735   1.893 -0.1057 -0.3506 -3.2699
 9510SOL    HW240167   3.728   2.655   1.980 -0.2237  1.1812 -0.0322
 9511SOL     OW40168   1.127   2.335   3.944  0.1976 -0.2297  0.5167
 9511SOL    HW140169   1.177   2.260   3.913  1.1906  0.8873 -0.5903
 9511SOL    HW240170   1.055   2.292   3.991  0.6117 -0.0990  1.2790
 9512SOL     OW40171   2.867   2.010  13.800 -0.1475 -0.5685 -0.0829
 9512SOL    HW140172   2.927   1.937  13.793  1.1851  0.3017  2.1270
 9512SOL    HW240173   2.790   1.972  13.758 -0.1311  0.4447 -1.0247
 9513SOL     OW40174   4.232   4.169   5.956 -0.2640 -0.4195  0.1544
 9513SOL    HW140175   4.236   4.097   5.892 -1.4719 -0.9954  0.7152
 9513SOL    HW240176   4.321   4.203   5.955 -0.5043  0.1153 -2.1187
 9514SOL     OW40177   0.123   1.156   3.963  0.3549 -0.0677 -0.2295
 9514SOL    HW140178   0.070   1.204   3.899  0.2961 -1.7970 -1.4804
 9514SOL    HW240179   0.167   1.217   4.022 -0.4451 -0.2823  0.5985
 9515SOL     OW40180   1.156   0.899  13.327 -0.5845  0.3507  0.3963
 9515SOL    HW140181   1.197   0.871  13.408 -0.0665  3.9538  1.3707
 9515SOL    HW240182   1.213   0.864  13.259  0.3644  0.3575  1.2025
 9516SOL     OW40183   3.621   2.812   8.492  0.1751 -0.1456 -0.8291
 9516SOL    HW140184   3.662   2.756   8.427  0.5043  0.5498 -1.2164
 9516SOL    HW240185   3.650   2.766   8.571  2.5106 -0.0954 -1.6703
 9517SOL     OW40186   3.904   4.355   7.861  0.1915 -0.2151  0.7344
 9517SOL    HW140187   3.877   4.329   7.773  2.1421 -0.8635  0.3313
 9517SOL    HW240188   3.856   4.294   7.917  1.3833 -0.8189  1.0933
 9518SOL     OW40189   3.126   3.928   6.743  0.3395  0.0401  0.1405
 9518SOL    HW140190   3.201   3.921   6.685  0.0707 -0.3133 -0.1650
 9518SOL    HW240191   3.072   3.870   6.689  0.2913  1.0784 -0.9194
 9519SOL     OW40192   4.429   2.186  11.749  0.2882  0.4524 -0.6314
 9519SOL    HW140193   4.460   2.228  11.829  1.1171  2.6958 -2.1468
 9519SOL    HW240194   4.423   2.100  11.791  2.0126 -0.1583 -1.6025
 9520SOL     OW40195   1.621   2.318   3.729  0.7132 -0.0292 -0.0262
 9520SOL    HW140196   1.575   2.240   3.758  0.1186  0.2866 -0.1322
 9520SOL    HW240197   1.553   2.383   3.748 -2.0889 -2.6847 -1.0807
 9521SOL     OW40198   0.830   4.206   5.693 -0.0132  0.9615  0.6300
 9521SOL    HW140199   0.883   4.266   5.639 -0.7806  0.8412 -0.2598
 9521SOL    HW240200   0.863   4.232   5.779  1.6426 -0.4795  0.4330
 9522SOL     OW40201   1.222   3.959   5.600  0.0794 -0.2863  0.3144
 9522SOL    HW140202   1.297   3.991   5.649  0.3766  0.2452 -0.4953
 9522SOL    HW240203   1.199   4.044   5.563  2.1221  0.1616  0.1272
 9523SOL     OW40204   4.333   1.374  11.434  0.5781  0.6405 -0.0450
 9523SOL    HW140205   4.245   1.395  11.403  0.9578  0.8674 -0.9697
 9523SOL    HW240206   4.392   1.395  11.361 -0.2177 -0.1608 -0.9237
 9524SOL     OW40207   0.681   1.443   7.296 -0.0671 -0.8810  0.0129
 9524SOL    HW140208   0.744   1.447   7.224 -0.2151  0.3230 -0.0393
 9524SOL    HW240209   0.596   1.464   7.257 -0.3778 -0.5972  0.8575
 9525SOL     OW40210   1.742   3.115  10.110  0.0080 -0.8308 -0.1586
 9525SOL    HW140211   1.828   3.128  10.149 -0.9762 -0.7399  2.0036
 9525SOL    HW240212   1.751   3.049  10.042  1.5754 -0.9081  0.1209
 9526SOL     OW40213   3.281   0.803   7.589 -0.1878 -0.2504  0.2838
 9526SOL    HW140214   3.353   0.858   7.621 -0.7891 -0.0727  1.3259
 9526SOL    HW240215   3.300   0.726   7.644 -1.1192  0.1714  1.1999
 9527SOL     OW40216   1.251   4.261   7.932 -0.0559  0.0053  0.4574
 9527SOL    HW140217   1.238   4.224   7.845  3.1440 -1.1095  0.4535
 9527SOL    HW240218   1.331   4.312   7.922 -1.3211  1.3999 -2.5613
 9528SOL     OW40219   1.230   0.181   5.493  0.1758  0.8385 -0.2068
 9528SOL    HW140220   1.210   0.219   5.408 -1.6361  0.0141 -0.1554
 9528SOL    HW240221   1.250   0.256   5.549  3.8093  0.5792 -1.1538
 9529SOL     OW40222   2.173   3.444  12.100  0.4190 -0.4699  0.0324
 9529SOL    HW140223   2.099   3.468  12.155  0.9012  0.1886  0.4015
 9529SOL    HW240224   2.253   3.490  12.126  1.0000 -1.1442 -0.5471
 9530SOL     OW40225   4.270   4.034   2.343  0.1245  0.5616 -0.1430
 9530SOL    HW140226   4.349   4.087   2.349  1.8718 -1.7035 -2.9444
 9530SOL    HW240227   4.254   4.022   2.250  4.8663 -1.8665 -0.6505
 9531SOL     OW40228   4.257   2.473   4.935 -0.1324 -0.1626  0.0060
 9531SOL    HW140229   4.291   2.553   4.975 -0.4187 -0.6276  1.1826
 9531SOL    HW240230   4.168   2.479   4.970 -0.2929  3.5101 -1.0410
 9532SOL     OW40231   1.393   0.128  13.129  0.8007 -0.0760  0.0739
 9532SOL    HW140232   1.483   0.154  13.144  0.6345  0.7235 -0.3373
 9532SOL    HW240233   1.348   0.212  13.135  0.1266 -0.3343 -1.4116
 9533SOL     OW40234   0.967   2.866   5.684 -0.0701 -0.0692  0.0627
 9533SOL    HW140235   1.045   2.915   5.658  0.5155 -0.9220  0.2115
 9533SOL    HW240236   0.978   2.830   5.772  1.5521  1.6120  0.5515
 9534SOL     OW40237   1.976   4.525   2.765 -0.6550  0.0715 -0.0232
 9534SOL    HW140238   1.905   4.490   2.711 -1.3469  2.9172 -0.9697
 9534SOL    HW240239   2.009   4.590   2.703  1.9883 -3.0310 -1.8798
 9535SOL     OW40240   4.396   2.212   8.503  0.2319  0.2248  0.1699
 9535SOL    HW140241   4.383   2.135   8.559 -1.3963  0.2643 -0.1526
 9535SOL    HW240242   4.479   2.245   8.538  1.1077 -0.0101 -1.6784
 9536SOL     OW40243   4.551   3.347   4.742 -0.4824  0.0224  0.0893
 9536SOL    HW140244   4.559   3.309   4.654 -0.6066 -0.8657  0.4560
 9536SOL    HW240245   4.550   3.442   4.732  1.7447  0.0650  0.2872
 9537SOL     OW40246   0.590   4.542   5.736 -0.3168 -0.5588 -0.1441
 9537SOL    HW140247   0.578   4.507   5.648 -0.4260 -0.3633 -0.2070
 9537SOL    HW240248   0.510   4.593   5.744  0.0407 -0.0032 -0.0523
 9538SOL     OW40249   3.823   2.979  12.854  0.0569  0.7041 -0.2834
 9538SOL    HW140250   3.841   2.953  12.944  0.5415  0.2696 -0.5091
 9538SOL    HW240251   3.878   3.056  12.848 -1.7170  1.8715 -1.7023
 9539SOL     OW40252   1.226   3.146  11.763 -0.5195  0.1530  0.3656
 9539SOL    HW140253   1.258   3.202  11.693  0.3475  0.6890  1.1858
 9539SOL    HW240254   1.311   3.113  11.793 -1.2918 -0.3033  2.1015
 9540SOL     OW40255   0.081   0.450   7.240  0.0393 -0.0676  0.6761
 9540SOL    HW140256   0.135   0.387   7.288 -0.1179 -2.1325 -1.8825
 9540SOL    HW240257   0.000   0.442   7.290  0.3763 -0.0865  1.2162
 9541SOL     OW40258   4.149   1.064   1.010  0.4069  0.2871  0.0084
 9541SOL    HW140259   4.183   1.113   0.935  0.9656  1.2925  0.9320
 9541SOL    HW240260   4.091   1.001   0.968  1.8161  0.9139 -2.8722
 9542SOL     OW40261   3.366   3.660   7.927  0.0336  0.1024  0.6731
 9542SOL    HW140262   3.300   3.706   7.874  3.1783  2.1857 -1.4024
 9542SOL    HW240263   3.316   3.611   7.993 -1.7639  0.6474 -0.2595
 9543SOL     OW40264   1.518   4.707   0.662  0.7495 -0.3791  0.3840
 9543SOL    HW140265   1.547   4.666   0.581  2.2174  0.2769  0.5810
 9543SOL    HW240266   1.452   0.034   0.637 -0.4627 -1.4605  0.8315
 9544SOL     OW40267   3.372   3.830   0.622 -0.0592 -0.1017  0.3623
 9544SOL    HW140268   3.352   3.769   0.551  0.9534 -0.5861  0.4983
 9544SOL    HW240269   3.329   3.909   0.589  1.0664 -0.0951 -1.0641
 9545SOL     OW40270   2.944   2.132  10.551  0.2306 -0.9730  0.2725
 9545SOL    HW140271   2.857   2.172  10.544  0.5475 -0.5145 -1.1368
 9545SOL    HW240272   2.974   2.166  10.636 -0.5063 -0.2725  0.2456
 9546SOL     OW40273   0.145   1.599   5.876  0.0197  0.2294  0.0960
 9546SOL    HW140274   0.113   1.523   5.827  3.2189 -0.5509 -0.7771
 9546SOL    HW240275   0.195   1.646   5.810  0.0923  0.5024  0.3481
 9547SOL     OW40276   2.371   4.496   6.725 -0.4811 -0.6658  0.0486
 9547SOL    HW140277   2.403   4.509   6.815 -1.3985  0.4374  0.2141
 9547SOL    HW240278   2.416   4.415   6.699  0.7565 -1.6117  5.0555
 9548SOL     OW40279   2.146   4.336   5.577  0.0841 -0.0254  0.7027
 9548SOL    HW140280   2.079   4.270   5.592  0.5277 -0.6071  0.0941
 9548SOL    HW240281   2.224   4.282   5.585  0.0512 -0.1397  0.2652
 9549SOL     OW40282   3.206   2.343  13.304  0.0640 -0.3879  0.1802
 9549SOL    HW140283   3.150   2.416  13.333  2.3340  0.4783  2.4778
 9549SOL    HW240284   3.294   2.373  13.328  0.3355 -3.4199  2.8924
 9550SOL     OW40285   4.226   4.261   3.073 -0.3615 -0.5130  0.1506
 9550SOL    HW140286   4.299   4.209   3.039 -0.5340 -1.5178  1.3063
 9550SOL    HW240287   4.167   4.192   3.104 -0.9756  0.3385  0.8941
 9551SOL     OW40288   1.379   4.708   7.352 -0.3722  0.0386  0.7651
 9551SOL    HW140289   1.400   4.653   7.276 -0.2439  0.9595  0.1308
 9551SOL    HW240290   1.316   0.032   7.314 -1.5354 -0.9241  1.1555
 9552SOL     OW40291   1.155   1.006   2.408  0.3467  0.4016 -0.0284
 9552SOL    HW140292   1.240   0.987   2.448  0.9742  1.1250 -1.0270
 9552SOL    HW240293   1.116   1.062   2.476 -0.4939 -0.5305  0.2585
 9553SOL     OW40294   4.693   0.452  16.023  0.0277 -0.1035 -0.2040
 9553SOL    HW140295   4.735   0.502  15.953 -2.0918  2.6737  0.5170
 9553SOL    HW240296   4.606   0.447  15.984 -0.0856  0.5510 -0.0432
 9554SOL     OW40297   2.070   2.423  12.644 -0.1233  0.1202 -0.2917
 9554SOL    HW140298   2.090   2.505  12.599 -1.5609 -1.3870 -3.6980
 9554SOL    HW240299   2.120   2.359  12.593 -0.9107 -0.8810  0.1876
 9555SOL     OW40300   1.503   2.985  12.155  0.0055 -0.2570 -0.2939
 9555SOL    HW140301   1.450   2.919  12.200 -1.5543  0.7036 -0.7356
 9555SOL    HW240302   1.478   3.066  12.200  2.0104  0.9957 -1.4293
 9556SOL     OW40303   4.165   3.683   7.858  0.0104 -0.2900 -0.7484
 9556SOL    HW140304   4.240   3.633   7.827  0.1980  0.2460 -1.1622
 9556SOL    HW240305   4.136   3.719   7.775 -0.1684 -1.3569 -1.1434
 9557SOL     OW40306   3.288   2.322   4.767 -0.3124 -0.6840  0.3811
 9557SOL    HW140307   3.377   2.288   4.770 -0.7695 -2.0672 -1.2549
 9557SOL    HW240308   3.315   2.406   4.804 -3.5305  1.2476 -1.6260
 9558SOL     OW40309   0.222   3.060   9.975  0.4604 -0.4366  0.8817
 9558SOL    HW140310   0.231   3.072  10.069 -0.6287 -2.0047  1.1756
 9558SOL    HW240311   0.313   3.069   9.946  0.3036  0.6064  0.7341
 9559SOL     OW40312   1.494   3.443   6.116  0.3050 -0.1144 -0.0071
 9559SOL    HW140313   1.422   3.445   6.178 -0.1922  1.3189 -0.6262
 9559SOL    HW240314   1.479   3.520   6.061  2.4896  0.2661 -0.0985
 9560SOL     OW40315   2.817   0.917   9.687  0.4120 -0.1132 -0.6280
 9560SOL    HW140316   2.886   0.966   9.732  0.2667 -0.4394 -0.0519
 9560SOL    HW240317   2.771   0.879   9.762  0.0257  0.7312 -0.4285
 9561SOL     OW40318   4.590   2.075   9.267 -0.0997  0.6530  0.6717
 9561SOL    HW140319   4.628   2.129   9.198 -1.2913 -0.4709 -0.8849
 9561SOL    HW240320   4.651   2.001   9.267  1.5467  2.0150  0.0130
 9562SOL     OW40321   0.543   3.137   3.758  0.1705  0.2108  0.3632
 9562SOL    HW140322   0.635   3.140   3.733  0.8116  1.2458  2.8375
 9562SOL    HW240323   0.495   3.144   3.675  1.2244 -0.6717 -0.3197
 9563SOL     OW40324   4.174   3.247  16.469 -0.0832  0.2175  0.2885
 9563SOL    HW140325   4.247   3.309  16.460 -1.0450  0.8718 -3.0935
 9563SOL    HW240326   4.177   3.214  16.558 -3.7298  1.2205  0.7458
 9564SOL     OW40327   1.827   1.656   2.193  0.1604  0.1993 -0.1101
 9564SOL    HW140328   1.852   1.576   2.148  0.0676 -0.2891  0.7210
 9564SOL    HW240329   1.763   1.682   2.126 -0.1416  0.2204  0.1842
 9565SOL     OW40330   3.657   2.254  16.870  0.0190  0.4729  0.0779
 9565SOL    HW140331   3.746   2.260  16.836 -0.0479 -1.5380 -0.4501
 9565SOL    HW240332   3.658   2.166  16.907  1.3824 -0.0501 -1.2212
 9566SOL     OW40333   3.625   2.591  11.215  0.1548  0.5933  0.1838
 9566SOL    HW140334   3.582   2.597  11.300  0.9517 -2.7336  0.8144
 9566SOL    HW240335   3.699   2.534  11.235  0.6004  1.0445 -0.1697
 9567SOL     OW40336   0.166   3.365   6.633  0.2829 -0.0852 -0.0027
 9567SOL    HW140337   0.235   3.361   6.567  0.4852 -0.3022  0.2260
 9567SOL    HW240338   0.169   3.280   6.676  0.7406 -0.4623 -0.7749
 9568SOL     OW40339   4.494   3.508   3.802  0.6365 -0.5730 -0.5088
 9568SOL    HW140340   4.487   3.423   3.759  0.2921 -0.4324 -0.7383
 9568SOL    HW240341   4.431   3.552   3.744 -0.6936  0.6364  1.8579
 9569SOL     OW40342   1.738   3.185   7.485 -0.0849 -0.7439  0.2458
 9569SOL    HW140343   1.814   3.138   7.453 -1.0985 -1.1027 -1.6406
 9569SOL    HW240344   1.762   3.273   7.457 -2.2828  0.4348  2.0516
   4.73679   4.73679  17.74559
