Membrane in water
40344
    1TMC1    C1    1   0.525   3.640  11.780  0.9148  0.2017  0.1267
    1TMC1    C2    2   0.442   3.655  11.675  1.8145  0.3510  0.6005
    1TMC1    C3    3   0.413   3.777  11.633  0.2224 -0.7791  0.0187
    1TMC1    C4    4   0.577   3.751  11.844  0.4364  0.2956  0.0653
    1TMC1    C5    5   0.553   3.872  11.784 -0.0861 -0.1064  0.2031
    1TMC1    C6    6   0.467   3.891  11.680 -0.2173  0.1172 -0.5615
    1TMC1     C    7   0.565   3.512  11.830  0.0173 -0.9640 -0.3515
    1TMC1     O    8   0.481   3.427  11.807  0.3340  0.3900 -0.3700
    1TMC1     H    9   0.401   3.572  11.619 -1.6088  1.8629  0.8333
    1TMC1    H1   10   0.635   3.747  11.936 -0.2332 -1.8354  0.3948
    1TMC1    H2   11   0.437   3.989  11.646 -0.1056  0.7656  1.2011
    1TMC1    C7   12   0.588   3.975  11.876  0.5557  0.1139  0.1098
    1TMC1    C8   13   0.359   3.779  11.499 -0.5636  0.0477 -0.0165
    1TMC1    O1   14   0.634   3.963  11.988  0.0849 -0.0187 -0.4366
    1TMC1    O2   15   0.269   3.706  11.460  0.4045  0.0638 -0.0495
    1TMC1    O3   16   0.625   4.083  11.809 -0.3903  0.4417 -0.6381
    1TMC1    H3   17   0.592   4.095  11.718 -0.3197  1.0425 -0.5840
    1TMC1    O5   18   0.435   3.867  11.426  0.2881 -0.0260 -0.4961
    1TMC1    H5   19   0.526   3.885  11.457  0.2673 -2.5458  1.0046
    2MPD2     C   20   0.802   3.267  12.228  0.0882  0.0033 -0.3595
    2MPD2    C1   21   0.716   3.214  12.136 -0.0969 -0.0613  0.2787
    2MPD2    C2   22   0.662   3.292  12.030  0.9940  0.1833 -0.1914
    2MPD2    C3   23   0.716   3.421  12.006 -1.3244  0.3289  0.3536
    2MPD2    C4   24   0.813   3.463  12.095  0.4215  0.9007 -0.0056
    2MPD2    C5   25   0.836   3.398  12.210  0.8404  0.2455  0.5280
    2MPD2     H   26   0.577   3.254  11.975  0.4083  0.8530  0.2529
    2MPD2    H1   27   0.845   3.564  12.074 -0.9692  0.9565 -1.8598
    2MPD2    H2   28   0.844   3.214  12.313 -1.4490 -0.5758  0.0417
    2MPD2    H3   29   0.890   3.455  12.285 -0.2724  2.7706 -0.5616
    2MPD2     N   30   0.678   3.516  11.907 -0.1991  0.3030  0.1627
    2MPD2    H5   31   0.733   3.600  11.892  0.5126  0.1087  1.6510
    2MPD2    N1   32   0.674   3.082  12.135 -0.0617  0.5598  0.6965
    2MPD2    H7   33   0.611   3.054  12.061  0.5075 -1.8131  1.0957
    3TMC1    C1   34   0.013   4.170  10.640 -0.5154 -0.6180 -0.0556
    3TMC1    C2   35   0.033   4.303  10.605 -0.5397 -0.1590 -0.4296
    3TMC1    C3   36   0.160   4.332  10.563 -0.3224  0.9023 -0.3923
    3TMC1    C4   37   0.114   4.088  10.654 -0.0409  0.6595  0.0452
    3TMC1    C5   38   0.242   4.130  10.619 -0.2651  0.0632  0.1063
    3TMC1    C6   39   0.260   4.250  10.563 -0.1331  0.1340 -0.2184
    3TMC1     C   40   4.619   4.127  10.685 -0.6663 -0.2682  0.2566
    3TMC1     O   41   4.592   4.010  10.684 -0.1946 -0.6155  0.0552
    3TMC1     H   42   4.691   4.374  10.591  0.2555  0.7311 -0.4970
    3TMC1    H1   43   0.094   3.987  10.688  2.6338  0.3066  0.5534
    3TMC1    H2   44   0.356   4.276  10.519 -0.8822 -0.9112 -2.4349
    3TMC1    C7   45   0.342   4.030  10.604  1.1336  0.1105  0.0466
    3TMC1    C8   46   0.199   4.466  10.527 -0.2941 -0.0803  0.4973
    3TMC1    O1   47   0.319   3.913  10.572  0.0071 -0.2020 -0.0073
    3TMC1    O2   48   0.108   4.549  10.510 -0.3840  0.0785 -0.3358
    3TMC1    O3   49   0.461   4.083  10.635 -0.4618  0.6034 -0.3018
    3TMC1    H3   50   0.453   4.179  10.657 -1.0943  0.8644 -1.6490
    3TMC1    O5   51   0.317   4.491  10.591 -0.4540  0.0049  0.1642
    3TMC1    H5   52   0.367   4.413  10.622 -1.2044 -1.1990 -1.6090
    4MPD2     C   53   4.157   4.230  10.909 -0.5728 -0.0111  0.2275
    4MPD2    C1   54   4.222   4.349  10.874 -0.4491  0.7321  0.3089
    4MPD2    C2   55   4.352   4.337  10.820 -0.8884  0.0863  0.1080
    4MPD2    C3   56   4.414   4.219  10.790 -0.5597  0.1936  0.0893
    4MPD2    C4   57   4.345   4.104  10.816  0.4779 -0.6485 -0.5084
    4MPD2    C5   58   4.220   4.111  10.873  0.2580  0.1680 -0.0236
    4MPD2     H   59   4.401   4.425  10.781 -1.3280  0.4757  0.4318
    4MPD2    H1   60   4.395   4.010  10.797 -1.1209 -1.2009 -1.9560
    4MPD2    H2   61   4.065   4.230  10.965 -1.2332  3.1093 -0.8781
    4MPD2    H3   62   4.176   4.016  10.902  2.0846  0.1584  2.6575
    4MPD2     N   63   4.546   4.228  10.742  0.2277 -0.0259  0.7674
    4MPD2    H5   64   4.590   4.319  10.735 -1.8052  0.7799 -1.4199
    4MPD2    N1   65   4.168   4.474  10.915 -0.2225  0.1389 -0.1545
    4MPD2    H7   66   4.221   4.558  10.890 -1.1327  0.7907  0.1262
    5TCq1    O1   67   4.070   0.603  11.846  0.0209 -0.1657  0.4064
    5TCq1    C1   68   3.977   0.692  11.894 -0.1699 -0.3943  0.2614
    5TCq1    O2   69   3.922   0.671  11.998 -0.3387 -0.0065  0.4335
    5TCq1    C2   70   4.050   0.816  11.889 -0.3531 -0.1617  0.1096
    5TCq1    C3   71   3.987   0.929  11.944 -0.4721  0.4914 -0.4489
    5TCq1    C4   72   4.061   1.046  11.960 -0.1898  0.4550  0.5069
    5TCq1    C5   73   4.195   1.052  11.928  0.1092 -0.1210  1.0110
    5TCq1    C6   74   4.251   0.938  11.883  0.1593 -0.1595 -0.2070
    5TCq1    C7   75   4.186   0.823  11.862 -0.4996  0.2056  0.0238
    5TCq1    C8   76   4.394   0.932  11.847  0.0320  0.1459  0.2332
    5TCq1    O4   77   4.435   0.853  11.763 -0.2891  0.7578  0.4221
    5TCq1    C9   78   4.000   1.161  12.005 -0.8360  0.8000 -0.3691
    5TCq1    O5   79   3.891   1.147  12.069  0.1008  0.3456 -0.2716
    5TCq1    O6   80   4.045   1.274  11.969  0.7323  0.1366  0.6383
    5TCq1    H1   81   4.114   0.634  11.764 -2.2494  0.0063 -0.7550
    5TCq1    H2   82   3.882   0.937  11.969 -0.5793 -0.4773 -0.5982
    5TCq1    H3   83   4.256   1.141  11.936 -0.5867  0.5839 -1.6346
    5TCq1    H4   84   4.251   0.739  11.842 -1.2239 -0.5403  0.7799
    6MPD2     C   85   4.678   1.088  12.028 -0.4484  0.3333  0.7101
    6MPD2    C1   86   4.614   1.016  11.928 -0.0056  0.2206  0.0088
    6MPD2    C2   87   4.690   0.962  11.826 -0.1364  0.0085 -0.0915
    6MPD2    C3   88   0.082   0.996  11.806 -0.2866  0.1056  1.0674
    6MPD2    C4   89   0.143   1.067  11.912  0.7116 -0.4324  0.1497
    6MPD2    C5   90   0.073   1.112  12.020 -0.2706  0.0421  0.0473
    6MPD2     H   91   4.642   0.908  11.745  1.3026  0.3598 -1.1602
    6MPD2    H1   92   0.249   1.091  11.902  0.5173  0.8360  1.0927
    6MPD2    H2   93   4.630   1.143  12.107  1.4946  1.0619  1.3924
    6MPD2    H3   94   0.130   1.175  12.088  0.0415 -0.1681 -0.0172
    6MPD2     N   95   0.149   0.950  11.686 -0.0593 -0.8404 -0.2244
    6MPD2    H5   96   0.091   0.897  11.622 -0.6832 -0.1212 -0.2564
    6MPD2    N1   97   4.470   1.003  11.938  0.0293 -0.6736 -0.4440
    6MPD2    H7   98   4.428   1.048  12.018  0.3096 -1.4958  0.1625
    7TCq1    O1   99   3.684   0.696  13.316  0.7534  0.1319 -0.3150
    7TCq1    C1  100   3.639   0.620  13.218  0.3015 -0.0655 -0.0212
    7TCq1    O2  101   3.690   0.534  13.152  0.2257 -0.5706  0.1215
    7TCq1    C2  102   3.497   0.644  13.195  0.4290 -0.2558 -0.5319
    7TCq1    C3  103   3.432   0.754  13.257 -0.2209  0.3364 -0.7558
    7TCq1    C4  104   3.296   0.764  13.239 -0.1539 -0.0352 -0.0320
    7TCq1    C5  105   3.232   0.667  13.171 -0.2232 -0.4360 -0.3799
    7TCq1    C6  106   3.296   0.563  13.108  0.3019  0.2127 -0.0326
    7TCq1    C7  107   3.430   0.548  13.123  0.1168 -0.0591 -0.2797
    7TCq1    C8  108   3.207   0.448  13.104  0.0430 -0.5040 -0.1471
    7TCq1    O4  109   3.123   0.428  13.190  0.2401  0.5352  0.3112
    7TCq1    C9  110   3.221   0.880  13.288 -0.2897 -0.7787 -0.8473
    7TCq1    O5  111   3.097   0.867  13.297  0.2428 -0.6881 -0.7086
    7TCq1    O6  112   3.276   0.991  13.298  0.5383 -0.4385  0.1572
    7TCq1    H1  113   3.781   0.708  13.306 -0.0344  4.3604 -3.0312
    7TCq1    H2  114   3.484   0.820  13.326  2.2103 -1.6634 -0.6419
    7TCq1    H3  115   3.124   0.667  13.167 -0.2747  0.8524  0.8810
    7TCq1    H4  116   3.481   0.464  13.077 -0.4818 -1.0289  0.8281
    8MPD2     C  117   3.187   4.689  12.983 -0.0375  0.6630 -0.2968
    8MPD2    C1  118   3.116   0.021  13.087 -0.2156  0.1683  0.0601
    8MPD2    C2  119   3.141   0.151  13.092  0.1248  0.5020 -0.1603
    8MPD2    C3  120   3.225   0.222  13.001 -0.9863  0.0175  0.1990
    8MPD2    C4  121   3.294   0.152  12.908  0.0354  0.0241 -0.0605
    8MPD2    C5  122   3.277   0.015  12.901  0.4902 -0.0739 -0.2170
    8MPD2     H  123   3.091   0.210  13.168  0.1926 -2.0369  1.8462
    8MPD2    H1  124   3.372   0.196  12.848  1.5661  1.2816  2.8162
    8MPD2    H2  125   3.172   4.582  12.977 -0.9718  0.7518  0.3057
    8MPD2    H3  126   3.326   4.691  12.826 -0.6968  0.0747 -1.1133
    8MPD2     N  127   3.263   0.357  13.011 -0.0230 -0.3947  0.1761
    8MPD2    H5  128   3.344   0.383  12.955 -0.8005  1.7975  0.0789
    8MPD2    N1  129   3.015   4.696  13.167  0.0187  1.0730  0.1210
    8MPD2    H7  130   2.967   0.019  13.232 -1.7979 -0.7335  0.4701
    9TMC1    C1  131   0.211   4.458  11.391 -0.1997 -0.2315  0.1492
    9TMC1    C2  132   0.148   4.360  11.323 -0.4727  0.2888  0.6751
    9TMC1    C3  133   0.083   4.406  11.209 -0.4874  0.2801 -0.0745
    9TMC1    C4  134   0.202   4.590  11.363 -0.4726  1.5131  0.5508
    9TMC1    C5  135   0.116   4.623  11.258 -0.6484  0.1723  0.1875
    9TMC1    C6  136   0.058   4.528  11.171 -0.1028  1.0895  0.0220
    9TMC1     C  137   0.279   4.428  11.519 -0.1384 -0.6015 -0.6045
    9TMC1     O  138   0.384   4.487  11.548  0.3070 -0.1156 -0.6264
    9TMC1     H  139   0.169   4.256  11.343 -1.3908  0.3195  1.7501
    9TMC1    H1  140   0.250   4.664  11.425 -0.2424  1.0577  0.9135
    9TMC1    H2  141   0.025   4.562  11.073  0.0357 -1.5603 -0.9423
    9TMC1    C7  142   0.110   0.023  11.216 -0.3143 -0.1765  0.0488
    9TMC1    C8  143   0.009   4.305  11.132  0.5263 -0.1036 -0.0833
    9TMC1    O1  144   0.072   0.053  11.109 -0.2177  1.1806 -0.0858
    9TMC1    O2  145   4.731   4.296  11.012  0.4503  0.3492 -0.6865
    9TMC1    O3  146   0.165   0.110  11.309  0.4873 -0.0608  0.5163
    9TMC1    H3  147   0.171   0.086  11.404  0.7309 -2.5205 -0.1325
    9TMC1    O5  148   4.676   4.223  11.221 -0.0449  0.0549 -0.6275
    9TMC1    H5  149   4.702   4.254  11.310  4.3220 -1.7005 -1.2709
   10MPD2     C  150   0.327   4.326  11.791 -1.1312 -0.4427 -0.0251
   10MPD2    C1  151   0.245   4.264  11.698 -0.9667  0.5173  0.3547
   10MPD2    C2  152   0.176   4.151  11.731  0.0705 -0.4141 -0.5219
   10MPD2    C3  153   0.204   4.083  11.847 -0.3710 -0.7889  0.3954
   10MPD2    C4  154   0.285   4.145  11.939  0.2285  0.6027  0.3295
   10MPD2    C5  155   0.347   4.263  11.911 -0.8025  0.2399  0.5027
   10MPD2     H  156   0.111   4.099  11.661 -1.0860  1.4717 -0.8571
   10MPD2    H1  157   0.307   4.100  12.035  2.6621  2.8528  0.8374
   10MPD2    H2  158   0.386   4.413  11.767  0.0920 -0.4756  2.7544
   10MPD2    H3  159   0.416   4.308  11.981  0.8713  1.0970 -1.6833
   10MPD2     N  160   0.148   3.959  11.883 -0.2282  0.2168  0.0712
   10MPD2    H5  161   0.174   3.921  11.974 -2.2016 -2.6998 -0.5971
   10MPD2    N1  162   0.220   4.315  11.570 -0.3084  0.2069  0.1696
   10MPD2    H7  163   0.145   4.266  11.523 -1.3110  0.5067  1.4667
   11TCq1    O1  164   1.113   4.348  14.352  1.0736  0.3076 -0.6381
   11TCq1    C1  165   1.015   4.380  14.434 -0.6468  0.1889 -0.2818
   11TCq1    O2  166   0.947   4.479  14.411  0.2757  0.3286  0.5319
   11TCq1    C2  167   0.959   4.257  14.489  0.3230 -1.1059  0.5069
   11TCq1    C3  168   1.058   4.159  14.513 -0.1144  0.6855 -0.3576
   11TCq1    C4  169   1.006   4.031  14.520 -0.8446 -0.0931  0.5795
   11TCq1    C5  170   0.872   4.002  14.514 -0.1583  0.0404 -0.3622
   11TCq1    C6  171   0.785   4.107  14.487  0.7154 -0.0118 -0.1114
   11TCq1    C7  172   0.830   4.241  14.481  0.1833 -0.3397  0.3069
   11TCq1    C8  173   0.665   4.083  14.407 -0.8761  0.3421 -0.3083
   11TCq1    O4  174   0.619   4.179  14.342  0.1120  0.0085  0.5258
   11TCq1    C9  175   1.094   3.921  14.525  0.4289  0.2046  0.1472
   11TCq1    O5  176   1.217   3.940  14.516 -0.4424 -0.4571 -0.3214
   11TCq1    O6  177   1.040   3.806  14.522 -0.0506 -0.1620 -0.3716
   11TCq1    H1  178   1.160   4.264  14.367  1.4229  0.2011 -2.2752
   11TCq1    H2  179   1.164   4.177  14.532 -0.1770  1.9887 -1.1893
   11TCq1    H3  180   0.838   3.900  14.525 -2.2439  0.8158  0.4199
   11TCq1    H4  181   0.755   4.317  14.461  2.2872  1.9342  1.1153
   12MPD2     C  182   0.452   3.982  14.227  0.3406  0.2988 -0.0653
   12MPD2    C1  183   0.553   3.906  14.280 -0.0570  0.4251 -0.4112
   12MPD2    C2  184   0.555   3.771  14.242  0.6412 -0.0830  0.0186
   12MPD2    C3  185   0.471   3.721  14.144 -0.2990  0.1003  0.3518
   12MPD2    C4  186   0.377   3.803  14.092  0.1720  0.2235  0.5294
   12MPD2    C5  187   0.365   3.931  14.135 -0.7216 -0.0534  0.7905
   12MPD2     H  188   0.612   3.705  14.306 -1.2711 -0.6484  1.1483
   12MPD2    H1  189   0.316   3.765  14.011 -0.3593  1.9405  0.1331
   12MPD2    H2  190   0.431   4.086  14.249 -1.4544  0.3098 -1.8055
   12MPD2    H3  191   0.305   3.997  14.073  1.4556  0.4653 -0.7885
   12MPD2     N  192   0.482   3.589  14.097 -0.4930  0.0171 -0.2385
   12MPD2    H5  193   0.407   3.557  14.036 -0.1903 -0.6358 -0.2690
   12MPD2    N1  194   0.652   3.950  14.373  0.6264  0.1116  0.1718
   12MPD2    H7  195   0.715   3.879  14.411 -1.0095  0.0665  2.8173
   13TCq1    O1  196   0.863   4.354  11.183  0.1609 -0.7526  0.3387
   13TCq1    C1  197   0.768   4.281  11.245  0.4151  0.3623  0.0437
   13TCq1    O2  198   0.727   4.289  11.361 -0.0151  0.4307  0.1794
   13TCq1    C2  199   0.672   4.262  11.132 -0.0908  1.0069  0.4971
   13TCq1    C3  200   0.674   4.332  11.012 -1.1249  0.2897 -0.3607
   13TCq1    C4  201   0.576   4.301  10.923  0.1802 -0.5794 -0.1208
   13TCq1    C5  202   0.484   4.206  10.946  0.0564 -0.1286  0.2108
   13TCq1    C6  203   0.469   4.160  11.075  0.2964  0.2782 -0.4774
   13TCq1    C7  204   0.559   4.192  11.171  0.0813  0.5990 -0.0118
   13TCq1    C8  205   0.357   4.077  11.105 -0.5447  0.1718 -0.6104
   13TCq1    O4  206   0.297   4.088  11.211 -0.1896  0.3596 -0.7227
   13TCq1    C9  207   0.589   4.361  10.784  0.5014  0.0723 -0.0472
   13TCq1    O5  208   0.679   4.452  10.764 -0.0092  0.0064 -0.3543
   13TCq1    O6  209   0.498   4.340  10.698  0.1633  0.2860  0.2054
   13TCq1    H1  210   0.876   4.335  11.088 -0.9627  1.7895 -0.3240
   13TCq1    H2  211   0.750   4.405  10.992 -1.2404  0.2733 -0.8803
   13TCq1    H3  212   0.401   4.183  10.881  1.1460 -0.5597 -1.0169
   13TCq1    H4  213   0.549   4.152  11.271 -1.0267  0.9276  0.0052
   14MPD2     C  214   0.219   3.827  10.877 -0.3800 -0.0343  0.6823
   14MPD2    C1  215   0.218   3.921  10.978  0.2086 -0.0410  0.0752
   14MPD2    C2  216   0.098   3.956  11.037  0.2816  0.2786  0.4282
   14MPD2    C3  217   4.724   3.883  11.006 -0.2841  0.6451  0.4133
   14MPD2    C4  218   4.730   3.775  10.914 -0.5621  0.6281 -0.3561
   14MPD2    C5  219   0.112   3.745  10.856  0.2465 -0.4180  0.0576
   14MPD2     H  220   0.094   4.026  11.119  3.0147  0.4674  0.3989
   14MPD2    H1  221   4.646   3.708  10.901  0.7341 -1.1740  0.6277
   14MPD2    H2  222   0.306   3.815  10.814 -1.9595  1.8249 -1.8962
   14MPD2    H3  223   0.110   3.657  10.793 -2.5913 -0.1588 -0.2083
   14MPD2     N  224   4.609   3.928  11.072  0.2968 -0.7424 -0.1643
   14MPD2    H5  225   4.603   4.015  11.124 -1.1362 -0.3775 -0.9148
   14MPD2    N1  226   0.340   3.992  11.000 -0.5065 -0.2577 -0.3045
   14MPD2    H7  227   0.421   3.982  10.940 -0.3679 -0.2495 -0.1193
   15TCq1    O1  228   3.934   4.118   2.479  0.2588 -0.2815  0.1205
   15TCq1    C1  229   3.877   4.239   2.458 -0.6148 -0.2917 -0.6575
   15TCq1    O2  230   3.910   4.340   2.521 -0.8982 -0.4095 -0.1686
   15TCq1    C2  231   3.735   4.198   2.441 -0.1169 -0.2206 -0.0654
   15TCq1    C3  232   3.641   4.281   2.495  0.1898 -0.2304 -0.4267
   15TCq1    C4  233   3.507   4.256   2.464 -0.6001  0.0677  0.4886
   15TCq1    C5  234   3.470   4.153   2.380 -0.2493 -0.5885  0.8707
   15TCq1    C6  235   3.565   4.068   2.342  1.0832  0.2299  0.0697
   15TCq1    C7  236   3.701   4.091   2.360 -0.2075  0.2303 -0.1884
   15TCq1    C8  237   3.521   3.958   2.264 -0.3394 -0.7550  0.8536
   15TCq1    O4  238   3.609   3.917   2.188  0.1116 -0.4601  0.2812
   15TCq1    C9  239   3.420   4.352   2.528  1.0855 -0.0724 -0.2447
   15TCq1    O5  240   3.462   4.430   2.606 -0.4048  0.1102 -0.1807
   15TCq1    O6  241   3.296   4.337   2.516  0.0609 -0.0439  0.3942
   15TCq1    H1  242   3.881   4.037   2.464  1.5155 -0.8574 -1.2689
   15TCq1    H2  243   3.663   4.372   2.550  1.4574 -2.1518  2.2651
   15TCq1    H3  244   3.370   4.134   2.342  0.9552 -1.4849 -1.8106
   15TCq1    H4  245   3.783   4.042   2.310 -0.4656 -0.8716  0.4673
   16MPD2     C  246   3.235   3.722   2.318  0.4401 -0.3628  0.0565
   16MPD2    C1  247   3.355   3.771   2.262  0.9815  0.4434 -1.0127
   16MPD2    C2  248   3.419   3.694   2.176 -0.1862 -0.1872 -0.3085
   16MPD2    C3  249   3.364   3.577   2.137 -0.1755  0.0441 -0.6552
   16MPD2    C4  250   3.241   3.528   2.184  0.0736 -0.4531  0.1289
   16MPD2    C5  251   3.178   3.608   2.274  0.3532  0.5321  0.2601
   16MPD2     H  252   3.515   3.722   2.135  1.0896 -0.4057  2.5280
   16MPD2    H1  253   3.197   3.432   2.160  0.3097 -0.8215  1.2114
   16MPD2    H2  254   3.178   3.769   2.398  0.3373 -1.2467  0.5044
   16MPD2    H3  255   3.087   3.574   2.323  0.6159 -1.0124 -0.3405
   16MPD2     N  256   3.455   3.495   2.061 -0.0002 -0.1727  0.1698
   16MPD2    H5  257   3.543   3.532   2.028 -1.0458  0.4632 -1.9084
   16MPD2    N1  258   3.411   3.886   2.315 -0.3331  0.2322 -0.2763
   16MPD2    H7  259   3.351   3.928   2.386 -0.7048 -0.7206 -0.0205
   17TMC1    C1  260   0.285   3.085  10.903 -0.1518 -0.4389 -0.1463
   17TMC1    C2  261   0.182   3.022  10.968 -0.0731 -0.8594 -0.5774
   17TMC1    C3  262   0.061   3.010  10.905 -0.3722 -0.1537  0.1550
   17TMC1    C4  263   0.268   3.128  10.773  0.1312  0.0337  0.0736
   17TMC1    C5  264   0.145   3.114  10.716  0.0162 -0.2917 -0.3288
   17TMC1    C6  265   0.037   3.058  10.780  0.2588  0.1413  0.2242
   17TMC1     C  266   0.422   3.060  10.960  0.1996 -0.3764 -0.4405
   17TMC1     O  267   0.513   3.082  10.881 -0.3866  0.0338 -0.0350
   17TMC1     H  268   0.193   2.962  11.057 -1.0352 -2.5505 -1.5944
   17TMC1    H1  269   0.356   3.162  10.719 -0.0530  0.9176  0.3325
   17TMC1    H2  270   4.680   3.065  10.729 -0.2991  2.1958  1.5495
   17TMC1    C7  271   0.121   3.188  10.594 -0.0568 -0.3182 -0.0165
   17TMC1    C8  272   4.688   2.965  10.979 -0.4817  0.6447  0.4419
   17TMC1    O1  273   0.037   3.159  10.511  0.3464  0.3266 -0.4757
   17TMC1    O2  274   4.587   2.926  10.926 -0.3900 -0.4294 -0.2479
   17TMC1    O3  275   0.144   3.316  10.627 -0.7066 -0.2309 -0.6118
   17TMC1    H3  276   0.177   3.320  10.720  0.2632  0.4881 -0.9891
   17TMC1    O5  277   4.711   2.999  11.105 -0.8625  0.7433  0.0877
   17TMC1    H5  278   0.059   3.044  11.116 -0.9396  1.0040 -0.3873
   18MPD2     C  279   0.533   3.031  11.311  1.0574  0.0045  0.1173
   18MPD2    C1  280   0.547   3.018  11.178 -0.3082 -0.2691  0.4145
   18MPD2    C2  281   0.681   3.016  11.126  0.6498 -0.7721  0.0511
   18MPD2    C3  282   0.795   3.006  11.211  1.0862 -0.0559  0.5072
   18MPD2    C4  283   0.770   3.015  11.349  0.3560  0.3310  0.9273
   18MPD2    C5  284   0.642   3.034  11.395 -0.3706  0.5479 -0.0909
   18MPD2     H  285   0.698   3.029  11.020 -1.5993  0.8333 -0.1107
   18MPD2    H1  286   0.854   3.020  11.417  1.7338  2.3241 -0.9353
   18MPD2    H2  287   0.437   3.055  11.356  0.1192  0.3011 -2.0789
   18MPD2    H3  288   0.615   3.054  11.498 -1.3110 -1.3912  0.0381
   18MPD2     N  289   0.931   3.010  11.168  0.1931  0.5238 -0.3555
   18MPD2    H5  290   1.002   3.029  11.239  0.2069 -0.5988 -0.0675
   18MPD2    N1  291   0.426   3.035  11.099 -0.5869  0.3824  0.2172
   18MPD2    H7  292   0.336   3.030  11.146 -1.0401  0.7733 -0.5995
   19TMC2    C1  293   1.875   3.747  14.105 -0.5969  0.6745 -0.1148
   19TMC2    C2  294   1.839   3.832  14.011  0.5947 -0.0736  0.4426
   19TMC2    C3  295   1.720   3.821  13.943  0.0888  0.0791  0.5861
   19TMC2    C4  296   1.805   3.636  14.140  0.2382  0.0629  0.8993
   19TMC2    C5  297   1.684   3.627  14.070  0.9263 -0.2129  0.0364
   19TMC2    C6  298   1.646   3.705  13.959  0.3308 -0.0809 -0.1182
   19TMC2     C  299   2.019   3.760  14.145  0.2381 -0.4985 -0.5949
   19TMC2     O  300   2.066   3.872  14.143 -0.2708  0.3031  0.5197
   19TMC2     H  301   1.905   3.916  13.988  0.4440  0.4669  2.0388
   19TMC2    H1  302   1.825   3.575  14.227  0.6306 -1.5371 -0.3177
   19TMC2    H2  303   1.570   3.673  13.889 -0.7655  0.8984  0.6314
   19TMC2    C7  304   1.599   3.512  14.088  0.1951  0.4575  0.7128
   19TMC2    C8  305   1.703   3.877  13.803 -0.1732 -0.0703 -0.2338
   19TMC2    O1  306   1.663   3.416  14.128  0.2126  0.0908 -0.0890
   19TMC2    O2  307   1.791   3.881  13.723  0.1425  0.5267 -0.4450
   19TMC2    O5  308   1.566   3.880  13.784 -0.2194 -0.2567  0.0433
   19TMC2    H5  309   1.532   3.910  13.871 -1.5546 -0.8512 -0.2709
   20MPD2     C  310   2.311   3.717  14.184  0.3791  0.3545 -0.2627
   20MPD2    C1  311   2.216   3.613  14.192  0.3875  0.0160 -0.2028
   20MPD2    C2  312   2.251   3.487  14.239  0.3904 -0.7670  0.1002
   20MPD2    C3  313   2.380   3.464  14.273  0.1755  0.0117  0.3844
   20MPD2    C4  314   2.478   3.557  14.249 -0.7140 -0.3576 -0.6445
   20MPD2    C5  315   2.446   3.682  14.191 -0.2967 -0.0146  0.5350
   20MPD2     H  316   2.176   3.410  14.254 -0.0167 -0.6732 -1.3675
   20MPD2    H1  317   2.585   3.537  14.257 -0.2230  1.9440 -1.4114
   20MPD2    H2  318   2.283   3.820  14.164 -0.5562 -0.1670 -1.6580
   20MPD2    H3  319   2.519   3.748  14.145  0.4541 -1.0873  0.1793
   20MPD2     N  320   2.425   3.346  14.335 -0.5821 -0.1854  0.0074
   20MPD2    H5  321   2.521   3.342  14.367 -0.2394 -0.4846 -1.0435
   20MPD2    N1  322   2.082   3.637  14.168  0.0353 -0.6721 -0.4016
   20MPD2    H7  323   2.021   3.556  14.174 -1.7216  0.5989 -1.0841
   21TMC2    C1  324   4.195   3.710  13.999 -0.4647  1.0347  0.2978
   21TMC2    C2  325   4.301   3.643  13.937 -0.2434 -0.1947  0.4808
   21TMC2    C3  326   4.400   3.591  14.023  0.0145 -0.3153 -1.0181
   21TMC2    C4  327   4.175   3.700  14.137  0.4661  0.3826  0.0019
   21TMC2    C5  328   4.276   3.641  14.215 -0.0329 -0.1135 -0.1352
   21TMC2    C6  329   4.395   3.592  14.160  0.0846 -0.2381  0.4038
   21TMC2     C  330   4.096   3.778  13.920 -0.6458 -0.7831  0.4215
   21TMC2     O  331   4.081   3.723  13.813 -0.5166 -0.1047 -0.6980
   21TMC2     H  332   4.312   3.658  13.830 -0.4451 -0.1624  0.4655
   21TMC2    H1  333   4.085   3.742  14.181 -1.8628 -3.0443 -1.4695
   21TMC2    H2  334   4.488   3.575  14.214  0.9005  1.0815 -0.5800
   21TMC2    C7  335   4.296   3.697  14.349 -0.4232 -0.1404  0.0689
   21TMC2    C8  336   4.501   3.517  13.957  0.8277 -0.0109  0.4339
   21TMC2    O1  337   4.398   3.665  14.410 -0.1860 -0.1154 -0.7864
   21TMC2    O2  338   4.517   3.526  13.835 -0.2954 -0.3555  0.3161
   21TMC2    O5  339   4.515   3.400  14.023  0.0170 -0.8804 -0.0708
   21TMC2    H5  340   4.524   3.413  14.120 -1.1885 -2.3110  0.2235
   22MPD2     C  341   4.195   4.166  14.250  0.0639 -0.9491 -0.1074
   22MPD2    C1  342   4.284   4.077  14.188  0.4297 -0.3584 -0.8503
   22MPD2    C2  343   4.233   3.995  14.088 -0.2638 -1.0653 -0.0978
   22MPD2    C3  344   4.099   3.998  14.051 -0.0723  0.6108 -0.2662
   22MPD2    C4  345   4.016   4.092  14.100 -0.3481 -0.9397 -0.8090
   22MPD2    C5  346   4.070   4.172  14.200  0.1213  0.0333 -0.1037
   22MPD2     H  347   4.302   3.924  14.043 -1.0239 -1.1049 -1.1944
   22MPD2    H1  348   3.910   4.102  14.080 -0.4237 -3.0979 -1.4510
   22MPD2    H2  349   4.224   4.242  14.321 -0.3344  0.6252 -1.6386
   22MPD2    H3  350   4.004   4.251  14.233  1.8974  1.6420 -0.4114
   22MPD2     N  351   4.042   3.894  13.971  0.2020 -0.2089 -0.1706
   22MPD2    H5  352   3.951   3.917  13.932  0.1927  0.1648  0.0775
   22MPD2    N1  353   4.420   4.051  14.224  0.5675  0.5908  0.6613
   22MPD2    H7  354   4.473   3.982  14.171  0.1752  0.5860  0.2830
   23TMC2    C1  355   0.928   0.409  14.117 -0.0592  0.0513 -0.1908
   23TMC2    C2  356   1.011   0.406  14.009  0.0472 -0.1031  0.6554
   23TMC2    C3  357   0.954   0.386  13.886 -0.6964 -0.3257  0.3896
   23TMC2    C4  358   0.791   0.400  14.109  0.2360  0.4052  0.5519
   23TMC2    C5  359   0.739   0.383  13.985  0.0227 -0.2992 -0.0765
   23TMC2    C6  360   0.821   0.370  13.873  0.1845 -0.4271 -0.3333
   23TMC2     C  361   0.986   0.391  14.244 -0.1084  0.0383  1.1026
   23TMC2     O  362   0.914   0.344  14.330  0.7775  0.4997 -0.6677
   23TMC2     H  363   1.119   0.394  14.012  0.3339  2.0774 -1.3746
   23TMC2    H1  364   0.736   0.393  14.202  2.4562 -3.4497  1.5679
   23TMC2    H2  365   0.777   0.343  13.778  0.4863  0.0519 -0.6099
   23TMC2    C7  366   0.602   0.336  13.972 -0.5407  0.7004 -0.4982
   23TMC2    C8  367   1.036   0.308  13.794 -0.0413 -0.2657  0.3522
   23TMC2    O1  368   0.583   0.227  13.919  0.2212 -0.1307 -0.3883
   23TMC2    O2  369   1.150   0.345  13.764 -0.0331 -0.0843 -0.8206
   23TMC2    O5  370   0.990   0.183  13.814  0.5830 -0.3891  0.0895
   23TMC2    H5  371   0.931   0.158  13.888  2.7177 -1.0401  1.5434
   24MPD2     C  372   1.383   0.366  14.576 -0.0592 -0.1332 -0.0499
   24MPD2    C1  373   1.251   0.320  14.586 -0.1952  0.4476 -0.0841
   24MPD2    C2  374   1.158   0.359  14.484 -0.1344  0.0048 -0.0851
   24MPD2    C3  375   1.201   0.426  14.374  0.3382  0.2368  0.1795
   24MPD2    C4  376   1.333   0.468  14.366 -0.1364 -0.1034  0.1432
   24MPD2    C5  377   1.423   0.440  14.465  0.3259 -0.0530 -0.5572
   24MPD2     H  378   1.059   0.317  14.495  1.3125 -3.0930  1.1240
   24MPD2    H1  379   1.366   0.519  14.275 -0.9632  0.0460 -0.0756
   24MPD2    H2  380   1.458   0.345  14.652  0.4260 -0.4509 -0.6112
   24MPD2    H3  381   1.525   0.475  14.453  0.2935 -0.0294 -0.7698
   24MPD2     N  382   1.117   0.436  14.255 -0.2983  0.6764 -0.6149
   24MPD2    H5  383   1.146   0.500  14.182  0.3492  0.0504 -0.8948
   24MPD2    N1  384   1.192   0.250  14.689 -0.5653 -0.3274 -0.5233
   24MPD2    H7  385   1.099   0.212  14.678  0.1567 -2.4735  0.8457
   25TMC2    C1  386   4.471   3.050  11.795  0.3240  0.1261  0.6657
   25TMC2    C2  387   4.499   3.188  11.797  0.1328 -0.5331  0.1533
   25TMC2    C3  388   4.419   3.267  11.875 -0.1459  0.5294 -0.1562
   25TMC2    C4  389   4.366   2.994  11.871 -0.2702  0.4936 -0.0816
   25TMC2    C5  390   4.291   3.079  11.945  0.5772 -0.4483 -0.4464
   25TMC2    C6  391   4.311   3.218  11.937 -0.2699 -0.4390  0.4665
   25TMC2     C  392   4.471   3.006  11.663 -0.3669 -0.0514  0.4107
   25TMC2     O  393   4.505   3.097  11.589  0.0583 -0.2270  0.6369
   25TMC2     H  394   4.588   3.226  11.749 -0.3432  0.2230 -0.1216
   25TMC2    H1  395   4.354   2.887  11.889  2.5436 -0.0650 -1.4764
   25TMC2    H2  396   4.266   3.291  12.004 -1.5271 -0.4204 -0.4027
   25TMC2    C7  397   4.180   3.027  12.016  0.5304 -0.1098  0.2199
   25TMC2    C8  398   4.409   3.407  11.842 -0.6606  0.2603 -0.1104
   25TMC2    O1  399   4.185   2.917  12.068  0.0522  0.3871  0.1895
   25TMC2    O2  400   4.305   3.467  11.823 -0.6191 -0.2270 -0.1884
   25TMC2    O5  401   4.522   3.465  11.897 -0.4462  0.0562  0.1738
   25TMC2    H5  402   4.583   3.392  11.920  0.3313 -0.1875 -2.5768
   26MPD2     C  403   4.234   2.814  11.255  0.6104  0.0925  0.0379
   26MPD2    C1  404   4.178   2.765  11.371 -1.1996 -0.4251 -0.4877
   26MPD2    C2  405   4.243   2.787  11.492  0.1069  0.3124  0.4351
   26MPD2    C3  406   4.358   2.864  11.505 -0.6144  0.3305  0.3396
   26MPD2    C4  407   4.409   2.910  11.386  0.4521  0.7071 -0.2438
   26MPD2    C5  408   4.347   2.887  11.269  0.2346  0.3303 -0.1660
   26MPD2     H  409   4.193   2.749  11.581  0.2460  0.1580  0.4475
   26MPD2    H1  410   4.506   2.956  11.401  0.6135  0.5195 -0.7313
   26MPD2    H2  411   4.193   2.806  11.155  1.4036  0.9443 -0.3593
   26MPD2    H3  412   4.397   2.921  11.179 -1.4823  3.0018 -0.0983
   26MPD2     N  413   4.393   2.902  11.638  0.2410  0.0595  0.1810
   26MPD2    H5  414   4.346   2.851  11.713 -2.5542  1.4003 -0.6509
   26MPD2    N1  415   4.056   2.702  11.350 -0.1107 -0.3691  0.0203
   26MPD2    H7  416   4.011   2.725  11.262  0.2695  0.5620  0.0667
   27TMC2    C1  417   3.665   4.565  12.309  0.3581 -0.1200  0.4408
   27TMC2    C2  418   3.575   4.660  12.273 -0.7346  0.0311 -0.0222
   27TMC2    C3  419   3.609   0.047  12.301 -0.1732  0.1027  0.7705
   27TMC2    C4  420   3.786   4.593  12.369  0.3998  0.8744  0.0184
   27TMC2    C5  421   3.818   4.721  12.400 -0.1840  0.4799  0.1427
   27TMC2    C6  422   3.734   0.079  12.357 -0.5809  0.2819 -0.9544
   27TMC2     C  423   3.605   4.451  12.382 -0.5344  0.8038  1.2988
   27TMC2     O  424   3.681   4.393  12.454  0.1290  0.4528 -0.1045
   27TMC2     H  425   3.489   4.622  12.218 -2.5489  0.2338  2.6872
   27TMC2    H1  426   3.856   4.514  12.395  0.5505  1.6290  1.8642
   27TMC2    H2  427   3.762   0.184  12.363  1.0431 -0.2007 -0.2482
   27TMC2    C7  428   3.857   0.004  12.538 -0.1239  0.8414 -0.2449
   27TMC2    C8  429   3.576   0.143  12.196  0.8931 -0.0408 -0.4145
   27TMC2    O1  430   3.860   4.644  12.608  0.2132  0.2526 -0.8813
   27TMC2    O2  431   3.642   0.242  12.178 -0.1424  0.7056  0.1675
   27TMC2    O5  432   3.454   0.120  12.164 -0.1283  0.4796 -0.0652
   27TMC2    H5  433   3.414   0.055  12.226 -2.6142  0.4849 -1.6561
   28MPD2     C  434   3.262   4.219  12.664  0.0041  0.7588  0.5626
   28MPD2    C1  435   3.228   4.348  12.648 -0.6894  0.4699 -0.0107
   28MPD2    C2  436   3.289   4.427  12.541 -0.1309  0.0392  0.2006
   28MPD2    C3  437   3.395   4.380  12.477  0.0169  0.3209  0.0147
   28MPD2    C4  438   3.429   4.245  12.488  0.2419 -0.4355  0.3186
   28MPD2    C5  439   3.358   4.169  12.574  0.5201 -0.0473  0.1678
   28MPD2     H  440   3.254   4.528  12.527 -1.9636 -0.5130  0.7598
   28MPD2    H1  441   3.510   4.197  12.434  1.3432  0.1432  1.4707
   28MPD2    H2  442   3.221   4.156  12.742 -1.3699 -0.1661 -0.9084
   28MPD2    H3  443   3.373   4.063  12.590  1.9376  0.3997  1.7916
   28MPD2     N  444   3.468   4.469  12.397  0.2843 -0.1029 -0.2446
   28MPD2    H5  445   3.427   4.560  12.375 -2.2999 -1.6797 -1.9712
   28MPD2    N1  446   3.117   4.399  12.719 -0.5986 -0.5875 -0.1619
   28MPD2    H7  447   3.077   4.334  12.787 -0.6178 -1.0645 -0.6262
   29TMC2    C1  448   3.004   2.464  14.487  0.1878  0.1917  0.2864
   29TMC2    C2  449   3.004   2.507  14.623 -0.3177 -0.2782  0.0532
   29TMC2    C3  450   3.035   2.637  14.653  0.7801 -0.5123 -0.0006
   29TMC2    C4  451   3.024   2.551  14.387  0.1980  0.1892  0.3561
   29TMC2    C5  452   3.056   2.683  14.424 -0.2264 -0.4689  0.4503
   29TMC2    C6  453   3.065   2.729  14.555 -0.3120 -1.0090 -0.4615
   29TMC2     C  454   2.904   2.356  14.455 -0.5069  0.6467 -0.3936
   29TMC2     O  455   2.892   2.271  14.540 -0.2028 -0.0666 -0.1189
   29TMC2     H  456   2.971   2.443  14.704 -1.3970 -1.8989 -1.6807
   29TMC2    H1  457   3.015   2.527  14.282  2.1330  1.7746 -0.1927
   29TMC2    H2  458   3.073   2.835  14.575  1.3670 -1.6084  1.9017
   29TMC2    C7  459   3.132   2.755  14.327  0.0066 -0.3113  1.0616
   29TMC2    C8  460   2.972   2.685  14.778 -0.1034  0.0429  0.7575
   29TMC2    O1  461   3.108   2.735  14.209 -0.2554 -0.5860 -0.0631
   29TMC2    O2  462   2.863   2.647  14.828  0.3985 -0.6119  0.0668
   29TMC2    O5  463   3.060   2.769  14.834 -0.4858 -0.0959 -0.1194
   29TMC2    H5  464   3.144   2.783  14.785 -0.5047  1.0408  0.1768
   30MPD2     C  465   2.596   2.104  14.139 -0.6151  0.4144 -0.0705
   30MPD2    C1  466   2.692   2.052  14.229 -0.3347  1.0061  0.1994
   30MPD2    C2  467   2.767   2.149  14.296  0.4555 -0.3362  0.0231
   30MPD2    C3  468   2.754   2.284  14.274  0.2939 -0.0141 -0.7967
   30MPD2    C4  469   2.668   2.330  14.175  0.6715  0.5618  0.1315
   30MPD2    C5  470   2.584   2.237  14.112  0.3861 -0.0233  0.6688
   30MPD2     H  471   2.848   2.117  14.360  1.6012  0.8769 -0.8206
   30MPD2    H1  472   2.664   2.436  14.154 -1.0031  0.6876  1.1452
   30MPD2    H2  473   2.534   2.048  14.070  3.4710 -1.6433 -2.0682
   30MPD2    H3  474   2.508   2.272  14.042  0.4576  0.7124  0.9580
   30MPD2     N  475   2.841   2.379  14.336  0.0443  0.0309  0.0727
   30MPD2    H5  476   2.832   2.476  14.308 -0.9465  0.6019  2.3850
   30MPD2    N1  477   2.729   1.916  14.242  0.0973  0.1412  0.0839
   30MPD2    H7  478   2.795   1.893  14.316  0.6594 -0.1473 -0.5078
   31TMC2    C1  479   0.333   1.274  15.238  0.1672  0.1653  0.0378
   31TMC2    C2  480   0.218   1.228  15.193  0.2664  0.3372  0.2598
   31TMC2    C3  481   0.134   1.170  15.278 -0.0098 -0.1042  0.4671
   31TMC2    C4  482   0.380   1.239  15.362 -0.2243 -0.4246  0.0481
   31TMC2    C5  483   0.310   1.151  15.435  0.2323 -0.0919 -0.1504
   31TMC2    C6  484   0.183   1.120  15.395  0.0187 -0.2658 -0.4987
   31TMC2     C  485   0.394   1.374  15.151  0.3197  0.0434 -0.4264
   31TMC2     O  486   0.363   1.373  15.034 -0.3238 -0.0574  0.2825
   31TMC2     H  487   0.175   1.260  15.100  1.1146  0.3870 -0.1194
   31TMC2    H1  488   0.471   1.283  15.402  1.2104 -1.2436 -2.3379
   31TMC2    H2  489   0.121   1.053  15.454  0.5429 -1.1053 -0.9007
   31TMC2    C7  490   0.373   1.101  15.553  0.4545  0.3149 -0.2021
   31TMC2    C8  491   0.011   1.119  15.228 -0.1855 -0.1439  0.3416
   31TMC2    O1  492   0.491   1.091  15.538  0.5958  0.1679  0.5810
   31TMC2    O2  493   0.001   1.097  15.110 -0.1718 -0.1109  0.5170
   31TMC2    O5  494   4.642   1.158  15.302  0.5074 -0.6821 -0.1570
   31TMC2    H5  495   4.676   1.225  15.364 -0.0114  2.2235 -3.0362
   32MPD2     C  496   0.555   1.863  15.086  0.6726  0.5273  0.0559
   32MPD2    C1  497   0.526   1.762  14.989  1.1170 -0.1218 -0.0961
   32MPD2    C2  498   0.493   1.637  15.028 -0.5303  0.3525 -0.5973
   32MPD2    C3  499   0.487   1.605  15.167  0.5104  0.1155 -0.3346
   32MPD2    C4  500   0.533   1.696  15.262  0.4089 -0.1617  0.2511
   32MPD2    C5  501   0.556   1.821  15.218 -0.0812  0.1228 -0.3761
   32MPD2     H  502   0.464   1.567  14.950  0.6299 -0.7281 -0.0646
   32MPD2    H1  503   0.532   1.676  15.369  3.1363 -1.4782  0.0409
   32MPD2    H2  504   0.576   1.969  15.076  0.3743  1.0638  4.8829
   32MPD2    H3  505   0.583   1.896  15.292 -0.8386  2.1741 -2.1891
   32MPD2     N  506   0.459   1.475  15.218 -0.3183  0.0917 -0.8746
   32MPD2    H5  507   0.488   1.462  15.314 -0.5671 -1.4169 -1.0143
   32MPD2    N1  508   0.554   1.797  14.851 -0.2885 -0.2916  0.6249
   32MPD2    H7  509   0.600   1.887  14.838  0.6762 -0.4595  2.9897
   33TMC2    C1  510   0.877   3.578  10.478  0.4122 -0.5311  0.6214
   33TMC2    C2  511   0.814   3.478  10.408 -0.4478  0.0131 -0.1526
   33TMC2    C3  512   0.729   3.516  10.308 -0.5571  1.0431  0.6328
   33TMC2    C4  513   0.842   3.706  10.459 -0.0129  0.1435  0.0793
   33TMC2    C5  514   0.754   3.739  10.355  0.7001 -0.4772  0.0494
   33TMC2    C6  515   0.702   3.643  10.275 -1.0819 -0.6176 -0.4245
   33TMC2     C  516   0.972   3.545  10.582 -0.3185  0.0987 -0.2698
   33TMC2     O  517   0.939   3.448  10.648 -0.1440 -0.1368 -0.3928
   33TMC2     H  518   0.846   3.378  10.433  1.8390  0.4319 -1.3924
   33TMC2    H1  519   0.900   3.778  10.516  1.1647 -1.6745  1.1633
   33TMC2    H2  520   0.636   3.670  10.193  0.1999 -1.2516 -1.6421
   33TMC2    C7  521   0.746   3.875  10.321  0.0878 -0.0138  0.2146
   33TMC2    C8  522   0.712   3.422  10.203 -0.3227  0.4001 -0.0451
   33TMC2    O1  523   0.830   3.944  10.372  0.3981 -0.2631  0.3510
   33TMC2    O2  524   0.701   3.462  10.085 -0.1969  0.1665 -0.1860
   33TMC2    O5  525   0.784   3.309  10.229  0.1299 -0.0223  0.1141
   33TMC2    H5  526   0.772   3.281  10.322 -1.3732 -0.0429 -0.0869
   34MPD2     C  527   1.415   3.595  10.817 -0.4141 -0.2482  0.3344
   34MPD2    C1  528   1.314   3.504  10.841  0.1778 -0.7806  0.0410
   34MPD2    C2  529   1.190   3.520  10.777 -0.0994 -0.2749  0.2530
   34MPD2    C3  530   1.175   3.637  10.702 -0.7067 -0.5848  0.4324
   34MPD2    C4  531   1.276   3.727  10.688 -0.0435 -0.4711 -0.1570
   34MPD2    C5  532   1.401   3.706  10.740 -0.7250 -0.1184 -0.1964
   34MPD2     H  533   1.122   3.435  10.771  0.4691 -0.5488 -2.3766
   34MPD2    H1  534   1.261   3.818  10.630  0.1017  0.3239  1.0522
   34MPD2    H2  535   1.514   3.568  10.851 -0.4659 -3.2645 -1.8796
   34MPD2    H3  536   1.486   3.770  10.717  0.8615 -1.5522  1.6659
   34MPD2     N  537   1.068   3.645  10.609  0.2264 -0.1834 -0.2920
   34MPD2    H5  538   1.078   3.719  10.540 -0.5775 -0.0225 -0.2313
   34MPD2    N1  539   1.348   3.390  10.919 -0.4616 -0.0719 -0.1903
   34MPD2    H7  540   1.440   3.361  10.951 -0.1259 -0.6940 -1.7055
   35TMC2    C1  541   2.007   0.289  11.718  0.4251 -0.4483 -0.0326
   35TMC2    C2  542   1.910   0.373  11.694  0.3642  0.8176 -0.1315
   35TMC2    C3  543   1.780   0.331  11.701  0.9184 -0.2020  0.8654
   35TMC2    C4  544   1.982   0.164  11.755 -0.1962 -0.5944 -0.2907
   35TMC2    C5  545   1.859   0.115  11.759  0.1094  0.0932  0.1193
   35TMC2    C6  546   1.758   0.204  11.741  0.3856  0.2015  0.2693
   35TMC2     C  547   2.147   0.334  11.705  0.0132  0.8280  0.8636
   35TMC2     O  548   2.166   0.428  11.628  0.6199  0.7770  0.0345
   35TMC2     H  549   1.940   0.472  11.663  1.1353  0.5172 -0.3523
   35TMC2    H1  550   2.070   0.101  11.760  0.6651  0.6561  0.2452
   35TMC2    H2  551   1.661   0.162  11.765  0.6846  0.0463  1.2341
   35TMC2    C7  552   1.827   4.713  11.792 -0.5675  0.4088  0.1003
   35TMC2    C8  553   1.665   0.402  11.660 -0.4465 -0.2214 -0.3548
   35TMC2    O1  554   1.722   4.666  11.745 -0.1387  0.1035 -0.1885
   35TMC2    O2  555   1.560   0.350  11.697  0.2487 -0.7002  0.0366
   35TMC2    O5  556   1.690   0.437  11.533 -0.2505 -0.1669  0.3901
   35TMC2    H5  557   1.780   0.462  11.503  0.5316 -0.8357  2.1090
   36MPD2     C  558   2.615   0.426  11.886 -0.2520  0.1827  0.5989
   36MPD2    C1  559   2.569   0.312  11.953 -0.5122  0.0862 -0.3250
   36MPD2    C2  560   2.453   0.254  11.913  0.4152 -0.2083  0.1127
   36MPD2    C3  561   2.370   0.326  11.818 -0.1043 -0.4928  0.0258
   36MPD2    C4  562   2.418   0.448  11.757 -0.5372  0.0120  0.2364
   36MPD2    C5  563   2.538   0.496  11.789  0.2335  0.0030 -0.9307
   36MPD2     H  564   2.419   0.161  11.958  0.1383  0.3024  0.9436
   36MPD2    H1  565   2.372   0.506  11.678  2.2583 -0.0101 -1.4129
   36MPD2    H2  566   2.706   0.475  11.918  0.0651  1.0078 -1.5437
   36MPD2    H3  567   2.562   0.595  11.750  0.7893  0.3818  0.3942
   36MPD2     N  568   2.238   0.274  11.795 -0.0893 -0.3593 -0.5897
   36MPD2    H5  569   2.206   0.199  11.856  1.8624 -0.4199  0.3628
   36MPD2    N1  570   2.657   0.258  12.051  0.3333  0.2261  0.4291
   36MPD2    H7  571   2.742   0.311  12.065  0.5225 -0.0372  0.2872
   37TMC2    C1  572   4.010   0.238  12.160  0.2793 -0.2745  0.0703
   37TMC2    C2  573   3.917   0.322  12.103 -0.5047 -0.4975  0.1048
   37TMC2    C3  574   3.928   0.352  11.970 -0.4205  0.3787  0.0294
   37TMC2    C4  575   4.103   0.171  12.081 -0.2986  0.8860 -0.3097
   37TMC2    C5  576   4.112   0.216  11.945 -0.4721  0.0230  0.1253
   37TMC2    C6  577   4.027   0.305  11.890 -0.3971 -0.1210  0.5304
   37TMC2     C  578   4.025   0.253  12.304 -0.0779  0.1400  0.4952
   37TMC2     O  579   3.951   0.333  12.364 -0.4402  0.7831 -0.1202
   37TMC2     H  580   3.848   0.380  12.162 -2.3237 -2.7657  0.1993
   37TMC2    H1  581   4.173   0.095  12.114 -2.0048 -0.2458  0.7094
   37TMC2    H2  582   4.037   0.348  11.791 -1.0497  2.1777  1.4579
   37TMC2    C7  583   4.244   0.210  11.891 -0.0984  0.4961 -0.1068
   37TMC2    C8  584   3.814   0.390  11.893 -0.2431  0.7547  0.0680
   37TMC2    O1  585   4.325   0.166  11.967  0.2181  0.2902  0.5399
   37TMC2    O2  586   3.820   0.434  11.779  0.3449  0.3106  0.3821
   37TMC2    O5  587   3.708   0.328  11.940  0.5390  0.1079  0.5059
   37TMC2    H5  588   3.726   0.287  12.028 -1.5031 -1.4112  0.2349
   38MPD2     C  589   4.299   0.174  12.729  0.7335  0.1345  0.1563
   38MPD2    C1  590   4.344   0.087  12.629 -0.2294  0.5673  0.5314
   38MPD2    C2  591   4.294   0.106  12.504  0.0394 -0.1928  0.1237
   38MPD2    C3  592   4.196   0.193  12.476  0.0977  0.7219  0.3553
   38MPD2    C4  593   4.154   0.280  12.577 -0.1611 -0.3541 -0.7165
   38MPD2    C5  594   4.206   0.274  12.700 -0.2497  0.6268  0.1604
   38MPD2     H  595   4.331   0.036  12.430  0.8937  1.6882 -1.2185
   38MPD2    H1  596   4.074   0.352  12.567 -0.2532 -0.3654 -0.0899
   38MPD2    H2  597   4.338   0.174  12.831  1.4239  2.5874 -0.1121
   38MPD2    H3  598   4.193   0.351  12.776  2.1855  2.1698 -0.9584
   38MPD2     N  599   4.136   0.181  12.348 -0.1000 -0.5892 -0.8837
   38MPD2    H5  600   4.180   0.117  12.282 -0.7820 -1.5741 -0.3748
   38MPD2    N1  601   4.455   4.738  12.644 -0.2861  0.2237 -0.2449
   38MPD2    H7  602   4.490   4.692  12.561  1.8555 -1.3812  1.5721
   39TMC2    C1  603   3.089   3.123   2.415 -0.2691 -0.3004  0.4150
   39TMC2    C2  604   2.975   3.099   2.488 -0.3584  0.2567 -0.2046
   39TMC2    C3  605   2.962   3.176   2.603  0.2692 -0.4522 -0.1765
   39TMC2    C4  606   3.167   3.229   2.443  0.3327 -0.6238  0.3030
   39TMC2    C5  607   3.150   3.298   2.562 -0.0139  0.6015 -0.7064
   39TMC2    C6  608   3.049   3.271   2.650 -0.7116 -0.3030 -0.4261
   39TMC2     C  609   3.098   3.067   2.282 -0.1810  1.0337  0.4980
   39TMC2     O  610   3.004   3.006   2.232  0.1024  0.1257 -0.9686
   39TMC2     H  611   2.904   3.021   2.462 -0.4453 -0.4055  2.0410
   39TMC2    H1  612   3.236   3.268   2.368  0.5887 -1.6605 -0.0044
   39TMC2    H2  613   3.029   3.315   2.748  0.6725 -4.2145  1.6056
   39TMC2    C7  614   3.227   3.416   2.596  0.2858 -0.1081 -0.1091
   39TMC2    C8  615   2.863   3.135   2.706  0.4921 -0.2818 -0.2392
   39TMC2    O1  616   3.166   3.482   2.682  0.1194 -0.2002  0.0222
   39TMC2    O2  617   2.865   3.173   2.822 -0.9060  0.2926  0.0005
   39TMC2    O5  618   2.751   3.098   2.639  0.1074  0.4123  0.2514
   39TMC2    H5  619   2.765   3.079   2.544 -3.7845 -0.0352 -0.2283
   40MPD2     C  620   3.410   3.020   2.086  0.2943  0.2511  0.0935
   40MPD2    C1  621   3.273   3.028   2.105 -0.0510 -0.4739  0.4476
   40MPD2    C2  622   3.185   2.993   2.000  0.3872 -0.6904 -0.3741
   40MPD2    C3  623   3.236   2.953   1.880 -1.2524  0.3436 -0.0681
   40MPD2    C4  624   3.374   2.950   1.868 -1.0005 -0.4304 -0.2896
   40MPD2    C5  625   3.461   2.979   1.969 -0.6185 -0.8600 -0.9899
   40MPD2     H  626   3.079   3.004   2.017 -0.1315 -1.8604 -2.7814
   40MPD2    H1  627   3.416   2.909   1.777 -1.2294  3.5101 -2.1843
   40MPD2    H2  628   3.476   3.039   2.170 -2.0455 -0.1791  2.0376
   40MPD2    H3  629   3.568   2.970   1.950 -0.5876  0.7990 -1.5621
   40MPD2     N  630   3.166   2.914   1.767  0.2340 -0.1874 -0.0292
   40MPD2    H5  631   3.221   2.883   1.688 -0.9189 -3.2294  0.3751
   40MPD2    N1  632   3.225   3.074   2.233 -0.2517 -0.4207  0.1793
   40MPD2    H7  633   3.300   3.110   2.291 -1.0490  0.6317  0.5546
   41TMC2    C1  634   2.028   0.266  13.786 -0.4591  0.2682  0.7951
   41TMC2    C2  635   1.916   0.333  13.826 -0.0974  0.6353  0.6081
   41TMC2    C3  636   1.866   0.433  13.739 -0.4175 -0.8537 -0.6748
   41TMC2    C4  637   2.079   0.284  13.662  0.3079 -0.2458  0.3255
   41TMC2    C5  638   2.025   0.380  13.576 -0.0203 -0.3092 -0.3179
   41TMC2    C6  639   1.919   0.452  13.614  0.0040  0.1092  0.3261
   41TMC2     C  640   2.074   0.145  13.851  0.4677 -0.2644  0.5822
   41TMC2     O  641   2.128   0.060  13.782  0.2471 -0.0563 -0.0514
   41TMC2     H  642   1.858   0.289  13.907  2.1937  0.3408  2.0721
   41TMC2    H1  643   2.172   0.237  13.632  0.7416  1.0183 -0.3106
   41TMC2    H2  644   1.864   0.527  13.558 -1.0064 -1.2996 -0.5757
   41TMC2    C7  645   2.113   0.465  13.498  0.5868 -0.1974  0.2839
   41TMC2    C8  646   1.720   0.465  13.736  0.5991 -0.0886 -0.6595
   41TMC2    O1  647   2.118   0.582  13.525 -0.0909 -0.0204  0.1961
   41TMC2    O2  648   1.659   0.504  13.634  0.2049  0.3625  0.0328
   41TMC2    O5  649   1.654   0.416  13.846  0.2454  0.0434  0.1425
   41TMC2    H5  650   1.707   0.391  13.925 -3.3805 -0.5289  2.3752
   42MPD2     C  651   2.058   4.656  14.063 -0.0153 -0.3846  0.3066
   42MPD2    C1  652   1.998   0.042  14.073  0.2441 -0.0221  0.2178
   42MPD2    C2  653   1.909   0.068  14.175 -0.0421  0.2126  0.2435
   42MPD2    C3  654   1.893   4.713  14.277  0.3264 -0.3628  0.0752
   42MPD2    C4  655   1.971   4.597  14.269 -0.0171 -0.5181 -0.1641
   42MPD2    C5  656   2.048   4.564  14.164 -0.4960  0.5690  0.2397
   42MPD2     H  657   1.850   0.160  14.177 -0.5696 -0.1168 -0.0014
   42MPD2    H1  658   1.974   4.537  14.360  0.0882  0.1828  0.2918
   42MPD2    H2  659   2.134   4.636  13.989 -0.0551  0.4711  0.0280
   42MPD2    H3  660   2.115   4.478  14.168 -1.2113  0.0770  1.7128
   42MPD2     N  661   1.833   0.019  14.397  0.3286 -0.0567  0.3843
   42MPD2    H5  662   1.846   4.707  14.484 -2.0115  0.6425  1.1374
   42MPD2    N1  663   2.015   0.144  13.977 -0.4117  0.7225 -0.0779
   42MPD2    H7  664   1.998   0.239  14.010  1.9293  1.0920  0.0701
   43TMC2    C1  665   3.414   3.863   1.562 -0.2043  0.0121  0.0733
   43TMC2    C2  666   3.318   3.808   1.644  0.5074 -0.9022  0.7885
   43TMC2    C3  667   3.322   3.829   1.783 -0.4016 -0.0359  0.7718
   43TMC2    C4  668   3.508   3.952   1.610  0.7006  0.5750  0.5761
   43TMC2    C5  669   3.499   3.973   1.746 -0.2313  0.3292 -0.0930
   43TMC2    C6  670   3.408   3.920   1.834 -0.3182  0.9244  0.5941
   43TMC2     C  671   3.436   3.829   1.425  0.8222  0.4573 -0.8848
   43TMC2     O  672   3.518   3.896   1.359 -0.2220  0.0424 -0.1578
   43TMC2     H  673   3.235   3.750   1.605 -0.8355  2.5079 -1.4312
   43TMC2    H1  674   3.574   4.006   1.543  0.7003 -0.1834 -0.0388
   43TMC2    H2  675   3.410   3.928   1.942  0.9641  0.5349  0.6013
   43TMC2    C7  676   3.589   4.073   1.798 -0.8013 -0.1606 -0.1889
   43TMC2    C8  677   3.213   3.787   1.865  0.0840  0.0443  0.2534
   43TMC2    O1  678   3.687   4.098   1.722  0.7095 -0.3922 -0.4509
   43TMC2    O2  679   3.177   3.849   1.964  0.0919 -0.1079 -0.1515
   43TMC2    O5  680   3.180   3.665   1.826  0.0790  0.2372  0.1199
   43TMC2    H5  681   3.239   3.619   1.762  1.8759  0.9916  1.2410
   44MPD2     C  682   3.330   3.561   0.999  1.1056  0.0442 -0.0105
   44MPD2    C1  683   3.448   3.626   1.044  0.5137 -0.3936 -0.1315
   44MPD2    C2  684   3.449   3.683   1.169 -0.0131 -0.1703 -0.3673
   44MPD2    C3  685   3.343   3.689   1.250  0.4708  0.4088  0.3398
   44MPD2    C4  686   3.227   3.627   1.206  0.7928  0.6500 -0.8488
   44MPD2    C5  687   3.225   3.569   1.083 -0.6601 -0.2101 -0.1667
   44MPD2     H  688   3.539   3.724   1.214  0.3472 -2.0682  0.7026
   44MPD2    H1  689   3.140   3.620   1.271 -0.0453  3.3812 -1.6748
   44MPD2    H2  690   3.313   3.514   0.903  0.2036 -1.5516  0.9555
   44MPD2    H3  691   3.130   3.522   1.058 -0.6540 -0.3896  0.1439
   44MPD2     N  692   3.345   3.738   1.381  0.5662 -0.0648  0.0951
   44MPD2    H5  693   3.268   3.712   1.441 -1.5959  1.6479 -1.9163
   44MPD2    N1  694   3.568   3.619   0.967  0.0697 -0.3705  0.5539
   44MPD2    H7  695   3.654   3.662   1.000 -1.1886  2.0061  0.7479
   45TMC2    C1  696   3.806   0.418  10.286  0.1269  0.6060 -0.4634
   45TMC2    C2  697   3.930   0.393  10.333 -0.6543  0.0375  0.0403
   45TMC2    C3  698   3.990   0.491  10.411 -0.3892 -0.0774 -0.4635
   45TMC2    C4  699   3.737   0.538  10.302  0.3404 -0.1294 -0.1404
   45TMC2    C5  700   3.802   0.636  10.376 -0.2371 -1.5224  0.0779
   45TMC2    C6  701   3.930   0.614  10.428 -0.1334 -0.7821 -0.2715
   45TMC2     C  702   3.741   0.311  10.212 -0.0934 -0.0047  0.5337
   45TMC2     O  703   3.783   0.198  10.233  0.3210  0.2231 -0.3382
   45TMC2     H  704   3.986   0.304  10.309  2.3230  2.0605 -0.5313
   45TMC2    H1  705   3.628   0.535  10.302  0.3381 -0.1358 -0.7941
   45TMC2    H2  706   3.979   0.693  10.482 -1.4585 -1.4413  1.8921
   45TMC2    C7  707   3.748   0.768  10.409 -0.0443 -0.2336  0.0471
   45TMC2    C8  708   4.133   0.481  10.426  0.6392  0.0946  0.5330
   45TMC2    O1  709   3.824   0.842  10.468 -0.0954  0.2232 -0.0241
   45TMC2    O2  710   4.188   0.371  10.453  0.3707  0.4220 -0.1176
   45TMC2    O5  711   4.180   0.566  10.338  0.1078 -0.9717  0.3209
   45TMC2    H5  712   4.116   0.637  10.315 -1.2583 -2.8885 -1.8440
   46MPD2     C  713   3.564   0.136  10.060 -0.3476 -0.1701 -0.5284
   46MPD2    C1  714   3.561   0.271  10.051  0.0626  0.0214 -0.1120
   46MPD2    C2  715   3.480   0.335   9.964  0.1376 -0.1115 -0.5142
   46MPD2    C3  716   3.396   0.261   9.880  0.6354  0.9917 -0.9107
   46MPD2    C4  717   3.397   0.128   9.893 -0.1376  0.3098  0.6634
   46MPD2    C5  718   3.474   0.066   9.985 -0.2039 -0.0468 -0.1493
   46MPD2     H  719   3.461   0.441   9.978  2.5682  0.2058  0.3635
   46MPD2    H1  720   3.334   0.073   9.824  0.4342  0.1548  0.2689
   46MPD2    H2  721   3.625   0.078  10.129  1.2938 -0.3127 -2.1026
   46MPD2    H3  722   3.486   4.696   9.992 -1.1337 -0.1963 -0.7315
   46MPD2     N  723   3.310   0.344   9.799 -1.4628 -0.7566 -0.5270
   46MPD2    H5  724   3.298   0.442   9.825  0.1469 -0.5539 -0.5879
   46MPD2    N1  725   3.635   0.353  10.137  0.2238 -0.0642  0.5709
   46MPD2    H7  726   3.626   0.454  10.139 -0.3292 -0.0902 -1.5468
   47TMC2    C1  727   1.432   1.422   9.412 -0.7474  0.0071  0.2499
   47TMC2    C2  728   1.364   1.314   9.357  0.4178 -0.3282  0.0145
   47TMC2    C3  729   1.286   1.331   9.244  0.2345  0.5253  0.4262
   47TMC2    C4  730   1.416   1.547   9.354  0.2141  0.3316 -0.4723
   47TMC2    C5  731   1.321   1.558   9.253 -0.2539  0.0241 -0.2431
   47TMC2    C6  732   1.258   1.449   9.187 -0.3942 -0.5140 -0.7384
   47TMC2     C  733   1.505   1.414   9.537  0.3200  0.0549 -0.0955
   47TMC2     O  734   1.546   1.525   9.573 -0.1241  0.0608  0.5306
   47TMC2     H  735   1.368   1.220   9.411 -0.7951 -0.1794  0.3703
   47TMC2    H1  736   1.457   1.633   9.406 -1.2410  1.5452 -1.3386
   47TMC2    H2  737   1.203   1.462   9.095  1.4567  0.7096 -1.6694
   47TMC2    C7  738   1.232   1.676   9.259  0.7996  0.0959 -0.2090
   47TMC2    C8  739   1.191   1.225   9.204 -1.0695  0.1906  0.0078
   47TMC2    O1  740   1.112   1.655   9.239  0.5169 -0.1093  0.2329
   47TMC2    O2  741   1.237   1.156   9.113  0.4908  0.3633  0.0681
   47TMC2    O5  742   1.085   1.306   9.192 -0.0956 -0.1220  0.1382
   47TMC2    H5  743   1.075   1.366   9.269  4.1965 -2.1594  2.3022
   48MPD2     C  744   1.583   1.368   9.823 -0.2303  0.2308  0.0754
   48MPD2    C1  745   1.540   1.268   9.738  0.2508 -0.4539 -0.7066
   48MPD2    C2  746   1.562   1.134   9.776  0.2554 -0.3292 -0.3780
   48MPD2    C3  747   1.612   1.105   9.902  0.5686  0.1991 -0.6467
   48MPD2    C4  748   1.641   1.209   9.990  0.0161  0.1045 -0.0766
   48MPD2    C5  749   1.633   1.342   9.944  0.6795 -0.1109  0.1430
   48MPD2     H  750   1.542   1.048   9.714 -0.6117 -0.0645 -0.4676
   48MPD2    H1  751   1.677   1.192  10.091 -0.9184 -1.0990  0.0533
   48MPD2    H2  752   1.577   1.470   9.789 -1.8630  0.7688  2.0189
   48MPD2    H3  753   1.661   1.421  10.013  1.5509  0.4711 -0.8689
   48MPD2     N  754   1.603   0.972   9.935 -0.5429 -0.0269  0.1601
   48MPD2    H5  755   1.563   0.911   9.865  0.3403  0.6001 -0.8914
   48MPD2    N1  756   1.503   1.292   9.602  0.2519  0.3102  0.3525
   48MPD2    H7  757   1.468   1.208   9.557 -3.8320  1.4118  1.4368
   49TMC2    C1  758   4.009   2.444  10.672  0.3065  0.3489  0.9810
   49TMC2    C2  759   4.002   2.358  10.571  0.5371  0.8275  0.0735
   49TMC2    C3  760   4.019   2.223  10.598  0.8148  0.4186  0.0022
   49TMC2    C4  761   4.031   2.402  10.796 -0.1249  0.2988 -0.2710
   49TMC2    C5  762   4.053   2.273  10.821 -0.2941 -0.0557 -0.5950
   49TMC2    C6  763   4.046   2.175  10.726 -0.4690  0.2076 -0.2623
   49TMC2     C  764   3.986   2.587  10.645  0.5717 -0.4912 -0.4926
   49TMC2     O  765   3.973   2.625  10.528 -0.3348  0.2697  0.5258
   49TMC2     H  766   3.973   2.394  10.473  1.3131  0.0150 -0.4587
   49TMC2    H1  767   4.047   2.476  10.874  3.5161 -1.0297  0.2249
   49TMC2    H2  768   4.046   2.071  10.755  0.8009 -0.2945 -2.0447
   49TMC2    C7  769   4.060   2.224  10.957 -1.1023 -0.3110  0.7542
   49TMC2    C8  770   3.995   2.137  10.484  0.1860  1.0163  0.1200
   49TMC2    O1  771   4.028   2.105  10.978 -0.2514  0.6247  0.0483
   49TMC2    O2  772   3.912   2.170  10.404  0.2454  0.1600  0.0708
   49TMC2    O5  773   4.036   2.014  10.494  0.8909  0.2634 -0.0221
   49TMC2    H5  774   4.101   1.998  10.565  0.2800 -0.8529  0.2889
   50MPD2     C  775   4.056   2.864  10.673  0.2353  0.2545 -0.1957
   50MPD2    C1  776   3.998   2.792  10.773 -0.3329  0.4610  0.0133
   50MPD2    C2  777   3.972   2.844  10.899  0.1150 -0.2016 -0.4148
   50MPD2    C3  778   4.005   2.970  10.926 -0.3472 -0.2289  0.0922
   50MPD2    C4  779   4.061   3.042  10.825  0.4426 -0.3236  0.3973
   50MPD2    C5  780   4.090   2.991  10.699 -0.2636  0.0369  0.3130
   50MPD2     H  781   3.932   2.775  10.972  1.6319 -0.7864 -0.1262
   50MPD2    H1  782   4.096   3.141  10.853  1.5659 -0.8330  0.7945
   50MPD2    H2  783   4.091   2.817  10.581 -1.4898  0.7829 -1.1251
   50MPD2    H3  784   4.154   3.043  10.629 -1.6484  2.2861  0.7124
   50MPD2     N  785   3.990   3.034  11.050 -0.2465  0.3879 -0.3138
   50MPD2    H5  786   4.028   3.127  11.063  0.0681  0.1049  0.8046
   50MPD2    N1  787   3.979   2.653  10.760 -0.3535 -0.2806 -0.0534
   50MPD2    H7  788   3.960   2.609  10.850 -0.3871  0.7022  0.4274
   51TMC2    C1  789   0.232   3.349   2.005  0.0425 -0.3796 -0.0385
   51TMC2    C2  790   0.220   3.449   2.091  0.3280 -0.1354  0.3008
   51TMC2    C3  791   0.299   3.556   2.073 -0.1853  0.1397  0.0023
   51TMC2    C4  792   0.315   3.357   1.897 -0.1698  0.2753 -0.5201
   51TMC2    C5  793   0.393   3.468   1.879  0.6011 -0.1105 -0.2248
   51TMC2    C6  794   0.387   3.570   1.973 -0.1336  0.5198 -0.9542
   51TMC2     C  795   0.120   3.256   1.990  0.3837 -0.2031  0.3298
   51TMC2     O  796   0.112   3.201   1.879  0.3953 -0.1389 -0.4364
   51TMC2     H  797   0.147   3.443   2.171 -0.5807 -0.1445 -0.5220
   51TMC2    H1  798   0.316   3.271   1.831  2.5763 -0.4249  0.4562
   51TMC2    H2  799   0.436   3.667   1.973  2.6478 -0.8879 -0.3245
   51TMC2    C7  800   0.485   3.469   1.769 -0.9716  0.0723 -0.5418
   51TMC2    C8  801   0.305   3.652   2.185  0.1105 -0.0790  0.2715
   51TMC2    O1  802   0.466   3.389   1.676 -0.1348  0.2965 -0.4238
   51TMC2    O2  803   0.205   3.673   2.256  0.5118 -0.0125 -0.1190
   51TMC2    O5  804   0.424   3.615   2.241  0.3399  0.2017  0.1326
   51TMC2    H5  805   0.491   3.572   2.184  1.0333 -0.6385  1.5859
   52MPD2     C  806   4.454   2.988   2.180  0.5021  0.2516 -0.2898
   52MPD2    C1  807   4.502   2.988   2.048  0.6008  0.2647 -0.4608
   52MPD2    C2  808   4.616   3.062   2.028 -0.1505  0.3898 -0.6622
   52MPD2    C3  809   4.670   3.150   2.123 -0.1010 -0.5303  0.1361
   52MPD2    C4  810   4.607   3.169   2.244  0.0832 -0.3179  0.4294
   52MPD2    C5  811   4.502   3.080   2.269 -0.4620  0.3899  0.4646
   52MPD2     H  812   4.667   3.052   1.934 -0.4433  0.5959 -0.8435
   52MPD2    H1  813   4.644   3.245   2.313 -0.0809 -0.2740  0.4679
   52MPD2    H2  814   4.357   2.946   2.203 -1.1842  2.4933 -3.3600
   52MPD2    H3  815   4.441   3.089   2.358 -1.2817 -0.4378 -0.0067
   52MPD2     N  816   0.044   3.232   2.108 -0.5949  0.2709  0.0269
   52MPD2    H5  817   0.085   3.274   2.190 -2.4916 -0.4757  1.3517
   52MPD2    N1  818   4.464   2.901   1.943 -0.0785 -0.3279 -0.1189
   52MPD2    H7  819   4.504   2.917   1.851  0.2898  0.6724  0.2113
   53TMC2    C1  820   0.222   0.174  11.776  0.4169 -1.0071  0.2928
   53TMC2    C2  821   0.353   0.184  11.740  0.3100 -0.1017 -0.0834
   53TMC2    C3  822   0.445   0.204  11.839 -0.2225  0.5369  1.1123
   53TMC2    C4  823   0.184   0.176  11.908  0.8171  0.0297 -0.2417
   53TMC2    C5  824   0.286   0.180  12.005  0.0208 -0.4298  0.0437
   53TMC2    C6  825   0.418   0.209  11.974 -0.1416 -0.0261  0.8229
   53TMC2     C  826   0.123   0.177  11.676  0.1652 -0.7413 -0.3369
   53TMC2     O  827   0.151   0.122  11.569  0.1217 -0.1534 -0.4074
   53TMC2     H  828   0.371   0.193  11.634  0.3501  2.0455  0.0976
   53TMC2    H1  829   0.082   0.167  11.945  0.5174  0.4523 -0.9592
   53TMC2    H2  830   0.501   0.234  12.039  0.0213 -2.5074  1.5580
   53TMC2    C7  831   0.251   0.189  12.148  0.2546  0.0649  0.7017
   53TMC2    C8  832   0.561   0.272  11.801  0.0137  0.9634  0.9101
   53TMC2    O1  833   0.136   0.221  12.177  0.2559  0.2177 -0.4852
   53TMC2    O2  834   0.598   0.378  11.842  0.2253 -0.4446 -0.0448
   53TMC2    O5  835   0.611   0.191  11.710 -0.3871  0.1598 -0.4526
   53TMC2    H5  836   0.562   0.106  11.714 -0.2500  0.0699 -0.7102
   54MPD2     C  837   4.604   0.192  11.529 -0.2296 -0.6919 -0.3883
   54MPD2    C1  838   4.610   0.202  11.664  0.5021 -0.2335  0.1612
   54MPD2    C2  839   4.497   0.208  11.750 -0.0036  0.8546 -0.8429
   54MPD2    C3  840   4.372   0.207  11.685  0.2326  0.2539 -0.1310
   54MPD2    C4  841   4.367   0.214  11.546 -0.1573  0.1236  0.0937
   54MPD2    C5  842   4.481   0.192  11.471  0.1011  0.0231  0.0503
   54MPD2     H  843   4.526   0.245  11.848  2.8659 -1.4665 -0.8201
   54MPD2    H1  844   4.269   0.212  11.499 -0.4051  2.8594  0.5223
   54MPD2    H2  845   4.692   0.200  11.468 -0.5366 -0.8608 -0.8507
   54MPD2    H3  846   4.473   0.189  11.363  0.5715 -0.4992  0.0304
   54MPD2     N  847   4.244   0.221  11.753  0.2106  0.4337  0.5963
   54MPD2    H5  848   4.158   0.224  11.698  0.6063  1.1109  0.0170
   54MPD2    N1  849   4.738   0.220  11.731  0.4830 -0.1474  0.1426
   54MPD2    H7  850   4.729   0.245  11.829 -0.6997  1.9166 -0.4907
   55TMC2    C1  851   1.336   3.536   0.094 -0.3485  0.2114 -0.3667
   55TMC2    C2  852   1.338   3.463  17.728  0.3840 -0.1368  0.2250
   55TMC2    C3  853   1.327   3.328   0.004  0.1845  0.5541  0.5026
   55TMC2    C4  854   1.314   3.488   0.223  0.4554 -0.2384 -0.1925
   55TMC2    C5  855   1.293   3.355   0.236  0.1105 -0.1388  0.3577
   55TMC2    C6  856   1.302   3.270   0.125 -0.3816  0.9661  0.3396
   55TMC2     C  857   1.362   3.677   0.082  0.0207 -0.5054 -0.0397
   55TMC2     O  858   1.341   3.737   0.186  0.3256 -0.5635  0.0994
   55TMC2     H  859   1.327   3.498  17.626 -1.3422 -1.9976 -0.2309
   55TMC2    H1  860   1.312   3.554   0.309  1.8285  2.1209 -1.9949
   55TMC2    H2  861   1.285   3.163   0.133  1.7807  0.6414  0.4608
   55TMC2    C7  862   1.315   3.286   0.363  0.3462 -0.4017  0.0664
   55TMC2    C8  863   1.334   3.231  17.642  0.0528  0.3969  0.6873
   55TMC2    O1  864   1.340   3.169   0.368  0.3019  0.6642  0.6558
   55TMC2    O2  865   1.306   3.113  17.649  0.6373 -0.0169  0.3543
   55TMC2    O5  866   1.420   3.281  17.546  0.9792  0.8830  0.8125
   55TMC2    H5  867   1.470   3.361  17.571  2.1243  0.9195 -1.5633
   56MPD2     C  868   1.467   3.858  17.529  0.0480 -0.2826  0.3315
   56MPD2    C1  869   1.427   3.851  17.664 -0.0400  0.0798 -0.0743
   56MPD2    C2  870   1.423   3.964  17.741 -0.8034 -0.4232 -0.3441
   56MPD2    C3  871   1.464   4.082  17.689  0.0440 -0.5649 -0.1120
   56MPD2    C4  872   1.492   4.095  17.550 -0.1569 -0.4105  0.2807
   56MPD2    C5  873   1.498   3.982  17.476 -0.7605 -0.4380 -0.7813
   56MPD2     H  874   1.385   3.948   0.091  2.0980  1.0994  0.9760
   56MPD2    H1  875   1.517   4.189  17.502  1.2816 -0.3357  1.1542
   56MPD2    H2  876   1.482   3.775  17.461  2.7396  0.5317 -0.0965
   56MPD2    H3  877   1.522   3.986  17.370  2.0568  2.0151 -0.0301
   56MPD2     N  878   1.458   4.197   0.027  0.1126  0.4410 -0.1629
   56MPD2    H5  879   1.435   4.178   0.124  1.6743  0.9597  0.3043
   56MPD2    N1  880   1.405   3.718  17.711 -0.2646 -0.5649 -0.9092
   56MPD2    H7  881   1.424   3.643  17.645  0.6658  0.4037 -1.7434
   57TMC2    C1  882   0.568   4.066  13.723 -0.2299 -0.0235 -0.3329
   57TMC2    C2  883   0.618   4.002  13.830 -0.3915  0.4288  1.0204
   57TMC2    C3  884   0.727   3.919  13.809  0.6455  0.2530 -0.1316
   57TMC2    C4  885   0.617   4.032  13.598  0.1459 -0.7751 -0.3565
   57TMC2    C5  886   0.724   3.956  13.590 -0.1495  0.3020  0.6159
   57TMC2    C6  887   0.780   3.889  13.692 -0.2569  0.9496  0.5307
   57TMC2     C  888   0.427   4.109  13.729  0.2697  0.5979  0.3186
   57TMC2     O  889   0.369   4.096  13.623 -0.1223  0.1692 -0.6588
   57TMC2     H  890   0.586   4.021  13.932  0.6146  0.3125  1.3661
   57TMC2    H1  891   0.574   4.072  13.507 -1.6847  1.7927  1.6206
   57TMC2    H2  892   0.876   3.838  13.687 -0.4653  0.5786  0.2431
   57TMC2    C7  893   0.777   3.937  13.458 -0.4470  0.1659  0.2763
   57TMC2    C8  894   0.750   3.810  13.903  0.3233 -0.0578 -0.2341
   57TMC2    O1  895   0.761   4.027  13.379  0.9964  0.3133 -0.4922
   57TMC2    O2  896   0.856   3.755  13.929 -0.1488  0.0673 -0.2198
   57TMC2    O5  897   0.638   3.736  13.901  0.5487  0.1253  0.1202
   57TMC2    H5  898   0.561   3.775  13.854 -0.2180 -0.7350  0.6423
   58MPD2     C  899   0.016   4.257  13.984  0.1019  0.0833  0.8927
   58MPD2    C1  900   0.025   4.195  13.859 -0.1875 -0.3827 -0.0284
   58MPD2    C2  901   0.152   4.178  13.810 -0.7331  0.3266  0.3028
   58MPD2    C3  902   0.261   4.196  13.893  0.4390 -0.2381 -0.0429
   58MPD2    C4  903   0.252   4.246  14.018 -0.2184  0.8611 -0.0170
   58MPD2    C5  904   0.127   4.282  14.063 -0.4535 -0.6603  1.0191
   58MPD2     H  905   0.164   4.141  13.709 -0.2352  0.0319  0.4694
   58MPD2    H1  906   0.337   4.258  14.085  1.1266 -1.6464 -1.2734
   58MPD2    H2  907   4.659   4.291  14.024  1.1012  2.8760  0.8739
   58MPD2    H3  908   0.121   4.328  14.161 -1.1823 -0.9494  1.1126
   58MPD2     N  909   0.391   4.164  13.850  0.6863 -0.5402  0.3375
   58MPD2    H5  910   0.467   4.179  13.916  1.2608 -2.1379  0.0232
   58MPD2    N1  911   4.655   4.192  13.767  0.1712  0.6029  0.0425
   58MPD2    H7  912   4.674   4.189  13.668 -0.7621 -0.7775 -0.1042
   59TMC2    C1  913   2.608   3.901  12.857 -0.2747  0.6434  0.3769
   59TMC2    C2  914   2.566   3.771  12.834 -0.1846 -0.2080 -0.6327
   59TMC2    C3  915   2.636   3.697  12.739  0.0518 -0.2449  0.3343
   59TMC2    C4  916   2.709   3.962  12.794  0.0196  0.1639 -0.0665
   59TMC2    C5  917   2.764   3.885  12.693 -0.6710 -0.3247 -0.5850
   59TMC2    C6  918   2.729   3.763  12.662  0.6785  0.1498 -0.6006
   59TMC2     C  919   2.557   3.957  12.982  0.2930  0.0929  0.3532
   59TMC2     O  920   2.444   3.930  13.014 -0.3776 -0.0348 -0.0392
   59TMC2     H  921   2.494   3.725  12.900 -0.3461 -1.6382 -1.7844
   59TMC2    H1  922   2.719   4.069  12.803 -1.1301  0.2414  0.2710
   59TMC2    H2  923   2.777   3.708  12.582  1.8363 -0.5200  0.5478
   59TMC2    C7  924   2.828   3.945  12.571  0.0260 -0.2701  0.1963
   59TMC2    C8  925   2.581   3.570  12.690 -0.5442  0.0332 -0.2004
   59TMC2    O1  926   2.873   3.873  12.483 -0.4202 -0.1492  0.1813
   59TMC2    O2  927   2.571   3.545  12.570 -0.5907  0.3137 -0.9290
   59TMC2    O5  928   2.517   3.504  12.784 -0.3374 -0.1796  0.0293
   59TMC2    H5  929   2.512   3.551  12.870  0.0238 -1.0451  0.5203
   60MPD2     C  930   2.545   4.027  13.273  0.0185  0.3094 -0.0679
   60MPD2    C1  931   2.661   4.030  13.198 -0.6968 -0.2229  0.6683
   60MPD2    C2  932   2.783   4.049  13.261  0.2991 -0.8906  0.4071
   60MPD2    C3  933   2.787   4.085  13.394 -0.0523  0.1168  0.6915
   60MPD2    C4  934   2.676   4.086  13.471 -0.2718  0.3870  0.0145
   60MPD2    C5  935   2.552   4.058  13.411 -0.6469 -0.4941  0.5045
   60MPD2     H  936   2.865   4.031  13.193  0.1247  1.9570 -0.5774
   60MPD2    H1  937   2.680   4.093  13.579  2.3228  1.9676 -0.1806
   60MPD2    H2  938   2.449   4.022  13.221  0.6764  0.7686 -1.3279
   60MPD2    H3  939   2.460   4.046  13.468 -0.7650 -0.6198  0.2903
   60MPD2     N  940   2.905   4.122  13.455  0.2935  0.2004 -0.1712
   60MPD2    H5  941   2.891   4.144  13.553  1.4864  0.8065 -0.1423
   60MPD2    N1  942   2.664   4.005  13.060 -0.1092  0.5957  0.6954
   60MPD2    H7  943   2.754   4.016  13.015 -0.0802 -1.5793  0.2363
   61TMC2    C1  944   2.372   0.848  15.771 -0.3690 -0.2474 -0.6786
   61TMC2    C2  945   2.346   0.824  15.906  0.0667 -0.1931 -0.2455
   61TMC2    C3  946   2.244   0.885  15.963 -1.2533 -0.3337  0.3153
   61TMC2    C4  947   2.316   0.956  15.711 -0.8500  0.1906 -0.0230
   61TMC2    C5  948   2.219   1.031  15.780 -0.5482  0.2151  0.3483
   61TMC2    C6  949   2.183   0.992  15.906 -0.0738 -0.5969  0.1152
   61TMC2     C  950   2.450   0.754  15.697  0.0529  0.5275  0.3794
   61TMC2     O  951   2.530   0.683  15.756 -0.3069 -0.3845  0.9273
   61TMC2     H  952   2.392   0.737  15.952 -0.9341  0.3303  1.7762
   61TMC2    H1  953   2.348   0.992  15.613 -0.1906 -0.1837  0.0524
   61TMC2    H2  954   2.113   1.054  15.960 -0.1373 -0.4062 -0.1831
   61TMC2    C7  955   2.188   1.159  15.731 -0.5020 -0.8228  0.1078
   61TMC2    C8  956   2.189   0.848  16.086  0.6159  0.2489 -0.3064
   61TMC2    O1  957   2.181   1.162  15.607  0.0459 -0.0026 -0.2573
   61TMC2    O2  958   2.116   0.929  16.141  0.4972  0.1078 -0.6460
   61TMC2    O5  959   2.259   0.758  16.150 -0.7194 -0.1340  0.0211
   61TMC2    H5  960   2.307   0.704  16.083 -0.7108 -0.9070  0.6532
   62MPD2     C  961   2.558   0.592  15.459 -0.2693  0.0263  0.1611
   62MPD2    C1  962   2.478   0.701  15.451 -0.5783  0.5334 -0.9515
   62MPD2    C2  963   2.437   0.748  15.324 -0.5878 -0.0670 -0.0779
   62MPD2    C3  964   2.506   0.702  15.219  0.0454  0.7555  0.2222
   62MPD2    C4  965   2.590   0.590  15.222 -0.4344  0.1224  0.3993
   62MPD2    C5  966   2.614   0.539  15.343  0.2158 -0.2320 -0.0667
   62MPD2     H  967   2.360   0.823  15.313 -2.8671 -2.3528  0.4618
   62MPD2    H1  968   2.646   0.544  15.142 -0.2127  1.5097 -0.2486
   62MPD2    H2  969   2.577   0.551  15.557 -2.4514  0.4861  0.7887
   62MPD2    H3  970   2.688   0.460  15.352  0.1958  0.0004  2.1660
   62MPD2     N  971   2.485   0.771  15.098  0.2594 -0.3510 -0.4731
   62MPD2    H5  972   2.400   0.827  15.096  0.9093  0.6516 -0.1677
   62MPD2    N1  973   2.427   0.769  15.566  0.2132 -0.0787 -0.2071
   62MPD2    H7  974   2.355   0.838  15.549  1.5873  1.5843  0.6753
   63TMC2    C1  975   1.270   1.111  10.429 -0.3238 -0.1886  0.5453
   63TMC2    C2  976   1.349   1.187  10.517  0.2433 -0.2883  0.1501
   63TMC2    C3  977   1.419   1.285  10.461  0.4483  0.4239 -0.1803
   63TMC2    C4  978   1.275   1.137  10.301 -0.2540 -0.1292 -0.4371
   63TMC2    C5  979   1.362   1.225  10.244  0.1096  0.3843 -0.1870
   63TMC2    C6  980   1.414   1.314  10.328 -0.3336  0.8160  0.6729
   63TMC2     C  981   1.154   1.042  10.474 -0.0759  0.7076  0.9134
   63TMC2     O  982   1.062   1.059  10.395 -0.6963  0.9191  0.5968
   63TMC2     H  983   1.363   1.161  10.621  0.2856 -0.2746  0.1479
   63TMC2    H1  984   1.207   1.077  10.241 -1.2757 -0.7344  1.3308
   63TMC2    H2  985   1.471   1.398  10.290  4.0554 -2.0045  1.0894
   63TMC2    C7  986   1.329   1.282  10.109  0.3032  0.4792  0.1567
   63TMC2    C8  987   1.526   1.351  10.538  0.1641 -0.4004  0.4148
   63TMC2    O1  988   1.323   1.406  10.098 -0.1248  0.2259  0.3738
   63TMC2    O2  989   1.642   1.315  10.516 -0.0629 -0.0838  0.1085
   63TMC2    O5  990   1.477   1.362  10.661  0.2814 -0.0275 -0.1017
   63TMC2    H5  991   1.383   1.383  10.646 -0.2075 -1.3695  1.0811
   64MPD2     C  992   0.862   0.716  10.732  0.1881  0.4033  0.2003
   64MPD2    C1  993   0.983   0.734  10.800 -0.1812 -0.2847 -0.3149
   64MPD2    C2  994   1.072   0.827  10.759  0.4809  0.2448 -0.5637
   64MPD2    C3  995   1.059   0.902  10.647 -0.8265 -0.2675  0.5198
   64MPD2    C4  996   0.932   0.890  10.592  0.6642 -0.0939  0.0909
   64MPD2    C5  997   0.835   0.802  10.637  0.5310 -0.3937  0.1696
   64MPD2     H  998   1.172   0.828  10.801  0.9970 -2.7839 -1.7386
   64MPD2    H1  999   0.897   0.958  10.516 -2.0760 -2.2038 -0.5359
   64MPD2    H2 1000   0.779   0.652  10.760  0.3827  0.7402  1.5670
   64MPD2    H3 1001   0.739   0.791  10.587  0.2226 -1.3060  0.9527
   64MPD2     N 1002   1.161   0.983  10.598  0.7623  0.4717 -0.3350
   64MPD2    H5 1003   1.243   0.985  10.658  1.7423 -0.1884 -1.6572
   64MPD2    N1 1004   1.022   0.651  10.910  0.0480 -0.5671 -0.2626
   64MPD2    H7 1005   1.114   0.673  10.949 -0.5232  1.1782  0.1143
   65TMC2    C1 1006   2.873   0.616  15.742  0.2570 -0.2510 -0.0261
   65TMC2    C2 1007   2.922   0.572  15.622  0.6924 -0.8273  0.4460
   65TMC2    C3 1008   2.900   0.640  15.506  0.6793  0.0684  0.3119
   65TMC2    C4 1009   2.819   0.739  15.755  0.4998 -0.1511  0.2319
   65TMC2    C5 1010   2.800   0.810  15.642 -0.7314  0.1190  0.2161
   65TMC2    C6 1011   2.837   0.765  15.516  0.2956  0.0410 -0.6496
   65TMC2     C 1012   2.898   0.533  15.856  0.0527 -0.5319 -0.0097
   65TMC2     O 1013   2.902   0.583  15.970 -0.3696 -0.1643  0.5026
   65TMC2     H 1014   2.975   0.478  15.619 -0.4647 -1.4307 -0.9608
   65TMC2    H1 1015   2.768   0.755  15.850  1.2339 -0.1962  0.6355
   65TMC2    H2 1016   2.776   0.805  15.435 -0.6932  1.0611  0.6035
   65TMC2    C7 1017   2.734   0.947  15.650  0.3406  0.3749  0.5936
   65TMC2    C8 1018   2.945   0.580  15.378 -0.0510 -0.2826 -0.1040
   65TMC2    O1 1019   2.738   1.009  15.545 -0.0477 -0.0229  0.0188
   65TMC2    O2 1020   2.992   0.467  15.373  0.2755  0.0437  0.3248
   65TMC2    O5 1021   2.971   0.679  15.296  0.3931  0.1898  0.1031
   65TMC2    H5 1022   2.931   0.768  15.288  0.4133 -0.0019 -2.1593
   66MPD2     C 1023   2.953   0.308  16.054  0.0164 -1.1286 -0.7089
   66MPD2    C1 1024   2.932   0.290  15.915  0.3823 -0.0726  0.2680
   66MPD2    C2 1025   2.937   0.158  15.876 -0.0909 -0.3643 -0.6321
   66MPD2    C3 1026   2.982   0.057  15.951  0.6591  0.4658  1.1746
   66MPD2    C4 1027   3.015   0.083  16.082 -0.5239  0.5184 -0.1058
   66MPD2    C5 1028   2.987   0.202  16.136  0.7779  0.8916 -0.1847
   66MPD2     H 1029   2.928   0.149  15.768  0.2855 -0.4648 -0.6558
   66MPD2    H1 1030   3.045   0.006  16.152  0.9507  1.6407  0.4890
   66MPD2    H2 1031   2.943   0.404  16.105 -0.8626 -2.1470  1.0257
   66MPD2    H3 1032   3.003   0.217  16.242  2.0781 -1.1592 -0.0949
   66MPD2     N 1033   2.994   4.666  15.902  0.5339  0.1193 -0.0270
   66MPD2    H5 1034   3.031   4.602  15.971 -0.4341  2.0725  2.2937
   66MPD2    N1 1035   2.898   0.399  15.824 -0.2743  0.9180 -0.1484
   66MPD2    H7 1036   2.884   0.377  15.727 -0.2868 -0.8343  0.2622
   67TMC2    C1 1037   2.849   4.285  14.328  0.5981  0.2268 -1.0528
   67TMC2    C2 1038   2.807   4.406  14.365  0.1909  0.4140  0.5411
   67TMC2    C3 1039   2.886   4.471  14.463 -0.2985  0.3241 -0.4320
   67TMC2    C4 1040   2.957   4.224  14.389  0.0800  0.4083  0.3480
   67TMC2    C5 1041   3.023   4.291  14.493  0.0341 -0.0770  0.1636
   67TMC2    C6 1042   2.990   4.421  14.530 -0.1667  0.1304 -0.4454
   67TMC2     C 1043   2.800   4.224  14.210  0.1907  0.1699 -0.0254
   67TMC2     O 1044   2.876   4.154  14.143 -0.2757  0.0539 -0.1019
   67TMC2     H 1045   2.725   4.458  14.317 -0.6282 -0.4305  1.0208
   67TMC2    H1 1046   2.974   4.120  14.365  0.8584  0.7431 -0.5672
   67TMC2    H2 1047   3.062   4.482  14.584  0.6301 -0.1972 -1.1187
   67TMC2    C7 1048   3.124   4.218  14.560 -0.4290  0.3596  0.4911
   67TMC2    C8 1049   2.839   4.602  14.503  0.2065  0.4536  0.6337
   67TMC2    O1 1050   3.171   4.120  14.493  0.3408 -0.0160 -0.0323
   67TMC2    O2 1051   2.782   4.676  14.424  0.3154  0.3143  0.1763
   67TMC2    O5 1052   2.812   4.592  14.632 -0.0242  0.2062  0.0296
   67TMC2    H5 1053   2.862   4.520  14.674 -1.4015  0.0574  1.4015
   68MPD2     C 1054   2.638   4.100  13.996 -0.3904  0.0212  0.6509
   68MPD2    C1 1055   2.587   4.179  14.098  0.1934 -0.0373  0.8111
   68MPD2    C2 1056   2.451   4.200  14.106 -0.7247 -0.0748  0.5723
   68MPD2    C3 1057   2.360   4.134  14.025  0.4125  0.1578 -0.5189
   68MPD2    C4 1058   2.414   4.052  13.927  0.2699  0.4951  0.8743
   68MPD2    C5 1059   2.547   4.034  13.917 -0.2044  0.4005  0.8802
   68MPD2     H 1060   2.408   4.273  14.173 -1.1879  1.3231 -1.2731
   68MPD2    H1 1061   2.357   3.990  13.859  0.9054  0.6917  0.1686
   68MPD2    H2 1062   2.739   4.074  13.968 -1.5632  0.3752 -3.9395
   68MPD2    H3 1063   2.593   3.968  13.844  1.8111  1.4444  1.2057
   68MPD2     N 1064   2.219   4.156  14.028  0.1104  0.4294 -0.5210
   68MPD2    H5 1065   2.166   4.127  13.946  2.4111 -0.8980 -1.5447
   68MPD2    N1 1066   2.669   4.252  14.195  0.4407  0.6162  0.4925
   68MPD2    H7 1067   2.613   4.296  14.268 -1.8185 -3.3562  1.2042
   69TMC2    C1 1068   0.405   0.741  12.921 -0.0131  0.3626 -0.8634
   69TMC2    C2 1069   0.315   0.835  12.877 -0.4335  0.0378 -0.8252
   69TMC2    C3 1070   0.350   0.900  12.767  0.2055 -0.3924  0.2285
   69TMC2    C4 1071   0.526   0.718  12.870  0.4482  0.1879 -0.7831
   69TMC2    C5 1072   0.559   0.797  12.766 -0.1390 -0.2273  0.3910
   69TMC2    C6 1073   0.470   0.893  12.714 -0.2688 -0.0847 -0.2670
   69TMC2     C 1074   0.348   0.633  12.997 -0.6272 -0.0528  0.2250
   69TMC2     O 1075   0.236   0.593  12.966  0.0580  0.2223  0.3837
   69TMC2     H 1076   0.213   0.835  12.914  0.2637  0.8566  1.0885
   69TMC2    H1 1077   0.575   0.623  12.887 -2.0697 -0.8572  0.5673
   69TMC2    H2 1078   0.494   0.963  12.636  0.0437 -0.3910 -0.4466
   69TMC2    C7 1079   0.680   0.774  12.692 -0.0609  0.6121  0.3603
   69TMC2    C8 1080   0.268   1.005  12.725 -0.2821 -0.3203 -0.5553
   69TMC2    O1 1081   0.723   0.663  12.673 -0.1806 -0.1660 -0.0822
   69TMC2    O2 1082   0.179   1.054  12.788  0.0363  0.3855  0.3943
   69TMC2    O5 1083   0.257   0.992  12.590  0.2136 -0.7860 -0.5997
   69TMC2    H5 1084   0.322   0.938  12.541 -0.2829 -1.2655 -0.7271
   70MPD2     C 1085   0.568   0.397  13.166 -0.6440 -0.0190 -0.5084
   70MPD2    C1 1086   0.446   0.435  13.118  0.1163 -0.1174  0.0295
   70MPD2    C2 1087   0.337   0.353  13.113 -0.0970 -0.5517  0.4190
   70MPD2    C3 1088   0.356   0.222  13.165 -0.3168  0.4289  0.6071
   70MPD2    C4 1089   0.487   0.176  13.194 -0.4726 -0.4495 -0.3653
   70MPD2    C5 1090   0.590   0.264  13.203  0.5130  0.7217  1.1110
   70MPD2     H 1091   0.240   0.386  13.079 -0.1013  0.6329  1.5730
   70MPD2    H1 1092   0.490   0.071  13.224 -0.4352 -0.7067 -1.2886
   70MPD2    H2 1093   0.655   0.461  13.182  0.6654 -1.8715 -0.2357
   70MPD2    H3 1094   0.686   0.225  13.235  0.2880  1.3524  2.5729
   70MPD2     N 1095   0.249   0.129  13.163  0.3879 -0.2551 -0.2151
   70MPD2    H5 1096   0.275   0.032  13.180 -0.5386 -0.2796  1.0596
   70MPD2    N1 1097   0.442   0.571  13.075 -0.2626 -0.3704  0.0950
   70MPD2    H7 1098   0.530   0.620  13.086 -0.1674 -1.1114  2.5666
   71TMC2    C1 1099   3.214   2.305   2.054  0.4905  0.3464  0.3412
   71TMC2    C2 1100   3.337   2.296   2.106 -0.2879  0.2826 -0.7962
   71TMC2    C3 1101   3.339   2.289   2.244 -0.0142  0.5960 -0.0410
   71TMC2    C4 1102   3.094   2.311   2.127 -0.5702  0.8803  0.1475
   71TMC2    C5 1103   3.108   2.304   2.261 -0.1498 -0.4982 -0.3793
   71TMC2    C6 1104   3.228   2.299   2.324 -0.6205  0.0660  0.7480
   71TMC2     C 1105   3.210   2.293   1.907 -0.4626 -0.2241  0.0472
   71TMC2     O 1106   3.304   2.343   1.848  0.0247 -0.4590 -0.2877
   71TMC2     H 1107   3.424   2.307   2.042 -0.3577 -1.2104 -1.1498
   71TMC2    H1 1108   3.014   2.367   2.080  0.5023  1.3235 -1.1450
   71TMC2    H2 1109   3.244   2.308   2.430  1.3533 -2.6481  0.6859
   71TMC2    C7 1110   2.991   2.344   2.340 -0.8524 -0.2737 -0.0812
   71TMC2    C8 1111   3.456   2.259   2.309  0.4390 -0.5600 -0.4914
   71TMC2    O1 1112   3.008   2.357   2.465  0.0180  0.0641 -0.3121
   71TMC2    O2 1113   3.485   2.298   2.422 -0.1597  0.0311 -0.1204
   71TMC2    O5 1114   3.544   2.210   2.215  0.4900  0.4065  0.3624
   71TMC2    H5 1115   3.508   2.172   2.132  0.1097  0.4040  0.5281
   72MPD2     C 1116   3.033   2.159   1.452 -0.2526  1.0116 -0.2786
   72MPD2    C1 1117   3.130   2.249   1.493  0.2042  0.1378  0.4897
   72MPD2    C2 1118   3.155   2.268   1.625 -0.3928  0.0952  0.0659
   72MPD2    C3 1119   3.083   2.207   1.721  0.1624  0.2878 -0.0002
   72MPD2    C4 1120   2.968   2.129   1.680  0.3055 -0.9536  0.1018
   72MPD2    C5 1121   2.959   2.098   1.549 -0.4275  0.9242 -0.7485
   72MPD2     H 1122   3.228   2.341   1.658  0.2016 -0.4881  0.0489
   72MPD2    H1 1123   2.913   2.071   1.754  1.3638 -0.8565  0.9710
   72MPD2    H2 1124   3.001   2.143   1.349 -0.8837 -1.5797  0.3150
   72MPD2    H3 1125   2.879   2.030   1.522  0.3947  0.0669 -1.0396
   72MPD2     N 1126   3.096   2.232   1.859  0.3647  0.2958  0.1548
   72MPD2    H5 1127   3.023   2.195   1.919 -0.0559  1.2035  0.2154
   72MPD2    N1 1128   3.207   2.329   1.409  0.0747  0.0157  0.1772
   72MPD2    H7 1129   3.260   2.397   1.464  0.9931 -0.2115 -0.4182
   73TMC2    C1 1130   2.057   3.044  14.078  0.6576 -0.5637  0.6416
   73TMC2    C2 1131   2.003   3.062  14.202 -0.2180 -1.2144  0.3147
   73TMC2    C3 1132   2.045   2.979  14.301 -0.9172 -0.2732 -0.2424
   73TMC2    C4 1133   2.156   2.951  14.059  0.0480  0.2961 -0.2953
   73TMC2    C5 1134   2.207   2.878  14.165 -0.1643  0.2361  0.2397
   73TMC2    C6 1135   2.148   2.895  14.283 -0.4286 -0.1342  0.4761
   73TMC2     C 1136   2.093   3.166  14.015  0.3061 -0.7720 -0.3197
   73TMC2     O 1137   2.209   3.169  13.971 -0.3706 -0.7077  0.4864
   73TMC2     H 1138   1.938   3.146  14.220  1.0673 -0.1028 -0.2455
   73TMC2    H1 1139   2.196   2.945  13.958 -0.1238  0.2689 -0.3612
   73TMC2    H2 1140   2.181   2.836  14.367  1.2926  0.9427  0.5586
   73TMC2    C7 1141   2.349   2.886  14.181  0.2114  0.0902 -0.0848
   73TMC2    C8 1142   1.996   3.000  14.440 -0.1297  0.7186  0.2229
   73TMC2    O1 1143   2.411   2.789  14.230  0.3947  0.0592 -0.2454
   73TMC2    O2 1144   2.065   2.956  14.529  0.1034  0.1506 -0.0169
   73TMC2    O5 1145   1.890   3.072  14.456  0.5528 -0.2251  0.2151
   73TMC2    H5 1146   1.858   3.104  14.368 -1.0147  1.4429  1.4009
   74MPD2     C 1147   2.019   3.625  13.788  0.2295 -0.0097 -0.2518
   74MPD2    C1 1148   2.130   3.567  13.841 -0.5737  0.6110 -0.1551
   74MPD2    C2 1149   2.126   3.447  13.912  0.1590  0.4654 -0.0492
   74MPD2    C3 1150   2.005   3.378  13.933 -0.2987 -0.1232  0.1232
   74MPD2    C4 1151   1.896   3.429  13.867  0.8087  0.1434  0.2550
   74MPD2    C5 1152   1.900   3.550  13.797  0.0879  1.1950  0.3586
   74MPD2     H 1153   2.212   3.407  13.963 -1.1703  0.1610  1.9673
   74MPD2    H1 1154   1.804   3.371  13.866  1.7325 -1.3015 -0.1706
   74MPD2    H2 1155   2.020   3.724  13.743 -2.7428  0.7713  1.3937
   74MPD2    H3 1156   1.810   3.589  13.751 -0.2785  1.1283  1.0168
   74MPD2     N 1157   1.989   3.247  13.989 -0.5036  0.3978  0.2452
   74MPD2    H5 1158   1.896   3.209  13.998 -0.3829  0.3014  1.0401
   74MPD2    N1 1159   2.251   3.616  13.791  0.5548  0.5112 -0.1608
   74MPD2    H7 1160   2.246   3.705  13.742 -3.2958 -0.8511 -2.2232
   75TMC2    C1 1161   2.004   4.185  14.107  0.0705 -0.0736  0.5256
   75TMC2    C2 1162   1.918   4.197  14.214  0.6951  0.6813  0.2244
   75TMC2    C3 1163   1.793   4.255  14.199 -0.0005  0.0412  0.4370
   75TMC2    C4 1164   1.956   4.209  13.987  0.8523  0.0369 -0.6267
   75TMC2    C5 1165   1.827   4.255  13.972  0.7566 -0.3212 -0.5570
   75TMC2    C6 1166   1.742   4.288  14.074 -0.2399 -0.5784  0.1497
   75TMC2     C 1167   2.147   4.188  14.138 -0.3166  0.5352  0.0077
   75TMC2     O 1168   2.181   4.205  14.256  0.0529  0.2634 -0.0429
   75TMC2     H 1169   1.952   4.188  14.316 -0.3616  1.2763  0.6279
   75TMC2    H1 1170   2.026   4.229  13.907  1.5834 -0.0156 -0.0049
   75TMC2    H2 1171   1.646   4.337  14.062 -1.2313 -2.7973 -1.0502
   75TMC2    C7 1172   1.776   4.258  13.833 -0.1236 -0.3783 -0.5020
   75TMC2    C8 1173   1.723   4.291  14.322 -0.0816 -0.0173  0.1265
   75TMC2    O1 1174   1.818   4.181  13.751  0.1333 -0.1518  0.8416
   75TMC2    O2 1175   1.781   4.333  14.421  0.1883  0.2488  0.2886
   75TMC2    O5 1176   1.587   4.291  14.302 -0.5611 -0.0233  0.0477
   75TMC2    H5 1177   1.554   4.241  14.225 -0.8356 -0.2127  0.2851
   76TMC2    C1 1178   1.692   4.467  12.182 -0.0630 -0.2384 -0.5926
   76TMC2    C2 1179   1.605   4.367  12.142  0.1044  0.4590  0.1194
   76TMC2    C3 1180   1.651   4.241  12.157 -0.4427 -0.2997  0.9173
   76TMC2    C4 1181   1.823   4.441  12.221  0.4045  0.8073  0.1726
   76TMC2    C5 1182   1.855   4.308  12.236 -0.1359  0.7441 -0.4615
   76TMC2    C6 1183   1.769   4.203  12.210  0.4203 -0.0987  0.5126
   76TMC2     C 1184   1.647   4.606  12.148  0.2694 -0.5421  0.0261
   76TMC2     O 1185   1.560   4.623  12.068  0.1418 -0.0249  0.3512
   76TMC2     H 1186   1.509   4.395  12.099  1.0934  0.6608 -1.9484
   76TMC2    H1 1187   1.895   4.514  12.254 -1.0290  1.3676  2.0621
   76TMC2    H2 1188   1.802   4.100  12.218 -2.6173 -1.4207 -4.0214
   76TMC2    C7 1189   1.999   4.287  12.240  0.1447 -0.3801  0.0865
   76TMC2    C8 1190   1.561   4.136  12.114 -0.0433 -0.2070 -0.0995
   76TMC2    O1 1191   2.043   4.182  12.192 -0.1473 -0.4668  0.4726
   76TMC2    O2 1192   1.606   4.041  12.059 -0.3164 -0.1322  0.7228
   76TMC2    O5 1193   1.430   4.176  12.108  0.4745 -0.0870 -0.0489
   76TMC2    H5 1194   1.408   4.236  12.182  3.2385  1.5555 -0.5523
   77MPD2     C 1195   1.732   0.379  12.099 -0.9229  0.2587  0.1552
   77MPD2    C1 1196   1.613   0.306  12.089  0.1217  0.2008  0.0192
   77MPD2    C2 1197   1.618   0.169  12.108 -0.4420 -0.5723 -0.0463
   77MPD2    C3 1198   1.731   0.104  12.148 -0.4796 -0.1316 -0.2155
   77MPD2    C4 1199   1.847   0.182  12.160 -0.0094 -0.2306  0.1488
   77MPD2    C5 1200   1.847   0.315  12.125 -0.3214 -0.5450  0.4506
   77MPD2     H 1201   1.530   0.107  12.103 -0.9670  0.1520  0.1701
   77MPD2    H1 1202   1.942   0.140  12.189  0.0942 -1.7652 -2.4360
   77MPD2    H2 1203   1.740   0.482  12.065  1.2224 -0.0944 -0.3953
   77MPD2    H3 1204   1.941   0.370  12.124 -1.5903  1.5742 -1.5294
   77MPD2     N 1205   1.739   4.702  12.186 -0.5726  0.0972 -0.0336
   77MPD2    H5 1206   1.813   4.678  12.251  0.4204 -0.1616 -1.2560
   77MPD2    N1 1207   1.482   0.368  12.072 -0.0567 -0.2343 -0.3100
   77MPD2    H7 1208   1.398   0.312  12.083  0.2163 -0.3289  1.3198
   78TMC2    C1 1209   2.390   2.171   2.295  0.5227 -0.1931  0.5629
   78TMC2    C2 1210   2.386   2.175   2.436 -0.4048 -0.3800  0.0361
   78TMC2    C3 1211   2.492   2.130   2.510  0.5529 -0.2272  0.7525
   78TMC2    C4 1212   2.495   2.111   2.235 -0.2606 -0.6770 -0.3353
   78TMC2    C5 1213   2.598   2.061   2.312  0.3939 -0.1431 -0.1575
   78TMC2    C6 1214   2.599   2.061   2.451 -0.8105  0.4092  0.9098
   78TMC2     C 1215   2.264   2.199   2.225  0.0768 -0.1294 -0.7018
   78TMC2     O 1216   2.184   2.267   2.287 -0.0765 -1.0002 -0.3519
   78TMC2     H 1217   2.302   2.229   2.478 -0.1181  0.5937 -0.6402
   78TMC2    H1 1218   2.496   2.117   2.127 -4.0082  0.7744 -0.2683
   78TMC2    H2 1219   2.673   2.012   2.514  0.7056  1.6044  0.0636
   78TMC2    C7 1220   2.707   2.005   2.227 -0.2328 -0.6545  0.2260
   78TMC2    C8 1221   2.493   2.164   2.653  0.2725  0.3238  0.7166
   78TMC2    O1 1222   2.684   1.994   2.107 -0.9850  0.1790 -0.2058
   78TMC2    O2 1223   2.397   2.217   2.715  0.0773 -0.3078 -0.1344
   78TMC2    O5 1224   2.617   2.207   2.676  0.1527 -0.2264 -0.1517
   78TMC2    H5 1225   2.683   2.182   2.608  0.2482  0.0634 -0.1639
   79MPD1     C 1226   1.980   2.187   1.799  0.4104 -0.0049  0.3175
   79MPD1    C1 1227   1.982   2.286   1.894 -0.2741  0.6411  0.4116
   79MPD1    C2 1228   2.074   2.273   1.998 -0.0946 -0.3046  0.0449
   79MPD1    C3 1229   2.165   2.168   1.999  0.1463 -0.1099  0.1771
   79MPD1    C4 1230   2.163   2.076   1.899  0.3940 -0.4958  0.2779
   79MPD1    C5 1231   2.064   2.087   1.798 -0.5689 -0.6206  0.4222
   79MPD1     H 1232   2.075   2.342   2.082 -0.0610  2.2372 -2.0497
   79MPD1    H1 1233   2.233   1.993   1.905 -0.0518 -0.8680  0.3239
   79MPD1    H2 1234   1.904   2.187   1.721  0.1004 -3.2834  0.6047
   79MPD1    H3 1235   2.060   2.001   1.732  4.2580  0.6785 -1.6401
   79MPD1     N 1236   2.262   2.139   2.097  0.1694  0.1230  0.1299
   79MPD1    H5 1237   2.335   2.072   2.076  0.6349  0.5272  0.4684
   79MPD1    N1 1238   1.858   2.356   1.905 -0.4405 -0.9775  0.0088
   79MPD1    H6 1239   1.875   2.448   1.945  3.5365 -1.9788  0.6682
   79MPD1    H7 1240   1.813   2.389   1.820  1.0640  1.2066  0.0532
   80TMC2    C1 1241   4.587   4.594  11.704  0.1398  0.0287 -0.6646
   80TMC2    C2 1242   4.469   4.614  11.765  0.0053 -0.5228  0.2323
   80TMC2    C3 1243   4.369   4.529  11.739  0.3703 -0.5632 -0.2328
   80TMC2    C4 1244   4.599   4.507  11.598 -0.4016  0.2258  0.2676
   80TMC2    C5 1245   4.493   4.426  11.566  0.6026 -0.8126 -0.6619
   80TMC2    C6 1246   4.380   4.434  11.639  0.4627  0.2069 -0.4468
   80TMC2     C 1247   4.711   4.604  11.780 -0.0089 -0.6091 -0.7626
   80TMC2     O 1248   0.075   4.585  11.715 -0.0575 -0.0119  0.2524
   80TMC2     H 1249   4.457   4.692  11.839  0.6292 -0.4488  0.2607
   80TMC2    H1 1250   4.692   4.488  11.546 -0.1182  0.0406  0.8412
   80TMC2    H2 1251   4.292   4.378  11.611 -0.4641  1.6008 -0.2884
   80TMC2    C7 1252   4.540   4.290  11.537 -0.2115 -0.5247  0.1408
   80TMC2    C8 1253   4.242   4.582  11.750 -0.3026 -0.2222 -0.0741
   80TMC2    O1 1254   4.653   4.275  11.482 -0.3259  0.4097  0.3791
   80TMC2    O2 1255   4.173   4.616  11.657 -0.3296  0.4553  0.0446
   80TMC2    O5 1256   4.226   4.606  11.882 -0.0699  0.3906  0.4312
   80TMC2    H5 1257   4.300   4.578  11.939 -0.5677 -0.9365  0.4191
   81MPD2     C 1258   0.191   4.577  11.989 -0.0012 -0.4217  0.0902
   81MPD2    C1 1259   0.058   4.607  12.021  0.1585  0.3608  0.1541
   81MPD2    C2 1260   0.023   4.603  12.156  0.2085  0.1552 -0.1914
   81MPD2    C3 1261   0.109   4.565  12.261  1.3333  0.3952  0.0081
   81MPD2    C4 1262   0.240   4.546  12.222 -0.0160  0.2156 -0.2725
   81MPD2    C5 1263   0.283   4.555  12.086  0.0028  0.3431  0.4064
   81MPD2     H 1264   4.658   4.628  12.177  0.3254  1.3838 -1.0698
   81MPD2    H1 1265   0.309   4.507  12.296  0.3967 -0.5017 -1.0266
   81MPD2    H2 1266   0.231   4.574  11.888  0.2582  0.9229  0.1587
   81MPD2    H3 1267   0.387   4.534  12.065 -0.6362 -0.3244 -2.0304
   81MPD2     N 1268   0.066   4.565  12.394 -0.2478 -0.1806  0.1738
   81MPD2    H5 1269   4.721   4.622  12.404  1.3893  2.4505 -1.4291
   81MPD2    N1 1270   4.697   4.611  11.918  0.2926  0.2214 -1.0384
   81MPD2    H7 1271   4.602   4.624  11.953  1.0053  1.2512  0.4975
   82TMC2    C1 1272   2.707   3.769  10.764 -0.8307  0.0065 -0.4278
   82TMC2    C2 1273   2.782   3.718  10.656  0.6726 -0.4164  0.2093
   82TMC2    C3 1274   2.833   3.591  10.673  0.2856  0.3628 -0.5405
   82TMC2    C4 1275   2.673   3.700  10.880  0.0051 -0.2397 -0.2490
   82TMC2    C5 1276   2.716   3.570  10.884  0.5691  0.3841  0.1491
   82TMC2    C6 1277   2.809   3.519  10.790  0.6029  0.0602  0.3938
   82TMC2     C 1278   2.680   3.912  10.753  0.1113 -0.3955  0.1354
   82TMC2     O 1279   2.671   3.954  10.638  0.5090  0.4071 -0.0685
   82TMC2     H 1280   2.779   3.767  10.560 -0.5533 -0.9553 -0.0308
   82TMC2    H1 1281   2.595   3.732  10.948  0.8583 -0.4692  0.8229
   82TMC2    H2 1282   2.823   3.411  10.790 -0.6815 -0.1075  0.9214
   82TMC2    C7 1283   2.666   3.482  10.988 -0.3679  0.2613  0.2243
   82TMC2    C8 1284   2.826   3.507  10.557  0.2101 -0.6834 -0.3525
   82TMC2    O1 1285   2.669   3.525  11.104  1.1211  0.1487 -0.1312
   82TMC2    O2 1286   2.750   3.414  10.553  0.0931 -0.3320 -0.0214
   82TMC2    O5 1287   2.839   3.588  10.445 -0.1136  0.2995 -0.2624
   82TMC2    H5 1288   2.894   3.666  10.468 -1.2235  0.8559  0.5043
   83MPD2     C 1289   2.553   4.372  10.942 -0.6722 -0.0000 -0.2565
   83MPD2    C1 1290   2.540   4.324  10.812 -0.0624 -0.2526  0.3050
   83MPD2    C2 1291   2.575   4.193  10.785  0.0501  0.0665 -0.2522
   83MPD2    C3 1292   2.613   4.108  10.888 -0.3906 -0.0511  0.3048
   83MPD2    C4 1293   2.629   4.164  11.017  0.9631  0.5549 -0.1086
   83MPD2    C5 1294   2.605   4.295  11.046  0.1383  0.4532 -0.1211
   83MPD2     H 1295   2.566   4.160  10.682  0.9552  0.0021 -0.3119
   83MPD2    H1 1296   2.652   4.097  11.098  0.1832 -1.3418 -1.4342
   83MPD2    H2 1297   2.528   4.474  10.968  2.1709  0.6695 -0.2384
   83MPD2    H3 1298   2.620   4.334  11.145  3.4168 -1.5245  0.1506
   83MPD2     N 1299   2.650   3.974  10.870  0.2525 -0.4546  0.2820
   83MPD2    H5 1300   2.675   3.924  10.955 -0.5521  2.1949  2.0784
   83MPD2    N1 1301   2.492   4.411  10.714  0.5321 -0.5641 -0.1481
   83MPD2    H7 1302   2.489   4.510  10.736 -1.7262 -0.6447 -0.0569
   84TMC2    C1 1303   3.915   3.290  11.357  0.3511 -0.2443  0.1928
   84TMC2    C2 1304   3.922   3.235  11.483 -0.6879 -0.2566  0.0354
   84TMC2    C3 1305   3.915   3.104  11.493  0.8228  0.3577  0.1870
   84TMC2    C4 1306   3.918   3.209  11.244 -0.1254  0.0660 -0.0326
   84TMC2    C5 1307   3.908   3.075  11.265  0.1413 -0.5151 -0.5280
   84TMC2    C6 1308   3.906   3.018  11.389 -0.0719 -0.3810 -0.4581
   84TMC2     C 1309   3.930   3.439  11.345  0.0525  0.0221 -0.0290
   84TMC2     O 1310   3.873   3.487  11.442 -0.2751  0.3678 -0.8796
   84TMC2     H 1311   3.916   3.302  11.568 -0.9099 -0.4297  0.1544
   84TMC2    H1 1312   3.924   3.250  11.144  1.9477  0.9173  0.4299
   84TMC2    H2 1313   3.918   2.911  11.402  1.2941 -0.1858 -0.1364
   84TMC2    C7 1314   3.919   2.977  11.155  0.4671  0.0556 -0.2469
   84TMC2    C8 1315   3.951   3.047  11.619 -0.7122 -0.0894 -0.0085
   84TMC2    O1 1316   3.884   2.857  11.175  0.3464  0.5062 -0.2611
   84TMC2    O2 1317   3.926   2.935  11.648  0.3206 -0.3633 -0.7171
   84TMC2    O5 1318   4.053   3.116  11.676  0.3958  0.2121 -0.5153
   84TMC2    H5 1319   4.074   3.206  11.643 -0.1123  0.1715 -0.9486
   85TMC2    C1 1320   0.468   1.639  16.073  0.0072  0.0622  0.2488
   85TMC2    C2 1321   0.363   1.696  16.011 -0.0042  0.6544  0.5420
   85TMC2    C3 1322   0.397   1.808  15.932  0.4054 -0.1676 -0.1963
   85TMC2    C4 1323   0.594   1.682  16.061 -0.9310 -0.3337 -0.6824
   85TMC2    C5 1324   0.624   1.786  15.973 -0.4026  0.3014  0.6311
   85TMC2    C6 1325   0.522   1.858  15.919 -0.1331 -0.1331  0.0898
   85TMC2     C 1326   0.446   1.528  16.167 -0.0744  0.7646 -0.1431
   85TMC2     O 1327   0.532   1.505  16.256  0.2699  0.1987  0.4926
   85TMC2     H 1328   0.261   1.671  16.038  0.7550 -1.9725  0.9955
   85TMC2    H1 1329   0.677   1.632  16.109 -0.4869  2.3334  1.3822
   85TMC2    H2 1330   0.543   1.952  15.870  0.7025  0.0025  0.7154
   85TMC2    C7 1331   0.747   1.786  15.902  0.1158  0.4148 -0.1073
   85TMC2    C8 1332   0.292   1.903  15.916 -0.0525 -0.0700  0.0876
   85TMC2    O1 1333   0.837   1.732  15.960 -1.0954 -0.3407  0.0725
   85TMC2    O2 1334   0.178   1.868  15.915 -0.2926  0.0886 -0.0736
   85TMC2    O5 1335   0.326   2.021  15.971  0.1187  0.2575 -0.9310
   85TMC2    H5 1336   0.420   2.044  15.989  0.2849  1.2380 -3.0557
   86MPD2     C 1337   0.174   1.136  16.360 -0.0675  0.1664 -0.2684
   86MPD2    C1 1338   0.126   1.171  16.233 -0.9549 -0.3489  0.9250
   86MPD2    C2 1339   0.193   1.266  16.158  0.2347 -0.5021  0.3017
   86MPD2    C3 1340   0.296   1.341  16.211 -0.0300  0.2800 -0.1711
   86MPD2    C4 1341   0.332   1.317  16.341  0.3825  0.1546 -0.2258
   86MPD2    C5 1342   0.271   1.217  16.414 -0.2688 -0.9734 -0.2881
   86MPD2     H 1343   0.155   1.285  16.059 -2.2093 -2.6269  0.8300
   86MPD2    H1 1344   0.410   1.370  16.395  0.4137 -0.1939  0.0774
   86MPD2    H2 1345   0.138   1.045  16.405 -0.6513  0.2434 -0.5766
   86MPD2    H3 1346   0.298   1.203  16.518  2.9767 -0.4107 -1.0497
   86MPD2     N 1347   0.342   1.452  16.135  0.1876  0.0201  0.9192
   86MPD2    H5 1348   0.291   1.487  16.054  0.7648  0.9421  0.9561
   86MPD2    N1 1349   0.011   1.102  16.171 -0.1900 -0.1281 -0.0255
   86MPD2    H7 1350   0.006   1.110  16.070  2.6738  0.6587 -0.1027
   87TMC2    C1 1351   3.096   0.145   1.085 -0.4444  0.5749  0.5035
   87TMC2    C2 1352   3.096   0.104   1.219  0.6454  0.1979 -0.1016
   87TMC2    C3 1353   3.055   0.187   1.315  0.4557 -0.3576 -0.5918
   87TMC2    C4 1354   3.049   0.269   1.049 -0.2634  0.0767  0.5715
   87TMC2    C5 1355   3.007   0.346   1.158 -0.1392 -0.0822 -0.2687
   87TMC2    C6 1356   3.003   0.307   1.284  0.3660  0.5509 -0.0222
   87TMC2     C 1357   3.133   0.048   0.988  0.0883  0.1539 -0.3060
   87TMC2     O 1358   3.107   0.080   0.871 -0.3717  0.2612  0.3916
   87TMC2     H 1359   3.127   0.004   1.248  0.5183  0.4746  1.0120
   87TMC2    H1 1360   3.046   0.307   0.948 -1.8465  0.3151  0.7187
   87TMC2    H2 1361   2.954   0.372   1.356 -3.0881 -1.2991 -0.7336
   87TMC2    C7 1362   2.995   0.488   1.129  0.4743 -0.3289  0.7059
   87TMC2    C8 1363   3.065   0.143   1.452 -0.3748 -0.2706 -0.2171
   87TMC2    O1 1364   2.964   0.527   1.016  0.1137  0.1624 -0.0833
   87TMC2    O2 1365   3.155   0.074   1.489  0.9725 -0.0620  0.2688
   87TMC2    O5 1366   2.935   0.097   1.471 -0.1194 -0.5917 -0.1017
   87TMC2    H5 1367   2.867   0.160   1.438 -0.3858 -0.4653  0.6840
   88MPD2     C 1368   3.053   0.771   1.365 -0.3537 -0.6698 -0.4458
   88MPD2    C1 1369   2.995   0.701   1.258 -0.3711 -0.5335 -0.3733
   88MPD2    C2 1370   2.912   0.770   1.174 -0.0959  0.2737 -0.6829
   88MPD2    C3 1371   2.890   0.904   1.189 -0.2672  0.6484 -0.2529
   88MPD2    C4 1372   2.940   0.970   1.296  1.1750  0.3138  0.2549
   88MPD2    C5 1373   3.012   0.903   1.388 -0.1118 -0.1932  0.1585
   88MPD2     H 1374   2.882   0.723   1.081 -2.4042  0.5093 -0.0395
   88MPD2    H1 1375   2.902   1.069   1.316 -1.2682 -0.2907 -1.4092
   88MPD2    H2 1376   3.114   0.712   1.432  1.1850  0.2611 -1.0391
   88MPD2    H3 1377   3.052   0.954   1.475  0.9493 -1.3696  0.3699
   88MPD2     N 1378   2.807   0.986   1.107 -0.1171 -0.5904  0.1334
   88MPD2    H5 1379   2.780   1.076   1.145 -0.4250 -0.9716  0.8256
   88MPD2    N1 1380   3.033   0.566   1.241  0.3368  0.9051  0.2261
   88MPD2    H7 1381   3.071   0.533   1.329  0.6656  0.8447  0.0589
   89TMC2    C1 1382   3.891   3.789   2.246  0.4229 -0.5166 -0.0882
   89TMC2    C2 1383   4.004   3.862   2.222 -0.5038 -0.6273 -0.6302
   89TMC2    C3 1384   4.053   3.865   2.093  0.1243  0.1065 -0.3425
   89TMC2    C4 1385   3.826   3.720   2.148  0.4485 -0.1998 -0.1408
   89TMC2    C5 1386   3.871   3.746   2.022  0.0467 -0.2275 -0.1369
   89TMC2    C6 1387   3.984   3.816   1.991  0.1624  0.3043 -0.3390
   89TMC2     C 1388   3.832   3.791   2.380 -0.6485 -0.1969 -0.7501
   89TMC2     O 1389   3.879   3.866   2.459 -0.5854 -0.4812  0.2986
   89TMC2     H 1390   4.061   3.903   2.305 -3.2234  0.1023  0.8842
   89TMC2    H1 1391   3.721   3.696   2.159  0.8763 -1.9671  0.0255
   89TMC2    H2 1392   4.017   3.845   1.892  1.9907  0.5454  0.3459
   89TMC2    C7 1393   3.786   3.698   1.916  0.4639  0.0769 -0.2826
   89TMC2    C8 1394   4.177   3.938   2.057 -0.3595 -0.1866  0.1180
   89TMC2    O1 1395   3.687   3.631   1.944 -0.3833 -0.4852  0.1793
   89TMC2    O2 1396   4.178   3.998   1.949  0.5316 -0.0261  0.2422
   89TMC2    O5 1397   4.249   3.960   2.166  0.7743  0.2075  0.4937
   89TMC2    H5 1398   4.237   3.893   2.236 -0.4960  0.1742  0.2372
   90MPD2     C 1399   3.428   3.629   2.654 -0.0255 -0.1718  0.2285
   90MPD2    C1 1400   3.440   3.536   2.550 -0.0432 -0.1510  0.4243
   90MPD2    C2 1401   3.549   3.554   2.467 -0.4228 -0.0362  0.7228
   90MPD2    C3 1402   3.644   3.655   2.491  0.5897  0.8055 -0.0397
   90MPD2    C4 1403   3.629   3.744   2.593 -0.5749 -0.1336 -0.6763
   90MPD2    C5 1404   3.520   3.731   2.670  0.6489 -0.6457  0.2700
   90MPD2     H 1405   3.555   3.496   2.376  0.5740 -1.3633  1.6479
   90MPD2    H1 1406   3.688   3.834   2.609 -0.4613 -0.2410 -0.4862
   90MPD2    H2 1407   3.352   3.620   2.731 -0.2903 -0.8742 -0.1077
   90MPD2    H3 1408   3.486   3.795   2.751 -1.5643  1.1955 -2.1550
   90MPD2     N 1409   3.738   3.686   2.389  0.4170  0.6424 -0.0217
   90MPD2    H5 1410   3.743   3.618   2.314  0.9839 -0.3915  0.9659
   90MPD2    N1 1411   3.340   3.434   2.525  0.3761  0.9204 -0.0259
   90MPD2    H7 1412   3.363   3.357   2.463 -0.5667 -0.1399  0.9575
   91TMC2    C1 1413   0.442   2.491  16.737  0.2468  0.4157 -0.2275
   91TMC2    C2 1414   0.521   2.506  16.845 -0.0523 -0.4737  0.5987
   91TMC2    C3 1415   0.457   2.559  16.950 -0.5353  0.7409  0.2424
   91TMC2    C4 1416   0.308   2.518  16.735  0.6351  0.3524  1.1667
   91TMC2    C5 1417   0.251   2.569  16.849 -0.5593 -0.6164 -0.6797
   91TMC2    C6 1418   0.332   2.603  16.954 -0.4201  0.0588 -0.6193
   91TMC2     C 1419   0.503   2.440  16.618 -0.2139  0.2571 -0.1464
   91TMC2     O 1420   0.442   2.372  16.533  0.4580 -0.2154 -0.0142
   91TMC2     H 1421   0.624   2.471  16.839  0.4878  0.8956  1.7511
   91TMC2    H1 1422   0.260   2.490  16.641 -0.0661  2.2804  0.9518
   91TMC2    H2 1423   0.303   2.659  17.042  1.6160  2.2700 -1.3513
   91TMC2    C7 1424   0.122   2.627  16.853 -0.3337 -0.1752  0.0511
   91TMC2    C8 1425   0.539   2.599  17.064  0.4124 -0.3258 -0.6300
   91TMC2    O1 1426   0.085   2.680  16.956 -0.0016  1.1139 -0.1462
   91TMC2    O2 1427   0.508   2.587  17.182 -0.5378  0.4157 -0.0396
   91TMC2    O5 1428   0.642   2.664  17.016 -0.1350 -0.3258 -0.5107
   91TMC2    H5 1429   0.660   2.663  16.920 -0.2149  4.0592 -0.5320
   92MPD2     C 1430   0.723   2.315  16.444  0.6486 -0.0079  0.0899
   92MPD2    C1 1431   0.730   2.443  16.506  0.0425  0.6093  0.3532
   92MPD2    C2 1432   0.845   2.519  16.476 -0.5584  0.0665 -0.7179
   92MPD2    C3 1433   0.946   2.466  16.391  0.1248  0.5101 -0.7360
   92MPD2    C4 1434   0.934   2.340  16.337  0.7933  0.1176  0.1357
   92MPD2    C5 1435   0.820   2.268  16.360  0.0960 -0.1967  0.3069
   92MPD2     H 1436   0.851   2.610  16.534  0.2310  0.0507 -0.7723
   92MPD2    H1 1437   1.002   2.294  16.267 -0.1324 -1.6762  0.4182
   92MPD2    H2 1438   0.645   2.245  16.472 -0.1770  0.5567 -0.8187
   92MPD2    H3 1439   0.818   2.169  16.317 -1.2400 -0.1759  0.3278
   92MPD2     N 1440   1.045   2.554  16.342  0.0879 -0.2463  0.0856
   92MPD2    H5 1441   1.030   2.653  16.358 -0.2234 -0.0835 -1.2517
   92MPD2    N1 1442   0.634   2.491  16.601  0.2528  0.1494  0.3321
   92MPD2    H7 1443   0.653   2.566  16.666  1.3170  0.0221  0.1696
   93TMC2    C1 1444   1.948   2.387  14.046  0.7767 -0.9800 -0.0487
   93TMC2    C2 1445   1.889   2.499  14.098 -0.2287 -0.3358 -0.1466
   93TMC2    C3 1446   1.941   2.615  14.057  0.0829 -0.3010  0.3051
   93TMC2    C4 1447   2.065   2.390  13.971  0.3921 -0.3211 -0.5120
   93TMC2    C5 1448   2.103   2.504  13.922  0.6498 -0.6758  0.2431
   93TMC2    C6 1449   2.041   2.624  13.959 -0.5517  0.0784 -0.6074
   93TMC2     C 1450   1.906   2.257  14.085  0.1410 -0.5014 -0.5513
   93TMC2     O 1451   1.990   2.169  14.103 -0.5276  0.8299  0.2836
   93TMC2     H 1452   1.806   2.499  14.167 -0.7914 -2.9819 -0.8170
   93TMC2    H1 1453   2.117   2.299  13.944 -0.5261 -0.8123 -0.6427
   93TMC2    H2 1454   2.072   2.723  13.927  0.9126 -0.1630  0.0412
   93TMC2    C7 1455   2.241   2.508  13.875 -0.6170  0.1216  0.1016
   93TMC2    C8 1456   1.857   2.729  14.066  0.8529  0.1194  0.0823
   93TMC2    O1 1457   2.299   2.402  13.900 -0.2307 -0.0189 -0.4735
   93TMC2    O2 1458   1.852   2.811  13.974 -0.1664  0.3788  0.3672
   93TMC2    O5 1459   1.834   2.739  14.196  0.1220 -0.1843  0.0015
   93TMC2    H5 1460   1.874   2.665  14.246 -2.1716 -0.1540  1.8647
   94MPD2     C 1461   1.767   1.997  14.155  0.0230 -0.2623  0.0703
   94MPD2    C1 1462   1.705   2.119  14.114  0.4360 -0.3650 -0.2863
   94MPD2    C2 1463   1.573   2.118  14.080 -0.4504  0.3892  0.1218
   94MPD2    C3 1464   1.493   2.006  14.081  0.3923  0.0519  0.4343
   94MPD2    C4 1465   1.553   1.885  14.111 -0.0356 -0.3705 -0.5710
   94MPD2    C5 1466   1.683   1.884  14.154 -0.0231 -0.2852 -0.1228
   94MPD2     H 1467   1.531   2.215  14.057 -0.5208  0.8436  2.1489
   94MPD2    H1 1468   1.500   1.791  14.104 -1.4607  0.4352 -0.5720
   94MPD2    H2 1469   1.864   1.989  14.203  0.9969  0.9215 -1.7259
   94MPD2    H3 1470   1.730   1.791  14.187  1.8705  1.0345  0.8980
   94MPD2     N 1471   1.361   1.998  14.031 -0.2241 -0.1280  0.0399
   94MPD2    H5 1472   1.313   1.908  14.031 -0.7893  0.1802 -2.1006
   94MPD2    N1 1473   1.772   2.243  14.094  0.2670  0.1580 -0.0724
   94MPD2    H7 1474   1.724   2.325  14.058  0.9457  1.5496  2.1669
   95TMC2    C1 1475   2.255   4.240  16.376 -0.1722  0.0099  0.0038
   95TMC2    C2 1476   2.222   4.139  16.459  0.5860 -0.1026 -0.2551
   95TMC2    C3 1477   2.158   4.181  16.573 -0.4293  0.2744 -0.0875
   95TMC2    C4 1478   2.239   4.374  16.405  0.0336  0.0296  0.2530
   95TMC2    C5 1479   2.177   4.407  16.521 -0.3519 -0.6099 -0.6075
   95TMC2    C6 1480   2.136   4.313  16.609  0.0420  0.1081 -0.8519
   95TMC2     C 1481   2.352   4.214  16.273  0.0145 -0.1800  0.1095
   95TMC2     O 1482   2.413   4.309  16.233 -0.3728 -0.1018  0.4908
   95TMC2     H 1483   2.258   4.037  16.461  0.9580  0.0695  2.3923
   95TMC2    H1 1484   2.273   4.448  16.333 -0.6988 -1.6712 -1.8287
   95TMC2    H2 1485   2.084   4.347  16.698  0.3446 -1.2423 -0.1533
   95TMC2    C7 1486   2.147   4.550  16.552  0.6150 -1.0742 -0.0428
   95TMC2    C8 1487   2.106   4.079  16.669  0.3720 -0.0954 -0.1534
   95TMC2    O1 1488   2.049   4.572  16.624 -0.0246  0.2582  0.2166
   95TMC2    O2 1489   2.058   3.972  16.642  0.0849 -0.2335 -0.3488
   95TMC2    O5 1490   2.126   4.120  16.792  0.0897 -0.1926  0.5024
   95TMC2    H5 1491   2.189   4.194  16.807 -1.9385  1.5188  0.5750
   96MPD2     C 1492   2.535   3.966  15.867 -0.0485 -0.4658 -0.3382
   96MPD2    C1 1493   2.578   4.081  15.923  0.2855 -0.1040 -0.3522
   96MPD2    C2 1494   2.513   4.125  16.038 -0.5678 -0.0095 -0.4679
   96MPD2    C3 1495   2.410   4.052  16.098  0.3610 -0.8023  0.3060
   96MPD2    C4 1496   2.368   3.941  16.032  0.0078  0.3127  0.9059
   96MPD2    C5 1497   2.432   3.899  15.916 -0.4456  0.2279  0.0880
   96MPD2     H 1498   2.562   4.205  16.091  1.1207 -0.5804 -1.1763
   96MPD2    H1 1499   2.282   3.882  16.064  0.1179  0.1825  0.9597
   96MPD2    H2 1500   2.569   3.923  15.774 -0.7192 -0.6597 -0.4952
   96MPD2    H3 1501   2.386   3.813  15.869 -0.4250  0.9237 -1.2088
   96MPD2     N 1502   2.337   4.092  16.212  0.4949  0.7173 -1.0868
   96MPD2    H5 1503   2.259   4.032  16.241  1.9617 -0.4662  0.4391
   96MPD2    N1 1504   2.673   4.150  15.851 -0.0265  0.4931  0.1722
   96MPD2    H7 1505   2.700   4.115  15.760  2.9476 -0.2443  1.3125
   97TMC2    C1 1506   4.297   3.097   0.379 -0.2541  0.9181 -0.2052
   97TMC2    C2 1507   4.239   3.170   0.274  0.1262 -0.2085 -0.3389
   97TMC2    C3 1508   4.320   3.184   0.158  0.2233 -0.7985 -0.2590
   97TMC2    C4 1509   4.430   3.050   0.363 -0.2703 -0.0879  0.0631
   97TMC2    C5 1510   4.509   3.100   0.264  0.5024 -0.7212  0.1545
   97TMC2    C6 1511   4.454   3.153   0.152  0.0918 -0.6109 -0.3439
   97TMC2     C 1512   4.280   3.158   0.509 -0.0485  0.1174 -0.2832
   97TMC2     O 1513   4.376   3.222   0.553 -0.4648 -0.0447  0.3950
   97TMC2     H 1514   4.140   3.214   0.267  0.3911  0.8424  2.4922
   97TMC2    H1 1515   4.480   3.024   0.456  2.2019  0.8726 -1.0014
   97TMC2    H2 1516   4.518   3.215   0.091 -0.5507 -1.0280 -1.4392
   97TMC2    C7 1517   4.633   3.145   0.307 -0.2903  0.1650  0.8649
   97TMC2    C8 1518   4.281   3.271   0.046  0.0344  0.9784 -0.3922
   97TMC2    O1 1519   4.718   3.135   0.224  0.0248 -0.4304 -0.0582
   97TMC2    O2 1520   4.268   3.387   0.075 -0.0279  0.5730  0.3982
   97TMC2    O5 1521   4.181   3.204  17.729 -0.0869 -0.0941  0.1209
   97TMC2    H5 1522   4.193   3.111  17.701  0.9626 -0.6351  2.4148
   98MPD2     C 1523   4.014   3.239   0.937 -0.1769  0.0185  0.4831
   98MPD2    C1 1524   4.147   3.260   0.915 -0.2212  0.2654  0.2968
   98MPD2    C2 1525   4.197   3.227   0.787  0.2134 -0.4691 -0.1777
   98MPD2    C3 1526   4.114   3.169   0.692  0.3047  0.3807  0.4448
   98MPD2    C4 1527   3.981   3.154   0.715  0.5050  0.0681 -0.2298
   98MPD2    C5 1528   3.927   3.195   0.835 -0.0900 -0.1524  0.1313
   98MPD2     H 1529   4.303   3.218   0.768  0.2668  0.7228 -0.4017
   98MPD2    H1 1530   3.915   3.109   0.642  0.9711  0.5452 -0.9549
   98MPD2    H2 1531   3.965   3.273   1.027  0.1809 -0.2373  0.7737
   98MPD2    H3 1532   3.821   3.179   0.851 -0.4228  2.6057  0.6707
   98MPD2     N 1533   4.159   3.120   0.566  0.0210 -0.1321  0.0152
   98MPD2    H5 1534   4.100   3.061   0.507 -0.1937 -1.5305  1.6075
   98MPD2    N1 1535   4.229   3.300   1.025  0.0546 -0.0328 -0.1498
   98MPD2    H7 1536   4.179   3.317   1.112 -0.4824  0.3178 -0.5253
   99TMC2    C1 1537   3.489   4.677   2.350 -0.0217  0.3945 -0.8776
   99TMC2    C2 1538   3.481   4.708   2.485 -0.2670 -0.6668  0.1215
   99TMC2    C3 1539   3.369   0.026   2.537 -1.2872  0.0041  0.6364
   99TMC2    C4 1540   3.381   4.699   2.268 -0.1595  0.9203 -0.0071
   99TMC2    C5 1541   3.261   0.012   2.328 -0.6908  0.5434  0.5345
   99TMC2    C6 1542   3.255   0.043   2.461  0.2451 -0.0289  0.6551
   99TMC2     C 1543   3.585   4.582   2.301  0.8042 -0.9853 -0.4863
   99TMC2     O 1544   3.695   4.593   2.356  0.5941  0.3513 -0.8625
   99TMC2     H 1545   3.561   4.691   2.556 -0.1868  1.3878  0.4923
   99TMC2    H1 1546   3.381   4.673   2.163 -1.2740 -0.9036  0.4326
   99TMC2    H2 1547   3.161   0.080   2.498 -0.0936  0.6515 -0.8903
   99TMC2    C7 1548   3.184   0.089   2.231  0.1192  0.1524  0.8872
   99TMC2    C8 1549   3.352   0.016   2.681  0.1488 -0.1066 -1.2253
   99TMC2    O1 1550   3.139   0.197   2.263 -0.0426 -0.4525 -0.1632
   99TMC2    O2 1551   3.249   0.070   2.721 -0.4885  0.1180  0.5243
   99TMC2    O5 1552   3.387   4.637   2.734 -0.4887  0.0753 -0.2991
   99TMC2    H5 1553   3.412   4.570   2.668 -0.2993  0.2723 -0.4281
  100MPD2     C 1554   3.769   4.394   2.149  0.4468  1.1328 -0.4652
  100MPD2    C1 1555   3.629   4.392   2.151 -0.5797  0.0216 -0.3379
  100MPD2    C2 1556   3.563   4.296   2.076  0.6396  0.6772  0.5019
  100MPD2    C3 1557   3.635   4.208   1.997 -0.1423  0.3515 -0.2376
  100MPD2    C4 1558   3.775   4.206   1.989  0.0056  0.1413  0.2988
  100MPD2    C5 1559   3.841   4.301   2.068  0.0699 -0.8091 -0.1622
  100MPD2     H 1560   3.454   4.300   2.075  0.7140  2.4143 -1.0141
  100MPD2    H1 1561   3.821   4.129   1.929  1.1244  1.8264 -1.0218
  100MPD2    H2 1562   3.835   4.464   2.199 -2.0317  2.5413  0.8503
  100MPD2    H3 1563   3.948   4.312   2.054  0.3778 -1.2857  1.8995
  100MPD2     N 1564   3.558   4.123   1.925 -0.1213 -0.0422 -0.5491
  100MPD2    H5 1565   3.460   4.120   1.952 -0.5214 -1.0908 -2.1004
  100MPD2    N1 1566   3.542   4.490   2.209  0.2779 -0.4394 -0.1222
  100MPD2    H7 1567   3.446   4.499   2.177  0.6720  1.2052 -0.8705
  101TMC2    C1 1568   3.777   0.210  13.548 -0.4021  0.5615 -0.2510
  101TMC2    C2 1569   3.693   0.307  13.591 -0.1819 -0.7056  0.3020
  101TMC2    C3 1570   3.732   0.436  13.588 -0.3768 -0.0643 -0.3964
  101TMC2    C4 1571   3.902   0.239  13.509  0.0305 -0.8024 -0.0700
  101TMC2    C5 1572   3.938   0.371  13.513 -0.3738 -0.2426 -0.2544
  101TMC2    C6 1573   3.853   0.476  13.545  0.4684  0.4809 -0.0603
  101TMC2     C 1574   3.717   0.077  13.526 -0.2147  0.5218 -0.1491
  101TMC2     O 1575   3.596   0.061  13.559 -0.0461  0.0860  0.0188
  101TMC2     H 1576   3.590   0.280  13.613 -0.4670 -0.4514 -0.7395
  101TMC2    H1 1577   3.973   0.168  13.468  0.1754 -0.3009 -0.6871
  101TMC2    H2 1578   3.896   0.575  13.555 -1.8163  1.4944 -0.3457
  101TMC2    C7 1579   4.059   0.398  13.447  0.0148 -0.0245 -0.0086
  101TMC2    C8 1580   3.634   0.545  13.632  0.0342 -0.4109  0.2398
  101TMC2    O1 1581   4.073   0.484  13.363  0.1550 -0.3031 -0.0681
  101TMC2    O2 1582   3.673   0.656  13.672 -0.2938 -0.3628  0.0516
  101TMC2    O5 1583   3.516   0.516  13.571  0.4702 -0.4728 -0.1968
  101TMC2    H5 1584   3.518   0.426  13.530 -1.2358 -0.9338  0.7147
  102MPD2     C 1585   3.858   4.550  13.315  0.3858 -0.0628  0.1172
  102MPD2    C1 1586   3.776   4.602  13.414 -0.0076  0.4206  0.1505
  102MPD2    C2 1587   3.673   4.529  13.474 -0.3064 -0.3199  0.0186
  102MPD2    C3 1588   3.641   4.402  13.424 -0.4582  0.1257 -0.1512
  102MPD2    C4 1589   3.718   4.356  13.319  0.1875  0.1358  0.5631
  102MPD2    C5 1590   3.822   4.424  13.267 -0.8320  0.0738  0.8626
  102MPD2     H 1591   3.609   4.565  13.554 -0.2906 -1.6767  0.6340
  102MPD2    H1 1592   3.703   4.259  13.272 -0.3014  1.1060 -1.2837
  102MPD2    H2 1593   3.943   4.604  13.275 -0.0170  0.9108  0.5969
  102MPD2    H3 1594   3.880   4.399  13.179 -1.6392 -2.3806  1.0496
  102MPD2     N 1595   3.528   4.333  13.470  0.2262  0.0748 -0.4426
  102MPD2    H5 1596   3.491   4.373  13.555  1.5134 -1.4142  0.8244
  102MPD2    N1 1597   3.798   4.733  13.456  0.1423 -1.0016  0.9770
  102MPD2    H7 1598   3.876   0.036  13.405  0.4611  0.7350  2.8324
  103TMC2    C1 1599   2.460   4.733  12.672  0.1268  0.1190 -0.0739
  103TMC2    C2 1600   2.451   0.088  12.559 -0.2507  0.5461 -0.0593
  103TMC2    C3 1601   2.392   0.207  12.588 -0.3334 -0.2661  0.0466
  103TMC2    C4 1602   2.444   0.040  12.795 -0.7658 -0.3577  0.6845
  103TMC2    C5 1603   2.424   0.180  12.814 -0.6980  0.3082  0.7689
  103TMC2    C6 1604   2.386   0.263  12.711  0.6983  0.8424  0.6263
  103TMC2     C 1605   2.391   4.611  12.642  0.1496  0.3831  0.4696
  103TMC2     O 1606   2.272   4.603  12.680  0.0903 -0.1575  0.0435
  103TMC2     H 1607   2.463   0.053  12.458  2.0358  0.9516  0.0604
  103TMC2    H1 1608   2.441   4.706  12.875 -2.6781  0.1658  1.0701
  103TMC2    H2 1609   2.345   0.363  12.721  2.0364  1.3746  0.7531
  103TMC2    C7 1610   2.382   0.222  12.953 -0.0102 -0.5241 -0.3439
  103TMC2    C8 1611   2.315   0.265  12.481  0.3504  0.1177 -0.5407
  103TMC2    O1 1612   2.324   0.136  13.020  0.2287 -1.2622  0.3516
  103TMC2    O2 1613   2.359   0.230  12.371 -0.6153 -0.3272 -0.4717
  103TMC2    O5 1614   2.194   0.245  12.533 -0.4766  0.4550 -0.2069
  103TMC2    H5 1615   2.198   0.241  12.631  1.0560 -0.3317 -0.3117
  104MPD2     C 1616   2.474   4.434  12.333 -0.1835 -0.5169 -0.4062
  104MPD2    C1 1617   2.392   4.483  12.433  0.7619 -0.2416 -0.4895
  104MPD2    C2 1618   2.256   4.461  12.433  0.1595  0.0483  0.0567
  104MPD2    C3 1619   2.202   4.402  12.327  0.0471  0.5014 -0.0473
  104MPD2    C4 1620   2.283   4.356  12.222  0.3403  0.4975 -0.4557
  104MPD2    C5 1621   2.418   4.373  12.222  0.3033 -0.0816 -0.4165
  104MPD2     H 1622   2.188   4.500  12.508 -0.7815 -1.0155 -0.2273
  104MPD2    H1 1623   2.240   4.303  12.139  1.2862 -0.0438 -0.5928
  104MPD2    H2 1624   2.581   4.450  12.340 -0.3115 -0.1878  0.8146
  104MPD2    H3 1625   2.476   4.334  12.139  0.0452  0.5286 -0.8852
  104MPD2     N 1626   2.060   4.380  12.326  0.4714 -0.1350 -0.7204
  104MPD2    H5 1627   2.003   4.417  12.401  0.0483  0.1497 -1.1815
  104MPD2    N1 1628   2.453   4.551  12.535  0.9028 -0.0888 -0.1578
  104MPD2    H7 1629   2.553   4.572  12.534  0.6702  0.9439 -2.0020
  105TMC2    C1 1630   3.300   4.160   0.237 -0.2360  0.1137  0.2417
  105TMC2    C2 1631   3.317   4.282   0.176 -0.5043 -0.1753 -0.1196
  105TMC2    C3 1632   3.278   4.394   0.235 -0.4934  0.4553  0.5610
  105TMC2    C4 1633   3.247   4.155   0.361  0.2826  0.7302  0.5450
  105TMC2    C5 1634   3.220   4.275   0.426 -0.4361 -0.0756  0.1338
  105TMC2    C6 1635   3.225   4.396   0.364 -1.1293  0.4789 -0.1965
  105TMC2     C 1636   3.346   4.040   0.181  0.0648  0.0663 -0.2591
  105TMC2     O 1637   3.287   3.935   0.191 -0.6431  0.2365 -0.0804
  105TMC2     H 1638   3.350   4.302   0.075 -1.5207  1.9113 -0.0405
  105TMC2    H1 1639   3.225   4.061   0.408 -1.8979 -0.2605 -2.4480
  105TMC2    H2 1640   3.185   4.489   0.404  1.4927  2.1467 -1.4064
  105TMC2    C7 1641   3.209   4.261   0.574  0.1625  0.1149 -0.4977
  105TMC2    C8 1642   3.279   4.519   0.160 -0.4008  0.7374  0.9374
  105TMC2    O1 1643   3.226   4.150   0.619  0.1195  0.3286 -0.3959
  105TMC2    O2 1644   3.264   4.519   0.037  0.0772  0.4221  0.2112
  105TMC2    O5 1645   3.333   4.619   0.237  0.4312 -0.2775 -0.4827
  105TMC2    H5 1646   3.349   4.603   0.333 -0.5240  3.1571  0.2380
  106MPD2     C 1647   3.515   3.959  17.460  0.1799 -0.8307 -0.5585
  106MPD2    C1 1648   3.551   4.086  17.500  1.0401 -0.3570  0.2701
  106MPD2    C2 1649   3.530   4.119  17.629 -0.4210 -0.0618 -0.2485
  106MPD2    C3 1650   3.476   4.027  17.721 -0.4391 -0.1944  0.2164
  106MPD2    C4 1651   3.452   3.898  17.684 -0.1391 -0.9098  0.6754
  106MPD2    C5 1652   3.472   3.863  17.557  0.6428 -0.0204  0.1641
  106MPD2     H 1653   3.554   4.220  17.659 -2.4346  0.4197 -0.2173
  106MPD2    H1 1654   3.427   3.819   0.003  0.2472 -2.7005 -1.2031
  106MPD2    H2 1655   3.540   3.926  17.360 -3.5870  0.1498 -1.8225
  106MPD2    H3 1656   3.462   3.759  17.530 -2.2707 -0.2233  2.0330
  106MPD2     N 1657   3.451   4.088   0.097  0.6548  0.9842 -0.2616
  106MPD2    H5 1658   3.488   4.181   0.113  0.2203  0.7655  1.9517
  106MPD2    N1 1659   3.590   4.185  17.408 -0.2000 -0.1249  0.0843
  106MPD2    H7 1660   3.618   4.272  17.451 -1.1314 -0.5674  1.5900
  107TMC2    C1 1661   3.872   4.235  11.648  0.0643 -0.3657  0.4533
  107TMC2    C2 1662   3.870   4.363  11.614 -0.5299 -0.5526 -0.6533
  107TMC2    C3 1663   3.889   4.401  11.485  0.1157 -0.6476 -0.1363
  107TMC2    C4 1664   3.895   4.141  11.551 -0.5716  0.1743 -0.9234
  107TMC2    C5 1665   3.925   4.183  11.421 -0.4760  0.3325 -0.0664
  107TMC2    C6 1666   3.924   4.314  11.386  0.2958  0.0216  0.7004
  107TMC2     C 1667   3.750   4.191  11.722  0.5909  0.2428  0.1749
  107TMC2     O 1668   3.739   4.075  11.757  0.1608 -0.2164  0.3991
  107TMC2     H 1669   3.862   4.438  11.692 -1.0205  0.2610 -1.4778
  107TMC2    H1 1670   3.890   4.034  11.568 -0.5762  0.4631  0.9156
  107TMC2    H2 1671   3.935   4.341  11.281  0.0535  1.6898  1.1010
  107TMC2    C7 1672   3.911   4.095  11.305  0.8859  0.3882  0.0528
  107TMC2    C8 1673   3.848   4.534  11.441  0.1261  0.1455  0.3813
  107TMC2    O1 1674   3.907   4.146  11.195 -0.4445  0.1430 -0.1443
  107TMC2    O2 1675   3.849   4.634  11.514  0.4769 -0.1548  0.1049
  107TMC2    O5 1676   3.752   4.498  11.359 -0.5963 -0.2555 -0.5832
  107TMC2    H5 1677   3.732   4.403  11.345 -3.3304  0.0584  1.1869
  108MPD2     C 1678   3.422   4.354  11.679 -0.3671 -0.4801  0.0085
  108MPD2    C1 1679   3.509   4.266  11.732  0.3998 -0.4942 -0.5122
  108MPD2    C2 1680   3.467   4.173  11.832  0.2996  0.6776 -0.1131
  108MPD2    C3 1681   3.335   4.148  11.849 -0.5410 -0.2871 -0.0681
  108MPD2    C4 1682   3.245   4.228  11.774  0.1385  0.7964 -0.3292
  108MPD2    C5 1683   3.289   4.333  11.701  0.6656  0.4812 -0.4924
  108MPD2     H 1684   3.536   4.102  11.877 -0.9085  0.7112  1.7856
  108MPD2    H1 1685   3.140   4.209  11.791 -0.2292  0.8102 -2.5560
  108MPD2    H2 1686   3.466   4.437  11.624  1.6237 -1.7770 -0.3738
  108MPD2    H3 1687   3.226   4.398  11.642 -0.3868 -1.0727 -1.0917
  108MPD2     N 1688   3.279   4.052  11.933  0.1817 -0.7503 -0.1656
  108MPD2    H5 1689   3.179   4.060  11.943  0.2322  0.4541 -0.5970
  108MPD2    N1 1690   3.646   4.284  11.693 -0.1339 -0.6110  0.0889
  108MPD2    H7 1691   3.671   4.363  11.635  0.9312 -0.3911  0.8422
  109TMC2    C1 1692   3.786   2.625   1.675  0.0509  1.1784  0.5250
  109TMC2    C2 1693   3.775   2.567   1.798 -0.9453 -0.0956  0.1055
  109TMC2    C3 1694   3.822   2.634   1.903 -0.3545 -0.6362 -0.5846
  109TMC2    C4 1695   3.822   2.755   1.650 -0.5372  0.4057  0.5746
  109TMC2    C5 1696   3.865   2.821   1.760  0.2297  0.2264 -0.3792
  109TMC2    C6 1697   3.868   2.762   1.885  0.2332  0.0404  0.5300
  109TMC2     C 1698   3.754   2.556   1.558 -0.0571 -0.6497  0.0154
  109TMC2     O 1699   3.799   2.617   1.459  0.1909 -0.2172  0.2257
  109TMC2     H 1700   3.771   2.460   1.814 -1.8001  0.0681  0.9927
  109TMC2    H1 1701   3.808   2.804   1.554 -1.5830 -0.9282  0.0420
  109TMC2    H2 1702   3.922   2.795   1.973  0.1350  1.8913 -0.1066
  109TMC2    C7 1703   3.941   2.942   1.740  0.2807  0.6508  0.2519
  109TMC2    C8 1704   3.859   2.554   2.020 -0.6986  0.2873 -0.3623
  109TMC2    O1 1705   3.956   2.970   1.618  0.3728 -0.2969 -0.2212
  109TMC2    O2 1706   3.969   2.526   2.057 -0.4523 -0.0453  0.1410
  109TMC2    O5 1707   3.746   2.488   2.064  1.0104 -0.7860  0.7488
  109TMC2    H5 1708   3.669   2.540   2.033  2.0907 -0.0692 -0.7203
  110MPD2     C 1709   3.551   2.170   1.289  0.4649 -0.2415 -0.5018
  110MPD2    C1 1710   3.542   2.142   1.426 -0.9351  1.1163 -0.3497
  110MPD2    C2 1711   3.613   2.216   1.518  0.0414  0.3750 -0.0427
  110MPD2    C3 1712   3.671   2.338   1.476 -0.2144 -0.1068  0.3956
  110MPD2    C4 1713   3.673   2.369   1.343  0.6458  0.2354 -0.3367
  110MPD2    C5 1714   3.633   2.280   1.247  0.3520 -0.5396  0.5002
  110MPD2     H 1715   3.621   2.187   1.622  2.8867  0.6886 -0.1953
  110MPD2    H1 1716   3.718   2.463   1.314 -1.0370  0.8102 -1.0783
  110MPD2    H2 1717   3.500   2.104   1.219  2.0315 -1.5754 -0.3935
  110MPD2    H3 1718   3.644   2.316   1.145  0.3575  0.5850  0.8911
  110MPD2     N 1719   3.704   2.430   1.577  0.4770  0.9761  0.1015
  110MPD2    H5 1720   3.684   2.406   1.674 -1.0098 -0.3748 -0.5239
  110MPD2    N1 1721   3.454   2.042   1.462  0.0324 -0.2897  0.9052
  110MPD2    H7 1722   3.400   2.000   1.387  1.0874  0.4748 -0.2834
  111TMC2    C1 1723   3.692   0.850  12.252  0.0827 -0.5708 -0.4779
  111TMC2    C2 1724   3.682   0.984  12.282 -0.1467 -0.4151  0.1761
  111TMC2    C3 1725   3.775   1.053  12.350 -0.2537  0.3178 -0.1973
  111TMC2    C4 1726   3.811   0.787  12.286 -0.1617 -0.3843  0.7843
  111TMC2    C5 1727   3.909   0.862  12.355 -0.2394 -0.9175 -0.6690
  111TMC2    C6 1728   3.894   0.997  12.385 -0.3154  0.5125  0.3358
  111TMC2     C 1729   3.630   0.809  12.124 -0.3322 -0.1665  0.2632
  111TMC2     O 1730   3.601   0.905  12.048 -0.2740  0.1711 -0.0625
  111TMC2     H 1731   3.593   1.040  12.255  1.5751  2.0367 -0.4766
  111TMC2    H1 1732   3.817   0.681  12.263  1.3464 -0.0471 -0.3940
  111TMC2    H2 1733   3.963   1.062  12.439  0.1679  1.3303 -1.2607
  111TMC2    C7 1734   4.033   0.803  12.382  1.0971 -0.4820  0.0999
  111TMC2    C8 1735   3.752   1.187  12.373  0.1031 -0.0679 -0.1381
  111TMC2    O1 1736   4.076   0.824  12.495 -0.0742 -0.1080 -0.4503
  111TMC2    O2 1737   3.723   1.228  12.482  0.3729 -0.6416  0.4144
  111TMC2    O5 1738   3.780   1.256  12.259 -0.2846 -0.0576  0.1273
  111TMC2    H5 1739   3.815   1.200  12.187  0.3525 -1.5050  1.5675
  112MPD2     C 1740   3.364   0.486  11.833  0.6409  0.2685  0.0268
  112MPD2    C1 1741   3.446   0.590  11.793 -0.3494  0.2532  0.3049
  112MPD2    C2 1742   3.527   0.648  11.885 -0.4290  0.1694  0.4035
  112MPD2    C3 1743   3.521   0.618  12.018  0.3327  0.0625  0.0790
  112MPD2    C4 1744   3.452   0.510  12.056 -0.1437  0.3924  0.6597
  112MPD2    C5 1745   3.371   0.446  11.963 -0.6143  0.5083  0.3232
  112MPD2     H 1746   3.598   0.726  11.859  2.4656 -2.0688  1.5742
  112MPD2    H1 1747   3.445   0.478  12.159  0.6025 -0.1754  0.5372
  112MPD2    H2 1748   3.290   0.432  11.774  0.5391  3.4964 -2.8173
  112MPD2    H3 1749   3.292   0.382  11.998  0.4926 -0.2022  1.5180
  112MPD2     N 1750   3.587   0.680  12.123 -0.5165  0.2531 -0.1341
  112MPD2    H5 1751   3.596   0.640  12.216 -0.9076  1.8226  0.5807
  112MPD2    N1 1752   3.459   0.646  11.656 -0.4238  0.0051 -0.0334
  112MPD2    H7 1753   3.533   0.714  11.644  0.3498 -0.5656  1.4825
  113TMC2    C1 1754   2.121   4.299   0.469  0.2157 -0.2318  0.6452
  113TMC2    C2 1755   2.086   4.413   0.410  0.0566 -0.8187  0.1936
  113TMC2    C3 1756   1.953   4.427   0.386  0.2805 -0.2184  0.4026
  113TMC2    C4 1757   2.030   4.208   0.521  0.0286 -0.0149  0.1230
  113TMC2    C5 1758   1.899   4.219   0.487  0.5543  0.8665  0.0488
  113TMC2    C6 1759   1.858   4.328   0.405 -0.1569  0.1482 -0.0254
  113TMC2     C 1760   2.257   4.292   0.522  0.6592 -0.0184 -0.2724
  113TMC2     O 1761   2.316   4.396   0.533  0.1895  0.1632 -0.2490
  113TMC2     H 1762   2.160   4.480   0.368 -0.9252 -0.1202 -0.4147
  113TMC2    H1 1763   2.067   4.127   0.584  0.0155  0.0534  0.2186
  113TMC2    H2 1764   1.757   4.327   0.366 -0.2608  1.0103  0.2316
  113TMC2    C7 1765   1.808   4.112   0.523  0.1481  0.9489  0.2367
  113TMC2    C8 1766   1.928   4.523   0.278  0.4555  0.2027  0.0730
  113TMC2    O1 1767   1.711   4.098   0.455 -0.5778  0.3227  0.0231
  113TMC2    O2 1768   1.968   4.636   0.277  0.2983 -0.3686  1.1059
  113TMC2    O5 1769   1.852   4.454   0.187 -0.0904  0.2721  0.3481
  113TMC2    H5 1770   1.853   4.358   0.206  1.2571 -0.2460 -2.3156
  114MPD2     C 1771   2.694   4.033   0.589  0.7896 -0.9902  0.2427
  114MPD2    C1 1772   2.643   4.152   0.638  0.1314 -0.2718 -0.0373
  114MPD2    C2 1773   2.521   4.199   0.612  0.2520  0.5588 -0.4821
  114MPD2    C3 1774   2.438   4.126   0.530 -0.8777 -0.0488  0.0981
  114MPD2    C4 1775   2.490   4.008   0.481 -0.8297  0.3130  0.2018
  114MPD2    C5 1776   2.612   3.962   0.512  0.2461  0.4097  0.0099
  114MPD2     H 1777   2.494   4.286   0.670  1.6300 -1.8505  3.8173
  114MPD2    H1 1778   2.431   3.954   0.408 -0.0565 -1.3121  0.7553
  114MPD2    H2 1779   2.792   3.992   0.610  1.2682  1.4430  2.7214
  114MPD2    H3 1780   2.642   3.867   0.469 -2.5091 -0.6283  0.3241
  114MPD2     N 1781   2.304   4.161   0.504 -0.0462 -0.6503  0.8658
  114MPD2    H5 1782   2.241   4.090   0.468 -1.7835  2.3964 -2.1374
  114MPD2    N1 1783   2.718   4.230   0.729 -0.0930 -0.2537 -0.0539
  114MPD2    H7 1784   2.684   4.326   0.730  4.2320  1.2753 -1.3023
  115TMC2    C1 1785   3.054   1.765   0.197 -0.2118  0.0387 -0.4814
  115TMC2    C2 1786   3.176   1.769   0.137 -0.5941 -0.5445 -0.7443
  115TMC2    C3 1787   3.242   1.885   0.158 -0.0063 -0.4802 -0.1888
  115TMC2    C4 1788   2.982   1.870   0.246  0.8260  0.5877  0.5933
  115TMC2    C5 1789   3.055   1.987   0.254  0.3711  0.0060  0.3508
  115TMC2    C6 1790   3.186   1.991   0.220  0.3381 -0.9228  0.0675
  115TMC2     C 1791   2.988   1.638   0.192 -0.6470  0.3239 -0.2506
  115TMC2     O 1792   3.032   1.549   0.118 -0.0145  0.1592 -0.7828
  115TMC2     H 1793   3.232   1.683   0.101  0.9469  0.9162 -1.8842
  115TMC2    H1 1794   2.894   1.871   0.308  1.0495 -0.8109  0.9240
  115TMC2    H2 1795   3.256   2.072   0.234 -1.2967  0.6271 -0.8136
  115TMC2    C7 1796   2.962   2.101   0.221 -0.6320 -0.8055  0.4378
  115TMC2    C8 1797   3.383   1.875   0.125 -0.2128 -0.2779 -0.3192
  115TMC2    O1 1798   2.848   2.089   0.268 -0.3966  0.5377  0.3424
  115TMC2    O2 1799   3.425   1.778   0.068 -0.1081  0.7071 -0.7279
  115TMC2    O5 1800   3.458   1.929   0.221  0.3683 -0.0954  0.7419
  115TMC2    H5 1801   3.417   1.986   0.290 -0.9555  1.2559 -1.1613
  116MPD2     C 1802   2.569   1.361   0.273  0.0685 -0.4469  0.1695
  116MPD2    C1 1803   2.667   1.346   0.176  0.3210 -0.1167  0.9692
  116MPD2    C2 1804   2.779   1.428   0.184  0.2703 -0.4822 -0.4690
  116MPD2    C3 1805   2.784   1.534   0.277 -0.1693 -0.0912  0.6819
  116MPD2    C4 1806   2.685   1.553   0.366 -0.0844  0.4760  0.3041
  116MPD2    C5 1807   2.582   1.459   0.366 -0.3638  0.6370 -0.6538
  116MPD2     H 1808   2.857   1.408   0.113 -0.5411 -0.4194 -1.3729
  116MPD2    H1 1809   2.679   1.635   0.437 -0.4152 -0.6160  1.5470
  116MPD2    H2 1810   2.480   1.299   0.275 -0.2667 -0.0042 -0.9377
  116MPD2    H3 1811   2.500   1.468   0.437  0.0553 -2.3700  0.2385
  116MPD2     N 1812   2.880   1.634   0.276  0.2061 -0.0496  0.5441
  116MPD2    H5 1813   2.866   1.709   0.344  2.4952 -0.1387  1.0879
  116MPD2    N1 1814   2.649   1.251   0.072  0.2867  0.5883 -0.5494
  116MPD2    H7 1815   2.555   1.216   0.057  0.3301 -0.0700  0.6806
  117TMC2    C1 1816   1.300   2.664  13.955  0.2151 -0.4787  0.4478
  117TMC2    C2 1817   1.346   2.571  14.049  0.0087 -0.2645 -0.8827
  117TMC2    C3 1818   1.429   2.626  14.142 -0.2341 -0.2977 -0.2854
  117TMC2    C4 1819   1.318   2.803  13.959 -0.4437  0.1083 -0.2230
  117TMC2    C5 1820   1.402   2.850  14.060  0.4099  0.0143  0.0093
  117TMC2    C6 1821   1.459   2.759  14.148  0.2507 -0.2269  0.1223
  117TMC2     C 1822   1.177   2.617  13.897 -0.1201 -0.2992  0.6384
  117TMC2     O 1823   1.158   2.500  13.875  0.5408  0.5926 -0.3634
  117TMC2     H 1824   1.341   2.463  14.047  0.6830 -0.3101  0.2783
  117TMC2    H1 1825   1.273   2.878  13.894 -0.9714  0.0230  0.0419
  117TMC2    H2 1826   1.521   2.797  14.228 -2.1853 -0.4737  2.1152
  117TMC2    C7 1827   1.420   2.989  14.085  0.4705  0.5315 -0.3985
  117TMC2    C8 1828   1.501   2.529  14.223  0.6970  0.5142  0.5044
  117TMC2    O1 1829   1.525   3.027  14.135  0.1682  0.5709  0.3424
  117TMC2    O2 1830   1.618   2.543  14.259  0.0311 -0.1291 -0.4056
  117TMC2    O5 1831   1.412   2.450  14.285 -0.1673 -0.7181  0.3515
  117TMC2    H5 1832   1.318   2.466  14.260 -1.0365 -0.8278  3.5241
  118MPD2     C 1833   1.159   3.252  14.080 -0.1034  0.2590 -0.6911
  118MPD2    C1 1834   1.290   3.199  14.082  0.7207 -0.1815  0.0435
  118MPD2    C2 1835   1.397   3.295  14.080 -0.8306  0.2114 -0.1539
  118MPD2    C3 1836   1.364   3.434  14.073 -0.1556 -0.6622 -0.0977
  118MPD2    C4 1837   1.234   3.476  14.076 -0.4533 -0.9029 -0.0415
  118MPD2    C5 1838   1.136   3.387  14.081  0.4621  0.4456 -0.5602
  118MPD2     H 1839   1.504   3.278  14.079 -1.2634 -2.4450 -0.9991
  118MPD2    H1 1840   1.204   3.580  14.086 -0.0017 -0.8644  0.8838
  118MPD2    H2 1841   1.077   3.181  14.077 -1.8782  2.2567  1.0836
  118MPD2    H3 1842   1.036   3.427  14.088  0.5714  0.3629  1.6256
  118MPD2     N 1843   1.463   3.531  14.067 -0.2959 -0.8278  0.0196
  118MPD2    H5 1844   1.421   3.624  14.065  1.4045 -0.0349  0.5345
  118MPD2    N1 1845   1.305   3.059  14.078  0.3719 -0.0789  0.1834
  118MPD2    H7 1846   1.216   3.011  14.086 -0.3444  1.3027  0.5089
  119TMC2    C1 1847   4.265   3.790  12.956 -0.0428  0.3557  0.1646
  119TMC2    C2 1848   4.338   3.714  12.865 -0.2465  0.3477  0.2347
  119TMC2    C3 1849   4.299   3.585  12.849  0.2789 -0.4206  0.5379
  119TMC2    C4 1850   4.158   3.738  13.034 -0.0270  0.5417 -0.0578
  119TMC2    C5 1851   4.132   3.601  13.010  0.0768  0.1429  0.5724
  119TMC2    C6 1852   4.201   3.527  12.917  0.1524 -0.0907  0.3969
  119TMC2     C 1853   4.294   3.925  13.004 -0.2256 -0.2563  0.8489
  119TMC2     O 1854   4.225   3.976  13.093 -0.7929 -0.3111  0.1019
  119TMC2     H 1855   4.418   3.754  12.804 -1.7028  2.0706 -0.5197
  119TMC2    H1 1856   4.105   3.787  13.115 -0.4374 -1.3094  0.7952
  119TMC2    H2 1857   4.185   3.422  12.896  1.0691 -0.0854 -0.3197
  119TMC2    C7 1858   3.996   3.569  13.044  0.2298 -0.2486 -0.6208
  119TMC2    C8 1859   4.371   3.504  12.757 -0.0004  0.9941 -0.2376
  119TMC2    O1 1860   3.935   3.513  12.955  0.0664  0.1406  0.0714
  119TMC2    O2 1861   4.420   3.542  12.656 -0.1195  0.2977 -0.8021
  119TMC2    O5 1862   4.445   3.441  12.844 -0.2697  0.1131  0.1377
  119TMC2    H5 1863   4.404   3.435  12.933 -1.2348  2.5204 -0.1258
  120MPD2     C 1864   4.689   4.225  13.156 -0.6572  0.0941  0.1078
  120MPD2    C1 1865   4.552   4.234  13.185 -0.3027  0.1415  0.7772
  120MPD2    C2 1866   4.463   4.159  13.117  1.1558  0.7037 -0.3140
  120MPD2    C3 1867   4.500   4.065  13.023  0.0643 -0.0663  0.0235
  120MPD2    C4 1868   4.632   4.068  12.981  0.0523 -0.2635  0.6124
  120MPD2    C5 1869   4.729   4.144  13.052  0.6095 -0.5861 -0.6072
  120MPD2     H 1870   4.357   4.161  13.140  0.9125 -3.3993 -1.1602
  120MPD2    H1 1871   4.664   4.000  12.902  1.2653  1.2945 -0.2347
  120MPD2    H2 1872   0.028   4.280  13.209 -0.4278 -1.4333  1.3653
  120MPD2    H3 1873   0.091   4.131  13.013  0.3571  0.2606 -1.5252
  120MPD2     N 1874   4.424   3.959  12.968  0.2870  0.0806  0.5987
  120MPD2    H5 1875   4.472   3.888  12.914  0.5879  0.5662  0.2334
  120MPD2    N1 1876   4.515   4.311  13.302  0.0119 -0.2876  0.3766
  120MPD2    H7 1877   4.588   4.340  13.366  0.2901  0.1267 -0.1270
  121TMC2    C1 1878   1.229   1.165  13.590 -0.5144  0.5934 -0.5386
  121TMC2    C2 1879   1.341   1.102  13.537 -0.1198  0.5129 -0.4649
  121TMC2    C3 1880   1.356   0.970  13.554  0.1906  0.8197 -0.1491
  121TMC2    C4 1881   1.156   1.098  13.680 -0.4635  0.3259 -0.3339
  121TMC2    C5 1882   1.172   0.963  13.693  0.1228 -0.2835  0.0412
  121TMC2    C6 1883   1.265   0.894  13.625 -0.2014 -0.2484  0.2264
  121TMC2     C 1884   1.194   1.309  13.569  0.1010  0.0659  0.2321
  121TMC2     O 1885   1.118   1.356  13.651 -0.4719  0.3599 -0.5476
  121TMC2     H 1886   1.422   1.151  13.485 -0.0409  1.6550  0.7401
  121TMC2    H1 1887   1.094   1.161  13.742  0.2049 -1.2400  1.9303
  121TMC2    H2 1888   1.274   0.787  13.635 -0.4229 -0.1013  1.9777
  121TMC2    C7 1889   1.076   0.896  13.778  0.1110 -0.5054  0.0358
  121TMC2    C8 1890   1.433   0.914  13.449  0.3231 -0.1140 -0.4020
  121TMC2    O1 1891   1.114   0.807  13.855  1.0351  0.0337  0.3788
  121TMC2    O2 1892   1.473   0.977  13.351  0.0589  0.2329 -0.5512
  121TMC2    O5 1893   1.474   0.791  13.492  0.2061 -0.4697  0.7721
  121TMC2    H5 1894   1.475   0.792  13.590  1.2250  0.4413  0.7529
  122MPD2     C 1895   1.204   1.591  13.505 -0.6361  0.4858 -0.0961
  122MPD2    C1 1896   1.243   1.493  13.420 -0.3985 -0.3341 -0.2649
  122MPD2    C2 1897   1.277   1.528  13.291  0.0574 -0.5661  0.3597
  122MPD2    C3 1898   1.244   1.654  13.240  0.1288  0.2334  0.4217
  122MPD2    C4 1899   1.201   1.750  13.324 -0.3375  0.1206 -0.1754
  122MPD2    C5 1900   1.180   1.715  13.451  0.5273  0.1722  0.3083
  122MPD2     H 1901   1.300   1.446  13.224  2.5213  0.9425 -0.6564
  122MPD2    H1 1902   1.206   1.856  13.304 -0.0218 -0.0036 -0.7613
  122MPD2    H2 1903   1.203   1.570  13.612 -3.6972  0.1953 -0.1691
  122MPD2    H3 1904   1.140   1.796  13.512 -0.1176  0.1380 -0.0701
  122MPD2     N 1905   1.243   1.687  13.106  0.5890 -0.6529  0.0030
  122MPD2    H5 1906   1.199   1.776  13.085 -1.1029 -1.4062  0.3212
  122MPD2    N1 1907   1.262   1.362  13.462 -0.0645  0.0369 -0.3586
  122MPD2    H7 1908   1.292   1.288  13.399 -0.5112  1.3376 -2.0764
  123TMC2    C1 1909   0.097   0.117  10.054  0.0242  0.1523  0.2938
  123TMC2    C2 1910   0.224   0.146  10.056 -0.3116 -0.3597 -0.6736
  123TMC2    C3 1911   0.320   0.053  10.079 -0.2776  0.0212 -0.0391
  123TMC2    C4 1912   0.055   4.728  10.077 -0.7402  1.1000  0.3207
  123TMC2    C5 1913   0.156   4.632  10.086  0.3082 -0.1977 -0.1887
  123TMC2    C6 1914   0.287   4.661  10.085 -0.0025 -0.0037  0.1382
  123TMC2     C 1915   4.734   0.214  10.004 -0.0477 -0.5919  0.1384
  123TMC2     O 1916   0.031   0.324   9.970 -0.1062  0.2103  0.2345
  123TMC2     H 1917   0.258   0.243  10.022  0.0488 -0.6917 -1.2653
  123TMC2    H1 1918   4.695   4.695  10.047  0.0002 -2.1236  1.3941
  123TMC2    H2 1919   0.362   4.584  10.100 -1.2336 -1.4060 -0.9458
  123TMC2    C7 1920   0.126   4.491  10.106 -0.0124  0.1744  0.2019
  123TMC2    C8 1921   0.439   0.082   9.999 -0.1232 -0.2453  0.9156
  123TMC2    O1 1922   0.203   4.407  10.074 -0.1612 -0.0196  0.0946
  123TMC2    O2 1923   0.435   0.154   9.903  0.2367  0.2800 -0.3942
  123TMC2    O5 1924   0.542   4.736  10.037 -0.4743 -0.0261 -0.0139
  123TMC2    H5 1925   0.531   4.680  10.117 -0.9348 -0.5121 -0.4283
  124MPD2     C 1926   4.253   0.388   9.961  0.0699 -0.3481  0.5019
  124MPD2    C1 1927   4.241   0.262  10.018 -0.6144 -0.8725  0.2585
  124MPD2    C2 1928   4.361   0.190  10.034 -0.1421 -0.3749  0.4776
  124MPD2    C3 1929   4.487   0.243   9.997 -0.0472 -0.5508  0.6150
  124MPD2    C4 1930   4.492   0.380   9.963 -0.6363  0.4065  0.1821
  124MPD2    C5 1931   4.377   0.452   9.940 -0.2592  0.0063  0.9707
  124MPD2     H 1932   4.357   0.087  10.065  2.4321 -0.5586  0.1809
  124MPD2    H1 1933   4.587   0.422   9.931  0.6816 -2.1379  0.7245
  124MPD2    H2 1934   4.162   0.434   9.925  0.9853  0.9985 -0.0619
  124MPD2    H3 1935   4.374   0.552   9.898  0.1329 -0.0699  0.7585
  124MPD2     N 1936   4.606   0.164  10.006  0.1702 -0.0088  0.3642
  124MPD2    H5 1937   4.598   0.068  10.039  0.4803 -0.5169 -1.0071
  124MPD2    N1 1938   4.118   0.200  10.021 -0.7379 -0.8646 -0.0811
  124MPD2    H7 1939   4.042   0.256   9.983  0.3660  0.4698 -0.3180
  125TMC2    C1 1940   0.545   2.056   9.673 -0.3255  0.1738 -0.3087
  125TMC2    C2 1941   0.463   2.022   9.567  0.2860 -0.4477 -0.1345
  125TMC2    C3 1942   0.501   2.047   9.443  0.2438  0.6711  0.6664
  125TMC2    C4 1943   0.665   2.105   9.648 -0.9040  0.2606  0.0647
  125TMC2    C5 1944   0.699   2.137   9.516  0.4043 -0.1481 -0.3961
  125TMC2    C6 1945   0.625   2.091   9.409 -0.3811  0.4928  0.1310
  125TMC2     C 1946   0.492   2.036   9.805 -0.3470 -0.4079  0.2592
  125TMC2     O 1947   0.373   2.005   9.801 -0.3058 -0.1320  0.3584
  125TMC2     H 1948   0.371   1.969   9.589  0.4522 -0.3288  0.8676
  125TMC2    H1 1949   0.732   2.143   9.725  0.2198  1.4629 -1.4992
  125TMC2    H2 1950   0.646   2.128   9.309 -2.5876 -1.1327 -0.9312
  125TMC2    C7 1951   0.842   2.165   9.497  0.2574  0.8644 -0.1183
  125TMC2    C8 1952   0.408   2.015   9.339  0.2643 -0.1840 -0.0406
  125TMC2    O1 1953   0.885   2.247   9.578 -0.2449  0.0986 -0.2562
  125TMC2    O2 1954   0.284   2.026   9.360 -0.5117  0.1388 -0.0033
  125TMC2    O5 1955   0.468   1.944   9.246  0.2274  0.0696  0.0852
  125TMC2    H5 1956   0.563   1.931   9.270  0.9005  3.1118 -0.9052
  126MPD1     C 1957   0.486   2.103  10.308 -0.3907 -0.1628 -0.1625
  126MPD1    C1 1958   0.618   2.121  10.268  0.6113 -0.4935  0.8907
  126MPD1    C2 1959   0.650   2.110  10.135  0.2877  0.6373  0.1331
  126MPD1    C3 1960   0.546   2.090  10.043 -0.7802 -0.8498  0.1312
  126MPD1    C4 1961   0.417   2.071  10.081 -0.3080 -0.0036 -0.5954
  126MPD1    C5 1962   0.387   2.084  10.213 -0.2817 -0.5149  0.0331
  126MPD1     H 1963   0.750   2.124  10.095  0.5553 -3.1620 -0.5519
  126MPD1    H1 1964   0.338   2.068  10.007 -0.5879  0.7766 -0.3344
  126MPD1    H2 1965   0.458   2.099  10.413 -0.6742 -1.0308 -0.2750
  126MPD1    H3 1966   0.284   2.060  10.241  0.1330 -0.7862  1.3487
  126MPD1     N 1967   0.574   2.086   9.904  0.0466  0.3823 -1.2502
  126MPD1    H5 1968   0.666   2.119   9.876  0.8058 -0.2938  0.4292
  126MPD1    N1 1969   0.717   2.132  10.372 -0.9949 -0.2295  0.0577
  126MPD1    H6 1970   0.801   2.169  10.327  0.5498 -2.2157  1.3101
  126MPD1    H7 1971   0.700   2.190  10.453 -0.4193  0.7934 -0.5619
  127TMC2    C1 1972   0.853   0.051  10.392  0.1826  0.0592 -0.4181
  127TMC2    C2 1973   0.909   0.013  10.508 -0.4432  0.5459  0.7913
  127TMC2    C3 1974   0.881   4.627  10.553 -0.2641  0.0734  0.1534
  127TMC2    C4 1975   0.769   4.713  10.315  0.2250  0.5736  0.0370
  127TMC2    C5 1976   0.743   4.584  10.366  0.2887 -0.4417  0.3274
  127TMC2    C6 1977   0.793   4.543  10.487  0.0850 -0.3231  0.7138
  127TMC2     C 1978   0.926   0.156  10.321 -0.4309  0.5473  0.0835
  127TMC2     O 1979   1.037   0.172  10.371  0.1751  0.1923 -0.2990
  127TMC2     H 1980   0.970   0.076  10.573  0.8065 -0.4404  0.5617
  127TMC2    H1 1981   0.743   0.002  10.213 -0.3724 -1.0690 -0.2439
  127TMC2    H2 1982   0.779   4.444  10.529 -2.2018 -0.3871 -0.1894
  127TMC2    C7 1983   0.640   4.503  10.309 -0.6122  0.4075 -0.4719
  127TMC2    C8 1984   0.970   4.586  10.658 -0.4762 -1.2603  0.2076
  127TMC2    O1 1985   0.559   4.561  10.238  1.0478 -0.0944  0.0533
  127TMC2    O2 1986   1.081   4.630  10.677 -0.0036 -0.5853  0.2845
  127TMC2    O5 1987   0.915   4.484  10.722 -0.3616  0.2271 -0.4000
  127TMC2    H5 1988   0.818   4.474  10.714 -0.1600 -1.3990 -0.7428
  128MPD2     C 1989   0.824   0.383  10.058  0.1293 -0.2145 -0.3685
  128MPD2    C1 1990   0.906   0.316  10.140 -0.0238  0.6321 -0.0606
  128MPD2    C2 1991   1.039   0.359  10.138  0.1968  0.4240  0.0311
  128MPD2    C3 1992   1.093   0.451  10.056  0.1757  0.4474 -0.1188
  128MPD2    C4 1993   1.001   0.525   9.981  0.7673 -0.2415  0.4354
  128MPD2    C5 1994   0.869   0.493   9.991  0.4415 -0.2184  0.0086
  128MPD2     H 1995   1.100   0.298  10.204  0.8738 -0.4894 -1.4433
  128MPD2    H1 1996   1.033   0.602   9.913 -0.9291 -0.3818 -0.5208
  128MPD2    H2 1997   0.717   0.363  10.052 -0.1883  0.8189  1.6995
  128MPD2    H3 1998   0.797   0.547   9.929 -0.9560 -0.0079  1.8363
  128MPD2     N 1999   1.233   0.480  10.063  0.4385  0.0024  0.5047
  128MPD2    H5 2000   1.300   0.427  10.118  0.2568 -1.2575 -0.4998
  128MPD2    N1 2001   0.854   0.221  10.227 -0.1388  0.1024 -0.7425
  128MPD2    H7 2002   0.756   0.197  10.218  0.8025 -3.3169 -1.9480
  129TMC2    C1 2003   3.749   1.974   2.244 -1.3531 -0.7343 -0.0259
  129TMC2    C2 2004   3.816   2.045   2.344  0.2436 -0.2434  0.1290
  129TMC2    C3 2005   3.750   2.029   2.467  0.4177  0.4708  0.2005
  129TMC2    C4 2006   3.629   1.911   2.257  0.0714  0.0267 -0.3388
  129TMC2    C5 2007   3.574   1.907   2.382  0.0664  0.0923  0.2219
  129TMC2    C6 2008   3.629   1.962   2.494  0.3876 -0.3534  0.3105
  129TMC2     C 2009   3.788   1.992   2.106 -0.1868  0.0670 -0.5013
  129TMC2     O 2010   3.721   1.928   2.027 -1.0894  0.0699  0.3614
  129TMC2     H 2011   3.917   2.083   2.336  0.0547  0.3888  0.7719
  129TMC2    H1 2012   3.573   1.865   2.176  0.0426  0.7819 -0.7442
  129TMC2    H2 2013   3.583   1.964   2.592 -1.2226 -1.8165 -0.4224
  129TMC2    C7 2014   3.485   1.793   2.399 -0.5808 -0.2231  0.1051
  129TMC2    C8 2015   3.797   2.100   2.586 -0.4549 -0.0501  0.0984
  129TMC2    O1 2016   3.476   1.717   2.303 -0.5666  0.0613 -0.6292
  129TMC2    O2 2017   3.763   2.062   2.699  0.2782 -0.3339  0.1515
  129TMC2    O5 2018   3.856   2.217   2.555  0.3983 -0.3222  0.1397
  129TMC2    H5 2019   3.858   2.235   2.458  0.3160 -0.1553  0.1679
  130MPD2     C 2020   3.881   2.052   1.841  0.1489 -0.3174 -0.1404
  130MPD2    C1 2021   3.914   2.131   1.953 -0.5527  1.1370  0.1065
  130MPD2    C2 2022   3.984   2.244   1.942 -0.1103 -0.2024 -0.1566
  130MPD2    C3 2023   4.018   2.290   1.822 -0.0710 -0.2725 -0.1219
  130MPD2    C4 2024   3.977   2.226   1.705 -0.7425 -0.4960 -0.3589
  130MPD2    C5 2025   3.907   2.109   1.711 -0.4315 -0.7049 -0.2682
  130MPD2     H 2026   4.008   2.289   2.038 -0.8305 -0.8683  0.3413
  130MPD2    H1 2027   3.992   2.261   1.604 -1.1656 -0.8084 -0.5272
  130MPD2    H2 2028   3.836   1.954   1.834  2.8773 -1.5702 -0.0480
  130MPD2    H3 2029   3.873   2.054   1.624 -0.4042  0.1152 -0.7959
  130MPD2     N 2030   4.085   2.414   1.810  0.0142  1.0273 -0.3084
  130MPD2    H5 2031   4.092   2.471   1.894 -0.8199 -0.1691  0.5802
  130MPD2    N1 2032   3.874   2.096   2.085  0.1364 -0.3688  0.3515
  130MPD2    H7 2033   3.897   2.157   2.163 -0.6494 -0.0837  0.3588
  131TMC2    C1 2034   3.540   0.784   9.603  0.1419 -0.5054 -0.4918
  131TMC2    C2 2035   3.433   0.801   9.517 -0.9516 -0.7232 -0.1459
  131TMC2    C3 2036   3.396   0.932   9.493 -0.4741  0.6973  0.3060
  131TMC2    C4 2037   3.611   0.894   9.648  0.4214 -0.2368 -0.1127
  131TMC2    C5 2038   3.565   1.019   9.630 -0.5774  0.8822  0.1634
  131TMC2    C6 2039   3.451   1.035   9.554  0.2858 -0.3181  0.0385
  131TMC2     C 2040   3.578   0.651   9.644 -0.3770  0.4193 -0.2504
  131TMC2     O 2041   3.646   0.633   9.743 -0.7664 -0.7968 -0.0368
  131TMC2     H 2042   3.357   0.729   9.488 -0.9703 -0.1370 -1.5685
  131TMC2    H1 2043   3.703   0.875   9.703  0.0221 -0.8952  0.3331
  131TMC2    H2 2044   3.412   1.133   9.530 -0.8667 -0.5814  0.8617
  131TMC2    C7 2045   3.626   1.135   9.691 -0.1189 -0.2275  0.8622
  131TMC2    C8 2046   3.253   0.969   9.480  0.0398  0.4032 -0.1095
  131TMC2    O1 2047   3.556   1.236   9.688  0.4401 -0.2677  0.0024
  131TMC2    O2 2048   3.196   1.053   9.545  0.2089  0.1725 -0.0752
  131TMC2    O5 2049   3.195   0.883   9.398  0.0798  0.1065  0.0400
  131TMC2    H5 2050   3.247   0.830   9.333 -1.6105  0.8513 -1.8934
  132MPD2     C 2051   3.486   0.357   9.450  0.7050 -0.4865  0.3703
  132MPD2    C1 2052   3.544   0.422   9.562  0.1648 -0.2552 -0.0089
  132MPD2    C2 2053   3.622   0.353   9.655  0.3423  0.1394 -0.4703
  132MPD2    C3 2054   3.648   0.223   9.638  0.8638  0.1353  0.4938
  132MPD2    C4 2055   3.590   0.151   9.538  0.6769  0.4140 -0.9544
  132MPD2    C5 2056   3.515   0.221   9.448  0.5048 -1.1908  0.3121
  132MPD2     H 2057   3.673   0.401   9.737 -0.8099 -1.5884  1.2556
  132MPD2    H1 2058   3.629   0.059   9.496  2.4754  1.7963 -2.3136
  132MPD2    H2 2059   3.437   0.410   9.370 -1.0692 -0.3055  1.5895
  132MPD2    H3 2060   3.479   0.174   9.357 -0.1188 -2.3395  1.1520
  132MPD2     N 2061   3.727   0.159   9.739 -0.1645 -0.6230 -0.3544
  132MPD2    H5 2062   3.773   0.223   9.804 -0.3274  1.4536 -2.2671
  132MPD2    N1 2063   3.526   0.562   9.559 -0.5269 -0.0881  0.5568
  132MPD2    H7 2064   3.472   0.597   9.480  1.4642  1.7396  0.0189
  133TMC2    C1 2065   3.760   1.033  10.106 -1.3032  0.1346 -0.0499
  133TMC2    C2 2066   3.859   0.941  10.131 -0.9702 -0.4947 -0.0380
  133TMC2    C3 2067   3.958   0.976  10.222  0.1740  0.2662 -0.8053
  133TMC2    C4 2068   3.748   1.148  10.190 -0.0609  0.0250 -0.4811
  133TMC2    C5 2069   3.844   1.167  10.288 -0.3703  0.1298  0.4658
  133TMC2    C6 2070   3.955   1.084  10.299  0.5765  0.2601 -0.4304
  133TMC2     C 2071   3.632   0.974  10.059  0.3151  0.1947  0.6771
  133TMC2     O 2072   3.628   0.856  10.022 -0.1644 -0.7918 -0.4708
  133TMC2     H 2073   3.866   0.851  10.070 -0.9407 -1.3576  1.2426
  133TMC2    H1 2074   3.673   1.225  10.177 -0.3048 -0.3150 -1.1165
  133TMC2    H2 2075   4.043   1.103  10.360  1.6003  0.1047 -1.8741
  133TMC2    C7 2076   3.862   1.307  10.336  0.7055 -0.1539 -0.2465
  133TMC2    C8 2077   4.055   0.870  10.251  1.2265  0.0920  0.5881
  133TMC2    O1 2078   3.806   1.397  10.278 -0.3897  0.7036  0.0582
  133TMC2    O2 2079   4.025   0.758  10.210 -0.5214  0.5426  1.0081
  133TMC2    O5 2080   4.179   0.919  10.282  0.0314 -0.5062 -0.7831
  133TMC2    H5 2081   4.187   1.017  10.280 -0.8805 -0.3847  1.2875
  134MPD2     C 2082   3.333   1.172   9.999  0.9784  0.6093  0.7057
  134MPD2    C1 2083   3.402   1.056   9.999  0.1264 -0.2485 -0.4901
  134MPD2    C2 2084   3.343   0.942   9.955  0.2759  0.1325  0.1169
  134MPD2    C3 2085   3.218   0.953   9.899 -0.2965 -0.6853  0.0569
  134MPD2    C4 2086   3.144   1.072   9.898 -0.8705 -0.2888 -1.1000
  134MPD2    C5 2087   3.209   1.183   9.942 -0.2418 -0.3324 -0.2128
  134MPD2     H 2088   3.400   0.849   9.950  0.9988  0.7183 -2.3982
  134MPD2    H1 2089   3.042   1.069   9.862 -0.8679 -0.7311 -1.0704
  134MPD2    H2 2090   3.381   1.262  10.037  0.4929  1.2042 -0.0795
  134MPD2    H3 2091   3.169   1.283   9.930  1.5197  0.3264 -0.6891
  134MPD2     N 2092   3.153   0.841   9.841  0.0944 -0.8756  0.0423
  134MPD2    H5 2093   3.071   0.850   9.782  1.0383 -0.4869 -1.2241
  134MPD2    N1 2094   3.530   1.069  10.047  0.4206  0.7083 -0.2645
  134MPD2    H7 2095   3.568   1.163  10.057 -0.4763  0.9698  0.7515
  135TMC2    C1 2096   0.580   2.191   8.969  0.3104 -0.3601  0.3690
  135TMC2    C2 2097   0.535   2.072   8.932  0.2608  0.0752 -0.2296
  135TMC2    C3 2098   0.400   2.048   8.958  0.8939  0.0210 -0.3676
  135TMC2    C4 2099   0.508   2.283   9.037  0.0825  0.2760  0.4821
  135TMC2    C5 2100   0.376   2.259   9.058  0.3830  0.1744 -0.0036
  135TMC2    C6 2101   0.323   2.137   9.022 -0.9100 -0.7835  0.0443
  135TMC2     C 2102   0.722   2.189   9.016 -0.3493  0.2762  0.3103
  135TMC2     O 2103   0.742   2.253   9.117 -0.1732  0.0215  0.6098
  135TMC2     H 2104   0.589   1.996   8.877  0.7862  1.8002 -2.1174
  135TMC2    H1 2105   0.553   2.380   9.056  1.0911  0.1843 -1.3843
  135TMC2    H2 2106   0.237   2.091   9.070 -0.8940  1.4328  2.1791
  135TMC2    C7 2107   0.319   2.323   9.175 -0.2219  0.2826 -0.7328
  135TMC2    C8 2108   0.343   1.914   8.926 -0.1025  0.6508  0.4024
  135TMC2    O1 2109   0.205   2.300   9.211 -0.0646  0.0004  0.0601
  135TMC2    O2 2110   0.242   1.864   8.976 -0.2776  0.0388  0.0723
  135TMC2    O5 2111   0.393   1.877   8.808  0.8125 -0.1298 -0.0200
  135TMC2    H5 2112   0.432   1.948   8.752 -0.3666  0.7689  0.2791
  136MPD2     C 2113   1.008   2.143   9.100  0.2046 -0.6614  0.5539
  136MPD2    C1 2114   0.941   2.070   8.997 -0.8017 -0.4897  1.2844
  136MPD2    C2 2115   1.007   1.964   8.929 -0.3741  0.4173  0.5868
  136MPD2    C3 2116   1.142   1.938   8.953  0.6924 -0.0787  0.2876
  136MPD2    C4 2117   1.202   2.009   9.056  0.1610  0.0481 -0.2842
  136MPD2    C5 2118   1.137   2.108   9.122 -0.2076  0.5720 -0.3163
  136MPD2     H 2119   0.950   1.905   8.859 -0.3433  0.1500  0.7870
  136MPD2    H1 2120   1.307   1.998   9.083  0.1143  1.2123  0.3639
  136MPD2    H2 2121   0.958   2.219   9.159 -3.1022 -1.6441 -0.9918
  136MPD2    H3 2122   1.193   2.157   9.201 -0.0143  0.2869 -0.2742
  136MPD2     N 2123   1.213   1.838   8.890 -0.0868  0.6189  0.4075
  136MPD2    H5 2124   1.300   1.818   8.938  0.7838  1.8335 -0.6579
  136MPD2    N1 2125   0.803   2.091   8.960  0.1250  0.2281 -0.3807
  136MPD2    H7 2126   0.768   2.028   8.889  0.4169 -0.3950  0.0323
  137TMC2    C1 2127   0.425   0.687  10.793 -1.1234 -0.4334 -0.3889
  137TMC2    C2 2128   0.500   0.578  10.836 -0.7183 -0.1266 -0.3133
  137TMC2    C3 2129   0.479   0.461  10.774  0.0930  0.4959  0.1916
  137TMC2    C4 2130   0.346   0.676  10.680 -0.2622 -0.2018 -0.7275
  137TMC2    C5 2131   0.331   0.556  10.625  0.8418 -0.1501  0.0512
  137TMC2    C6 2132   0.396   0.448  10.665 -0.1751 -0.2135 -0.1247
  137TMC2     C 2133   0.426   0.807  10.876 -0.6309 -0.1185 -0.0633
  137TMC2     O 2134   0.465   0.796  10.992  0.0544 -0.2802 -0.2637
  137TMC2     H 2135   0.571   0.594  10.916 -1.6869 -2.7700  1.0741
  137TMC2    H1 2136   0.288   0.753  10.631  3.2459  2.1433 -1.1526
  137TMC2    H2 2137   0.380   0.349  10.623  0.5920 -0.6956  0.7050
  137TMC2    C7 2138   0.230   0.532  10.520 -0.2202 -0.4545  0.1295
  137TMC2    C8 2139   0.577   0.356  10.797  0.6739  0.8427  0.3205
  137TMC2    O1 2140   0.244   0.434  10.453  0.4386  0.1180  0.1723
  137TMC2    O2 2141   0.605   0.274  10.713 -0.6067  0.0587 -0.2688
  137TMC2    O5 2142   0.608   0.349  10.926  0.4704 -0.4815 -0.5847
  137TMC2    H5 2143   0.562   0.423  10.971 -0.2247 -0.1061 -1.9061
  138MPD2     C 2144   0.360   1.079  10.983  0.2724  0.1289  0.5782
  138MPD2    C1 2145   0.358   1.048  10.845  0.1635  1.0063  0.2343
  138MPD2    C2 2146   0.311   1.139  10.756  0.0891 -0.5425  0.1700
  138MPD2    C3 2147   0.282   1.269  10.791  0.3347 -0.3325  0.6294
  138MPD2    C4 2148   0.281   1.306  10.920 -0.0694 -0.0246  0.5268
  138MPD2    C5 2149   0.334   1.215  11.008  0.2916  0.0909  0.5020
  138MPD2     H 2150   0.292   1.111  10.653  0.9897  0.1106 -0.1747
  138MPD2    H1 2151   0.257   1.409  10.945  0.1879 -0.1612  1.3297
  138MPD2    H2 2152   0.386   1.014  11.065 -2.1385 -0.8236  0.6040
  138MPD2    H3 2153   0.340   1.241  11.114  1.1180  2.0242 -0.0199
  138MPD2     N 2154   0.255   1.367  10.686  1.1062 -0.2483 -0.0037
  138MPD2    H5 2155   0.282   1.335  10.594  0.2379  1.8274 -0.9926
  138MPD2    N1 2156   0.387   0.916  10.800  0.1016 -0.0284 -0.2686
  138MPD2    H7 2157   0.364   0.897  10.703 -0.1935 -0.6865 -0.0660
  139TMC2    C1 2158   1.388   3.680  13.629 -0.7222 -0.3997 -0.2412
  139TMC2    C2 2159   1.426   3.722  13.508 -0.1191 -0.8051 -0.4232
  139TMC2    C3 2160   1.356   3.831  13.455  0.3913 -0.5598  0.2237
  139TMC2    C4 2161   1.293   3.744  13.703 -0.6767  0.6909 -0.0300
  139TMC2    C5 2162   1.230   3.853  13.650 -0.5246  0.4150  0.1998
  139TMC2    C6 2163   1.263   3.899  13.525  0.2568  0.0634  0.4981
  139TMC2     C 2164   1.412   3.535  13.643  0.1435  0.0156 -0.4848
  139TMC2     O 2165   1.520   3.494  13.601  0.2926  0.1812  0.1515
  139TMC2     H 2166   1.513   3.688  13.453  0.8939 -2.2077  2.0642
  139TMC2    H1 2167   1.260   3.709  13.799 -0.2250  1.0076  0.2425
  139TMC2    H2 2168   1.200   3.967  13.468  1.6187 -0.0742 -1.1611
  139TMC2    C7 2169   1.122   3.918  13.715 -0.3087 -0.4599  1.0386
  139TMC2    C8 2170   1.416   3.881  13.340  0.0334 -0.2300  0.3222
  139TMC2    O1 2171   1.058   3.979  13.633  0.6871  0.5044  0.0903
  139TMC2    O2 2172   1.490   3.812  13.271 -0.2560  0.4055  0.3398
  139TMC2    O5 2173   1.412   4.018  13.337  0.2344  0.4244 -0.1864
  139TMC2    H5 2174   1.392   4.062  13.422 -1.7119  1.8416 -1.3779
  140MPD2     C 2175   1.181   3.255  13.711  0.2247 -0.5270 -0.0520
  140MPD2    C1 2176   1.303   3.318  13.699  0.7078  0.4582  0.2526
  140MPD2    C2 2177   1.415   3.237  13.690  0.4400 -0.7418 -0.4296
  140MPD2    C3 2178   1.397   3.099  13.690 -0.6046  0.4889 -0.6037
  140MPD2    C4 2179   1.273   3.039  13.690 -1.1286  0.4851  0.1598
  140MPD2    C5 2180   1.164   3.121  13.700 -0.1865  0.0092  0.4517
  140MPD2     H 2181   1.515   3.278  13.679 -0.2698  0.2059 -3.3259
  140MPD2    H1 2182   1.257   2.933  13.673 -2.5325  0.7685 -0.2690
  140MPD2    H2 2183   1.087   3.305  13.734  0.4229 -0.2236  0.0865
  140MPD2    H3 2184   1.065   3.079  13.688  0.3788 -0.6369 -2.1429
  140MPD2     N 2185   1.514   3.022  13.706  0.3994 -0.0790  0.0590
  140MPD2    H5 2186   1.606   3.064  13.718 -0.1352  1.7471 -2.3510
  140MPD2    N1 2187   1.310   3.460  13.696  0.0299 -0.2961 -0.4313
  140MPD2    H7 2188   1.220   3.507  13.706  0.6799  1.5047 -3.0570
  141TMC2    C1 2189   1.712   0.166  14.535 -0.0305 -0.4393  0.4303
  141TMC2    C2 2190   1.702   0.073  14.639  0.1377  0.5970  0.5103
  141TMC2    C3 2191   1.725   0.115  14.767 -0.1719 -0.0035  0.0152
  141TMC2    C4 2192   1.745   0.296  14.558 -0.0322 -0.0060  0.3147
  141TMC2    C5 2193   1.757   0.337  14.693 -0.8856  0.4430  0.1489
  141TMC2    C6 2194   1.743   0.247  14.801  0.1814 -0.4045  0.0560
  141TMC2     C 2195   1.746   0.128  14.399  0.3901  0.0219  0.1939
  141TMC2     O 2196   1.699   0.200  14.312  0.1281 -0.1818  0.0879
  141TMC2     H 2197   1.707   4.703  14.629  0.1915  0.5213  1.2937
  141TMC2    H1 2198   1.774   0.355  14.472 -2.1492  0.5503 -0.0132
  141TMC2    H2 2199   1.750   0.279  14.904 -1.7489  0.0257  0.0665
  141TMC2    C7 2200   1.808   0.468  14.714  0.1622 -0.2961  0.4069
  141TMC2    C8 2201   1.688   0.013  14.870  0.3987 -0.1003  0.0079
  141TMC2    O1 2202   1.873   0.514  14.620 -0.8530 -0.7275 -0.1832
  141TMC2    O2 2203   1.632   4.644  14.846 -0.5656 -0.2828  0.2988
  141TMC2    O5 2204   1.755   0.038  14.984  0.2158 -0.2225  0.1692
  141TMC2    H5 2205   1.834   0.097  14.975  0.2339 -0.1468  0.7962
  142TMC2    C1 2206   4.566   3.628  10.031 -0.3838 -0.3334  0.2528
  142TMC2    C2 2207   4.639   3.585   9.923  0.0080  0.3854  0.0121
  142TMC2    C3 2208   0.014   3.654   9.898  0.3650  0.3991 -0.4338
  142TMC2    C4 2209   4.606   3.743  10.099  0.5127  0.3667  0.8552
  142TMC2    C5 2210   4.715   3.810  10.055  0.9005 -1.2143 -0.6279
  142TMC2    C6 2211   0.057   3.769   9.955 -0.2903 -0.3497  0.2848
  142TMC2     C 2212   4.462   3.547  10.089 -0.0163  0.3913 -0.4175
  142TMC2     O 2213   4.490   3.429  10.082 -0.1189  0.1735  0.5421
  142TMC2     H 2214   4.621   3.496   9.864 -2.7495  0.4758  0.7426
  142TMC2    H1 2215   4.559   3.778  10.190  0.1306  1.1674  0.3489
  142TMC2    H2 2216   0.147   3.822   9.926 -2.0826  2.4663 -0.1546
  142TMC2    C7 2217   0.003   3.949  10.095 -0.0691  0.2881 -0.1449
  142TMC2    C8 2218   0.067   3.647   9.767 -0.6243  0.2921 -0.1398
  142TMC2    O1 2219   0.103   4.008  10.058  0.0528 -0.2673  0.6439
  142TMC2    O2 2220   0.104   3.735   9.692 -0.5258  0.0066  0.1314
  142TMC2    O5 2221   0.074   3.515   9.729 -0.2528  0.0465  0.5171
  142TMC2    H5 2222   0.091   3.460   9.808 -1.6933  0.2575  0.9714
  143MPD2     C 2223   3.996   3.494  10.309 -0.0057  0.5011  1.0138
  143MPD2    C1 2224   4.070   3.396  10.246 -0.1298 -0.2304 -0.1130
  143MPD2    C2 2225   4.196   3.442  10.199 -0.1364 -0.1324  0.3336
  143MPD2    C3 2226   4.245   3.576  10.211  0.2947 -0.9365  0.1564
  143MPD2    C4 2227   4.166   3.664  10.281  0.0432  0.8911  0.4716
  143MPD2    C5 2228   4.051   3.613  10.336  0.4225  0.8122  0.0642
  143MPD2     H 2229   4.265   3.376  10.148 -2.3488 -1.1074 -1.3632
  143MPD2    H1 2230   4.193   3.768  10.295  0.8998  0.6979  0.2130
  143MPD2    H2 2231   3.900   3.466  10.350 -0.8133  1.7372 -0.0148
  143MPD2    H3 2232   3.997   3.693  10.384 -2.5778 -1.5335  0.5788
  143MPD2     N 2233   4.366   3.617  10.150 -0.0829 -0.4160 -0.1577
  143MPD2    H5 2234   4.385   3.716  10.163  0.0931 -0.6357  1.2521
  143MPD2    N1 2235   4.022   3.263  10.233 -0.3976  0.2940  0.1774
  143MPD2    H7 2236   3.944   3.237  10.292  1.6357  0.6625  3.0748
  144TMC2    C1 2237   2.708   3.357   1.120  0.1698  0.1499 -0.2487
  144TMC2    C2 2238   2.807   3.279   1.071 -0.1542  0.7354  0.2732
  144TMC2    C3 2239   2.926   3.281   1.128  0.3108  0.1807  0.1741
  144TMC2    C4 2240   2.735   3.449   1.217 -0.0677 -0.1136  0.4339
  144TMC2    C5 2241   2.856   3.444   1.274 -0.5775 -0.1415  0.1718
  144TMC2    C6 2242   2.963   3.363   1.230  0.2962 -0.0455 -0.5930
  144TMC2     C 2243   2.578   3.339   1.069 -0.6544 -0.5972  0.0607
  144TMC2     O 2244   2.548   3.224   1.035  0.1092  0.5772 -0.0897
  144TMC2     H 2245   2.786   3.220   0.982 -0.0196  0.2441  0.5627
  144TMC2    H1 2246   2.656   3.511   1.257  0.0973 -1.1024  2.2762
  144TMC2    H2 2247   3.062   3.355   1.274  0.1489 -0.2990 -0.3051
  144TMC2    C7 2248   2.886   3.516   1.393  1.3448 -0.1220  0.3358
  144TMC2    C8 2249   3.021   3.186   1.074 -0.5682  0.1086 -0.0010
  144TMC2    O1 2250   2.988   3.491   1.458 -0.6990  0.2758  0.3932
  144TMC2    O2 2251   3.143   3.198   1.075 -0.3209  0.0908  0.1909
  144TMC2    O5 2252   2.956   3.069   1.092 -0.0241 -0.3153  0.5433
  144TMC2    H5 2253   2.858   3.072   1.080  0.0364  0.0636  0.1471
  145MPD2     C 2254   2.129   3.496   0.877  0.1497  0.3398 -0.4425
  145MPD2    C1 2255   2.174   3.370   0.905 -0.7301  0.2250  0.1922
  145MPD2    C2 2256   2.297   3.363   0.971 -0.0092 -0.3511 -0.4187
  145MPD2    C3 2257   2.376   3.471   1.006  0.0777  0.2073  0.8273
  145MPD2    C4 2258   2.326   3.592   0.985  1.0032 -0.6954 -0.4881
  145MPD2    C5 2259   2.205   3.602   0.919  0.1806  0.7066 -0.6006
  145MPD2     H 2260   2.327   3.263   1.003 -2.8116 -1.3603 -0.9159
  145MPD2    H1 2261   2.379   3.682   1.015 -1.7083  0.5861  0.4649
  145MPD2    H2 2262   2.030   3.518   0.837 -0.4576  2.1098  2.0013
  145MPD2    H3 2263   2.177   3.706   0.911  0.3948  1.0104  2.9037
  145MPD2     N 2264   2.505   3.459   1.066  0.1059  0.3427  0.4749
  145MPD2    H5 2265   2.558   3.542   1.093 -0.2850  0.3244  1.3009
  145MPD2    N1 2266   2.108   3.247   0.866 -0.3180  0.5499  0.2817
  145MPD2    H7 2267   2.153   3.162   0.897 -1.6541 -0.3392 -0.2053
  146TMC2    C1 2268   3.940   1.513  12.404  0.2359 -0.0552 -0.1364
  146TMC2    C2 2269   3.872   1.533  12.287  0.4140 -0.5384 -0.6060
  146TMC2    C3 2270   3.936   1.516  12.173 -0.0446  0.1906  0.4098
  146TMC2    C4 2271   4.078   1.502  12.406 -0.8034  0.1688 -0.2258
  146TMC2    C5 2272   4.139   1.486  12.288 -0.8531 -0.0058 -0.1910
  146TMC2    C6 2273   4.072   1.496  12.167 -0.4985  0.0387 -0.0689
  146TMC2     C 2274   3.870   1.568  12.509 -0.0747  0.0647 -0.9639
  146TMC2     O 2275   3.796   1.662  12.481  0.3402 -0.4946 -0.1545
  146TMC2     H 2276   3.767   1.559  12.283  0.0591 -2.1196 -1.2987
  146TMC2    H1 2277   4.133   1.500  12.499 -0.7688 -0.1960 -0.2544
  146TMC2    H2 2278   4.114   1.488  12.068  0.0002  0.4388  0.1141
  146TMC2    C7 2279   4.281   1.466  12.271  0.0499 -0.6693 -0.0109
  146TMC2    C8 2280   3.862   1.548  12.049  0.2097 -0.1736 -0.0383
  146TMC2    O1 2281   4.334   1.498  12.168  0.1262 -0.4089 -0.1117
  146TMC2    O2 2282   3.808   1.657  12.043  0.0327  0.1470 -0.4319
  146TMC2    O5 2283   3.916   1.482  11.949  0.1473  0.3129 -0.5218
  146TMC2    H5 2284   3.963   1.400  11.974  0.8799  0.4198 -1.5566
  147MPD2     C 2285   4.731   1.274  12.419 -0.5679 -1.0017  0.2795
  147MPD2    C1 2286   4.632   1.224  12.506 -0.1580  0.6340  0.4262
  147MPD2    C2 2287   4.500   1.271  12.491  0.0657 -0.2255 -0.4433
  147MPD2    C3 2288   4.467   1.358  12.392 -0.4280 -0.8249  0.2141
  147MPD2    C4 2289   4.570   1.410  12.320 -0.4989 -1.1170  0.0657
  147MPD2    C5 2290   4.700   1.371  12.333 -0.4252 -0.0721  0.6383
  147MPD2     H 2291   4.419   1.234  12.554  0.7474  1.5159  1.4574
  147MPD2    H1 2292   4.538   1.479  12.242  0.5171  0.1463  0.7580
  147MPD2    H2 2293   0.093   1.233  12.418 -1.0747 -2.2481 -0.4720
  147MPD2    H3 2294   0.037   1.407  12.264 -0.6834 -2.0331 -0.6783
  147MPD2     N 2295   4.330   1.395  12.375 -0.0571  0.0321 -0.4662
  147MPD2    H5 2296   4.265   1.373  12.449 -1.1575  2.3115 -0.7552
  147MPD2    N1 2297   4.670   1.117  12.594 -0.0607 -0.3983 -0.5792
  147MPD2    H7 2298   0.028   1.086  12.591 -0.9910 -3.2581 -1.3143
  148TMC2    C1 2299   3.302   0.277  10.777 -0.6328 -0.0955  0.2850
  148TMC2    C2 2300   3.387   0.344  10.860  0.4744  0.5085 -0.5311
  148TMC2    C3 2301   3.494   0.272  10.908  0.2126  0.2680 -1.1683
  148TMC2    C4 2302   3.325   0.140  10.749 -0.2132  0.0887 -0.4016
  148TMC2    C5 2303   3.440   0.076  10.787  0.3745  0.0055 -0.3571
  148TMC2    C6 2304   3.528   0.147  10.870 -0.1835 -0.9542  0.5735
  148TMC2     C 2305   3.192   0.351  10.723  0.5289 -0.7080  0.2330
  148TMC2     O 2306   3.187   0.468  10.756 -0.1916  0.4367  0.1885
  148TMC2     H 2307   3.371   0.449  10.882  0.7826  0.6720 -1.1114
  148TMC2    H1 2308   3.263   0.102  10.669 -1.2705  1.5234 -0.2612
  148TMC2    H2 2309   3.609   0.095  10.921  0.0637 -2.6704 -1.5744
  148TMC2    C7 2310   3.484   4.697  10.718 -0.5866 -0.0989  0.2723
  148TMC2    C8 2311   3.601   0.352  10.956  0.5048  0.7315  0.1104
  148TMC2    O1 2312   3.400   4.640  10.649  0.9198  0.0636  0.2054
  148TMC2    O2 2313   3.720   0.325  10.933  0.3363  0.6083 -0.4279
  148TMC2    O5 2314   3.554   0.449  11.044 -0.0916 -0.4848 -0.2938
  148TMC2    H5 2315   3.466   0.424  11.077  0.4658 -1.9436  0.0868
  149MPD2     C 2316   2.959   0.477  10.597  0.6741  0.2433 -0.6863
  149MPD2    C1 2317   2.996   0.351  10.565 -0.2762  0.4287 -0.5867
  149MPD2    C2 2318   2.936   0.279  10.466  0.3275 -0.4753 -0.9463
  149MPD2    C3 2319   2.841   0.340  10.390  0.5222  0.0227 -0.2412
  149MPD2    C4 2320   2.804   0.462  10.421  0.3364  0.6332 -0.0805
  149MPD2    C5 2321   2.857   0.531  10.525 -0.0199  0.3164 -0.2764
  149MPD2     H 2322   2.962   0.176  10.440  0.3172 -0.1885 -2.1158
  149MPD2    H1 2323   2.726   0.511  10.363  0.6394 -1.1071 -2.0034
  149MPD2    H2 2324   2.984   0.544  10.678 -1.1695  0.6327 -0.4278
  149MPD2    H3 2325   2.818   0.631  10.540  1.7955  1.2407 -1.7538
  149MPD2     N 2326   2.770   0.277  10.281 -0.2400 -0.2036  0.1456
  149MPD2    H5 2327   2.695   0.322  10.231  0.7952  1.4022  0.0557
  149MPD2    N1 2328   3.107   0.286  10.638 -0.5853  0.4320  0.9952
  149MPD2    H7 2329   3.118   0.188  10.612  2.6884  1.1414 -0.2386
  150TMC2    C1 2330   0.883   4.038  12.278  0.5899 -0.3267  0.5150
  150TMC2    C2 2331   0.811   4.118  12.193  0.0492  0.4464  1.0069
  150TMC2    C3 2332   0.870   4.232  12.153 -0.1706  0.2036  0.2019
  150TMC2    C4 2333   1.008   4.064  12.330 -0.2312 -0.2902 -0.7480
  150TMC2    C5 2334   1.072   4.179  12.277 -0.3005  0.3497  0.4436
  150TMC2    C6 2335   1.003   4.262  12.197 -1.3114 -1.2239 -0.6759
  150TMC2     C 2336   0.824   3.916  12.343 -0.2766  0.7112  0.2538
  150TMC2     O 2337   0.891   3.875  12.439 -0.0640  0.0740 -0.0916
  150TMC2     H 2338   0.711   4.094  12.159 -0.6257  1.7447  2.0803
  150TMC2    H1 2339   1.068   3.983  12.371  0.8753  0.1757 -1.4472
  150TMC2    H2 2340   1.054   4.351  12.163 -2.6663 -0.0030  0.5055
  150TMC2    C7 2341   1.201   4.225  12.321  0.0237  0.4685  0.6293
  150TMC2    C8 2342   0.812   4.321  12.050 -0.1968  0.0565 -0.3138
  150TMC2    O1 2343   1.257   4.320  12.263 -0.9406 -0.1157  0.1808
  150TMC2    O2 2344   0.884   4.404  11.995  0.0314  0.3773  0.1667
  150TMC2    O5 2345   0.681   4.300  12.029 -0.5345  0.9037  0.0585
  150TMC2    H5 2346   0.630   4.239  12.087 -0.3208  0.7957  0.1321
  151MPD2     C 2347   0.528   3.513  12.307  0.3795 -0.3564 -0.2260
  151MPD2    C1 2348   0.469   3.613  12.226  0.1406 -0.1319  0.4472
  151MPD2    C2 2349   0.536   3.730  12.226 -0.3396  0.0801  0.3288
  151MPD2    C3 2350   0.644   3.752  12.303 -0.3201  0.1582  0.8216
  151MPD2    C4 2351   0.698   3.657  12.386 -0.8312 -0.3602 -0.3717
  151MPD2    C5 2352   0.634   3.533  12.395 -0.5748  0.3518 -0.5564
  151MPD2     H 2353   0.503   3.804  12.155 -2.5878 -0.4850  0.7660
  151MPD2    H1 2354   0.784   3.674  12.449 -0.1809 -1.9618 -0.8138
  151MPD2    H2 2355   0.475   3.418  12.306 -0.7699  0.2742 -0.3071
  151MPD2    H3 2356   0.674   3.448  12.449 -1.9312 -0.1580 -0.3397
  151MPD2     N 2357   0.705   3.882  12.284  0.0094  0.1082 -0.1773
  151MPD2    H5 2358   0.674   3.946  12.212  0.8910  1.4129  0.6060
  151MPD2    N1 2359   0.353   3.588  12.157  0.9213  0.1142 -0.2640
  151MPD2    H7 2360   0.326   3.491  12.147 -1.2954  0.5608  1.3867
  152TMC2    C1 2361   0.561   3.873  12.707 -0.5402  0.7546  0.3430
  152TMC2    C2 2362   0.594   3.808  12.823  1.3790 -0.2720 -0.8434
  152TMC2    C3 2363   0.707   3.854  12.894 -0.4835 -0.2419 -0.1643
  152TMC2    C4 2364   0.630   3.979  12.660  0.8077  0.3820  0.0709
  152TMC2    C5 2365   0.736   4.024  12.732  0.7461  0.0618  0.2814
  152TMC2    C6 2366   0.772   3.965  12.851 -0.6025 -0.0657  0.2552
  152TMC2     C 2367   0.444   3.828  12.625  0.3988 -0.2540  0.3320
  152TMC2     O 2368   0.396   3.901  12.540 -0.1368  0.2851  0.0560
  152TMC2     H 2369   0.519   3.743  12.867  0.5646  1.2513  0.0253
  152TMC2    H1 2370   0.621   4.015  12.559  2.5390  0.4186 -0.0553
  152TMC2    H2 2371   0.845   4.000  12.923 -0.4282 -1.3545  0.7157
  152TMC2    C7 2372   0.817   4.140  12.685 -0.4289  0.1649 -0.0661
  152TMC2    C8 2373   0.699   3.837  13.042  0.1922  0.3999  1.3094
  152TMC2    O1 2374   0.764   4.226  12.623 -0.4643  0.3716  0.0782
  152TMC2    O2 2375   0.653   3.932  13.100  0.3778  0.4304  0.4641
  152TMC2    O5 2376   0.668   3.709  13.060  0.4434  0.0828  0.2010
  152TMC2    H5 2377   0.740   3.651  13.024 -0.5285 -2.0409  1.6966
  153MPD2     C 2378   0.350   3.481  12.573 -0.4489  0.3610  0.4294
  153MPD2    C1 2379   0.334   3.613  12.565  0.6822  0.4844  0.2730
  153MPD2    C2 2380   0.235   3.668  12.489 -0.2510  0.1807 -0.1482
  153MPD2    C3 2381   0.146   3.577  12.424  0.5507 -0.1353  0.4738
  153MPD2    C4 2382   0.163   3.442  12.421  0.3000 -0.9768 -0.0148
  153MPD2    C5 2383   0.266   3.392  12.499 -0.4318  0.0621  0.2405
  153MPD2     H 2384   0.214   3.774  12.480 -0.0315  0.4056  1.8953
  153MPD2    H1 2385   0.108   3.377  12.355 -1.3675  0.0703  0.3438
  153MPD2    H2 2386   0.441   3.446  12.619  0.6396  4.2371  1.1561
  153MPD2    H3 2387   0.284   3.285  12.504  0.3142  0.0621 -2.3334
  153MPD2     N 2388   0.032   3.641  12.361 -0.2472 -0.1815  0.3912
  153MPD2    H5 2389   0.022   3.740  12.377  0.0498 -0.3960  1.9479
  153MPD2    N1 2390   0.427   3.693  12.637 -0.4833 -0.1121  0.0254
  153MPD2    H7 2391   0.503   3.644  12.682 -1.1137 -2.1664 -1.1533
  154TMC2    C1 2392   2.581   4.041  17.645  0.5620  0.0762 -0.3469
  154TMC2    C2 2393   2.527   3.961  17.740 -0.0308 -0.7753 -0.9717
  154TMC2    C3 2394   2.474   3.843  17.713 -0.3207  0.5562  0.1247
  154TMC2    C4 2395   2.561   4.018  17.515  0.2234  0.3347  0.3320
  154TMC2    C5 2396   2.492   3.901  17.486  0.1089 -0.6041 -0.1340
  154TMC2    C6 2397   2.447   3.817  17.580  0.5324  0.4044  0.0502
  154TMC2     C 2398   2.637   4.169  17.687  0.3971  0.2193  0.2324
  154TMC2     O 2399   2.611   4.210   0.049  0.2318  0.2575 -0.8801
  154TMC2     H 2400   2.563   3.972   0.091  1.4973  0.5973 -1.6470
  154TMC2    H1 2401   2.588   4.088  17.438  3.4956  0.7248  1.8449
  154TMC2    H2 2402   2.410   3.718  17.555  0.6855  0.5167 -0.6109
  154TMC2    C7 2403   2.503   3.864  17.349  1.0508 -0.0949  0.2647
  154TMC2    C8 2404   2.392   3.777   0.065 -0.2043 -0.0441 -0.8596
  154TMC2    O1 2405   2.529   3.951  17.266  0.9941 -0.4102 -0.5948
  154TMC2    O2 2406   2.357   3.837   0.167 -0.2569  0.0833  0.2741
  154TMC2    O5 2407   2.335   3.667   0.016  0.0551  0.3393 -0.0299
  154TMC2    H5 2408   2.386   3.627  17.693 -0.0845  0.0572  0.0241
  155MPD2     C 2409   2.849   4.402  17.504 -0.8912 -0.3109 -0.7255
  155MPD2    C1 2410   2.755   4.366  17.598  0.2322 -0.1280 -0.0933
  155MPD2    C2 2411   2.702   4.460  17.680  0.1031 -0.2338  0.0830
  155MPD2    C3 2412   2.738   4.593  17.663 -0.5923  0.4210 -0.3857
  155MPD2    C4 2413   2.830   4.631  17.570 -0.0463  0.1642 -0.2424
  155MPD2    C5 2414   2.880   4.538  17.484  0.0615  0.3271  0.0363
  155MPD2     H 2415   2.617   4.433  17.742  0.7277 -0.7689  0.7032
  155MPD2    H1 2416   2.872   4.729  17.554 -0.5047  0.3170 -0.5058
  155MPD2    H2 2417   2.885   4.323  17.440  0.0894 -1.7982  1.6757
  155MPD2    H3 2418   2.943   4.560  17.399 -0.8196  2.4881 -0.0649
  155MPD2     N 2419   2.681   4.693  17.742 -0.4737  0.4478 -0.2947
  155MPD2    H5 2420   2.620   4.657   0.064  1.9619 -0.6138  1.2261
  155MPD2    N1 2421   2.709   4.231  17.588 -0.0396 -0.2314 -0.0798
  155MPD2    H7 2422   2.751   4.170  17.519 -3.7697 -1.6140 -1.1114
  156TMC2    C1 2423   4.558   2.087  11.879  0.2755  0.4741  0.0259
  156TMC2    C2 2424   4.472   2.012  11.800 -0.7243 -0.0853  0.5780
  156TMC2    C3 2425   4.410   2.082  11.699 -0.0758  0.0150 -0.0352
  156TMC2    C4 2426   4.597   2.216  11.845  0.0869  0.2951  0.2538
  156TMC2    C5 2427   4.539   2.272  11.735 -0.6084 -0.4262  0.9245
  156TMC2    C6 2428   4.441   2.213  11.662  0.8297 -0.0469  0.1668
  156TMC2     C 2429   4.643   2.017  11.970 -0.0323 -0.4490 -0.0032
  156TMC2     O 2430   4.726   2.086  12.024  0.4080  0.3102  0.1496
  156TMC2     H 2431   4.428   1.920  11.835  0.1705 -0.4266  0.8023
  156TMC2    H1 2432   4.669   2.273  11.903  0.5604  0.3182 -0.3649
  156TMC2    H2 2433   4.396   2.253  11.572 -2.2412 -0.2819  1.6120
  156TMC2    C7 2434   4.621   2.377  11.689 -0.7425  0.6374 -0.6198
  156TMC2    C8 2435   4.316   2.000  11.616  0.6690  0.8285 -0.6219
  156TMC2    O1 2436   4.737   2.366  11.727  0.0124  0.1511  0.4340
  156TMC2    O2 2437   4.231   1.926  11.670 -0.1511  0.1236 -0.1562
  156TMC2    O5 2438   4.348   2.018  11.487 -0.6775 -0.1922 -0.2443
  156TMC2    H5 2439   4.422   2.082  11.485 -1.8977  1.2505  0.8923
  157MPD2     C 2440   4.704   1.646  11.994 -0.4306 -0.0801 -0.7418
  157MPD2    C1 2441   4.721   1.780  12.026 -0.8348 -0.1336  0.2104
  157MPD2    C2 2442   0.108   1.815  12.076 -0.2336 -0.4746  0.3774
  157MPD2    C3 2443   0.204   1.726  12.106  0.1948  0.4808 -0.2250
  157MPD2    C4 2444   0.180   1.593  12.092 -0.6717 -0.0484 -1.4658
  157MPD2    C5 2445   0.059   1.554  12.038  0.3092  0.0175  0.3859
  157MPD2     H 2446   0.123   1.920  12.099  0.4343  0.1652 -2.9319
  157MPD2    H1 2447   0.255   1.518  12.113 -0.6914 -0.1649 -1.8169
  157MPD2    H2 2448   4.610   1.608  11.955  0.6945 -3.3398 -0.2503
  157MPD2    H3 2449   0.029   1.452  12.015  0.7588  0.0333 -0.2966
  157MPD2     N 2450   0.322   1.785  12.166  0.1607  0.0250 -0.6139
  157MPD2    H5 2451   0.322   1.886  12.169 -0.7830 -0.0257  0.7391
  157MPD2    N1 2452   4.630   1.880  11.970  0.5485 -0.2850 -0.5520
  157MPD2    H7 2453   4.549   1.848  11.918  0.8907  0.9642 -1.8804
  158TMC2    C1 2454   1.695   0.222  13.392 -0.0864  0.3917 -0.1569
  158TMC2    C2 2455   1.794   0.249  13.304  0.2521 -0.1572 -0.9702
  158TMC2    C3 2456   1.757   0.268  13.176  0.1947  0.3835  0.1729
  158TMC2    C4 2457   1.561   0.210  13.360  0.9689 -0.3274  0.8336
  158TMC2    C5 2458   1.531   0.228  13.226 -0.3678 -0.2079 -0.4496
  158TMC2    C6 2459   1.633   0.254  13.130  0.2034  0.3248  0.1671
  158TMC2     C 2460   1.741   0.167  13.519  0.1971 -0.0087 -0.3859
  158TMC2     O 2461   1.854   0.115  13.513  0.2454  0.2239 -0.0373
  158TMC2     H 2462   1.897   0.270  13.332  0.1270 -0.5036 -0.2505
  158TMC2    H1 2463   1.490   0.225  13.441  1.8413 -2.8233  2.0688
  158TMC2    H2 2464   1.617   0.262  13.023  0.0684 -0.5351  0.1233
  158TMC2    C7 2465   1.394   0.247  13.183 -1.1636 -0.0606  0.9172
  158TMC2    C8 2466   1.861   0.287  13.073 -0.2734 -0.0399 -0.3164
  158TMC2    O1 2467   1.371   0.311  13.086  0.0178  0.0978 -0.0206
  158TMC2    O2 2468   1.839   0.328  12.957  0.3982 -0.2502  0.3210
  158TMC2    O5 2469   1.970   0.215  13.114 -0.1076  0.5464  0.5326
  158TMC2    H5 2470   1.966   0.170  13.200  2.2598 -2.1361 -0.7709
  159MPD2     C 2471   1.677   4.672  13.971 -0.3657  0.7705 -0.2429
  159MPD2    C1 2472   1.577   0.028  13.955  1.0727 -0.2498  0.2689
  159MPD2    C2 2473   1.571   0.110  13.844  0.2894 -0.2793 -0.0942
  159MPD2    C3 2474   1.669   0.088  13.746  0.5543 -0.0262 -0.3301
  159MPD2    C4 2475   1.774   4.737  13.763 -0.3614 -0.1257  0.2071
  159MPD2    C5 2476   1.775   4.661  13.877  0.1635  0.4950  0.2015
  159MPD2     H 2477   1.497   0.189  13.832  0.6510  0.6083  3.7374
  159MPD2    H1 2478   1.855   4.711  13.695  0.9634 -0.2720  1.8382
  159MPD2    H2 2479   1.689   4.623  14.067 -0.0607  2.9292  0.8223
  159MPD2    H3 2480   1.866   4.605  13.892 -0.6381 -0.7878  0.2443
  159MPD2     N 2481   1.651   0.161  13.622 -0.2774 -0.8979 -0.6373
  159MPD2    H5 2482   1.566   0.217  13.615  0.7153  1.0573  3.0853
  159MPD2    N1 2483   1.472   0.026  14.058 -0.0758  0.1847 -0.1276
  159MPD2    H7 2484   1.479   4.699  14.135  1.5401  0.9681  0.4063
  160TMC2    C1 2485   1.022   0.326   0.335  0.5220  0.2363 -0.3194
  160TMC2    C2 2486   1.093   0.340   0.220 -0.3887  0.0577  0.4296
  160TMC2    C3 2487   1.232   0.349   0.231  0.1533 -0.0589 -0.7822
  160TMC2    C4 2488   1.088   0.290   0.447 -0.6056  0.2778 -0.9845
  160TMC2    C5 2489   1.223   0.280   0.454  0.3041 -0.1759  0.7234
  160TMC2    C6 2490   1.299   0.312   0.350 -0.7309  0.8181 -0.2686
  160TMC2     C 2491   0.885   0.289   0.329 -0.2899 -0.6990  0.6023
  160TMC2     O 2492   0.840   0.296   0.214  0.3081 -0.4955  0.1543
  160TMC2     H 2493   1.049   0.350   0.122  2.0477 -2.5768 -0.9272
  160TMC2    H1 2494   1.044   0.262   0.542  4.0993  0.1331  1.1617
  160TMC2    H2 2495   1.403   0.340   0.362 -0.4173 -0.3453 -0.3022
  160TMC2    C7 2496   1.280   0.205   0.564  0.2386  0.1420  0.2319
  160TMC2    C8 2497   1.312   0.407   0.124 -0.0553 -0.0060 -0.1895
  160TMC2    O1 2498   1.208   0.170   0.656 -0.4429  0.7255  0.1496
  160TMC2    O2 2499   1.433   0.401   0.120  0.4825 -0.4754 -0.1443
  160TMC2    O5 2500   1.237   0.453   0.027  0.1785 -0.2986 -0.2513
  160TMC2    H5 2501   1.141   0.463   0.047  0.3449 -0.3458  0.5926
  161MPD2     C 2502   0.614   0.185   0.355  0.0540 -0.0170  0.9865
  161MPD2    C1 2503   0.695   0.210   0.463 -0.1689  0.4044 -0.0815
  161MPD2    C2 2504   0.655   0.154   0.586  0.5127 -0.2451  0.0568
  161MPD2    C3 2505   0.530   0.104   0.605 -0.2484 -0.2858  0.2673
  161MPD2    C4 2506   0.443   0.091   0.499 -0.1689  0.4011  0.0961
  161MPD2    C5 2507   0.484   0.135   0.375  0.1236  0.1634 -0.4551
  161MPD2     H 2508   0.728   0.169   0.664 -2.8713  1.2162  2.9464
  161MPD2    H1 2509   0.338   0.068   0.507 -0.0877 -0.6858 -1.8613
  161MPD2    H2 2510   0.630   0.219   0.254 -1.7307  0.9187  1.0146
  161MPD2    H3 2511   0.417   0.123   0.291  0.6301  1.2474 -1.0162
  161MPD2     N 2512   0.492   0.050   0.730 -0.5277 -0.7468  0.5557
  161MPD2    H5 2513   0.410   4.730   0.744 -0.6510 -0.5407  0.6804
  161MPD2    N1 2514   0.822   0.266   0.454 -0.3874  0.1415 -0.4546
  161MPD2    H7 2515   0.886   0.270   0.533  1.6987  0.3719 -2.1752
  162TMC2    C1 2516   3.183   1.192   1.146 -0.2555  0.4901 -0.3394
  162TMC2    C2 2517   3.073   1.282   1.147 -0.3584  0.0858 -0.2669
  162TMC2    C3 2518   3.039   1.343   1.264  0.2621 -0.5031 -0.2923
  162TMC2    C4 2519   3.257   1.169   1.262  0.1315  0.0962 -0.1404
  162TMC2    C5 2520   3.216   1.237   1.377  0.2381  0.0844 -0.2696
  162TMC2    C6 2521   3.110   1.323   1.382 -0.6491 -0.1997  0.3186
  162TMC2     C 2522   3.214   1.111   1.024 -0.0431  0.0932  0.1787
  162TMC2     O 2523   3.322   1.053   1.028  0.6202 -0.0607  0.6276
  162TMC2     H 2524   3.005   1.303   1.066 -1.2100 -1.2846  0.0825
  162TMC2    H1 2525   3.331   1.091   1.270 -2.3337 -2.0232  1.9694
  162TMC2    H2 2526   3.089   1.387   1.467 -1.0861  0.3806 -0.2184
  162TMC2    C7 2527   3.268   1.187   1.502  0.0794  0.3505 -0.5850
  162TMC2    C8 2528   2.911   1.407   1.270  1.0761 -0.4763  0.2766
  162TMC2    O1 2529   3.194   1.186   1.599 -0.2280  0.0406  0.6844
  162TMC2    O2 2530   2.848   1.434   1.169  0.4679  0.8254 -0.7016
  162TMC2    O5 2531   2.853   1.335   1.367 -0.2359 -0.3629 -0.0020
  162TMC2    H5 2532   2.912   1.315   1.443 -0.6076 -0.9352  0.1352
  163MPD2     C 2533   3.109   0.886   0.576  0.5720  0.1009  0.1218
  163MPD2    C1 2534   3.223   0.875   0.660  0.1635 -0.1105  0.0633
  163MPD2    C2 2535   3.225   0.953   0.777 -0.1700  0.3181 -0.6733
  163MPD2    C3 2536   3.113   1.026   0.810  0.0358 -0.0730  0.1243
  163MPD2    C4 2537   2.997   1.026   0.735  0.3698 -0.1870  0.8544
  163MPD2    C5 2538   3.001   0.959   0.618 -0.5285  0.4977 -0.5146
  163MPD2     H 2539   3.317   0.951   0.835 -0.9754 -2.3113  0.5262
  163MPD2    H1 2540   2.905   1.075   0.764  0.3337  0.5630 -0.5153
  163MPD2    H2 2541   3.089   0.832   0.484  0.4236 -0.4157  0.4577
  163MPD2    H3 2542   2.911   0.971   0.559 -0.8322  1.0539  0.0590
  163MPD2     N 2543   3.112   1.101   0.931 -0.1447  0.2923  0.2473
  163MPD2    H5 2544   3.032   1.162   0.947 -1.0693 -0.4090 -1.6835
  163MPD2    N1 2545   3.330   0.799   0.612 -0.4877  0.9189  0.8440
  163MPD2    H7 2546   3.319   0.757   0.521  0.3693 -1.5020  1.8494
  164TMC2    C1 2547   4.036   4.644  11.024  0.2741  0.0355 -0.2081
  164TMC2    C2 2548   4.135   0.002  11.011  0.7034  0.2807 -0.3311
  164TMC2    C3 2549   4.093   0.120  11.054 -0.1182  0.0535  0.0254
  164TMC2    C4 2550   3.911   4.666  11.089 -0.4084 -0.3884  0.0148
  164TMC2    C5 2551   3.886   0.051  11.129 -0.1616 -0.3202 -0.1090
  164TMC2    C6 2552   3.972   0.152  11.105 -0.8453 -0.5652  0.5754
  164TMC2     C 2553   4.063   4.497  10.998 -0.1506 -0.5095 -0.5714
  164TMC2     O 2554   3.970   4.433  11.044 -0.0036  0.3433  0.0933
  164TMC2     H 2555   4.231   4.720  10.964 -0.6524  0.5187 -3.2007
  164TMC2    H1 2556   3.835   4.591  11.102  1.0196 -1.4518  2.1539
  164TMC2    H2 2557   3.945   0.254  11.127 -0.3264  0.0429 -1.5925
  164TMC2    C7 2558   3.762   0.076  11.194 -0.1498 -0.4280 -0.3899
  164TMC2    C8 2559   4.182   0.230  11.049  0.3613 -1.1029  0.4235
  164TMC2    O1 2560   3.662   0.022  11.161 -0.1758  0.2579 -0.0862
  164TMC2    O2 2561   4.277   0.236  10.970  0.7362 -0.0527 -0.5095
  164TMC2    O5 2562   4.170   0.304  11.157 -0.0778  0.6334  0.0258
  164TMC2    H5 2563   4.111   0.274  11.230  2.2788  0.6636  1.9479
  165TMC2    C1 2564   0.879   3.264   1.261  0.1335 -0.1926  0.5064
  165TMC2    C2 2565   0.812   3.168   1.195  0.2880 -0.2452  0.3717
  165TMC2    C3 2566   0.884   3.073   1.123  0.2773 -0.2490  0.2747
  165TMC2    C4 2567   1.021   3.266   1.262 -0.3090 -0.4400  0.7909
  165TMC2    C5 2568   1.089   3.168   1.190 -0.5652 -0.5482  0.3641
  165TMC2    C6 2569   1.021   3.070   1.116  0.0318 -0.3632 -0.2051
  165TMC2     C 2570   0.797   3.338   1.355 -0.7120 -0.0125 -0.4030
  165TMC2     O 2571   0.687   3.291   1.381  0.2747 -0.3827  0.5607
  165TMC2     H 2572   0.704   3.158   1.200  0.1799  1.4767  1.7793
  165TMC2    H1 2573   1.074   3.330   1.331  2.0560 -0.7108 -0.7903
  165TMC2    H2 2574   1.067   2.983   1.072 -1.8883 -1.5657  0.1826
  165TMC2    C7 2575   1.230   3.191   1.191  0.2854  0.1703 -0.1340
  165TMC2    C8 2576   0.805   2.956   1.082  0.7134 -0.4603  0.6313
  165TMC2    O1 2577   1.269   3.309   1.199  0.2874 -0.4314 -0.1786
  165TMC2    O2 2578   0.704   2.928   1.140 -0.4740  0.0180  0.1369
  165TMC2    O5 2579   0.864   2.885   0.986  0.0537  0.6032  0.5964
  165TMC2    H5 2580   0.935   2.924   0.931  0.7694 -1.4662  0.0350
  166MPD2     C 2581   0.773   3.695   1.717 -0.1014  0.1063 -0.2096
  166MPD2    C1 2582   0.678   3.598   1.685  0.1659 -0.5581 -0.2950
  166MPD2    C2 2583   0.705   3.517   1.576 -0.2522  0.3069 -0.0821
  166MPD2    C3 2584   0.819   3.538   1.503  0.0270 -0.3126  0.8680
  166MPD2    C4 2585   0.909   3.633   1.533  0.4840  0.0281 -0.2293
  166MPD2    C5 2586   0.873   3.716   1.636  0.0580  0.6015 -0.4334
  166MPD2     H 2587   0.637   3.435   1.555  0.8903 -0.2744 -1.4750
  166MPD2    H1 2588   1.005   3.649   1.485  0.9787 -1.4636  0.2507
  166MPD2    H2 2589   0.757   3.758   1.804  1.3137 -0.9900  0.8335
  166MPD2    H3 2590   0.936   3.800   1.662 -0.3805  0.4682  1.0507
  166MPD2     N 2591   0.861   3.448   1.403  0.1329  0.1018  0.0434
  166MPD2    H5 2592   0.950   3.467   1.357  0.0898 -1.5591 -0.7444
  166MPD2    N1 2593   0.576   3.564   1.778  0.5624 -0.0804  0.6196
  166MPD2    H7 2594   0.580   3.621   1.862  0.1931  0.5369  0.2188
  167TMC2    C1 2595   3.502   4.692  13.163 -0.0718 -0.2199  0.6966
  167TMC2    C2 2596   3.419   4.710  13.272  0.4070 -0.1763 -1.0300
  167TMC2    C3 2597   3.338   4.609  13.315 -0.0143 -0.8213  1.3011
  167TMC2    C4 2598   3.500   4.586  13.083  0.0340 -0.1897 -0.1531
  167TMC2    C5 2599   3.407   4.492  13.125  0.5097 -0.0378  0.5650
  167TMC2    C6 2600   3.329   4.497  13.241 -0.0811 -0.3543  0.4641
  167TMC2     C 2601   3.580   0.071  13.119 -0.0088 -0.0832  0.4934
  167TMC2     O 2602   3.554   0.179  13.178 -0.0165  0.2679  0.0897
  167TMC2     H 2603   3.425   0.065  13.326 -0.2943 -1.9446  2.1175
  167TMC2    H1 2604   3.565   4.572  12.998 -0.8071  1.3973 -1.0691
  167TMC2    H2 2605   3.257   4.418  13.260 -1.4206  0.6602 -0.3584
  167TMC2    C7 2606   3.409   4.365  13.057  0.5304  1.0122 -0.1027
  167TMC2    C8 2607   3.253   4.621  13.429 -0.4067  0.4059 -0.3887
  167TMC2    O1 2608   3.324   4.285  13.097 -0.4456  0.0293  0.2835
  167TMC2    O2 2609   3.158   4.545  13.448 -0.5884 -0.0950 -0.2094
  167TMC2    O5 2610   3.304   4.709  13.516 -0.4832  0.2217  0.3417
  167TMC2    H5 2611   3.397   4.735  13.495  0.4009 -2.4151  0.9413
  168MPD2     C 2612   3.681   0.269  12.936  0.1930 -0.3589  0.2252
  168MPD2    C1 2613   3.703   0.133  12.920  0.0903 -0.0943 -0.2906
  168MPD2    C2 2614   3.772   0.087  12.812 -0.1844 -0.0210  0.5420
  168MPD2    C3 2615   3.792   0.174  12.702 -0.9404  0.5367 -0.6995
  168MPD2    C4 2616   3.766   0.305  12.720  0.1223  0.6925  0.4785
  168MPD2    C5 2617   3.710   0.355  12.834 -0.4015 -0.6929 -0.1701
  168MPD2     H 2618   3.791   4.719  12.800  2.6370  0.5164  0.2306
  168MPD2    H1 2619   3.776   0.372  12.635 -2.2546  1.2540  0.6356
  168MPD2    H2 2620   3.646   0.311  13.030  1.5376  0.6734  0.2597
  168MPD2    H3 2621   3.667   0.455  12.835 -0.9370 -0.9130 -1.6119
  168MPD2     N 2622   3.836   0.134  12.576 -0.0461  0.3808 -0.3224
  168MPD2    H5 2623   3.828   0.201  12.500  0.9319 -1.2591 -1.8700
  168MPD2    N1 2624   3.671   0.042  13.018 -0.3932  0.2573 -0.1116
  168MPD2    H7 2625   3.694   4.683  13.004  0.8273  0.5737 -0.3700
  169MPD1     C 2626   4.375   4.536   9.906 -0.1825 -0.5454  0.5107
  169MPD1    C1 2627   4.438   4.425   9.955  0.5471 -0.2987  0.0921
  169MPD1    C2 2628   4.569   4.405   9.908 -0.7903  0.5306  0.5209
  169MPD1    C3 2629   4.639   4.499   9.829  0.3491  0.3726  0.1434
  169MPD1    C4 2630   4.563   4.601   9.783  0.4973  0.7551  1.1277
  169MPD1    C5 2631   4.437   4.621   9.821 -0.1598 -0.2497  0.4509
  169MPD1     H 2632   4.623   4.318   9.942 -0.6877 -0.1871 -1.4977
  169MPD1    H1 2633   4.599   4.661   9.700 -0.9424  0.0037 -0.0379
  169MPD1    H2 2634   4.270   4.549   9.932 -0.8417 -3.1629 -0.8262
  169MPD1    H3 2635   4.377   4.695   9.769 -0.8080  1.6561  3.9183
  169MPD1     N 2636   0.025   4.457   9.790  0.0561  0.0401  0.2154
  169MPD1    H5 2637   0.055   4.375   9.842 -0.1356  0.6880  1.3617
  169MPD1    N1 2638   4.375   4.316  10.023 -0.6132 -0.0099  0.3715
  169MPD1    H6 2639   4.445   4.273  10.083  0.4380  0.6082 -0.4275
  169MPD1    H7 2640   4.309   4.362  10.087 -1.8447  0.8312 -1.4756
  170MPD1     C 2641   0.096   2.292  12.992 -0.2231 -0.3107 -0.3547
  170MPD1    C1 2642   4.713   2.342  12.957 -0.4258  0.1709 -0.1469
  170MPD1    C2 2643   4.615   2.340  13.053 -0.0617  0.5442 -0.2757
  170MPD1    C3 2644   4.635   2.303  13.184 -0.0669 -0.1342  0.0939
  170MPD1    C4 2645   0.024   2.265  13.213 -0.0192  0.4147 -0.2456
  170MPD1    C5 2646   0.123   2.263  13.121 -1.0515  0.1078  0.7099
  170MPD1     H 2647   4.508   2.353  13.041  0.0463  1.0564 -0.6827
  170MPD1    H1 2648   0.048   2.221  13.309  1.2461 -1.2058 -1.3233
  170MPD1    H2 2649   0.177   2.287  12.920  2.5207  2.1057  2.6031
  170MPD1    H3 2650   0.227   2.243  13.141 -0.4497  0.9669 -1.6210
  170MPD1     N 2651   4.522   2.289  13.270  0.0686  0.5036  0.7945
  170MPD1    H5 2652   4.427   2.286  13.234 -0.7653  3.6425  2.7975
  170MPD1    N1 2653   4.676   2.370  12.824 -0.1043 -0.3682  0.1785
  170MPD1    H6 2654   0.016   2.399  12.765 -1.4557  0.0050 -1.4353
  170MPD1    H7 2655   4.593   2.428  12.815 -0.5569 -0.4525  3.8549
  171MPD1     C 2656   2.965   3.472  15.629 -0.3796  0.0044  0.3284
  171MPD1    C1 2657   3.007   3.358  15.563 -0.4460 -0.1128  0.1540
  171MPD1    C2 2658   3.024   3.239  15.634 -0.2467  0.5813  0.3034
  171MPD1    C3 2659   3.030   3.240  15.769 -0.8818 -0.3408  0.1194
  171MPD1    C4 2660   3.002   3.356  15.838  0.0360 -0.2685  0.1051
  171MPD1    C5 2661   2.969   3.467  15.769 -0.3064 -0.2193  0.0533
  171MPD1     H 2662   3.041   3.154  15.567 -0.9264 -1.6987  3.0353
  171MPD1    H1 2663   2.996   3.369  15.945 -0.0455 -2.6300  0.3897
  171MPD1    H2 2664   2.937   3.562  15.576  1.1273 -0.2587 -0.9400
  171MPD1    H3 2665   2.959   3.556  15.830 -0.2663  1.4361 -2.3793
  171MPD1     N 2666   3.048   3.115  15.840  0.9784  0.0797 -0.0246
  171MPD1    H5 2667   3.030   3.125  15.939 -0.4979 -0.3006 -0.2540
  171MPD1    N1 2668   3.029   3.349  15.423  0.0495  0.0520 -0.2301
  171MPD1    H6 2669   3.049   3.439  15.380  1.0475  0.0172  0.1727
  171MPD1    H7 2670   3.095   3.278  15.392 -0.2749 -0.8944  1.2007
  172MPD1     C 2671   2.485   2.629  17.694  0.6554 -0.0032 -0.5752
  172MPD1    C1 2672   2.510   2.766  17.695  0.2549 -0.0316 -0.5760
  172MPD1    C2 2673   2.487   2.830   0.065  0.1572 -0.4436 -0.0406
  172MPD1    C3 2674   2.454   2.770   0.183  0.1443  1.2042  0.0938
  172MPD1    C4 2675   2.436   2.633   0.176 -0.6799  0.3477  0.8857
  172MPD1    C5 2676   2.462   2.560   0.060  0.2544  0.2856  0.0110
  172MPD1     H 2677   2.499   2.937   0.078  3.4897 -0.9361  0.8515
  172MPD1    H1 2678   2.409   2.575   0.264 -0.6423 -1.9724 -0.6389
  172MPD1    H2 2679   2.503   2.573  17.604  0.2233  0.1246 -0.7386
  172MPD1    H3 2680   2.460   2.451   0.058  1.2443  0.2634 -0.0339
  172MPD1     N 2681   2.417   2.832   0.303 -0.0922  0.2374  0.2345
  172MPD1    H5 2682   2.391   2.774   0.383  0.4193  0.6169  0.6781
  172MPD1    N1 2683   2.514   2.845  17.581  0.4852 -0.2731 -0.3946
  172MPD1    H6 2684   2.560   2.932  17.610  0.8937 -0.3927 -0.6938
  172MPD1    H7 2685   2.562   2.816  17.496  1.3973  1.6481 -0.5371
  173MPD1     C 2686   3.669   2.741  13.650 -0.7458  0.0388 -0.6680
  173MPD1    C1 2687   3.795   2.718  13.711 -0.1644 -0.4655  0.0683
  173MPD1    C2 2688   3.806   2.692  13.845  0.5860  0.0446 -0.4064
  173MPD1    C3 2689   3.691   2.669  13.922  0.1079  0.0095  0.0328
  173MPD1    C4 2690   3.573   2.692  13.863 -0.3862  0.4450  0.1921
  173MPD1    C5 2691   3.564   2.743  13.734 -1.3909  0.8086 -0.3562
  173MPD1     H 2692   3.900   2.678  13.897 -0.2117  1.7583  1.4795
  173MPD1    H1 2693   3.480   2.682  13.917 -0.0238 -1.6975  0.4024
  173MPD1    H2 2694   3.674   2.763  13.544  3.3346  0.1328 -0.4736
  173MPD1    H3 2695   3.467   2.773  13.696 -2.1681 -0.2712  0.7951
  173MPD1     N 2696   3.699   2.631  14.062  0.3538 -0.1026 -0.1934
  173MPD1    H5 2697   3.791   2.622  14.104 -0.0742 -0.2896  0.6919
  173MPD1    N1 2698   3.912   2.721  13.630 -0.6472  0.3938 -0.1524
  173MPD1    H6 2699   3.974   2.644  13.655  1.3806  2.1691  0.2605
  173MPD1    H7 2700   3.910   2.731  13.529 -0.9503 -1.3225 -0.3133
  174MPD1     C 2701   4.334   2.208  14.379  0.2927  0.2720  0.4956
  174MPD1    C1 2702   4.263   2.201  14.488  0.2516  0.3062  0.0582
  174MPD1    C2 2703   4.128   2.233  14.468 -0.4083 -0.0396  0.0096
  174MPD1    C3 2704   4.070   2.272  14.351  0.4393 -0.2509 -0.5098
  174MPD1    C4 2705   4.150   2.263  14.238 -0.4766  0.0063 -0.2982
  174MPD1    C5 2706   4.282   2.247  14.252  0.1685 -0.0081  0.8274
  174MPD1     H 2707   4.069   2.242  14.558  2.8391 -1.6107  2.2957
  174MPD1    H1 2708   4.112   2.294  14.141 -2.6252 -0.0580  0.5206
  174MPD1    H2 2709   4.439   2.180  14.384 -0.2883 -2.0115  0.0232
  174MPD1    H3 2710   4.355   2.256  14.172 -0.1159  0.0367  0.5746
  174MPD1     N 2711   3.941   2.319  14.336  0.6854 -0.1273 -0.2021
  174MPD1    H5 2712   3.910   2.349  14.245 -0.7375 -1.6708 -0.2350
  174MPD1    N1 2713   4.316   2.203  14.619  0.5071 -0.6289  0.4226
  174MPD1    H6 2714   4.391   2.135  14.630 -0.4543 -1.8290 -0.3035
  174MPD1    H7 2715   4.244   2.180  14.688  1.0297 -0.2072  1.1009
  175MPD1     C 2716   2.079   4.233  15.820 -0.1804 -0.4201  0.3138
  175MPD1    C1 2717   2.153   4.128  15.772 -0.4494  0.0672  0.2915
  175MPD1    C2 2718   2.125   4.003  15.819  0.4857 -0.3672  0.8886
  175MPD1    C3 2719   2.025   3.988  15.911  0.4440 -0.7064 -0.2186
  175MPD1    C4 2720   1.958   4.095  15.967  0.4838 -0.2040  0.4663
  175MPD1    C5 2721   1.985   4.218  15.913  0.9923  0.5882 -0.6550
  175MPD1     H 2722   2.176   3.914  15.784  2.5866  1.3303 -0.3027
  175MPD1    H1 2723   1.880   4.071  16.038 -1.0747 -1.1811 -1.5533
  175MPD1    H2 2724   2.100   4.328  15.772 -2.2218 -0.1459 -0.0245
  175MPD1    H3 2725   1.913   4.296  15.937 -2.2674 -2.8931  0.8874
  175MPD1     N 2726   1.999   3.856  15.959  0.3942  0.4384  0.1114
  175MPD1    H5 2727   1.932   3.842  16.034  0.1200  3.0304  0.3425
  175MPD1    N1 2728   2.232   4.134  15.657 -0.4306  0.4605  0.0038
  175MPD1    H6 2729   2.301   4.060  15.641 -0.3525  0.2285  1.3855
  175MPD1    H7 2730   2.267   4.227  15.635 -1.1806  1.2003  2.0108
  176MPD1     C 2731   3.770   0.460  16.823  0.4128 -0.4225  0.3062
  176MPD1    C1 2732   3.771   0.576  16.747  0.3345  0.4798  0.5669
  176MPD1    C2 2733   3.705   0.684  16.797 -0.5529 -0.0407  0.7380
  176MPD1    C3 2734   3.660   0.685  16.925  0.4835  0.0979 -0.2705
  176MPD1    C4 2735   3.666   0.571  17.004 -0.4017 -0.5768  0.2852
  176MPD1    C5 2736   3.714   0.459  16.951  0.0114  0.0525 -0.1553
  176MPD1     H 2737   3.707   0.778  16.742  2.0106 -0.8760 -0.6019
  176MPD1    H1 2738   3.622   0.572  17.103  0.0868 -0.2236  0.5014
  176MPD1    H2 2739   3.808   0.366  16.785  0.8636  0.6002 -1.7661
  176MPD1    H3 2740   3.721   0.366  17.005  2.3153 -0.1597 -0.7934
  176MPD1     N 2741   3.607   0.801  16.970  0.6841  0.0570  0.0339
  176MPD1    H5 2742   3.603   0.881  16.909 -0.7492 -1.0414 -1.2941
  176MPD1    N1 2743   3.812   0.567  16.613  0.1233 -0.4660 -0.3140
  176MPD1    H6 2744   3.845   0.657  16.579 -0.3650  0.4008  1.4621
  176MPD1    H7 2745   3.892   0.504  16.604  0.1253 -0.2110 -1.9928
  177MPD1     C 2746   1.925   0.439  10.742 -0.6789 -0.0186 -0.2730
  177MPD1    C1 2747   1.924   0.570  10.711  0.0942  0.0692 -0.2910
  177MPD1    C2 2748   1.852   0.602  10.598  0.5644  0.0658  0.7869
  177MPD1    C3 2749   1.798   0.512  10.510 -0.2597  0.8203 -0.0802
  177MPD1    C4 2750   1.806   0.381  10.537 -0.3514 -0.4724  0.1753
  177MPD1    C5 2751   1.869   0.346  10.662  0.2336  0.0768 -0.4267
  177MPD1     H 2752   1.839   0.708  10.583  0.5744 -0.5172 -3.6247
  177MPD1    H1 2753   1.759   0.303  10.478 -2.2975 -0.0909  1.2363
  177MPD1    H2 2754   1.966   0.408  10.838 -0.0758 -0.3256 -0.6315
  177MPD1    H3 2755   1.861   0.242  10.692  1.0876  0.3919  0.8701
  177MPD1     N 2756   1.734   0.565  10.396 -0.0387 -0.3049  0.2136
  177MPD1    H5 2757   1.750   0.664  10.383 -0.0751 -0.6835 -2.5873
  177MPD1    N1 2758   1.958   0.665  10.808 -0.2658  0.3028 -0.0054
  177MPD1    H6 2759   1.988   0.742  10.748 -0.3149 -0.3166 -0.8173
  177MPD1    H7 2760   2.032   0.627  10.868 -0.4811  0.0400  0.0894
  178MPD1     C 2761   4.239   1.723   0.410  0.1218  0.4125  0.5772
  178MPD1    C1 2762   4.207   1.604   0.365 -0.2805 -0.2953  0.8016
  178MPD1    C2 2763   4.256   1.586   0.231  0.1207 -0.2507  0.5694
  178MPD1    C3 2764   4.313   1.690   0.152  0.0550 -0.2628  1.1540
  178MPD1    C4 2765   4.319   1.819   0.209 -0.3448  0.0608  0.3244
  178MPD1    C5 2766   4.284   1.829   0.339 -0.1636 -0.7437  0.4751
  178MPD1     H 2767   4.250   1.487   0.189  0.0254 -0.6828  1.6106
  178MPD1    H1 2768   4.356   1.907   0.159 -1.6862  1.2370  1.4074
  178MPD1    H2 2769   4.230   1.739   0.517  0.5704 -0.7934  0.7927
  178MPD1    H3 2770   4.302   1.925   0.387 -1.1621  1.0839 -2.8456
  178MPD1     N 2771   4.349   1.683   0.018 -0.1600 -0.2390  0.4744
  178MPD1    H5 2772   4.384   1.764  17.719  2.1323 -0.7114  1.2943
  178MPD1    N1 2773   4.159   1.502   0.445  0.0165 -0.2566 -0.8899
  178MPD1    H6 2774   4.109   1.440   0.382 -0.9588 -0.2716 -0.0975
  178MPD1    H7 2775   4.099   1.539   0.520  0.3237  1.0369 -1.2745
  179MPD1     C 2776   3.985   0.022  15.633 -0.2434 -0.6061 -0.0658
  179MPD1    C1 2777   3.943   4.666  15.535 -0.3743  0.0479 -1.1180
  179MPD1    C2 2778   3.925   4.535  15.580 -0.5271 -0.1531 -0.1744
  179MPD1    C3 2779   3.922   4.502  15.715  0.2792  0.4882 -0.1741
  179MPD1    C4 2780   3.963   4.594  15.801 -1.0977 -0.0653 -0.2308
  179MPD1    C5 2781   4.003   4.716  15.761  0.2505 -0.7453  0.6751
  179MPD1     H 2782   3.896   4.454  15.514 -1.0447 -0.5888  0.5922
  179MPD1    H1 2783   3.949   4.582  15.908  0.0703  0.3486 -0.0399
  179MPD1    H2 2784   3.992   0.125  15.602  1.6327 -0.6234  0.3308
  179MPD1    H3 2785   4.030   0.049  15.838  1.3904  0.8379 -1.1994
  179MPD1     N 2786   3.880   4.376  15.765  0.3619  0.2755  0.9055
  179MPD1    H5 2787   3.875   4.369  15.866  1.9206 -0.6101  0.9212
  179MPD1    N1 2788   3.894   4.708  15.408  0.1107  0.4355  0.2059
  179MPD1    H6 2789   3.939   0.057  15.382 -0.8479  0.3224 -1.8382
  179MPD1    H7 2790   3.909   4.648  15.328  0.0246  0.6007  0.0648
  180MPD1     C 2791   3.592   1.493  15.097 -0.1316  0.6643 -0.6984
  180MPD1    C1 2792   3.685   1.537  15.002  0.3587 -0.7514 -0.9535
  180MPD1    C2 2793   3.738   1.443  14.912 -0.3490 -1.0617 -0.4609
  180MPD1    C3 2794   3.690   1.314  14.915  0.6809 -0.3212  0.3069
  180MPD1    C4 2795   3.605   1.272  15.018 -0.0239  0.0115  0.3076
  180MPD1    C5 2796   3.553   1.362  15.102  0.2081  0.0332  0.5127
  180MPD1     H 2797   3.811   1.470  14.837 -1.1272  1.7881 -0.1655
  180MPD1    H1 2798   3.572   1.170  15.034 -0.0093 -0.1875 -0.9374
  180MPD1    H2 2799   3.534   1.563  15.155  1.3617 -0.1927  1.8028
  180MPD1    H3 2800   3.469   1.327  15.161 -1.3424  0.5548 -1.4027
  180MPD1     N 2801   3.733   1.232  14.805  0.5040  0.1026  0.6389
  180MPD1    H5 2802   3.793   1.271  14.733  0.3566  1.3162  1.1574
  180MPD1    N1 2803   3.737   1.671  15.000  0.1729 -0.2946 -1.0908
  180MPD1    H6 2804   3.676   1.737  15.047 -0.9582 -2.6230  0.7615
  180MPD1    H7 2805   3.774   1.702  14.911 -2.0625  1.0159 -1.5795
  181MPD1     C 2806   0.594   2.443  10.205  0.7855 -0.3538 -0.5406
  181MPD1    C1 2807   0.603   2.526  10.314  0.7228 -0.9359  0.1303
  181MPD1    C2 2808   0.700   2.626  10.313 -0.1793 -0.4347 -0.3002
  181MPD1    C3 2809   0.777   2.655  10.206 -0.2869  0.3798  0.4036
  181MPD1    C4 2810   0.770   2.574  10.096  0.0051  0.2407 -0.3551
  181MPD1    C5 2811   0.687   2.464  10.104 -0.2597  0.2125 -0.2040
  181MPD1     H 2812   0.703   2.680  10.408  2.0028 -0.5481 -0.2909
  181MPD1    H1 2813   0.835   2.576  10.010 -1.1491 -1.6670 -1.2756
  181MPD1    H2 2814   0.526   2.359  10.195 -0.0616 -0.1184  3.2721
  181MPD1    H3 2815   0.696   2.385  10.029  0.9999 -0.2168  0.3984
  181MPD1     N 2816   0.884   2.747  10.213  0.3281  0.4927  0.5695
  181MPD1    H5 2817   0.950   2.739  10.136  2.8257  2.6862  2.5057
  181MPD1    N1 2818   0.518   2.503  10.424 -0.1036 -0.1318  0.8169
  181MPD1    H6 2819   0.491   2.591  10.467  0.8821  0.2620  0.6248
  181MPD1    H7 2820   0.435   2.452  10.394 -0.5069  0.0896  1.5630
  182MPD1     C 2821   3.422   2.657   2.179 -0.1757 -0.0155  0.8104
  182MPD1    C1 2822   3.399   2.622   2.052  0.6916 -0.3593 -0.6763
  182MPD1    C2 2823   3.269   2.624   2.005  0.6509 -0.1890  0.8911
  182MPD1    C3 2824   3.159   2.644   2.093  0.6156 -0.0065 -0.3901
  182MPD1    C4 2825   3.188   2.669   2.226  0.0712 -0.5158  0.1709
  182MPD1    C5 2826   3.315   2.673   2.267  0.1927  0.2359  0.0787
  182MPD1     H 2827   3.250   2.619   1.898  0.0005  1.0189  0.9389
  182MPD1    H1 2828   3.108   2.690   2.296 -0.0075  2.0725 -0.6915
  182MPD1    H2 2829   3.523   2.665   2.218 -0.7232  1.0796  2.0272
  182MPD1    H3 2830   3.340   2.699   2.369  1.4508  0.7005 -0.3534
  182MPD1     N 2831   3.021   2.649   2.056 -0.2357  0.8466 -0.0757
  182MPD1    H5 2832   2.951   2.689   2.117  0.7028  2.0407  0.2207
  182MPD1    N1 2833   3.506   2.614   1.964  0.2788  0.2630 -0.0106
  182MPD1    H6 2834   3.508   2.706   1.920 -1.0661 -0.9065 -2.5094
  182MPD1    H7 2835   3.483   2.562   1.880  0.2446  1.9041 -1.0104
  183MPD1     C 2836   1.926   2.109   8.649 -0.1707 -0.6405  0.4326
  183MPD1    C1 2837   1.975   2.100   8.775 -0.1192  0.1881  0.9993
  183MPD1    C2 2838   1.957   2.208   8.853  0.5798 -0.0347 -0.5005
  183MPD1    C3 2839   1.863   2.312   8.822 -0.0295 -0.4174  0.0770
  183MPD1    C4 2840   1.816   2.314   8.691  0.2681 -0.5478  0.0783
  183MPD1    C5 2841   1.852   2.213   8.600  0.9652 -0.0299  0.3708
  183MPD1     H 2842   1.999   2.209   8.953  0.5359 -0.0913 -0.4816
  183MPD1    H1 2843   1.747   2.390   8.657 -0.1270 -2.0600 -2.4480
  183MPD1    H2 2844   1.949   2.045   8.564 -2.1524  0.4509 -0.9185
  183MPD1    H3 2845   1.831   2.213   8.494 -1.4166 -2.5010  0.8308
  183MPD1     N 2846   1.840   2.415   8.923  0.2081  0.6062 -0.0836
  183MPD1    H5 2847   1.871   2.387   9.016 -0.9048  5.0293  1.5961
  183MPD1    N1 2848   2.073   2.005   8.803 -0.0566  0.3663 -0.0059
  183MPD1    H6 2849   2.076   1.978   8.901  2.2408  2.2025  0.4402
  183MPD1    H7 2850   2.058   1.920   8.750  0.9567 -0.5216  1.1299
  184MPD1     C 2851   0.935   4.667  11.016  0.6000 -0.6415 -0.1279
  184MPD1    C1 2852   1.044   0.015  11.005  0.1870 -0.3389  0.2557
  184MPD1    C2 2853   1.041   0.122  10.913  0.3816  0.2782 -0.2004
  184MPD1    C3 2854   0.931   0.151  10.839  0.0055  1.0273  0.1963
  184MPD1    C4 2855   0.816   0.078  10.867 -0.5517  0.0055 -0.1751
  184MPD1    C5 2856   0.823   4.703  10.948  0.9872  0.5199  0.0571
  184MPD1     H 2857   1.126   0.188  10.915  1.7404 -1.4399 -1.1193
  184MPD1    H1 2858   0.725   0.097  10.811 -0.8223  2.4645  1.0943
  184MPD1    H2 2859   0.926   4.585  11.085  1.5126  0.4282  1.2819
  184MPD1    H3 2860   0.738   4.637  10.957 -0.5472  2.0638 -3.0951
  184MPD1     N 2861   0.925   0.253  10.745  0.5301 -0.4202 -0.3778
  184MPD1    H5 2862   0.839   0.277  10.697  0.7831 -2.2696 -1.7550
  184MPD1    N1 2863   1.161   4.702  11.065  0.5210 -1.1009  0.2827
  184MPD1    H6 2864   1.247   0.020  11.070  0.1827 -0.6159  0.6902
  184MPD1    H7 2865   1.136   4.669  11.158 -1.8564 -1.8709 -0.6334
  185MPD1     C 2866   0.392   0.739  10.055 -0.0518  0.1158  0.4472
  185MPD1    C1 2867   0.382   0.621  10.125 -0.5096  0.0120 -0.6928
  185MPD1    C2 2868   0.494   0.576  10.188  0.5165 -0.9771 -0.5485
  185MPD1    C3 2869   0.614   0.652  10.197  0.6911  0.1093 -0.5588
  185MPD1    C4 2870   0.618   0.769  10.132 -0.0176  0.1731  0.0162
  185MPD1    C5 2871   0.511   0.809  10.062 -0.3516 -0.1993 -0.5766
  185MPD1     H 2872   0.489   0.483  10.244  2.6353 -0.3734  0.6254
  185MPD1    H1 2873   0.710   0.825  10.122 -0.4275  0.8113 -0.2004
  185MPD1    H2 2874   0.321   0.788   9.989 -0.4639  1.1187  1.6167
  185MPD1    H3 2875   0.513   0.905  10.012  0.9827 -0.3583 -0.8343
  185MPD1     N 2876   0.729   0.611  10.268 -0.7753  0.4723 -0.2567
  185MPD1    H5 2877   0.809   0.673  10.263  0.7619 -1.2722  2.1359
  185MPD1    N1 2878   0.271   0.540  10.113 -0.0188  0.5534 -0.2195
  185MPD1    H6 2879   0.184   0.592  10.120 -0.4362 -0.1939  0.2415
  185MPD1    H7 2880   0.267   0.467  10.184  0.9473  1.1527  0.4504
  186MPD1     C 2881   3.981   0.442  15.705  0.6854 -0.7085 -0.2022
  186MPD1    C1 2882   3.930   0.449  15.831  0.1613 -0.3149  0.9044
  186MPD1    C2 2883   3.996   0.391  15.937  0.0403 -0.2982  0.4214
  186MPD1    C3 2884   4.111   0.318  15.914 -0.0668  0.3990 -0.1967
  186MPD1    C4 2885   4.164   0.308  15.781  0.0651 -0.1740  0.3259
  186MPD1    C5 2886   4.100   0.373  15.680  0.0684  0.4104  0.2712
  186MPD1     H 2887   3.956   0.399  16.037  0.9401  1.0978  0.6807
  186MPD1    H1 2888   4.258   0.258  15.761 -1.4722 -1.5024 -3.5438
  186MPD1    H2 2889   3.939   0.505  15.627  1.9427  0.3839  0.0002
  186MPD1    H3 2890   4.142   0.364  15.581 -1.2457 -1.3302 -0.1272
  186MPD1     N 2891   4.179   0.248  16.014  0.4341 -0.1436  0.1874
  186MPD1    H5 2892   4.261   0.192  15.993  0.1106  0.3290 -2.3176
  186MPD1    N1 2893   3.840   0.553  15.858 -0.2508  0.4432 -0.1819
  186MPD1    H6 2894   3.778   0.561  15.777  0.4368  1.8185 -0.5627
  186MPD1    H7 2895   3.789   0.537  15.944 -0.5265 -2.2449 -0.8177
  187MPD1     C 2896   4.455   2.096  16.648 -0.0417  0.3906  0.0055
  187MPD1    C1 2897   4.349   2.018  16.648  0.1130 -0.1179 -0.6557
  187MPD1    C2 2898   4.246   2.042  16.737  1.3244 -0.1166 -0.3185
  187MPD1    C3 2899   4.264   2.131  16.848 -0.5431 -0.2862 -0.1377
  187MPD1    C4 2900   4.380   2.203  16.842 -0.2232  0.4982 -0.7353
  187MPD1    C5 2901   4.473   2.189  16.743  0.3152 -0.3573 -0.3571
  187MPD1     H 2902   4.151   1.991  16.730  0.4860  1.4252 -0.2318
  187MPD1    H1 2903   4.414   2.269  16.920 -1.4628  1.3008 -0.8886
  187MPD1    H2 2904   4.526   2.106  16.567  0.3507 -0.6946  0.2138
  187MPD1    H3 2905   4.567   2.242  16.735  0.2957 -0.2508  0.1289
  187MPD1     N 2906   4.172   2.162  16.953 -0.1669 -0.4865 -0.1669
  187MPD1    H5 2907   4.193   2.232  17.023  0.1034 -0.1671 -0.5650
  187MPD1    N1 2908   4.338   1.927  16.539 -0.0140 -0.2419  0.0538
  187MPD1    H6 2909   4.430   1.893  16.510 -0.1494 -0.4973 -0.0737
  187MPD1    H7 2910   4.278   1.848  16.557 -0.6760  0.6419  1.7075
  188MPD1     C 2911   3.121   1.689  11.317 -0.0331 -0.2092  0.4131
  188MPD1    C1 2912   3.212   1.601  11.363  0.4949 -0.4541 -0.1358
  188MPD1    C2 2913   3.237   1.484  11.289 -0.3692  0.6077  0.6071
  188MPD1    C3 2914   3.147   1.446  11.182  0.5855  0.4111  0.1600
  188MPD1    C4 2915   3.040   1.533  11.151  0.3503 -0.3725  0.3827
  188MPD1    C5 2916   3.035   1.654  11.221  0.0761 -0.5517  0.4004
  188MPD1     H 2917   3.328   1.427  11.303 -0.7266 -0.5061 -1.6298
  188MPD1    H1 2918   2.983   1.511  11.062 -0.9880 -0.2690  1.2173
  188MPD1    H2 2919   3.097   1.779  11.373 -0.6508 -0.4927  0.6089
  188MPD1    H3 2920   2.955   1.723  11.194  0.5694  0.2283  0.9518
  188MPD1     N 2921   3.159   1.330  11.099 -0.0435  0.2569 -0.1020
  188MPD1    H5 2922   3.101   1.325  11.015 -2.3465  0.0316  1.4965
  188MPD1    N1 2923   3.312   1.648  11.455 -0.3628 -0.2202  0.2737
  188MPD1    H6 2924   3.282   1.719  11.523  1.5454 -1.4392  2.3626
  188MPD1    H7 2925   3.359   1.567  11.495 -1.3095  0.0096  1.8429
  189MPD1     C 2926   1.112   3.174   0.848 -0.3666 -0.1116  0.2132
  189MPD1    C1 2927   1.023   3.094   0.773  1.5976 -0.3009 -0.2208
  189MPD1    C2 2928   0.921   3.152   0.712  0.9591  0.3391  0.9360
  189MPD1    C3 2929   0.911   3.285   0.689 -0.7847  0.1955  0.3933
  189MPD1    C4 2930   1.000   3.371   0.756  0.1549  0.2824 -0.3030
  189MPD1    C5 2931   1.097   3.312   0.836  0.5525  0.5206  0.6383
  189MPD1     H 2932   0.847   3.088   0.664  2.3189 -1.2094  0.8969
  189MPD1    H1 2933   1.012   3.479   0.752  3.2390 -0.0347 -0.0827
  189MPD1    H2 2934   1.195   3.136   0.906 -0.9946  0.4628  1.4704
  189MPD1    H3 2935   1.156   3.375   0.901  0.8212  0.5992  0.3154
  189MPD1     N 2936   0.817   3.350   0.608 -0.3476 -0.2120 -0.3124
  189MPD1    H5 2937   0.751   3.291   0.558 -1.7283  1.0066  0.0900
  189MPD1    N1 2938   1.041   2.956   0.777  0.1661 -0.2509  0.6119
  189MPD1    H6 2939   1.134   2.920   0.757  0.4258  1.2277 -0.8275
  189MPD1    H7 2940   0.975   2.916   0.710  0.8239  0.9203 -0.7473
  190MPD1     C 2941   3.535   0.860  15.323  0.0859  0.7653  0.1696
  190MPD1    C1 2942   3.584   0.990  15.359 -0.5117 -0.3482  0.0199
  190MPD1    C2 2943   3.713   1.005  15.389 -0.0105 -0.6690 -0.2046
  190MPD1    C3 2944   3.809   0.902  15.376 -0.3751  0.4000  0.4149
  190MPD1    C4 2945   3.757   0.786  15.321 -0.3570  0.0039  0.3293
  190MPD1    C5 2946   3.626   0.762  15.295 -0.5497  0.5523  0.0494
  190MPD1     H 2947   3.740   1.100  15.431  0.1765 -1.5234  1.6177
  190MPD1    H1 2948   3.818   0.699  15.300 -1.2554  0.3715 -3.7080
  190MPD1    H2 2949   3.432   0.836  15.301 -0.1973  2.4157 -0.3492
  190MPD1    H3 2950   3.603   0.663  15.258 -2.8827  1.5640 -1.1851
  190MPD1     N 2951   3.942   0.923  15.407  0.3620  0.4290 -0.0146
  190MPD1    H5 2952   3.972   1.016  15.436  0.9673  0.1645  0.2002
  190MPD1    N1 2953   3.489   1.091  15.382  0.2164 -0.1395  0.5118
  190MPD1    H6 2954   3.403   1.067  15.334  0.5294  1.4041 -0.8120
  190MPD1    H7 2955   3.528   1.180  15.353 -0.0852  0.1171  0.9050
  191MPD1     C 2956   3.526   2.774  12.801 -0.1445  0.3582 -0.4688
  191MPD1    C1 2957   3.615   2.874  12.846  0.0705  0.3340  0.0477
  191MPD1    C2 2958   3.632   2.984  12.759  0.6801  0.3880  0.5253
  191MPD1    C3 2959   3.568   3.005  12.636  0.2092  0.7979  0.3191
  191MPD1    C4 2960   3.494   2.900  12.593 -0.2033 -0.9416  0.0674
  191MPD1    C5 2961   3.480   2.784  12.671 -0.5161 -0.0645 -0.1260
  191MPD1     H 2962   3.691   3.064  12.802  0.2142  1.4424 -0.7757
  191MPD1    H1 2963   3.438   2.905  12.501 -3.7013 -1.4389  2.1647
  191MPD1    H2 2964   3.506   2.686  12.860 -0.7627  1.4497  0.9434
  191MPD1    H3 2965   3.412   2.706  12.639 -0.5664 -0.8214  1.8349
  191MPD1     N 2966   3.592   3.122  12.557 -0.2115 -0.0113  0.3184
  191MPD1    H5 2967   3.675   3.174  12.585 -0.7337  2.0263 -1.8642
  191MPD1    N1 2968   3.673   2.870  12.974  0.4775 -0.4108 -0.9304
  191MPD1    H6 2969   3.749   2.938  12.975 -0.2087  0.3493  0.3488
  191MPD1    H7 2970   3.707   2.779  13.003  0.9374 -0.1468 -0.6435
  192MPD1     C 2971   3.335   3.758  11.702  0.1584 -0.6596 -0.1769
  192MPD1    C1 2972   3.250   3.689  11.788  0.4167  0.2572  0.2195
  192MPD1    C2 2973   3.302   3.634  11.901 -0.2598  0.1049  0.3418
  192MPD1    C3 2974   3.436   3.649  11.932  0.0523  0.0769  0.0634
  192MPD1    C4 2975   3.517   3.730  11.861 -0.2755  0.8899 -0.2138
  192MPD1    C5 2976   3.468   3.783  11.746 -0.5395  0.4434  0.0263
  192MPD1     H 2977   3.247   3.564  11.964 -3.4856  1.1803 -1.2623
  192MPD1    H1 2978   3.620   3.756  11.881  0.7059 -1.3568 -2.4020
  192MPD1    H2 2979   3.302   3.816  11.616  0.7678  0.4815  0.3570
  192MPD1    H3 2980   3.529   3.853  11.691 -0.1891 -0.2275 -0.4425
  192MPD1     N 2981   3.500   3.586  12.044  0.3849 -0.1911 -0.5923
  192MPD1    H5 2982   3.596   3.605  12.071  0.5724  0.6440 -1.8840
  192MPD1    N1 2983   3.117   3.652  11.750  0.1491 -0.5243 -0.4609
  192MPD1    H6 2984   3.082   3.715  11.678 -2.8925 -1.4103  0.2261
  192MPD1    H7 2985   3.058   3.655  11.832  1.0862 -0.1166  0.1960
  193MPD1     C 2986   3.229   2.938  17.449 -0.0258  0.3890  0.4018
  193MPD1    C1 2987   3.117   3.002  17.402  0.0742 -0.8949 -0.3586
  193MPD1    C2 2988   3.128   3.077  17.287 -0.1929 -0.2588  0.0032
  193MPD1    C3 2989   3.242   3.067  17.212 -0.0040 -0.1056 -0.1344
  193MPD1    C4 2990   3.344   2.982  17.248  0.2413  0.0361 -0.2537
  193MPD1    C5 2991   3.339   2.927  17.372  0.0036  0.7964 -0.4591
  193MPD1     H 2992   3.047   3.147  17.272 -1.7597 -1.9563  0.4443
  193MPD1    H1 2993   3.436   2.973  17.192  0.3995 -1.6992  0.2970
  193MPD1    H2 2994   3.221   2.880  17.540  0.3542  2.6300  1.8625
  193MPD1    H3 2995   3.414   2.854  17.399 -0.2622  1.0383  0.9284
  193MPD1     N 2996   3.281   3.144  17.100  0.1782  0.0936 -0.6682
  193MPD1    H5 2997   3.381   3.147  17.079  0.1828 -1.4037 -0.8665
  193MPD1    N1 2998   3.013   3.026  17.493 -0.0495  0.6310  0.2626
  193MPD1    H6 2999   2.990   2.950  17.557 -0.2631 -1.3704 -2.2093
  193MPD1    H7 3000   2.930   3.058  17.444  0.4750 -0.5297 -1.3632
  194MPD1     C 3001   0.933   0.297  16.236 -0.2572 -0.5621  0.6456
  194MPD1    C1 3002   1.024   0.250  16.145  0.8177  0.6271  0.0864
  194MPD1    C2 3003   1.155   0.237  16.178  0.6393 -0.3277 -0.5693
  194MPD1    C3 3004   1.203   0.292  16.298  0.1027 -0.2725  0.0900
  194MPD1    C4 3005   1.111   0.347  16.378 -0.4952 -0.4742  0.0732
  194MPD1    C5 3006   0.978   0.358  16.344  0.4012 -0.0731  0.3196
  194MPD1     H 3007   1.217   0.180  16.109  0.3604 -0.6861 -0.5224
  194MPD1    H1 3008   1.134   0.396  16.472 -2.1541  0.3910  0.0264
  194MPD1    H2 3009   0.826   0.294  16.215  0.0935 -0.2188 -1.2216
  194MPD1    H3 3010   0.908   0.403  16.414 -1.1734 -2.0858  0.0491
  194MPD1     N 3011   1.337   0.290  16.341 -0.2141 -0.1377  0.0905
  194MPD1    H5 3012   1.342   0.332  16.433  1.0977  0.4792 -0.2609
  194MPD1    N1 3013   0.970   0.167  16.039  0.2580  0.5670 -0.1380
  194MPD1    H6 3014   0.879   0.206  16.016  1.0838  1.6728 -1.4818
  194MPD1    H7 3015   1.031   0.173  15.957 -0.7628 -0.3348 -0.9628
  195MPD1     C 3016   3.335   2.778   0.038 -0.4388  0.7467 -0.6224
  195MPD1    C1 3017   3.256   2.662   0.027  0.4011 -0.3647 -0.0812
  195MPD1    C2 3018   3.296   2.560  17.694 -0.1117 -0.5622 -0.4569
  195MPD1    C3 3019   3.403   2.575  17.617 -0.0797  0.0762  0.1786
  195MPD1    C4 3020   3.469   2.700  17.622 -0.1738 -0.1939  0.4602
  195MPD1    C5 3021   3.443   2.801  17.705 -0.0109 -0.2304  0.7680
  195MPD1     H 3022   3.248   2.463  17.705 -2.5638  0.9908  2.5222
  195MPD1    H1 3023   3.562   2.721  17.570 -0.1059 -1.3304  0.1087
  195MPD1    H2 3024   3.316   2.860   0.106  1.4289  0.7114 -0.0518
  195MPD1    H3 3025   3.499   2.892  17.690  0.9419 -1.1011 -1.0756
  195MPD1     N 3026   3.459   2.476  17.536 -0.6658  0.8327  0.0331
  195MPD1    H5 3027   3.549   2.489  17.492 -1.4090  0.2036 -1.6773
  195MPD1    N1 3028   3.146   2.643   0.114  0.0143  0.2162  0.2716
  195MPD1    H6 3029   3.078   2.586   0.065 -0.0288 -1.2256  2.0264
  195MPD1    H7 3030   3.114   2.731   0.153 -1.3251 -0.3250  0.3707
  196MPD1     C 3031   3.217   2.428   0.389  1.0094 -0.3613  0.1784
  196MPD1    C1 3032   3.278   2.540   0.446  0.4194  0.3188  0.0570
  196MPD1    C2 3033   3.321   2.534   0.572 -0.3840  0.0645  0.4804
  196MPD1    C3 3034   3.287   2.433   0.662  0.2645 -0.0168  0.6352
  196MPD1    C4 3035   3.213   2.330   0.605 -0.3850 -0.4668 -0.5877
  196MPD1    C5 3036   3.192   2.323   0.468 -0.4368  0.7582  0.3171
  196MPD1     H 3037   3.358   2.625   0.617  1.3590 -0.6760  0.5607
  196MPD1    H1 3038   3.183   2.242   0.662 -0.5436  0.1462  0.2851
  196MPD1    H2 3039   3.201   2.419   0.282  2.4255 -1.8303  0.0816
  196MPD1    H3 3040   3.139   2.234   0.438 -0.3244  0.3783  1.2570
  196MPD1     N 3041   3.321   2.426   0.795 -0.5094  0.3085  0.3641
  196MPD1    H5 3042   3.274   2.354   0.849 -1.7107  0.9308  0.1524
  196MPD1    N1 3043   3.311   2.644   0.357  0.3985  0.9128 -0.4103
  196MPD1    H6 3044   3.237   2.666   0.290  0.1262  0.2943 -0.3165
  196MPD1    H7 3045   3.330   2.728   0.411  1.4906 -0.0854  0.7402
  197MPD1     C 3046   1.951   3.336  17.739  0.3405 -0.0525  0.4891
  197MPD1    C1 3047   2.027   3.450   0.006  1.0796 -0.2945 -0.1529
  197MPD1    C2 3048   2.045   3.527  17.642 -0.3912  0.2485 -1.2306
  197MPD1    C3 3049   1.988   3.494  17.521 -0.0834  0.0572  0.1864
  197MPD1    C4 3050   1.897   3.392  17.511  0.0624  0.5511 -0.5796
  197MPD1    C5 3051   1.889   3.311  17.616  0.1442 -0.0191 -0.2527
  197MPD1     H 3052   2.107   3.616  17.647  0.4889 -0.3272 -1.9283
  197MPD1    H1 3053   1.833   3.371  17.426  3.8443  3.1091 -4.0383
  197MPD1    H2 3054   1.949   3.259   0.064  1.3357 -3.5245 -2.9878
  197MPD1    H3 3055   1.833   3.219  17.600 -0.1972  0.2636 -0.6546
  197MPD1     N 3056   2.003   3.566  17.401 -0.0406 -0.0691 -0.1632
  197MPD1    H5 3057   1.950   3.538  17.318 -1.5639 -0.6539  1.0016
  197MPD1    N1 3058   2.075   3.500   0.129 -0.7553 -0.0951 -0.3282
  197MPD1    H6 3059   2.080   3.427   0.200  1.6884 -0.3469 -0.7488
  197MPD1    H7 3060   2.167   3.539   0.110  0.1658 -2.4522 -0.7375
  198MPD1     C 3061   3.830   2.330  15.704  0.5159 -0.1574 -0.1637
  198MPD1    C1 3062   3.871   2.197  15.708 -0.9041 -0.3209 -0.6151
  198MPD1    C2 3063   3.925   2.159  15.825  0.0728 -0.1450 -0.0416
  198MPD1    C3 3064   3.922   2.243  15.930  0.5417 -0.0838 -0.2062
  198MPD1    C4 3065   3.855   2.358  15.931 -0.3539 -0.1587 -0.7801
  198MPD1    C5 3066   3.811   2.407  15.814 -0.1741  0.0812 -0.3525
  198MPD1     H 3067   3.990   2.071  15.824 -2.2375 -1.8552  0.0396
  198MPD1    H1 3068   3.862   2.422  16.018  2.3683 -0.2653 -0.9154
  198MPD1    H2 3069   3.792   2.371  15.611  0.2358 -0.7419 -0.3120
  198MPD1    H3 3070   3.781   2.509  15.791 -0.9098  0.1193  0.7706
  198MPD1     N 3071   3.995   2.204  16.046 -0.2908  0.4603  0.6772
  198MPD1    H5 3072   4.052   2.122  16.026 -1.1140 -0.3690  1.7217
  198MPD1    N1 3073   3.896   2.126  15.587 -0.9677  0.1456 -0.2940
  198MPD1    H6 3074   3.834   2.153  15.511  0.3346 -1.5445 -1.9510
  198MPD1    H7 3075   3.895   2.026  15.607  0.3534  0.4037  1.0556
  199MPD1     C 3076   1.906   3.708  10.097  0.1029 -0.7041  0.0977
  199MPD1    C1 3077   1.819   3.810  10.104 -0.7605 -0.6375 -0.3798
  199MPD1    C2 3078   1.688   3.788  10.125  0.6982  0.2836  0.1242
  199MPD1    C3 3079   1.636   3.663  10.104  0.6065  0.7417 -0.1201
  199MPD1    C4 3080   1.721   3.554  10.083 -1.0282  1.0958  0.2846
  199MPD1    C5 3081   1.857   3.583  10.075  0.3972 -0.1091  0.0668
  199MPD1     H 3082   1.621   3.873  10.128 -1.8949 -1.7797  1.1095
  199MPD1    H1 3083   1.686   3.452  10.070 -3.6343  1.6993  2.5065
  199MPD1    H2 3084   2.013   3.723  10.108  0.2301 -0.6368 -1.1725
  199MPD1    H3 3085   1.925   3.504  10.043 -0.6004 -0.4002 -1.3024
  199MPD1     N 3086   1.496   3.637  10.092 -0.6680 -0.2361  0.3708
  199MPD1    H5 3087   1.469   3.542  10.072  1.3598 -1.0467  1.4581
  199MPD1    N1 3088   1.863   3.934  10.142 -0.3333 -0.1704  0.1275
  199MPD1    H6 3089   1.791   4.005  10.143 -1.1424 -1.0291  2.7201
  199MPD1    H7 3090   1.951   3.970  10.106  0.0309 -1.5578 -0.3947
  200MPD1     C 3091   4.678   3.254  15.040 -0.6279 -0.6213  0.2896
  200MPD1    C1 3092   4.723   3.163  14.951 -0.0317  0.7861  0.7399
  200MPD1    C2 3093   0.114   3.168  14.910 -0.9136 -0.4620 -0.7251
  200MPD1    C3 3094   0.206   3.256  14.956  0.3707 -0.0627 -0.0838
  200MPD1    C4 3095   0.168   3.338  15.058  0.8209  0.0006 -0.4553
  200MPD1    C5 3096   0.031   3.338  15.095  0.0385 -0.0307 -0.6430
  200MPD1     H 3097   0.141   3.101  14.830 -0.8515  0.3682 -1.4054
  200MPD1    H1 3098   0.235   3.404  15.112 -0.1936  1.7355 -1.3258
  200MPD1    H2 3099   4.574   3.270  15.067 -0.8692 -0.0919 -0.9635
  200MPD1    H3 3100   0.010   3.415  15.167  1.1153 -0.5706  0.2601
  200MPD1     N 3101   0.342   3.254  14.909  0.0985 -0.7349  0.4616
  200MPD1    H5 3102   0.356   3.195  14.827 -0.3765 -1.7620  1.1212
  200MPD1    N1 3103   4.636   3.080  14.880  0.3704  0.0494 -0.1489
  200MPD1    H6 3104   4.551   3.066  14.934 -0.8224  1.2877 -1.7020
  200MPD1    H7 3105   4.679   2.988  14.869 -0.6945  0.0628 -4.4955
  201MPD1     C 3106   1.843   1.698  13.585  0.1737 -0.1317 -0.5056
  201MPD1    C1 3107   1.911   1.718  13.700  0.0329  1.0060  0.7496
  201MPD1    C2 3108   2.050   1.706  13.703 -0.2392 -0.2217 -0.0400
  201MPD1    C3 3109   2.121   1.690  13.581  0.4103  0.5853  0.0011
  201MPD1    C4 3110   2.043   1.663  13.466  0.3629 -0.4869 -0.6193
  201MPD1    C5 3111   1.907   1.663  13.471 -0.0588  0.3209 -0.0277
  201MPD1     H 3112   2.099   1.721  13.798  0.5810 -1.0063 -0.3360
  201MPD1    H1 3113   2.086   1.630  13.372 -1.8287  1.7593 -2.4171
  201MPD1    H2 3114   1.735   1.688  13.581  0.2325 -0.8538 -0.2732
  201MPD1    H3 3115   1.855   1.629  13.383 -0.9435  2.2836 -0.2614
  201MPD1     N 3116   2.260   1.703  13.581  0.4913 -0.3709 -0.1982
  201MPD1    H5 3117   2.310   1.677  13.666  0.4174 -0.0192 -0.0479
  201MPD1    N1 3118   1.835   1.727  13.814 -0.0495  0.4782  0.0781
  201MPD1    H6 3119   1.883   1.767  13.894  1.5571 -0.5890 -0.3441
  201MPD1    H7 3120   1.746   1.775  13.802  0.5958  1.5579 -0.3443
  202MPD1     C 3121   2.089   1.210   9.165 -0.3351  0.4448 -0.1709
  202MPD1    C1 3122   2.039   1.341   9.144  0.3709 -0.6352 -0.4135
  202MPD1    C2 3123   2.083   1.435   9.237  0.1762 -0.3163 -0.1987
  202MPD1    C3 3124   2.131   1.408   9.365  0.7099 -0.2612  0.3868
  202MPD1    C4 3125   2.162   1.272   9.383  0.3507 -0.3065  0.3572
  202MPD1    C5 3126   2.143   1.183   9.288  0.6996  0.4418 -0.1126
  202MPD1     H 3127   2.045   1.534   9.213  0.1209 -0.0118  1.1342
  202MPD1    H1 3128   2.220   1.224   9.461  0.2820  0.0129  0.6029
  202MPD1    H2 3129   2.094   1.137   9.085 -1.0154 -0.5899  0.7242
  202MPD1    H3 3130   2.184   1.085   9.311  0.3180  0.7791  2.0625
  202MPD1     N 3131   2.150   1.501   9.469  0.1903 -0.2321 -0.0679
  202MPD1    H5 3132   2.189   1.475   9.559 -1.3633  1.8485  1.2220
  202MPD1    N1 3133   2.021   1.377   9.007  0.7485 -0.2469  0.4407
  202MPD1    H6 3134   1.969   1.464   9.001 -0.9024 -1.2281  0.5724
  202MPD1    H7 3135   1.967   1.301   8.965 -1.7616  0.9068  1.6136
  203MPD1     C 3136   1.567   3.390  12.138 -0.5346 -0.1126  0.0189
  203MPD1    C1 3137   1.609   3.288  12.051 -0.3792  0.2434 -0.2626
  203MPD1    C2 3138   1.612   3.156  12.097 -0.2829 -0.1066  0.1216
  203MPD1    C3 3139   1.557   3.130  12.222  0.4884  0.1502 -0.6602
  203MPD1    C4 3140   1.497   3.228  12.293 -0.5309 -0.3132  0.1864
  203MPD1    C5 3141   1.499   3.355  12.253 -0.2176 -0.5563  0.0075
  203MPD1     H 3142   1.655   3.080  12.033  0.5185  0.1656  0.3447
  203MPD1    H1 3143   1.438   3.206  12.381  0.4566 -1.4886  0.5550
  203MPD1    H2 3144   1.564   3.488  12.093 -0.1032 -1.2377 -2.4532
  203MPD1    H3 3145   1.446   3.428  12.313 -0.3914 -1.6342  1.1723
  203MPD1     N 3146   1.563   2.997  12.271  0.4211  0.4844 -0.5294
  203MPD1    H5 3147   1.602   2.936  12.200 -0.6508 -0.7033 -0.0830
  203MPD1    N1 3148   1.681   3.330  11.938  0.3007  0.0951  0.2996
  203MPD1    H6 3149   1.639   3.417  11.909 -2.2809 -1.3628 -0.2992
  203MPD1    H7 3150   1.674   3.261  11.864 -0.2904 -0.4810  0.8883
  204MPD1     C 3151   0.218   3.872  17.252  0.5011  0.3853  1.0587
  204MPD1    C1 3152   0.243   3.731  17.246  0.0522  0.8371 -0.2382
  204MPD1    C2 3153   0.360   3.684  17.308  0.3917  0.2813 -0.0495
  204MPD1    C3 3154   0.444   3.769  17.378  0.3234  0.1003  0.4481
  204MPD1    C4 3155   0.401   3.902  17.394  0.2665  0.3845  0.4788
  204MPD1    C5 3156   0.292   3.949  17.329 -0.0389 -0.5805  0.5323
  204MPD1     H 3157   0.393   3.581  17.304  0.3234  0.2742 -0.4415
  204MPD1    H1 3158   0.455   3.970  17.459 -1.1759  0.5378  1.5258
  204MPD1    H2 3159   0.145   3.923  17.190  1.1798 -0.9526 -0.8689
  204MPD1    H3 3160   0.260   4.052  17.340 -0.2194 -0.7320  1.4628
  204MPD1     N 3161   0.566   3.718  17.427 -0.2457 -0.0154  0.7455
  204MPD1    H5 3162   0.587   3.619  17.431 -3.2465 -0.5994  2.0169
  204MPD1    N1 3163   0.163   3.646  17.173 -0.2816  0.1528 -0.4612
  204MPD1    H6 3164   0.149   3.566  17.234  1.6835  1.0153  1.1112
  204MPD1    H7 3165   0.075   3.695  17.164 -1.4562 -1.4564  2.2750
  205MPD1     C 3166   1.758   2.908  17.429  0.2774 -0.1560  0.1226
  205MPD1    C1 3167   1.807   2.875  17.550  0.0779 -0.5228 -0.6968
  205MPD1    C2 3168   1.713   2.879  17.655 -0.0985  0.0688  0.2681
  205MPD1    C3 3169   1.581   2.916  17.634 -0.4793  0.4978 -0.2346
  205MPD1    C4 3170   1.541   2.948  17.509 -0.5021  0.2504 -0.4634
  205MPD1    C5 3171   1.631   2.936  17.407  0.4214 -0.0441  0.2456
  205MPD1     H 3172   1.750   2.862   0.004 -2.1074 -1.9139  0.6539
  205MPD1    H1 3173   1.440   2.978  17.484  0.4813  1.0934 -3.4165
  205MPD1    H2 3174   1.822   2.903  17.342  0.3802 -0.9828  0.2478
  205MPD1    H3 3175   1.593   2.949  17.307  0.9698 -1.3969 -0.1452
  205MPD1     N 3176   1.495   2.920  17.738 -0.2983  0.1166 -0.6400
  205MPD1    H5 3177   1.414   2.979  17.719 -1.5352 -1.7758 -1.2414
  205MPD1    N1 3178   1.937   2.819  17.557  0.4038  0.3616  0.1725
  205MPD1    H6 3179   1.994   2.868  17.489 -1.2285 -1.1401 -2.2675
  205MPD1    H7 3180   1.978   2.819  17.650  1.5330 -3.3015 -0.3507
  206MPD1     C 3181   1.416   0.742  16.620 -0.6812 -0.5102  0.2556
  206MPD1    C1 3182   1.285   0.756  16.649  0.6685 -0.0663 -0.0739
  206MPD1    C2 3183   1.193   0.742  16.548 -1.3690 -0.6763 -0.6453
  206MPD1    C3 3184   1.234   0.714  16.420 -0.3599  0.0918 -0.1599
  206MPD1    C4 3185   1.370   0.702  16.390  0.8373 -0.2941  0.3173
  206MPD1    C5 3186   1.459   0.709  16.491 -0.3209  0.1149  0.4714
  206MPD1     H 3187   1.089   0.747  16.577 -1.9026  1.1752 -2.8795
  206MPD1    H1 3188   1.407   0.683  16.289  0.3839 -0.4369  0.1788
  206MPD1    H2 3189   1.484   0.749  16.704  0.6608  1.0119 -0.9426
  206MPD1    H3 3190   1.561   0.679  16.470 -0.3453  0.8734 -0.6736
  206MPD1     N 3191   1.143   0.708  16.308 -0.1894 -0.4402  0.0873
  206MPD1    H5 3192   1.189   0.678  16.222 -0.1390  0.1967 -0.1072
  206MPD1    N1 3193   1.242   0.773  16.782  0.1616  0.0337  0.1095
  206MPD1    H6 3194   1.145   0.806  16.779 -0.0554 -0.6478 -0.2301
  206MPD1    H7 3195   1.299   0.848  16.821 -2.3201  1.8718  0.2428
  207MPD1     C 3196   3.919   2.307   9.711 -0.0014 -0.0210 -0.0925
  207MPD1    C1 3197   3.985   2.416   9.665 -0.6986 -0.0765  0.0828
  207MPD1    C2 3198   3.967   2.541   9.731  0.1738 -0.8552 -0.3072
  207MPD1    C3 3199   3.884   2.554   9.849 -0.3839  0.5088  0.3909
  207MPD1    C4 3200   3.832   2.431   9.890 -0.4917 -0.2925 -0.2418
  207MPD1    C5 3201   3.843   2.315   9.818 -0.7182  0.2759  0.2208
  207MPD1     H 3202   4.016   2.633   9.701  0.4539 -0.4120  1.4983
  207MPD1    H1 3203   3.764   2.425   9.975 -1.0819  0.8385 -0.6363
  207MPD1    H2 3204   3.923   2.211   9.662  0.5963 -1.4640  2.8084
  207MPD1    H3 3205   3.791   2.225   9.850 -0.5315  0.3914  0.8505
  207MPD1     N 3206   3.864   2.667   9.924 -0.4944  0.0914 -0.4650
  207MPD1    H5 3207   3.811   2.658  10.010 -1.7336  2.8508 -0.9710
  207MPD1    N1 3208   4.052   2.410   9.546 -0.3051  0.9159 -0.1216
  207MPD1    H6 3209   4.098   2.319   9.542 -0.3981  0.7522  2.6488
  207MPD1    H7 3210   4.125   2.481   9.536  0.9541 -0.4118 -0.3823
  208MPD1     C 3211   2.536   2.251   0.391 -0.8517 -0.3364 -0.5476
  208MPD1    C1 3212   2.596   2.248   0.513 -0.1826  0.2712 -0.7299
  208MPD1    C2 3213   2.525   2.312   0.614  0.1373  0.4831 -0.1523
  208MPD1    C3 3214   2.409   2.392   0.600 -0.3251 -0.1780  0.0772
  208MPD1    C4 3215   2.360   2.397   0.468  0.5486  0.0201  0.2406
  208MPD1    C5 3216   2.424   2.336   0.365 -0.9929 -0.0830  0.3115
  208MPD1     H 3217   2.576   2.308   0.709  0.1107 -1.2443 -0.2059
  208MPD1    H1 3218   2.270   2.450   0.437  0.9257  0.1360 -0.6536
  208MPD1    H2 3219   2.572   2.212   0.297  1.5795  1.2193 -0.2510
  208MPD1    H3 3220   2.391   2.343   0.263 -0.4159  2.4004  0.2881
  208MPD1     N 3221   2.352   2.442   0.720 -0.2899 -0.2748  0.6039
  208MPD1    H5 3222   2.402   2.425   0.806  1.8290 -2.2081 -1.0117
  208MPD1    N1 3223   2.707   2.171   0.545  0.6150  0.4958 -0.2015
  208MPD1    H6 3224   2.770   2.198   0.620  1.3200  0.8099 -0.9208
  208MPD1    H7 3225   2.764   2.171   0.461  0.2439  0.9461 -0.4519
  209MPD1     C 3226   3.316   2.397  11.669  0.5547  0.3565 -0.0151
  209MPD1    C1 3227   3.376   2.508  11.718  0.0411 -0.3177  0.7701
  209MPD1    C2 3228   3.431   2.602  11.629  0.0906  0.3287 -0.1608
  209MPD1    C3 3229   3.422   2.586  11.492  0.1336  0.3731 -0.1013
  209MPD1    C4 3230   3.345   2.478  11.450  0.7299 -0.0696 -0.2547
  209MPD1    C5 3231   3.294   2.383  11.532  0.5832  0.7143 -0.7052
  209MPD1     H 3232   3.482   2.690  11.666 -0.3126 -0.6855  2.7889
  209MPD1    H1 3233   3.319   2.467  11.346 -1.3501  2.4708  0.0046
  209MPD1    H2 3234   3.277   2.329  11.744 -0.5212  1.8788  0.7999
  209MPD1    H3 3235   3.241   2.295  11.499  2.3717  0.0033 -1.6861
  209MPD1     N 3236   3.483   2.681  11.403  0.2248 -0.4552 -0.1104
  209MPD1    H5 3237   3.534   2.757  11.448  0.8565 -1.3788  0.7339
  209MPD1    N1 3238   3.401   2.510  11.859  0.8072 -0.0229 -0.0561
  209MPD1    H6 3239   3.438   2.598  11.895 -0.2444  0.5171 -0.2808
  209MPD1    H7 3240   3.329   2.470  11.919  0.1996 -0.0624 -0.8208
  210MPD1     C 3241   3.499   3.642  11.211 -0.1793 -0.6319 -0.2822
  210MPD1    C1 3242   3.450   3.555  11.297  0.4584  0.3455  0.2359
  210MPD1    C2 3243   3.499   3.423  11.292 -0.4899  0.7108 -0.6926
  210MPD1    C3 3244   3.569   3.384  11.183 -0.2580  0.4724 -0.4824
  210MPD1    C4 3245   3.624   3.473  11.093  0.1899 -0.1609  0.6683
  210MPD1    C5 3246   3.582   3.603  11.107  0.4365 -0.3510  0.4307
  210MPD1     H 3247   3.455   3.351  11.360 -1.4654  1.7616 -0.2065
  210MPD1    H1 3248   3.692   3.444  11.014 -0.3468 -1.6029  0.7334
  210MPD1    H2 3249   3.481   3.749  11.213 -0.8613 -0.7263 -1.3226
  210MPD1    H3 3250   3.604   3.690  11.045 -3.4663  0.8910  0.7355
  210MPD1     N 3251   3.597   3.245  11.162  0.0261  0.0834 -0.1949
  210MPD1    H5 3252   3.616   3.224  11.064  1.8152  1.4580 -0.1402
  210MPD1    N1 3253   3.393   3.605  11.418 -0.5258  0.5560  0.3694
  210MPD1    H6 3254   3.343   3.535  11.473  3.1374 -1.4155  1.2126
  210MPD1    H7 3255   3.335   3.687  11.404 -1.0284  0.8729  4.1094
  211MPD1     C 3256   1.570   2.709  17.007  0.5674 -0.2275 -0.1368
  211MPD1    C1 3257   1.481   2.809  16.980 -0.0311 -0.3507 -0.6820
  211MPD1    C2 3258   1.463   2.858  16.851  0.1484 -0.3108  0.5411
  211MPD1    C3 3259   1.524   2.789  16.748 -0.5363 -0.2974 -0.4297
  211MPD1    C4 3260   1.625   2.693  16.779  0.4868 -0.0880  0.5102
  211MPD1    C5 3261   1.648   2.665  16.908  0.2553 -0.4509  0.3350
  211MPD1     H 3262   1.401   2.944  16.827  0.9188  0.7307  2.2642
  211MPD1    H1 3263   1.685   2.664  16.694 -0.8575 -2.6658  0.4364
  211MPD1    H2 3264   1.590   2.680  17.109 -1.1552  0.8543  0.5256
  211MPD1    H3 3265   1.720   2.587  16.929  0.7136 -0.2522 -0.4894
  211MPD1     N 3266   1.472   2.813  16.619  0.5175  0.1859  0.6217
  211MPD1    H5 3267   1.399   2.884  16.612 -0.8820 -1.4586 -1.2921
  211MPD1    N1 3268   1.425   2.874  17.092  0.3667  0.2305 -0.0010
  211MPD1    H6 3269   1.326   2.897  17.091  0.4709  0.6666 -0.3689
  211MPD1    H7 3270   1.450   2.829  17.180 -1.3175 -0.4752  0.1187
  212MPD1     C 3271   0.521   1.054  16.550 -0.4835 -0.2238  0.2864
  212MPD1    C1 3272   0.510   0.934  16.480  0.6864 -0.9248  0.0311
  212MPD1    C2 3273   0.444   0.826  16.538  0.1076 -0.5524 -0.3361
  212MPD1    C3 3274   0.376   0.839  16.658  0.5201  0.3122  0.1490
  212MPD1    C4 3275   0.370   0.964  16.718 -0.1967 -0.3466 -0.3930
  212MPD1    C5 3276   0.440   1.068  16.664  0.0908  0.2182  0.0599
  212MPD1     H 3277   0.440   0.734  16.481 -1.1050 -1.6894  1.5712
  212MPD1    H1 3278   0.317   0.987  16.810  3.3957 -2.0900  2.0946
  212MPD1    H2 3279   0.584   1.138  16.524  1.6516 -1.1359  2.4880
  212MPD1    H3 3280   0.450   1.157  16.725  1.4092 -1.1596  1.8622
  212MPD1     N 3281   0.306   0.735  16.728 -0.1975  0.0862 -0.4742
  212MPD1    H5 3282   0.271   0.752  16.821  1.2092  2.0145 -0.3060
  212MPD1    N1 3283   0.606   0.914  16.380  0.0601 -0.4870  0.2449
  212MPD1    H6 3284   0.589   0.848  16.304  1.7466 -0.8301  0.1652
  212MPD1    H7 3285   0.636   1.002  16.340 -1.2926 -0.1073  0.0629
  213MPD1     C 3286   3.222   0.677  15.697 -0.1587 -0.4320  0.5314
  213MPD1    C1 3287   3.174   0.802  15.742  0.0271  0.5617  0.3774
  213MPD1    C2 3288   3.166   0.905  15.652  0.4651 -0.7673  0.3594
  213MPD1    C3 3289   3.180   0.882  15.515 -0.4335 -0.4316  0.5704
  213MPD1    C4 3290   3.233   0.760  15.468  0.1453 -0.3863  0.4468
  213MPD1    C5 3291   3.245   0.662  15.564  0.4931  0.3768  0.0069
  213MPD1     H 3292   3.151   1.007  15.685 -0.9087  0.5857 -4.4584
  213MPD1    H1 3293   3.261   0.739  15.366 -0.0803  0.4358  0.2114
  213MPD1    H2 3294   3.235   0.591  15.761 -1.3435  0.9183  2.6070
  213MPD1    H3 3295   3.269   0.563  15.527  0.8892 -0.2524  1.9710
  213MPD1     N 3296   3.137   0.991  15.431 -1.1300  0.1253 -0.7182
  213MPD1    H5 3297   3.079   1.055  15.485 -1.5509 -1.4102  0.6530
  213MPD1    N1 3298   3.203   0.823  15.874  0.4684 -0.0323  0.3512
  213MPD1    H6 3299   3.201   0.738  15.931 -1.1251 -1.3370 -1.6885
  213MPD1    H7 3300   3.160   0.899  15.926  0.0367  0.0337 -0.1120
  214MPD1     C 3301   2.314   1.137  15.160 -0.1913  0.2055 -0.0151
  214MPD1    C1 3302   2.384   1.209  15.068 -0.9050 -0.0311 -1.0222
  214MPD1    C2 3303   2.516   1.244  15.106 -1.5674  0.2655 -0.0857
  214MPD1    C3 3304   2.575   1.189  15.216 -0.3777  0.1482 -0.5195
  214MPD1    C4 3305   2.502   1.112  15.302  1.4392  0.1878 -0.5574
  214MPD1    C5 3306   2.372   1.088  15.271  0.3823  1.0835  0.3256
  214MPD1     H 3307   2.574   1.300  15.033 -1.4898  0.1411 -0.1201
  214MPD1    H1 3308   2.540   1.060  15.390  0.8351  0.2907 -0.2371
  214MPD1    H2 3309   2.209   1.117  15.142  0.3318 -2.2934 -0.3596
  214MPD1    H3 3310   2.309   1.033  15.341 -1.1640  1.2789 -0.8959
  214MPD1     N 3311   2.714   1.202  15.245 -0.3384 -0.5959  0.5467
  214MPD1    H5 3312   2.746   1.136  15.315 -0.6210 -1.8818 -0.5522
  214MPD1    N1 3313   2.319   1.279  14.965 -0.1156 -0.5002  0.5121
  214MPD1    H6 3314   2.385   1.287  14.888 -0.7704 -0.1525 -0.0067
  214MPD1    H7 3315   2.235   1.232  14.934  0.8572 -0.1380 -2.6467
  215MPD1     C 3316   2.729   1.941  11.541  0.8662 -1.2220 -1.4944
  215MPD1    C1 3317   2.699   2.005  11.659 -0.6314 -0.3100  0.3502
  215MPD1    C2 3318   2.751   2.129  11.673 -0.5464 -0.2178  0.4750
  215MPD1    C3 3319   2.807   2.199  11.568  0.5770 -0.2428  0.3500
  215MPD1    C4 3320   2.841   2.133  11.450 -0.1320 -0.0739  0.5284
  215MPD1    C5 3321   2.796   2.005  11.441  0.3953 -0.4552  0.1715
  215MPD1     H 3322   2.735   2.186  11.764 -0.5527 -0.4071  0.5916
  215MPD1    H1 3323   2.885   2.183  11.364  2.4387 -1.2980  1.1640
  215MPD1    H2 3324   2.708   1.835  11.538  1.2805 -1.4202  2.4488
  215MPD1    H3 3325   2.805   1.943  11.352 -0.7401 -0.8103  0.3110
  215MPD1     N 3326   2.848   2.334  11.591 -0.2003 -0.0737  0.0302
  215MPD1    H5 3327   2.840   2.358  11.690  1.6399  0.9569 -0.0635
  215MPD1    N1 3328   2.651   1.940  11.770  0.1924 -0.0771  1.0154
  215MPD1    H6 3329   2.601   1.993  11.842 -1.9074 -1.2911  0.4638
  215MPD1    H7 3330   2.602   1.854  11.747  2.0021 -0.5297 -1.0757
  216MPD1     C 3331   0.389   0.123  17.229 -0.1402  0.5370  0.1244
  216MPD1    C1 3332   0.409   4.724  17.227  0.1009 -1.0481 -0.0837
  216MPD1    C2 3333   0.458   4.672  17.351  0.5234 -0.1418  0.1569
  216MPD1    C3 3334   0.491   0.015  17.460 -0.9003 -0.1250  0.2285
  216MPD1    C4 3335   0.481   0.154  17.449  0.2866  0.4746  0.1278
  216MPD1    C5 3336   0.426   0.200  17.335 -0.1705 -0.0932 -0.7971
  216MPD1     H 3337   0.494   4.570  17.356 -0.5476 -0.5496 -0.5236
  216MPD1    H1 3338   0.521   0.229  17.516  0.1224  0.4781  0.2215
  216MPD1    H2 3339   0.343   0.173  17.145 -0.5750  2.1133  1.2996
  216MPD1    H3 3340   0.404   0.306  17.327 -1.8570 -0.4395 -0.8420
  216MPD1     N 3341   0.537   4.687  17.578  0.3151 -0.5290  0.2294
  216MPD1    H5 3342   0.551   4.587  17.585 -1.3283 -0.7354  0.6173
  216MPD1    N1 3343   0.393   4.647  17.112  0.1015  0.2209  0.0421
  216MPD1    H6 3344   0.315   4.694  17.067  0.6234  0.0450 -1.0445
  216MPD1    H7 3345   0.375   4.549  17.135  0.7711  0.9587  3.7621
  217MPD1     C 3346   1.272   1.161   8.019  0.1803  0.0811  1.0274
  217MPD1    C1 3347   1.195   1.271   8.058 -0.9614 -0.1690 -0.1951
  217MPD1    C2 3348   1.228   1.340   8.171  0.6342  1.1331 -0.3585
  217MPD1    C3 3349   1.313   1.283   8.263  0.4599 -0.2803  0.5835
  217MPD1    C4 3350   1.394   1.182   8.229 -0.0706 -0.5383  0.0937
  217MPD1    C5 3351   1.368   1.122   8.109  0.5389 -0.3400  0.4872
  217MPD1     H 3352   1.176   1.434   8.184 -2.7648 -0.5831 -1.4822
  217MPD1    H1 3353   1.459   1.131   8.298 -1.8912 -2.8774  0.0822
  217MPD1    H2 3354   1.256   1.110   7.925 -1.5536 -0.4559  1.6140
  217MPD1    H3 3355   1.432   1.040   8.078 -0.8498 -0.7981 -1.1924
  217MPD1     N 3356   1.337   1.343   8.395 -0.1261  0.5408  0.9531
  217MPD1    H5 3357   1.396   1.287   8.455 -1.0605  0.9178  2.2417
  217MPD1    N1 3358   1.104   1.330   7.966  0.1008 -0.3964  0.6450
  217MPD1    H6 3359   1.065   1.262   7.901  1.1244 -0.9935  0.6470
  217MPD1    H7 3360   1.032   1.395   7.997  1.0818  1.4536 -0.9795
  218MPD1     C 3361   2.680   3.150  12.927 -0.4994 -0.3641 -0.7427
  218MPD1    C1 3362   2.744   3.157  12.810 -0.1234 -1.0831  0.1720
  218MPD1    C2 3363   2.848   3.068  12.777 -0.8402 -0.4601  0.2136
  218MPD1    C3 3364   2.883   2.978  12.872  0.7548  0.1091  0.3053
  218MPD1    C4 3365   2.813   2.958  12.992 -0.1246  0.0484  0.2875
  218MPD1    C5 3366   2.713   3.051  13.018  0.6342 -0.4596  0.1578
  218MPD1     H 3367   2.902   3.076  12.683  1.1105 -2.1910  1.1725
  218MPD1    H1 3368   2.826   2.878  13.064 -0.7787 -0.2806  0.0418
  218MPD1    H2 3369   2.606   3.222  12.959 -0.9588 -0.7879 -0.8500
  218MPD1    H3 3370   2.649   3.043  13.104  1.2422 -0.3041  0.6209
  218MPD1     N 3371   2.986   2.891  12.833 -0.4920  0.3359 -0.5896
  218MPD1    H5 3372   3.037   2.911  12.748  0.0482  1.5873  0.0273
  218MPD1    N1 3373   2.686   3.243  12.711  0.1759  0.2078  0.1833
  218MPD1    H6 3374   2.757   3.273  12.645  0.4226 -0.2710  0.2290
  218MPD1    H7 3375   2.637   3.324  12.748  0.2566  0.4181 -0.1690
  219MPD1     C 3376   2.946   2.093  12.210 -0.5403  0.9231 -0.2928
  219MPD1    C1 3377   2.998   2.217  12.178 -0.2595  0.0264  0.6016
  219MPD1    C2 3378   3.018   2.308  12.283 -0.8596  1.0914 -0.6935
  219MPD1    C3 3379   2.998   2.269  12.414 -0.7450  0.1469 -0.2864
  219MPD1    C4 3380   2.937   2.151  12.439 -0.6210  0.2505  1.0228
  219MPD1    C5 3381   2.912   2.063  12.336 -0.2217  0.0133 -0.0313
  219MPD1     H 3382   3.073   2.399  12.259  0.6301 -0.4188 -2.9799
  219MPD1    H1 3383   2.913   2.117  12.539  0.6196  1.0557  1.5925
  219MPD1    H2 3384   2.920   2.026  12.129 -1.1495  0.3964  0.3368
  219MPD1    H3 3385   2.859   1.970  12.354 -1.5783  1.2765  2.5473
  219MPD1     N 3386   3.011   2.357  12.519  0.3015 -0.1860  0.0244
  219MPD1    H5 3387   3.005   2.314  12.611  1.0055  0.5503  0.4157
  219MPD1    N1 3388   3.043   2.244  12.051  0.3615 -0.1521  0.2695
  219MPD1    H6 3389   2.970   2.214  11.987 -0.3296 -1.5109  1.7084
  219MPD1    H7 3390   3.053   2.343  12.030 -0.4213 -0.1031  0.1367
  220MPD1     C 3391   3.683   3.162  10.020  0.3656  0.1718 -0.0790
  220MPD1    C1 3392   3.650   3.228  10.130  0.2347 -0.7651 -0.1167
  220MPD1    C2 3393   3.551   3.180  10.212  0.1496 -0.3940  0.1449
  220MPD1    C3 3394   3.488   3.060  10.180  0.1673 -0.2821  0.5267
  220MPD1    C4 3395   3.525   2.991  10.060  0.1908 -0.4641 -0.7381
  220MPD1    C5 3396   3.618   3.049   9.979 -0.6535 -0.6411  0.3200
  220MPD1     H 3397   3.519   3.227  10.305 -1.6738 -1.3193 -0.0174
  220MPD1    H1 3398   3.480   2.896  10.034  0.8800 -0.6845 -1.1173
  220MPD1    H2 3399   3.758   3.200   9.951  0.0463  0.8071 -0.0792
  220MPD1    H3 3400   3.645   3.000   9.886  1.0906 -2.3828  1.7414
  220MPD1     N 3401   3.392   3.016  10.275  1.2334 -0.2243 -0.1196
  220MPD1    H5 3402   3.379   3.073  10.358 -4.6045 -2.1254  0.2969
  220MPD1    N1 3403   3.706   3.355  10.158 -0.4001 -0.1777 -0.0644
  220MPD1    H6 3404   3.752   3.406  10.083 -1.8889  1.6316  0.2402
  220MPD1    H7 3405   3.657   3.415  10.225 -1.4798 -1.9945  0.7779
  221MPD1     C 3406   0.557   2.201  17.027 -0.2332 -0.1097 -0.0423
  221MPD1    C1 3407   0.575   2.169  16.897 -0.3346  1.0598  0.4612
  221MPD1    C2 3408   0.711   2.166  16.851  0.8830  0.0610  0.0888
  221MPD1    C3 3409   0.821   2.186  16.930  0.5836 -0.0581 -0.8529
  221MPD1    C4 3410   0.796   2.224  17.060 -0.6039 -0.0599 -1.1232
  221MPD1    C5 3411   0.670   2.228  17.105 -0.6457 -0.2678 -0.7912
  221MPD1     H 3412   0.725   2.134  16.748  2.1293  1.0259 -0.0393
  221MPD1    H1 3413   0.879   2.250  17.126 -2.2430 -1.2263  1.4189
  221MPD1    H2 3414   0.461   2.215  17.075  0.6033  2.0550  0.9780
  221MPD1    H3 3415   0.649   2.249  17.209  0.7395 -1.0104 -0.3550
  221MPD1     N 3416   0.954   2.161  16.888  0.4639  0.2319  0.3873
  221MPD1    H5 3417   1.028   2.197  16.946  0.1544 -0.8707  1.4645
  221MPD1    N1 3418   0.474   2.149  16.808 -0.1721 -0.3421  0.3779
  221MPD1    H6 3419   0.509   2.083  16.738  1.7224  1.2782 -0.2077
  221MPD1    H7 3420   0.392   2.111  16.855 -0.2154  1.0070  1.3804
  222MPD1     C 3421   0.137   3.953   2.012 -0.2762  0.3980 -0.0535
  222MPD1    C1 3422   0.241   4.025   1.960 -0.8375 -0.0715 -0.9755
  222MPD1    C2 3423   0.309   3.962   1.861 -0.4327 -0.5431  0.2019
  222MPD1    C3 3424   0.262   3.854   1.791 -0.0249 -0.0493 -0.2537
  222MPD1    C4 3425   0.158   3.786   1.843 -0.8195 -0.0383 -0.1748
  222MPD1    C5 3426   0.098   3.839   1.955  0.6372  0.4461 -0.3079
  222MPD1     H 3427   0.399   4.011   1.826 -2.0415  2.1178 -0.1890
  222MPD1    H1 3428   0.118   3.697   1.796  0.9897 -0.2515 -1.2966
  222MPD1    H2 3429   0.070   3.996   2.086  2.6169  1.2569  2.0788
  222MPD1    H3 3430   0.011   3.785   1.990  0.2928  0.3395 -1.3217
  222MPD1     N 3431   0.322   3.804   1.671  0.0944  0.0172  0.6230
  222MPD1    H5 3432   0.283   3.721   1.627  1.9114 -0.7171  0.4067
  222MPD1    N1 3433   0.289   4.138   2.024  0.3596 -0.2557 -0.2710
  222MPD1    H6 3434   0.345   4.198   1.964 -1.9040  0.6843 -1.4602
  222MPD1    H7 3435   0.214   4.201   2.052  0.7548  0.2383 -0.3297
  223MPD1     C 3436   1.077   4.199   1.126 -0.0945  1.0273  0.7048
  223MPD1    C1 3437   1.090   4.147   1.255  0.5954  0.1334 -0.0817
  223MPD1    C2 3438   1.014   4.039   1.293  0.0217 -0.1292 -0.4624
  223MPD1    C3 3439   0.900   3.995   1.214  0.0159  0.2718  0.0796
  223MPD1    C4 3440   0.884   4.061   1.092 -0.4377 -0.3400 -0.3862
  223MPD1    C5 3441   0.974   4.161   1.046 -0.2806  0.4683 -0.0382
  223MPD1     H 3442   1.033   3.986   1.386  0.1709  1.1259  0.2169
  223MPD1    H1 3443   0.802   4.051   1.022 -0.6558  0.4478 -0.2413
  223MPD1    H2 3444   1.142   4.276   1.086  0.3651 -0.5876 -1.6784
  223MPD1    H3 3445   0.965   4.202   0.946  2.0702  0.1732 -0.3924
  223MPD1     N 3446   0.811   3.899   1.265  0.2850 -0.0431  0.3368
  223MPD1    H5 3447   0.828   3.875   1.363  1.5710 -2.0387 -0.3649
  223MPD1    N1 3448   1.203   4.185   1.330  0.6994 -0.5947 -1.4891
  223MPD1    H6 3449   1.176   4.172   1.427  1.7354 -1.3383 -1.2911
  223MPD1    H7 3450   1.231   4.283   1.326  3.6456 -1.3500  0.2904
  224MPD1     C 3451   1.216   2.532   8.900  0.0992 -0.1581 -1.0123
  224MPD1    C1 3452   1.348   2.493   8.912  0.1148  0.0625 -0.0040
  224MPD1    C2 3453   1.398   2.439   9.030  0.5484 -0.3953 -0.4182
  224MPD1    C3 3454   1.321   2.437   9.138 -0.1014  0.0142  0.3659
  224MPD1    C4 3455   1.190   2.489   9.132 -0.4576  0.1607  0.1038
  224MPD1    C5 3456   1.136   2.539   9.016  0.1039 -0.0286 -0.3813
  224MPD1     H 3457   1.499   2.400   9.023 -0.9438 -3.9635 -2.1031
  224MPD1    H1 3458   1.117   2.489   9.213 -0.2045  1.2422  0.3212
  224MPD1    H2 3459   1.165   2.571   8.813 -3.2553 -0.3623  0.8881
  224MPD1    H3 3460   1.032   2.568   9.010  0.4147  0.9349 -1.0857
  224MPD1     N 3461   1.373   2.383   9.255  0.9893  0.3163 -0.0609
  224MPD1    H5 3462   1.329   2.408   9.343  0.5332 -0.0316 -0.1897
  224MPD1    N1 3463   1.422   2.487   8.790  0.1438  0.5035  0.1417
  224MPD1    H6 3464   1.388   2.556   8.723 -1.0915 -0.6206 -0.3942
  224MPD1    H7 3465   1.524   2.493   8.798  0.2427  0.3920 -1.0624
  225MPD1     C 3466   3.087   3.341  12.471 -0.2631 -0.2414  0.2123
  225MPD1    C1 3467   3.055   3.227  12.396 -0.5501 -1.0933  0.7520
  225MPD1    C2 3468   2.921   3.218  12.355 -0.0499  0.6697  0.1585
  225MPD1    C3 3469   2.832   3.316  12.385 -0.3176 -0.2178  0.1577
  225MPD1    C4 3470   2.872   3.428  12.454  0.0826 -0.3200 -0.1229
  225MPD1    C5 3471   3.001   3.439  12.502 -0.5550  0.1192 -0.6664
  225MPD1     H 3472   2.900   3.133  12.292  0.4895  0.6629 -0.0073
  225MPD1    H1 3473   2.798   3.506  12.471  0.2718  0.0672 -1.0827
  225MPD1    H2 3474   3.191   3.355  12.498 -0.2869 -0.7025  0.5516
  225MPD1    H3 3475   3.034   3.528  12.554  0.1212 -0.7906  0.4509
  225MPD1     N 3476   2.694   3.310  12.362  0.2283  0.4748  0.2326
  225MPD1    H5 3477   2.630   3.376  12.404 -0.0426  0.3942 -0.0530
  225MPD1    N1 3478   3.157   3.150  12.330  0.3253  0.1799  0.6909
  225MPD1    H6 3479   3.123   3.056  12.310  1.0296  0.2451 -0.7822
  225MPD1    H7 3480   3.237   3.134  12.390  2.7545  1.2898 -2.2528
  226MPD1     C 3481   0.064   3.119   9.781  0.1031 -0.5938 -0.3792
  226MPD1    C1 3482   0.146   3.204   9.850  0.2520 -0.2072  0.2726
  226MPD1    C2 3483   0.283   3.197   9.814  0.3978  0.0905 -0.3300
  226MPD1    C3 3484   0.334   3.109   9.714 -0.4160 -0.2411 -0.0677
  226MPD1    C4 3485   0.242   3.026   9.650  0.2156  0.2531 -0.0765
  226MPD1    C5 3486   0.111   3.028   9.687 -0.4928  0.0785  0.1712
  226MPD1     H 3487   0.356   3.269   9.851  0.9536 -0.0297 -1.2042
  226MPD1    H1 3488   0.265   2.952   9.574  1.4839 -0.6434  1.1977
  226MPD1    H2 3489   4.697   3.112   9.805 -0.3522 -1.9911 -2.7454
  226MPD1    H3 3490   0.039   2.963   9.638 -0.5209  0.2015  0.0484
  226MPD1     N 3491   0.473   3.113   9.677  0.2393  0.3345 -0.5982
  226MPD1    H5 3492   0.524   3.184   9.729 -1.5850  1.6072 -0.5190
  226MPD1    N1 3493   0.092   3.304   9.931  0.0281 -0.8404  0.2357
  226MPD1    H6 3494   0.157   3.355   9.990  0.5588  0.1833 -1.2394
  226MPD1    H7 3495   0.006   3.280   9.979 -0.1952 -1.6114 -0.5559
  227MPD1     C 3496   1.286   3.653   9.734  0.3462 -1.2666 -0.6975
  227MPD1    C1 3497   1.345   3.538   9.681  0.1479  0.1288  0.3663
  227MPD1    C2 3498   1.261   3.434   9.648  0.3334 -0.6984  0.3541
  227MPD1    C3 3499   1.124   3.451   9.652 -0.2456  0.7677  0.5579
  227MPD1    C4 3500   1.064   3.563   9.701 -0.2767  0.3179 -0.1204
  227MPD1    C5 3501   1.148   3.669   9.733  0.6212  0.8034 -0.5848
  227MPD1     H 3502   1.292   3.340   9.604  1.3074 -1.6058  3.0314
  227MPD1    H1 3503   0.957   3.579   9.710 -0.1174  1.5067 -0.2583
  227MPD1    H2 3504   1.350   3.735   9.766  3.5904 -3.3534 -1.8697
  227MPD1    H3 3505   1.109   3.766   9.763  1.1164  0.0307  2.6282
  227MPD1     N 3506   1.049   3.343   9.601 -0.0221 -0.0118  0.5954
  227MPD1    H5 3507   1.101   3.265   9.562  0.1876 -0.1343  1.1183
  227MPD1    N1 3508   1.483   3.526   9.687 -0.5322  0.1046 -0.0902
  227MPD1    H6 3509   1.536   3.613   9.690 -1.1087  0.5474 -3.2283
  227MPD1    H7 3510   1.530   3.458   9.628  0.9051  2.2610 -1.4204
  228MPD1     C 3511   0.534   0.358  12.584  0.3772 -0.8134 -0.1112
  228MPD1    C1 3512   0.516   0.373  12.718 -0.6296 -0.5906 -0.1511
  228MPD1    C2 3513   0.391   0.427  12.753  0.1105 -0.8750 -0.2826
  228MPD1    C3 3514   0.309   0.488  12.659  0.0191 -0.6577 -0.2383
  228MPD1    C4 3515   0.332   0.469  12.524 -0.3685 -0.5402  0.3505
  228MPD1    C5 3516   0.444   0.402  12.493  0.2893 -0.7262  0.0249
  228MPD1     H 3517   0.370   0.442  12.859 -1.5185  0.9911 -0.8733
  228MPD1    H1 3518   0.263   0.508  12.450  0.9439  0.4380 -0.3583
  228MPD1    H2 3519   0.624   0.311  12.546  0.8158 -1.6611  2.0193
  228MPD1    H3 3520   0.461   0.381  12.388  0.5279  0.8436 -0.2444
  228MPD1     N 3521   0.187   0.555  12.695 -0.0226 -0.4099 -0.1371
  228MPD1    H5 3522   0.181   0.560  12.797  1.5631 -0.6269 -0.0325
  228MPD1    N1 3523   0.610   0.309  12.795 -0.6678 -1.0727  0.8445
  228MPD1    H6 3524   0.629   0.366  12.877  2.0935 -0.6090 -0.1077
  228MPD1    H7 3525   0.700   0.312  12.748  0.2162 -0.1313  2.6227
  229MPD1     C 3526   3.964   0.148  14.868 -0.1458 -0.3881 -0.0357
  229MPD1    C1 3527   3.884   0.032  14.881  0.1817 -0.2726  0.4648
  229MPD1    C2 3528   3.923   4.666  14.959  0.4675 -0.2062  0.1456
  229MPD1    C3 3529   4.046   4.676  15.025  0.6446 -0.9397  0.2825
  229MPD1    C4 3530   4.118   0.054  15.014 -0.5219  0.4487 -0.0642
  229MPD1    C5 3531   4.077   0.162  14.937 -0.1325 -0.3149 -0.6682
  229MPD1     H 3532   3.856   4.581  14.967 -0.7183  0.4054 -3.4589
  229MPD1    H1 3533   4.207   0.058  15.076 -0.3685  1.4108 -0.3468
  229MPD1    H2 3534   3.919   0.231  14.815  0.6375 -0.1849 -0.3721
  229MPD1    H3 3535   4.126   0.258  14.939 -0.4108 -0.1474 -1.7200
  229MPD1     N 3536   4.104   4.577  15.105 -0.1395 -0.2671  0.5666
  229MPD1    H5 3537   4.192   4.599  15.150  0.1707 -0.7006  0.1757
  229MPD1    N1 3538   3.755   0.031  14.822 -0.2163  0.4637  0.2496
  229MPD1    H6 3539   3.717   4.674  14.818 -0.7504  0.8471 -4.6405
  229MPD1    H7 3540   3.697   0.087  14.884  1.3323  0.2219  1.8857
  230MPD1     C 3541   0.011   4.464  15.806  0.3539 -0.7432 -0.1683
  230MPD1    C1 3542   0.010   4.338  15.764  0.0241 -0.7974 -0.0436
  230MPD1    C2 3543   4.669   4.316  15.655  0.3640  0.7689  0.1926
  230MPD1    C3 3544   4.585   4.409  15.597 -0.0809  0.3896  0.2016
  230MPD1    C4 3545   4.618   4.542  15.616 -0.8801  0.6058 -0.2960
  230MPD1    C5 3546   4.693   4.565  15.731  0.7633  0.0659 -0.4317
  230MPD1     H 3547   4.667   4.213  15.622  2.9498  0.2755  1.5860
  230MPD1    H1 3548   4.561   4.627  15.582 -0.4054  1.5732  1.3361
  230MPD1    H2 3549   0.055   4.488  15.902 -1.3869 -1.3878  0.7842
  230MPD1    H3 3550   4.700   4.665  15.771 -0.6813 -0.8675  2.1401
  230MPD1     N 3551   4.502   4.353  15.494  0.1849 -0.0397  0.4136
  230MPD1    H5 3552   4.503   4.252  15.482  0.6909  0.1253 -0.9014
  230MPD1    N1 3553   0.048   4.231  15.841 -0.6970 -0.1957  0.3169
  230MPD1    H6 3554   0.128   4.264  15.894 -0.1910  1.9626 -1.8175
  230MPD1    H7 3555   0.074   4.147  15.791 -1.9716  0.4265 -1.3837
  231MPD1     C 3556   2.409   1.554  15.539  0.2237  0.8877  0.4618
  231MPD1    C1 3557   2.438   1.496  15.423 -0.2073  0.0025  0.0254
  231MPD1    C2 3558   2.532   1.545  15.338  0.4045  0.5374 -0.6248
  231MPD1    C3 3559   2.615   1.658  15.369  0.1507 -0.6880  0.3509
  231MPD1    C4 3560   2.593   1.710  15.493  0.4345 -0.6236 -0.1821
  231MPD1    C5 3561   2.495   1.658  15.570 -0.6814 -0.1408 -0.6692
  231MPD1     H 3562   2.557   1.492  15.247 -0.9142 -0.4056 -0.4319
  231MPD1    H1 3563   2.647   1.796  15.532 -4.8515  0.9476  3.6614
  231MPD1    H2 3564   2.331   1.520  15.606  0.0093 -2.1479 -1.3449
  231MPD1    H3 3565   2.475   1.718  15.658 -1.9647 -1.1843 -0.2416
  231MPD1     N 3566   2.712   1.700  15.278  0.4952 -0.6923  0.0005
  231MPD1    H5 3567   2.699   1.655  15.188  1.6552 -0.5185 -0.2442
  231MPD1    N1 3568   2.361   1.384  15.386 -0.3103 -0.4192 -0.2613
  231MPD1    H6 3569   2.411   1.319  15.326 -0.2134  0.4494 -1.1036
  231MPD1    H7 3570   2.318   1.337  15.466 -0.9366  1.1664  0.3439
  232MPD1     C 3571   4.124   0.416   0.682 -0.1209  0.3286 -0.3205
  232MPD1    C1 3572   4.104   0.452   0.547  0.1705  0.1882 -0.2823
  232MPD1    C2 3573   4.062   0.366   0.452 -0.3709 -0.7550  0.1589
  232MPD1    C3 3574   4.073   0.232   0.478  0.4732 -0.2239  0.0462
  232MPD1    C4 3575   4.101   0.192   0.607  0.2264 -0.3325 -0.4307
  232MPD1    C5 3576   4.119   0.281   0.703 -0.0060  0.4626 -0.5566
  232MPD1     H 3577   4.043   0.394   0.349  1.3527 -0.4133 -0.0567
  232MPD1    H1 3578   4.108   0.086   0.629 -0.7259  0.1508  2.2811
  232MPD1    H2 3579   4.134   0.489   0.761 -0.4643  0.9360 -0.8337
  232MPD1    H3 3580   4.132   0.248   0.805  2.0270 -0.6333 -1.1660
  232MPD1     N 3581   4.040   0.138   0.371 -0.5337  0.3381  0.4515
  232MPD1    H5 3582   3.991   0.169   0.287  0.0876  1.1809  0.3962
  232MPD1    N1 3583   4.076   0.592   0.533  0.9254 -0.5479 -0.7750
  232MPD1    H6 3584   4.137   0.650   0.590  0.4939  1.2971 -2.1906
  232MPD1    H7 3585   4.083   0.620   0.435  2.6352  0.7177 -0.2875
  233MPD1     C 3586   2.263   4.250   1.387  0.5290 -0.2071  0.0927
  233MPD1    C1 3587   2.319   4.249   1.512  0.3219 -0.4899 -0.2461
  233MPD1    C2 3588   2.332   4.127   1.575  0.1348 -0.4352 -0.0393
  233MPD1    C3 3589   2.293   4.011   1.519 -0.3646  0.5703  0.0566
  233MPD1    C4 3590   2.228   4.016   1.400  0.6524  0.2679  0.2233
  233MPD1    C5 3591   2.218   4.133   1.330 -0.3168 -0.0214  0.6738
  233MPD1     H 3592   2.360   4.133   1.679  0.7845  0.8414 -0.2848
  233MPD1    H1 3593   2.197   3.921   1.358 -1.2845  1.4107 -0.8936
  233MPD1    H2 3594   2.238   4.338   1.328  0.6668  1.2863  2.2818
  233MPD1    H3 3595   2.160   4.138   1.238 -0.5180  0.9349  0.8496
  233MPD1     N 3596   2.299   3.885   1.590 -0.1582 -0.6993  0.2142
  233MPD1    H5 3597   2.276   3.802   1.537 -2.4899  0.3362 -0.3788
  233MPD1    N1 3598   2.346   4.363   1.588 -0.1614 -0.0333  0.1323
  233MPD1    H6 3599   2.337   4.451   1.539  1.5106  0.5496  0.9028
  233MPD1    H7 3600   2.401   4.351   1.672 -0.1386 -1.8369 -0.1306
  234MPD1     C 3601   2.084   0.576   9.974 -0.3399 -0.1358  0.7012
  234MPD1    C1 3602   2.043   0.674  10.065 -1.0100 -0.1844 -0.6124
  234MPD1    C2 3603   2.012   0.798  10.013 -0.4984 -0.4246 -0.0948
  234MPD1    C3 3604   1.982   0.815   9.878  0.3469 -0.1987 -0.5277
  234MPD1    C4 3605   2.001   0.704   9.792 -0.4302  0.4101  0.3584
  234MPD1    C5 3606   2.066   0.594   9.844  0.5302  0.3303  0.7158
  234MPD1     H 3607   1.997   0.884  10.077  0.3957 -0.6919  0.4934
  234MPD1    H1 3608   1.982   0.709   9.685 -1.2007  0.8258  0.5142
  234MPD1    H2 3609   2.127   0.484  10.012 -1.7370 -1.5515 -1.1309
  234MPD1    H3 3610   2.098   0.512   9.781 -2.6417 -0.0010 -0.4834
  234MPD1     N 3611   1.945   0.949   9.833  0.0095  0.0607  0.0317
  234MPD1    H5 3612   1.970   1.020   9.901 -1.4265  0.4988  0.1011
  234MPD1    N1 3613   2.055   0.657  10.201  0.3866 -0.0258 -0.7569
  234MPD1    H6 3614   1.992   0.716  10.255 -1.9790 -1.9546 -1.3844
  234MPD1    H7 3615   2.058   0.561  10.235 -1.3529  0.9278  2.0445
  235MPD1     C 3616   3.989   4.043  10.410  0.5730  0.0172 -0.7044
  235MPD1    C1 3617   4.050   4.166  10.434  0.2589 -0.2804  0.0750
  235MPD1    C2 3618   4.014   4.284  10.365 -0.0712 -0.0896  0.0949
  235MPD1    C3 3619   3.926   4.275  10.261  0.1582 -0.6332  0.4972
  235MPD1    C4 3620   3.872   4.151  10.236  0.0662  0.2275  0.2633
  235MPD1    C5 3621   3.899   4.036  10.311 -0.7971 -0.2572  0.1784
  235MPD1     H 3622   4.064   4.380  10.375  0.0672  0.0020 -1.4777
  235MPD1    H1 3623   3.806   4.141  10.150  1.5703  0.4537 -0.9040
  235MPD1    H2 3624   4.018   3.951  10.460  1.5239  1.3991  1.2672
  235MPD1    H3 3625   3.859   3.940  10.282 -1.3424 -0.2703  0.9777
  235MPD1     N 3626   3.905   4.393  10.193 -0.0830  0.2038  0.0931
  235MPD1    H5 3627   3.951   4.475  10.232 -0.5866  0.6395 -0.2303
  235MPD1    N1 3628   4.159   4.174  10.521  0.5337  0.3561 -0.3110
  235MPD1    H6 3629   4.181   4.272  10.535  0.7456  0.3254 -0.4200
  235MPD1    H7 3630   4.134   4.120  10.603  0.0547  0.3844 -0.4404
  236MPD1     C 3631   1.915   0.222   9.827 -0.2816 -0.0549  0.4260
  236MPD1    C1 3632   1.967   0.241   9.958  0.4050  0.2216  0.1341
  236MPD1    C2 3633   2.086   0.181   9.994 -0.1596  0.1950  0.2184
  236MPD1    C3 3634   2.167   0.135   9.893 -0.6229  0.7410 -0.2051
  236MPD1    C4 3635   2.122   0.127   9.759 -0.5385 -0.2452  0.6436
  236MPD1    C5 3636   1.995   0.167   9.730  0.3566 -0.7070 -0.8583
  236MPD1     H 3637   2.116   0.169  10.097 -0.5401 -2.0767  0.0561
  236MPD1    H1 3638   2.195   0.091   9.688  0.4140 -2.2720  2.6396
  236MPD1    H2 3639   1.812   0.243   9.800 -0.0573 -1.2190 -1.3851
  236MPD1    H3 3640   1.952   0.162   9.630 -1.4803 -0.6779 -0.0673
  236MPD1     N 3641   2.303   0.105   9.905 -0.4319 -0.4167 -0.0743
  236MPD1    H5 3642   2.351   0.062   9.826 -1.3045  0.6192 -1.1759
  236MPD1    N1 3643   1.875   0.288  10.058 -0.1275  0.0008 -0.2506
  236MPD1    H6 3644   1.928   0.341  10.127  2.2467 -2.1173 -0.4571
  236MPD1    H7 3645   1.802   0.347  10.018  0.7991  1.8513  0.7868
  237MPD1     C 3646   3.106   2.655  15.273  0.5467  0.5379  0.8607
  237MPD1    C1 3647   3.069   2.699  15.396 -1.0035  0.2986 -0.3000
  237MPD1    C2 3648   2.940   2.690  15.436 -0.1345  0.6005 -0.0504
  237MPD1    C3 3649   2.846   2.653  15.345 -0.1679  0.2239 -0.4020
  237MPD1    C4 3650   2.881   2.629  15.214  0.0298 -0.7116 -0.3957
  237MPD1    C5 3651   3.015   2.624  15.175  0.1828  0.2299 -0.3912
  237MPD1     H 3652   2.917   2.714  15.539  1.0637 -0.2042  0.4086
  237MPD1    H1 3653   2.799   2.614  15.143 -1.6860  1.4386  1.1206
  237MPD1    H2 3654   3.211   2.637  15.252 -0.1967 -0.8593 -1.6149
  237MPD1    H3 3655   3.039   2.583  15.078 -0.3433  2.1142 -1.3093
  237MPD1     N 3656   2.705   2.638  15.379  0.1497  0.0047 -0.5439
  237MPD1    H5 3657   2.648   2.609  15.300  0.7246  0.2925 -1.0654
  237MPD1    N1 3658   3.170   2.741  15.492  0.2824  0.1027 -0.2455
  237MPD1    H6 3659   3.259   2.762  15.448  0.4258 -1.7641 -0.8742
  237MPD1    H7 3660   3.145   2.820  15.550  0.1061  0.8812 -1.3954
  238MPD1     C 3661   4.620   1.940  15.181 -0.2831  0.1897  0.1382
  238MPD1    C1 3662   4.568   1.866  15.285 -0.8136  0.0402 -0.2341
  238MPD1    C2 3663   4.466   1.776  15.249 -0.1502 -0.1244  0.0993
  238MPD1    C3 3664   4.431   1.753  15.116 -0.1445 -0.1189 -0.3216
  238MPD1    C4 3665   4.501   1.817  15.011  0.1470 -0.0682 -1.2102
  238MPD1    C5 3666   4.601   1.911  15.047 -0.0693  0.6197  0.5629
  238MPD1     H 3667   4.411   1.728  15.329 -0.1422 -0.1226  0.1058
  238MPD1    H1 3668   4.472   1.811  14.907 -1.3613  2.2615 -0.9225
  238MPD1    H2 3669   4.670   2.036  15.189 -2.6527  1.5344 -1.2007
  238MPD1    H3 3670   4.644   1.982  14.978  1.4400 -0.8438 -0.0166
  238MPD1     N 3671   4.326   1.667  15.071  0.3521  0.2913 -0.5214
  238MPD1    H5 3672   4.329   1.645  14.972 -2.6971 -0.0620 -0.5253
  238MPD1    N1 3673   4.572   1.921  15.419 -0.9500  0.2801 -0.4177
  238MPD1    H6 3674   4.668   1.949  15.438 -1.0547 -1.0269  1.9950
  238MPD1    H7 3675   4.559   1.844  15.484 -2.6092  0.5921 -0.3889
  239MPD1     C 3676   4.717   2.324  15.103  0.4211  0.1347 -0.0048
  239MPD1    C1 3677   0.054   2.384  15.004 -0.3564  0.6644 -0.2768
  239MPD1    C2 3678   0.000   2.410  14.880 -0.1809 -0.8910 -0.8855
  239MPD1    C3 3679   4.616   2.356  14.845 -0.0120 -0.4284  0.7322
  239MPD1    C4 3680   4.548   2.284  14.932  0.3133 -0.3147 -1.2146
  239MPD1    C5 3681   4.592   2.277  15.064  0.3859 -0.7065 -0.1818
  239MPD1     H 3682   0.056   2.461  14.803 -1.8287  2.4016  0.1192
  239MPD1    H1 3683   4.451   2.245  14.904 -0.1507 -1.4547  1.9236
  239MPD1    H2 3684   0.011   2.300  15.203 -0.6367 -2.3170 -0.2632
  239MPD1    H3 3685   4.530   2.237  15.143 -0.5030 -1.4488 -1.2449
  239MPD1     N 3686   4.555   2.366  14.713  0.2417  0.1310  0.0068
  239MPD1    H5 3687   4.463   2.326  14.698  0.4387 -0.0275 -0.7668
  239MPD1    N1 3688   0.177   2.450  15.036  0.4768 -0.3417  0.9069
  239MPD1    H6 3689   0.242   2.475  14.961 -0.0963 -2.3646 -0.2729
  239MPD1    H7 3690   0.234   2.396  15.101  0.1790 -1.4690  0.2431
  240MPD1     C 3691   3.816   2.332  13.848 -0.5136  0.6679  0.6523
  240MPD1    C1 3692   3.689   2.317  13.896  0.0915 -0.2442 -0.2353
  240MPD1    C2 3693   3.672   2.227  13.999 -0.1494  1.1084 -0.1025
  240MPD1    C3 3694   3.778   2.150  14.045  0.4658  0.6104  0.1388
  240MPD1    C4 3695   3.905   2.170  13.993  0.2236 -0.1002 -0.1949
  240MPD1    C5 3696   3.922   2.264  13.894  0.8022 -0.1592  0.4305
  240MPD1     H 3697   3.570   2.202  14.027  0.6197  0.9164  2.4779
  240MPD1    H1 3698   3.991   2.117  14.031 -0.3988 -1.3825 -0.5843
  240MPD1    H2 3699   3.842   2.406  13.773 -3.4080 -1.3826 -2.4090
  240MPD1    H3 3700   4.022   2.303  13.876 -0.3330  1.5439 -2.1450
  240MPD1     N 3701   3.758   2.063  14.149 -0.5234  0.1169  0.5357
  240MPD1    H5 3702   3.667   2.067  14.194 -1.3266 -1.9078 -0.9582
  240MPD1    N1 3703   3.575   2.375  13.840  0.1605 -0.3628  0.0142
  240MPD1    H6 3704   3.587   2.475  13.822  0.8639 -1.0530 -3.3189
  240MPD1    H7 3705   3.503   2.369  13.913 -1.2879 -2.8899 -1.6448
  241MPD1     C 3706   4.238   2.005  14.997 -0.5869 -0.1466 -0.4954
  241MPD1    C1 3707   4.111   1.955  15.026  0.4051 -0.0672  0.2951
  241MPD1    C2 3708   4.037   1.910  14.923 -0.3163  0.1149  0.3326
  241MPD1    C3 3709   4.087   1.894  14.800 -0.0729  0.0523  0.0856
  241MPD1    C4 3710   4.221   1.925  14.781 -0.0766 -0.0797  0.3969
  241MPD1    C5 3711   4.293   1.992  14.875  0.4614 -0.0054 -0.6564
  241MPD1     H 3712   3.936   1.874  14.935  0.1007 -0.9541  0.5898
  241MPD1    H1 3713   4.274   1.917  14.687  0.1936  2.8671  0.3052
  241MPD1    H2 3714   4.293   2.052  15.078  0.4646 -0.8999 -0.7760
  241MPD1    H3 3715   4.393   2.032  14.863  1.0858 -1.4566 -0.3256
  241MPD1     N 3716   4.014   1.866  14.682 -0.8047  0.2541  0.5979
  241MPD1    H5 3717   4.078   1.875  14.603 -1.9278  1.0610 -0.2221
  241MPD1    N1 3718   4.056   1.982  15.145  0.5187  0.2428 -0.1709
  241MPD1    H6 3719   3.974   1.922  15.159  3.0469 -3.1592  0.1022
  241MPD1    H7 3720   4.116   1.989  15.227 -0.0339  1.0524  0.1639
  242MPD1     C 3721   3.349   0.343  15.954  0.4635  0.1872  0.3284
  242MPD1    C1 3722   3.410   0.460  15.908  0.2565 -0.1118  0.0446
  242MPD1    C2 3723   3.489   0.455  15.797 -0.2321 -0.2511 -0.5341
  242MPD1    C3 3724   3.486   0.340  15.718  0.3743 -0.5967  0.4187
  242MPD1    C4 3725   3.416   0.231  15.759  0.3606  0.2784  0.6738
  242MPD1    C5 3726   3.359   0.228  15.880  0.3233  0.1057  0.5208
  242MPD1     H 3727   3.531   0.550  15.766  0.5770 -0.0870  1.0461
  242MPD1    H1 3728   3.428   0.136  15.708  0.1259  1.0785 -0.8829
  242MPD1    H2 3729   3.285   0.328  16.040  0.0116 -0.5768 -0.1387
  242MPD1    H3 3730   3.297   0.142  15.905  1.6360 -1.0256 -0.1011
  242MPD1     N 3731   3.557   0.326  15.599  0.2997 -0.4331  0.1459
  242MPD1    H5 3732   3.534   0.238  15.555  2.0851 -0.9783  0.3224
  242MPD1    N1 3733   3.407   0.574  15.993  0.2168  0.2356  0.4703
  242MPD1    H6 3734   3.313   0.587  16.031  0.7602 -0.4459  2.0328
  242MPD1    H7 3735   3.444   0.658  15.949 -1.5575  1.5535  1.4489
  243MPD1     C 3736   0.896   3.195  17.539 -0.1153 -0.4566  0.2232
  243MPD1    C1 3737   0.814   3.130  17.450  0.2677  0.0965 -0.2323
  243MPD1    C2 3738   0.852   3.145  17.319  0.0273  0.3914  0.2165
  243MPD1    C3 3739   0.949   3.230  17.274 -0.0442  0.3673  0.4576
  243MPD1    C4 3740   1.020   3.293  17.370  0.3428  1.1202 -0.7344
  243MPD1    C5 3741   0.997   3.273  17.498 -0.2484 -0.6159 -0.2689
  243MPD1     H 3742   0.799   3.088  17.244  0.3848 -0.7245  0.8060
  243MPD1    H1 3743   1.097   3.367  17.348  0.5015  1.6511  1.6475
  243MPD1    H2 3744   0.883   3.165  17.642  1.7725 -3.0511 -0.2973
  243MPD1    H3 3745   1.061   3.325  17.568 -1.0654 -1.8316  1.3891
  243MPD1     N 3746   0.975   3.252  17.138 -0.4370  0.4470  0.1660
  243MPD1    H5 3747   0.958   3.168  17.085  1.1700  0.5019 -0.4417
  243MPD1    N1 3748   0.725   3.033  17.493 -0.4115 -0.0682 -0.0175
  243MPD1    H6 3749   0.684   3.066  17.581  1.2447  1.1402  0.2951
  243MPD1    H7 3750   0.652   3.017  17.424  1.1547  0.4734 -1.7838
  244MPD1     C 3751   1.048   2.537  16.768 -0.3935 -0.1199 -0.5331
  244MPD1    C1 3752   1.009   2.598  16.888  0.4441  0.1995 -0.1917
  244MPD1    C2 3753   1.039   2.731  16.914 -0.0617 -0.7533  0.3645
  244MPD1    C3 3754   1.109   2.803  16.815  0.0417 -0.3210 -0.1672
  244MPD1    C4 3755   1.148   2.734  16.697 -0.1132  0.3533  0.2880
  244MPD1    C5 3756   1.122   2.608  16.678  0.0541 -0.1201  0.3780
  244MPD1     H 3757   1.008   2.778  17.006 -1.9895 -2.5398  0.6109
  244MPD1    H1 3758   1.183   2.792  16.612 -1.9250  0.2773 -0.5020
  244MPD1    H2 3759   1.021   2.439  16.731  0.5150 -0.3708 -0.5215
  244MPD1    H3 3760   1.136   2.565  16.580  0.3854  0.4075  0.1934
  244MPD1     N 3761   1.123   2.941  16.834 -0.0364  0.2314  0.1192
  244MPD1    H5 3762   1.082   2.974  16.920 -2.1401 -0.4014 -0.6508
  244MPD1    N1 3763   0.921   2.522  16.966  0.2351 -0.2576 -0.2294
  244MPD1    H6 3764   0.916   2.564  17.058 -0.2017 -0.8036 -0.0019
  244MPD1    H7 3765   0.938   2.422  16.960 -0.3055 -0.3188 -0.8421
  245MPD1     C 3766   2.101   4.160  13.302 -0.7000  0.5587 -0.4658
  245MPD1    C1 3767   2.134   4.208  13.430 -0.2208 -0.2407 -0.4176
  245MPD1    C2 3768   2.258   4.265  13.453  0.1921 -0.0101  0.0284
  245MPD1    C3 3769   2.333   4.291  13.339  0.6625  0.2646 -0.2940
  245MPD1    C4 3770   2.300   4.248  13.216  0.0833  0.4878  0.1651
  245MPD1    C5 3771   2.192   4.168  13.202 -0.1312  0.0816 -0.8729
  245MPD1     H 3772   2.276   4.319  13.545 -2.2153  0.4848  0.2066
  245MPD1    H1 3773   2.366   4.280  13.136  0.5194  0.1356  0.3829
  245MPD1    H2 3774   2.008   4.104  13.293 -0.1282 -0.0598 -2.4915
  245MPD1    H3 3775   2.163   4.129  13.105  0.4690 -0.6208 -0.7743
  245MPD1     N 3776   2.455   4.353  13.357 -0.2801 -0.4453 -0.6704
  245MPD1    H5 3777   2.472   4.371  13.456  0.4091  0.9925 -1.0498
  245MPD1    N1 3778   2.043   4.174  13.532 -0.0036  0.3738  0.9782
  245MPD1    H6 3779   1.953   4.187  13.487 -0.0163 -1.7009  0.3980
  245MPD1    H7 3780   2.048   4.234  13.614  0.0956  0.6137  0.7978
  246MPD1     C 3781   4.010   1.634  10.693  0.3930 -0.0294  0.7697
  246MPD1    C1 3782   4.056   1.514  10.734 -0.7612  0.7521 -0.6117
  246MPD1    C2 3783   4.014   1.401  10.654  0.2519  0.5160 -0.4670
  246MPD1    C3 3784   3.959   1.425  10.534  0.3290 -0.1293  1.0078
  246MPD1    C4 3785   3.937   1.553  10.487 -0.9210 -0.5972 -0.0426
  246MPD1    C5 3786   3.943   1.656  10.573  0.4028  0.1108  0.8643
  246MPD1     H 3787   4.023   1.300  10.695 -1.4964  0.4228 -0.3287
  246MPD1    H1 3788   3.876   1.579  10.401  1.7944 -1.3663 -2.1902
  246MPD1    H2 3789   4.042   1.726  10.741  1.0260  0.0957  0.1076
  246MPD1    H3 3790   3.919   1.756  10.540  0.6932 -0.4033 -0.9254
  246MPD1     N 3791   3.924   1.309  10.456 -0.2027 -0.3961 -0.6851
  246MPD1    H5 3792   3.952   1.218  10.493  0.0207 -1.3611 -3.2535
  246MPD1    N1 3793   4.104   1.506  10.868 -0.0692  0.5766  0.0818
  246MPD1    H6 3794   4.173   1.578  10.890  0.3161  1.2777 -3.5551
  246MPD1    H7 3795   4.153   1.419  10.890 -0.9525  0.1611  0.4135
  247MPD1     C 3796   2.176   0.318  16.498 -0.3920 -0.1735 -0.2118
  247MPD1    C1 3797   2.101   0.246  16.591  0.5720  0.2033  0.1179
  247MPD1    C2 3798   2.106   0.113  16.579  0.2226  0.2736 -0.0246
  247MPD1    C3 3799   2.198   0.049  16.486 -0.0968  0.0317 -0.0919
  247MPD1    C4 3800   2.266   0.123  16.395  0.2438 -0.2622  0.2529
  247MPD1    C5 3801   2.261   0.258  16.405 -0.4230 -0.2970  0.7579
  247MPD1     H 3802   2.038   0.061  16.645 -1.2019  0.7637 -1.1092
  247MPD1    H1 3803   2.336   0.079  16.326  0.7874  3.4988 -1.6219
  247MPD1    H2 3804   2.177   0.426  16.512 -0.2157 -0.2234  0.1511
  247MPD1    H3 3805   2.326   0.323  16.347  0.9193 -1.1608  1.2869
  247MPD1     N 3806   2.224   4.643  16.486 -0.1741 -0.4653  0.1598
  247MPD1    H5 3807   2.304   4.609  16.433  0.7877 -0.1950  1.4388
  247MPD1    N1 3808   2.006   0.317  16.672  0.0122 -0.1236  0.3369
  247MPD1    H6 3809   2.003   0.278  16.766  1.7213  0.9017  0.8144
  247MPD1    H7 3810   2.050   0.404  16.701 -0.3834  0.8119 -1.9093
  248MPD1     C 3811   2.431   3.528  16.955 -0.3095  0.1718  0.2137
  248MPD1    C1 3812   2.361   3.483  17.068 -0.5079  0.5057 -0.2537
  248MPD1    C2 3813   2.380   3.546  17.191  0.0610  0.2704 -0.0186
  248MPD1    C3 3814   2.455   3.670  17.201  0.6818  0.2307 -0.3077
  248MPD1    C4 3815   2.527   3.709  17.087 -0.1612 -0.3664  0.5254
  248MPD1    C5 3816   2.511   3.639  16.971 -0.3372 -0.5919  0.1236
  248MPD1     H 3817   2.315   3.512  17.270 -0.8670  1.5700 -0.2268
  248MPD1    H1 3818   2.600   3.789  17.087  0.7192 -1.1663 -0.5709
  248MPD1    H2 3819   2.425   3.489  16.854 -1.5284 -0.8661  0.6863
  248MPD1    H3 3820   2.573   3.661  16.885 -0.5604  2.5097  0.7599
  248MPD1     N 3821   2.461   3.736  17.325  0.3592 -0.4134  0.0417
  248MPD1    H5 3822   2.430   3.688  17.409  3.4497 -0.0652  1.3870
  248MPD1    N1 3823   2.276   3.370  17.059 -0.1199  0.1756  0.7234
  248MPD1    H6 3824   2.225   3.375  16.971  2.1682 -0.6966 -0.6615
  248MPD1    H7 3825   2.218   3.345  17.138 -0.7235  2.3188  0.9720
  249MPD1     C 3826   4.112   2.249  11.456 -0.2135 -0.3971  0.1793
  249MPD1    C1 3827   4.173   2.361  11.405  0.6886  0.1023  0.4748
  249MPD1    C2 3828   4.179   2.370  11.269 -0.1041 -0.3157  0.1986
  249MPD1    C3 3829   4.102   2.293  11.189  0.2394  0.8099 -0.2384
  249MPD1    C4 3830   4.033   2.189  11.242  0.1401 -0.0546  0.1315
  249MPD1    C5 3831   4.041   2.169  11.374  0.2395 -0.6029  0.6624
  249MPD1     H 3832   4.245   2.438  11.217  3.0925 -0.9133  3.4743
  249MPD1    H1 3833   3.954   2.137  11.190  1.1237  0.5084 -1.9220
  249MPD1    H2 3834   4.104   2.224  11.561 -0.8831  0.5273  0.3499
  249MPD1    H3 3835   3.977   2.098  11.426  1.1898 -1.2537  0.9491
  249MPD1     N 3836   4.108   2.321  11.050  0.6298  0.4741 -0.4012
  249MPD1    H5 3837   4.153   2.404  11.015  0.0403 -0.2627 -2.9117
  249MPD1    N1 3838   4.259   2.442  11.483  0.7148  0.1828  0.3014
  249MPD1    H6 3839   4.272   2.539  11.455  2.1255  0.0568  0.4913
  249MPD1    H7 3840   4.216   2.450  11.575 -1.9607 -0.8219 -0.8701
  250MPD2     C 3841   1.295   2.616  13.460  0.0612 -0.4272 -0.3424
  250MPD2    C1 3842   1.199   2.704  13.413  0.1566  0.0907  0.6545
  250MPD2    C2 3843   1.082   2.644  13.379  0.2553  1.0684 -0.2969
  250MPD2    C3 3844   1.060   2.505  13.388 -0.2856 -0.2300  0.4819
  250MPD2    C4 3845   1.159   2.429  13.444  0.1455  0.0251 -0.5414
  250MPD2    C5 3846   1.276   2.482  13.470 -0.2408  0.4047  0.0523
  250MPD2     H 3847   1.001   2.694  13.326  0.3220 -0.3090 -1.7027
  250MPD2    H1 3848   1.154   2.323  13.466 -2.3754 -0.0938 -1.7082
  250MPD2    H2 3849   1.394   2.651  13.488  0.1843 -1.7299  0.8277
  250MPD2    H3 3850   1.354   2.420  13.512  1.9800  1.7575 -2.0324
  250MPD2     N 3851   0.940   2.434  13.352 -0.1140  0.0116 -0.1327
  250MPD2    H5 3852   0.955   2.333  13.360 -2.0005 -0.1102  1.7610
  250MPD2    N1 3853   1.235   2.837  13.385 -0.1390 -0.3255  0.5899
  250MPD2    H7 3854   1.333   2.864  13.396  0.2807 -1.5652 -0.0924
  251TMC3    C1 3855   1.224   3.055  13.302 -0.1396  0.5188 -0.4186
  251TMC3    C2 3856   1.162   3.176  13.322 -0.2154 -0.4008  0.2102
  251TMC3    C3 3857   1.236   3.288  13.328  0.1812  0.8478 -0.3033
  251TMC3    C4 3858   1.361   3.054  13.302  0.4203 -0.2717 -0.0494
  251TMC3    C5 3859   1.435   3.166  13.315 -0.8803  0.1451  0.2238
  251TMC3    C6 3860   1.375   3.286  13.318  0.5457 -0.5494  0.9215
  251TMC3     C 3861   1.153   2.940  13.345  0.1779  0.4340  0.4887
  251TMC3     O 3862   1.029   2.945  13.352  0.0795 -0.0536  1.0198
  251TMC3     H 3863   1.055   3.189  13.338 -0.4831 -2.5101  0.0507
  251TMC3    H1 3864   1.408   2.960  13.274 -1.3783 -1.3123  0.3829
  251TMC3    H2 3865   1.429   3.380  13.317  0.3895 -0.4757 -0.1541
  251TMC3    C7 3866   1.578   3.146  13.347 -0.3575 -0.2593 -0.5762
  251TMC3    C8 3867   1.164   3.411  13.362  0.2165  0.0915  0.1087
  251TMC3    O1 3868   1.618   3.029  13.356  0.2819 -0.4768 -0.3760
  251TMC3    O2 3869   1.070   3.388  13.433 -0.5489 -0.2345  0.4119
  252TMC3    C1 3870   0.256   4.483   9.735  0.1509  0.4595 -1.0061
  252TMC3    C2 3871   0.361   4.555   9.680 -0.1558  0.2566  0.3841
  252TMC3    C3 3872   0.486   4.504   9.686 -0.8397 -0.4223  0.9250
  252TMC3    C4 3873   0.279   4.360   9.794  0.3347  0.3159  0.3006
  252TMC3    C5 3874   0.409   4.315   9.804 -0.0429 -0.4360  1.1287
  252TMC3    C6 3875   0.517   4.380   9.742  0.0265 -0.3560  0.2898
  252TMC3     C 3876   0.120   4.541   9.731 -0.3275 -0.3667 -0.2728
  252TMC3     O 3877   0.100   4.656   9.696  0.3884 -0.3140 -0.8101
  252TMC3     H 3878   0.351   4.658   9.649 -0.8800 -0.0858 -0.5163
  252TMC3    H1 3879   0.203   4.301   9.844 -0.8158  0.7819 -0.8838
  252TMC3    H2 3880   0.610   4.325   9.731 -1.1747 -2.4862  0.7931
  252TMC3    C7 3881   0.410   4.174   9.811 -0.0438  0.6374 -0.6232
  252TMC3    C8 3882   0.592   4.604   9.683  0.8727  0.7392  0.3276
  252TMC3    O1 3883   0.327   4.120   9.740  0.2443  0.4545 -0.5462
  252TMC3    O2 3884   0.584   4.696   9.603  0.0323  0.0911 -0.1794
  253MPD2     C 3885   2.364   3.052  15.411  0.0902 -0.0629  0.5896
  253MPD2    C1 3886   2.228   3.038  15.419  0.3586 -0.2118  0.1350
  253MPD2    C2 3887   2.170   3.018  15.540  0.2533 -0.1730  0.4364
  253MPD2    C3 3888   2.248   3.006  15.654 -0.3250  0.5871 -0.0695
  253MPD2    C4 3889   2.383   3.009  15.640 -0.1838  0.4420  0.3003
  253MPD2    C5 3890   2.437   3.034  15.520  0.5962 -0.3086  0.7460
  253MPD2     H 3891   2.063   3.005  15.554  0.0596  0.6989 -0.1581
  253MPD2    H1 3892   2.445   2.997  15.728 -1.0889 -1.0467  0.7518
  253MPD2    H2 3893   2.418   3.071  15.319 -0.6586  1.1011  0.3969
  253MPD2    H3 3894   2.545   3.029  15.519  0.7052  2.1319  1.2832
  253MPD2     N 3895   2.194   2.993  15.784  1.2445  0.2669  0.0166
  253MPD2    H5 3896   2.262   2.985  15.860  0.8876 -0.3272  0.2717
  253MPD2    N1 3897   2.136   3.043  15.308 -0.0161 -0.0522 -0.0871
  253MPD2    H7 3898   2.038   3.018  15.317  0.6524 -1.7582  2.3350
  254TMC3    C1 3899   2.032   2.946  15.951  0.0397 -0.2499 -0.0082
  254TMC3    C2 3900   1.902   2.947  15.993 -1.0213  0.1572  0.1084
  254TMC3    C3 3901   1.868   2.910  16.122 -0.8396  0.5269 -0.9286
  254TMC3    C4 3902   2.134   2.906  16.034 -0.8339  0.0075  0.1335
  254TMC3    C5 3903   2.100   2.875  16.163  0.8906 -0.6122 -0.0913
  254TMC3    C6 3904   1.970   2.878  16.207  0.1024  0.4088  0.0813
  254TMC3     C 3905   2.057   2.994  15.812  0.7246  0.6696 -0.3461
  254TMC3     O 3906   1.959   3.029  15.746 -0.1485  0.3398  0.2911
  254TMC3     H 3907   1.829   2.991  15.925 -0.4789  0.0114 -0.5644
  254TMC3    H1 3908   2.236   2.911  15.998 -0.9886  0.8451 -0.1952
  254TMC3    H2 3909   1.952   2.870  16.314 -1.6150 -2.7640 -0.4820
  254TMC3    C7 3910   2.200   2.840  16.262  0.7019  0.7588 -0.1992
  254TMC3    C8 3911   1.749   2.970  16.181  0.2253  0.8719 -0.2564
  254TMC3    O1 3912   2.162   2.790  16.367  0.0448  0.3498 -0.3833
  254TMC3    O2 3913   1.735   2.927  16.295  0.2470 -0.4286  0.0589
  255MPD2     C 3914   0.108   2.423  10.417  0.4436 -1.0108  1.1612
  255MPD2    C1 3915   0.027   2.342  10.334  0.5137 -0.5888 -0.2524
  255MPD2    C2 3916   0.030   2.209  10.353  0.5025 -0.7297 -0.1919
  255MPD2    C3 3917   0.127   2.156  10.438  0.0758 -0.1785 -0.5739
  255MPD2    C4 3918   0.212   2.231  10.511 -0.1582  0.1336 -0.0448
  255MPD2    C5 3919   0.198   2.370  10.504 -0.5507 -0.2116  0.2060
  255MPD2     H 3920   4.702   2.141  10.302  2.7729 -1.5146 -2.1063
  255MPD2    H1 3921   0.292   2.202  10.579 -0.2044 -0.3573 -0.2048
  255MPD2    H2 3922   0.104   2.531  10.406  1.4879 -0.8966  1.9197
  255MPD2    H3 3923   0.252   2.426  10.580 -0.1382 -1.9324  1.2002
  255MPD2     N 3924   0.139   2.017  10.443 -0.1282  0.4481 -0.1970
  255MPD2    H5 3925   0.082   1.963  10.379  1.6086 -0.6284 -0.8351
  255MPD2    N1 3926   4.690   2.407  10.237  0.4901  0.4640 -0.5814
  255MPD2    H7 3927   4.659   2.501  10.262 -0.8940 -0.5663  1.5919
  256TMC3    C1 3928   4.719   2.265  10.051  0.1473 -0.0095  0.5327
  256TMC3    C2 3929   0.098   2.321  10.010 -0.6021  0.0197 -0.2912
  256TMC3    C3 3930   0.153   2.257   9.906  0.5708 -0.2030 -0.9176
  256TMC3    C4 3931   4.648   2.163   9.988 -0.1576 -0.7704  0.5244
  256TMC3    C5 3932   4.715   2.099   9.887  0.1989  0.1773  0.0775
  256TMC3    C6 3933   0.103   2.147   9.848 -0.2220 -0.3353  0.2341
  256TMC3     C 3934   4.639   2.360  10.123 -0.1733 -0.0899  0.2214
  256TMC3     O 3935   4.543   2.396  10.057 -0.3051  0.4079  0.1315
  256TMC3     H 3936   0.138   2.416  10.045  0.3553 -0.0881 -1.0776
  256TMC3    H1 3937   4.554   2.128  10.029  0.2765 -1.5186  0.8788
  256TMC3    H2 3938   0.162   2.095   9.774 -0.5033 -1.4417  0.7931
  256TMC3    C7 3939   4.676   1.958   9.867  0.2528  0.2217 -0.5264
  256TMC3    C8 3940   0.255   2.324   9.840 -0.5638  0.8484  0.1752
  256TMC3    O1 3941   4.605   1.912   9.959  0.1695  0.3265 -0.1758
  256TMC3    O2 3942   0.304   2.423   9.897 -0.1330 -0.2004  0.1812
  257MPD2     C 3943   3.940   2.795  13.184 -0.0489 -0.9309  0.1311
  257MPD2    C1 3944   4.081   2.783  13.181  0.1896  0.0974  0.2150
  257MPD2    C2 3945   4.130   2.675  13.249 -0.4734 -0.5542 -0.0906
  257MPD2    C3 3946   4.055   2.583  13.321  0.5655  0.6448 -0.0909
  257MPD2    C4 3947   3.920   2.608  13.335  0.4388 -0.5543 -0.4377
  257MPD2    C5 3948   3.867   2.714  13.266 -0.1514 -0.3218 -0.2088
  257MPD2     H 3949   4.236   2.658  13.255 -0.3657 -0.1143 -0.7002
  257MPD2    H1 3950   3.859   2.538  13.391  1.2719 -0.9047  0.0374
  257MPD2    H2 3951   3.890   2.865  13.119 -0.8981 -0.3844  1.3626
  257MPD2    H3 3952   3.760   2.732  13.275  0.1434 -0.2030  3.1743
  257MPD2     N 3953   4.124   2.470  13.378  0.3976 -0.6729  0.6353
  257MPD2    H5 3954   4.223   2.456  13.361 -0.1789 -2.2243 -1.3921
  257MPD2    N1 3955   4.163   2.873  13.107 -0.4221 -0.4985 -0.3067
  257MPD2    H7 3956   4.122   2.939  13.041  1.8826 -0.6587 -1.9282
  258TMC3    C1 3957   4.170   2.263  13.484 -0.5021  0.0686 -0.4677
  258TMC3    C2 3958   4.287   2.283  13.418 -0.1283  0.9324  0.2044
  258TMC3    C3 3959   4.403   2.261  13.484  0.1910  0.3995 -0.2844
  258TMC3    C4 3960   4.162   2.223  13.621 -0.1604  1.0609  0.6727
  258TMC3    C5 3961   4.287   2.202  13.681  0.3006  0.0124 -0.0946
  258TMC3    C6 3962   4.410   2.232  13.618  0.4927  0.1737  0.1247
  258TMC3     C 3963   4.073   2.370  13.458  0.4938  0.5866 -0.0815
  258TMC3     O 3964   3.962   2.354  13.508  0.4449  0.1575 -0.0215
  258TMC3     H 3965   4.289   2.315  13.315 -4.0172 -2.3884 -0.8917
  258TMC3    H1 3966   4.068   2.208  13.673  0.2325 -1.4640  0.6355
  258TMC3    H2 3967   4.506   2.222  13.668  0.3162 -0.2031  0.3800
  258TMC3    C7 3968   4.289   2.157  13.819  0.2072  0.9800 -0.3627
  258TMC3    C8 3969   4.530   2.274  13.411  0.3046  0.5546  0.8877
  258TMC3    O1 3970   4.199   2.089  13.865  0.1913  0.2056  0.4056
  258TMC3    O2 3971   4.630   2.287  13.478 -0.0421 -0.0263 -0.1002
  259MPD2     C 3972   3.359   0.580   1.239 -0.2131 -0.2121 -0.1076
  259MPD2    C1 3973   3.394   0.451   1.244 -0.5645 -0.3386  0.0546
  259MPD2    C2 3974   3.406   0.379   1.123  1.1827  0.1068 -0.0103
  259MPD2    C3 3975   3.358   0.440   1.008 -0.3229  0.3075  0.0774
  259MPD2    C4 3976   3.311   0.572   1.014  0.0306 -0.0321  0.0981
  259MPD2    C5 3977   3.316   0.646   1.125  0.2136  0.6821 -0.3972
  259MPD2     H 3978   3.427   0.273   1.120  1.6883  0.2571 -1.7286
  259MPD2    H1 3979   3.281   0.631   0.929 -0.1925  0.8539  0.7968
  259MPD2    H2 3980   3.366   0.638   1.330 -2.3961  0.4671 -0.3589
  259MPD2    H3 3981   3.284   0.749   1.128  3.0392  1.5134  1.6517
  259MPD2     N 3982   3.356   0.369   0.884  0.1147  0.5761  0.9263
  259MPD2    H5 3983   3.392   0.274   0.889  0.2750  0.4918 -1.8555
  259MPD2    N1 3984   3.425   0.389   1.370  0.0546 -0.1326 -0.0577
  259MPD2    H7 3985   3.414   0.452   1.450  0.8954 -0.6620  0.4707
  260TMC3    C1 3986   3.319   0.318   0.656 -0.6812  0.3537 -0.0748
  260TMC3    C2 3987   3.310   0.367   0.528 -0.0871 -0.2530  0.0350
  260TMC3    C3 3988   3.338   0.278   0.427  0.0749 -0.1678  0.3033
  260TMC3    C4 3989   3.357   0.188   0.680  0.0626 -1.0769 -0.2329
  260TMC3    C5 3990   3.365   0.103   0.575  0.8474  0.2047  0.2232
  260TMC3    C6 3991   3.351   0.148   0.443 -0.3482 -0.4781 -0.6944
  260TMC3     C 3992   3.299   0.406   0.764 -0.4031 -0.5672 -0.0816
  260TMC3     O 3993   3.222   0.501   0.741  0.0077 -0.4456  0.5038
  260TMC3     H 3994   3.286   0.472   0.515 -0.8990 -0.7814 -2.8838
  260TMC3    H1 3995   3.333   0.157   0.781 -1.9240 -0.5254 -0.5259
  260TMC3    H2 3996   3.371   0.074   0.367  1.1688  1.5129 -2.2083
  260TMC3    C7 3997   3.394   4.698   0.586  0.3606 -0.7827 -0.5755
  260TMC3    C8 3998   3.348   0.331   0.291  0.6113  0.3561 -0.8655
  260TMC3    O1 3999   3.371   4.624   0.491  0.3168 -0.0553 -0.0492
  260TMC3    O2 4000   3.355   0.453   0.292  0.0387  0.0634 -0.0458
  261MPD2     C 4001   0.312   2.547  12.824 -0.3171 -0.1232 -0.4761
  261MPD2    C1 4002   0.437   2.503  12.794 -0.1962 -0.5850  0.6763
  261MPD2    C2 4003   0.476   2.515  12.662 -0.8528 -0.0698  0.2075
  261MPD2    C3 4004   0.398   2.570  12.570 -0.1660  0.2570  0.0244
  261MPD2    C4 4005   0.274   2.624  12.605  0.6730  0.1942 -0.1849
  261MPD2    C5 4006   0.240   2.619  12.737 -0.2495  0.3500  0.8688
  261MPD2     H 4007   0.565   2.457  12.638 -0.5238  0.7403 -0.5157
  261MPD2    H1 4008   0.206   2.676  12.539  1.0215  0.4006 -0.3813
  261MPD2    H2 4009   0.269   2.543  12.923 -0.4011 -2.9987 -0.6509
  261MPD2    H3 4010   0.148   2.668  12.767  0.9615  2.2126  1.5476
  261MPD2     N 4011   0.451   2.600  12.441  0.4228  0.0263  0.3365
  261MPD2    H5 4012   0.550   2.588  12.423  0.1118 -1.4971 -0.4120
  261MPD2    N1 4013   0.514   2.432  12.887  0.2752  0.2769 -0.1587
  261MPD2    H7 4014   0.589   2.372  12.853 -1.4296 -1.9711  0.0231
  262TMC3    C1 4015   0.465   2.729  12.246 -0.2499 -0.3094  0.7611
  262TMC3    C2 4016   0.421   2.750  12.122 -0.6014  0.6410 -0.5721
  262TMC3    C3 4017   0.499   2.810  12.029 -0.5630 -0.7703 -0.0848
  262TMC3    C4 4018   0.586   2.784  12.289 -0.4435 -0.1762  0.3029
  262TMC3    C5 4019   0.659   2.861  12.196 -0.1235  0.0329 -0.0297
  262TMC3    C6 4020   0.622   2.861  12.066  0.0318  0.7577 -0.2874
  262TMC3     C 4021   0.378   2.658  12.341 -0.0687  1.3428  0.1628
  262TMC3     O 4022   0.258   2.656  12.312  0.1790 -0.3486 -0.7485
  262TMC3     H 4023   0.322   2.715  12.096  0.1768  0.3743 -3.1017
  262TMC3    H1 4024   0.627   2.782  12.389  0.3973 -1.3317 -0.0617
  262TMC3    H2 4025   0.696   2.892  11.993  0.1908 -0.7564 -0.7504
  262TMC3    C7 4026   0.708   2.991  12.230 -0.0255 -0.7318  0.2036
  262TMC3    C8 4027   0.440   2.915  11.951  0.1441 -0.4609  0.1962
  262TMC3    O1 4028   0.724   3.012  12.349 -0.0072 -0.3267  0.1560
  262TMC3    O2 4029   0.501   3.019  11.939  0.4927 -0.2967 -0.1962
  263MPD2     C 4030   1.308   1.824  11.205  0.5751  0.7758  0.4576
  263MPD2    C1 4031   1.383   1.934  11.237  0.2183  0.1342  0.2249
  263MPD2    C2 4032   1.423   2.028  11.144  0.4531 -0.1376  0.3260
  263MPD2    C3 4033   1.369   2.013  11.015  0.0502  0.3289  0.6658
  263MPD2    C4 4034   1.290   1.905  10.991  0.3649 -0.4622  0.5135
  263MPD2    C5 4035   1.268   1.805  11.080 -0.7623 -0.5387  0.3145
  263MPD2     H 4036   1.501   2.101  11.162 -2.1898  2.7777 -0.0588
  263MPD2    H1 4037   1.239   1.893  10.896  1.2575  0.4409 -0.0730
  263MPD2    H2 4038   1.287   1.748  11.279 -0.5686  0.3212 -0.3289
  263MPD2    H3 4039   1.217   1.712  11.059  2.3242 -1.5115 -2.8923
  263MPD2     N 4040   1.389   2.123  10.930  0.2996  0.2333 -0.4826
  263MPD2    H5 4041   1.438   2.198  10.978 -0.3572  0.8122 -0.7079
  263MPD2    N1 4042   1.417   1.952  11.371 -0.3062  0.4806 -0.0421
  263MPD2    H7 4043   1.411   1.867  11.427  0.7011  1.1912  1.1418
  264TMC3    C1 4044   1.376   2.259  10.752 -0.2810  0.0686 -0.0009
  264TMC3    C2 4045   1.319   2.364  10.824  0.3392 -0.8484 -0.0429
  264TMC3    C3 4046   1.354   2.489  10.783 -0.2041  0.2210  0.6050
  264TMC3    C4 4047   1.474   2.279  10.658  0.2414  0.7815 -0.3543
  264TMC3    C5 4048   1.489   2.405  10.613 -0.1648  0.1429 -0.3767
  264TMC3    C6 4049   1.439   2.507  10.674  0.4059  0.0612 -0.3323
  264TMC3     C 4050   1.358   2.130  10.801 -0.2046 -0.2913  0.3486
  264TMC3     O 4051   1.344   2.040  10.718  0.2367 -0.2481 -0.2414
  264TMC3     H 4052   1.242   2.354  10.900 -1.3473 -0.0249 -1.6336
  264TMC3    H1 4053   1.517   2.193  10.607  0.0225 -0.0980  0.9391
  264TMC3    H2 4054   1.462   2.607  10.640 -0.0756  0.0204 -0.7865
  264TMC3    C7 4055   1.596   2.429  10.517 -0.0076  0.3511  0.2686
  264TMC3    C8 4056   1.351   2.605  10.877 -0.4991 -0.0963 -0.1123
  264TMC3    O1 4057   1.684   2.342  10.528  0.6012 -0.0098 -0.5497
  264TMC3    O2 4058   1.449   2.678  10.884  0.0537  0.4096  0.6510
  265MPD2     C 4059   3.057   2.279  15.717 -0.1381 -0.1136 -0.4049
  265MPD2    C1 4060   3.104   2.399  15.670  0.1400  0.5407 -0.3755
  265MPD2    C2 4061   3.175   2.399  15.546 -0.0437  0.8805  0.0847
  265MPD2    C3 4062   3.192   2.283  15.474  0.4512 -0.2009  0.0444
  265MPD2    C4 4063   3.119   2.172  15.515 -0.3327  0.4974 -0.5362
  265MPD2    C5 4064   3.064   2.163  15.639 -0.4073 -0.2778 -0.4211
  265MPD2     H 4065   3.211   2.498  15.519  0.7476  0.5394 -0.1044
  265MPD2    H1 4066   3.114   2.082  15.453  0.1363 -0.7505  1.2432
  265MPD2    H2 4067   3.012   2.269  15.815 -0.1514 -1.8158 -0.5887
  265MPD2    H3 4068   3.018   2.074  15.682  0.9903 -1.1327 -0.6881
  265MPD2     N 4069   3.268   2.261  15.359 -0.3023 -0.0215  0.1194
  265MPD2    H5 4070   3.265   2.166  15.323  0.9129 -1.3348  3.5275
  265MPD2    N1 4071   3.116   2.509  15.742 -0.1455 -0.6427  0.1615
  265MPD2    H7 4072   3.165   2.582  15.691  0.3812 -1.3615 -0.3800
  266TMC3    C1 4073   3.109   2.658  15.925  0.1071 -0.1584  0.5174
  266TMC3    C2 4074   3.157   2.678  16.052 -0.2721  0.7425 -0.3802
  266TMC3    C3 4075   3.156   2.805  16.096  0.4796  0.0996 -0.2990
  266TMC3    C4 4076   3.084   2.752  15.833 -0.0580 -0.6159  0.0519
  266TMC3    C5 4077   3.091   2.880  15.876 -0.6400  0.1085 -0.2589
  266TMC3    C6 4078   3.130   2.908  16.013  0.6757  0.4375  0.9258
  266TMC3     C 4079   3.097   2.522  15.877 -0.0552 -0.5194 -0.5130
  266TMC3     O 4080   3.110   2.432  15.960 -0.1751  0.2884  0.2723
  266TMC3     H 4081   3.184   2.597  16.119  1.1200  0.9137 -0.7433
  266TMC3    H1 4082   3.043   2.732  15.735  1.7377 -1.4279 -0.5269
  266TMC3    H2 4083   3.140   3.012  16.042  1.7364  0.9427 -1.1739
  266TMC3    C7 4084   3.063   2.991  15.777  0.4063  0.3015  0.0160
  266TMC3    C8 4085   3.226   2.823  16.227 -0.5608  0.9623 -0.7965
  266TMC3    O1 4086   3.071   2.952  15.659  0.3164  0.3849  0.7534
  266TMC3    O2 4087   3.245   2.721  16.293 -0.1544  0.6123 -0.0862
  267MPD2     C 4088   1.318   4.687   0.327  0.3064  0.2094  0.4932
  267MPD2    C1 4089   1.273   4.725   0.201 -0.2952 -0.0126 -0.1310
  267MPD2    C2 4090   1.136   4.722   0.179 -0.2753 -0.7688  0.1654
  267MPD2    C3 4091   1.048   4.673   0.273 -0.7181  0.1482  0.2645
  267MPD2    C4 4092   1.099   4.628   0.392  1.0398  0.3140  0.4102
  267MPD2    C5 4093   1.232   4.639   0.424 -0.2942  0.3025  0.8737
  267MPD2     H 4094   1.092   0.025   0.089 -1.1492  2.0741  1.8997
  267MPD2    H1 4095   1.037   4.595   0.475 -0.2958 -0.6929 -0.9950
  267MPD2    H2 4096   1.423   4.696   0.352  0.1147  2.3055  0.4935
  267MPD2    H3 4097   1.270   4.602   0.518  0.6280  0.6415  0.6377
  267MPD2     N 4098   0.912   4.668   0.236  0.2048  0.1018 -0.4337
  267MPD2    H5 4099   0.890   4.688   0.138 -1.1730  2.9734  0.4646
  267MPD2    N1 4100   1.370   0.031   0.103  0.0645  0.1094 -0.4068
  267MPD2    H7 4101   1.467   0.019   0.130  0.5722 -0.5203 -2.5512
  268TMC3    C1 4102   1.459   0.104  17.640  0.2299 -0.5388  0.5500
  268TMC3    C2 4103   1.433   0.210  17.554  0.2879 -0.0536 -0.0472
  268TMC3    C3 4104   1.540   0.242  17.480 -0.1716  0.2046 -0.0407
  268TMC3    C4 4105   1.575   0.027  17.653 -0.0327 -0.6732  0.3068
  268TMC3    C5 4106   1.677   0.059  17.573  0.8481 -0.9693 -0.5464
  268TMC3    C6 4107   1.654   0.163  17.485 -0.5644  0.2443  0.2243
  268TMC3     C 4108   1.338   0.079  17.727 -0.3537 -0.2748  0.8462
  268TMC3     O 4109   1.228   0.086  17.676 -0.0125 -0.2467  0.3769
  268TMC3     H 4110   1.339   0.263  17.544 -0.8549 -2.1162 -0.0114
  268TMC3    H1 4111   1.579   4.684  17.725 -0.4825 -0.4911  0.5344
  268TMC3    H2 4112   1.730   0.190  17.412 -1.8644 -2.0360 -1.9632
  268TMC3    C7 4113   1.794   0.071  17.653 -0.4193 -0.2302 -0.4400
  268TMC3    C8 4114   1.523   0.350  17.389 -0.0534  0.3614 -0.1288
  268TMC3    O1 4115   1.802   4.727  17.743 -0.2055 -0.0874  0.0043
  268TMC3    O2 4116   1.464   0.444  17.432 -0.4903 -0.2378 -0.0216
  269MPD2     C 4117   1.287   3.123  15.568 -0.3398 -0.0697 -0.8816
  269MPD2    C1 4118   1.158   3.147  15.600  0.0023 -0.2516 -0.1864
  269MPD2    C2 4119   1.104   3.269  15.563  0.4029  0.1047  0.2980
  269MPD2    C3 4120   1.185   3.363  15.508  0.5968 -0.1146 -0.5231
  269MPD2    C4 4121   1.318   3.334  15.476  0.2523 -0.2983  0.1991
  269MPD2    C5 4122   1.366   3.214  15.511 -0.7487  0.3104 -0.4969
  269MPD2     H 4123   1.000   3.299  15.569  1.2578  2.7225  2.0562
  269MPD2    H1 4124   1.389   3.408  15.442 -0.0026 -1.6031 -3.2094
  269MPD2    H2 4125   1.334   3.026  15.576  0.1438  0.5903  4.0591
  269MPD2    H3 4126   1.470   3.187  15.495 -1.2918 -2.8998  1.2980
  269MPD2     N 4127   1.125   3.493  15.489  0.2233 -0.0631 -0.6656
  269MPD2    H5 4128   1.027   3.505  15.513  1.2644  0.3238  3.2802
  269MPD2    N1 4129   1.078   3.052  15.666  0.1789  0.7951  0.0660
  269MPD2    H7 4130   1.131   2.965  15.671  3.1730  2.5310 -1.4401
  270TMC3    C1 4131   0.897   2.947  15.756  0.3279  0.2197 -0.5246
  270TMC3    C2 4132   0.763   2.938  15.747  0.5456 -0.2587 -0.6499
  270TMC3    C3 4133   0.707   2.818  15.788 -0.1004 -0.0944  0.0864
  270TMC3    C4 4134   0.978   2.857  15.819 -0.1507  0.1224 -0.0264
  270TMC3    C5 4135   0.912   2.760  15.881 -0.3607 -0.3662 -0.2384
  270TMC3    C6 4136   0.780   2.721  15.853  0.3202  0.0361  0.5608
  270TMC3     C 4137   0.949   3.070  15.707 -0.3877  0.3096 -0.1380
  270TMC3     O 4138   0.866   3.154  15.690 -0.6631 -0.4415  0.1178
  270TMC3     H 4139   0.705   3.004  15.682 -1.8858 -1.7584 -0.0164
  270TMC3    H1 4140   1.084   2.868  15.840  0.0469  0.9503 -1.4458
  270TMC3    H2 4141   0.736   2.645  15.915  0.4853  0.8456  1.6631
  270TMC3    C7 4142   0.997   2.639  15.881 -0.5558  0.4282  0.3141
  270TMC3    C8 4143   0.611   2.777  15.688  0.6690  0.6276  0.0002
  270TMC3    O1 4144   1.096   2.625  15.952  0.5187  0.0543  0.2762
  270TMC3    O2 4145   0.512   2.711  15.715 -0.2325  0.1070 -0.0963
  271MPD2     C 4146   0.258   3.078  13.930 -0.1991 -0.3655 -1.0103
  271MPD2    C1 4147   0.203   2.990  14.026 -0.3405  0.2396  0.1859
  271MPD2    C2 4148   0.072   2.962  14.017 -0.3248  0.4232 -0.2434
  271MPD2    C3 4149   4.733   3.019  13.919  0.3866  0.0052  0.2759
  271MPD2    C4 4150   0.050   3.115  13.835  0.7902 -0.4322 -0.9031
  271MPD2    C5 4151   0.184   3.147  13.847  0.2565  0.0040 -0.0994
  271MPD2     H 4152   0.030   2.887  14.082 -0.3449 -1.3368 -2.2930
  271MPD2    H1 4153   4.735   3.167  13.757  0.9392  2.7155  1.0905
  271MPD2    H2 4154   0.365   3.093  13.936 -0.1490 -1.8608  1.9868
  271MPD2    H3 4155   0.235   3.210  13.776 -1.1014  0.9368 -0.2380
  271MPD2     N 4156   4.599   2.980  13.880  0.1522  0.0154 -0.4167
  271MPD2    H5 4157   4.558   3.046  13.815  0.6995  2.1109  1.3629
  271MPD2    N1 4158   0.281   2.935  14.134 -0.5177 -0.2725 -0.1645
  271MPD2    H7 4159   0.242   2.876  14.207 -1.5414  1.1284  0.4301
  272TMC3    C1 4160   0.478   2.876  14.263 -0.3499 -0.1050 -0.6582
  272TMC3    C2 4161   0.613   2.874  14.269  0.6102  0.2981  0.3522
  272TMC3    C3 4162   0.671   2.842  14.390  0.6542  0.0650  0.2800
  272TMC3    C4 4163   0.396   2.842  14.369  0.0064  0.2962  0.1941
  272TMC3    C5 4164   0.464   2.826  14.490  0.3068  0.0174  0.5863
  272TMC3    C6 4165   0.600   2.826  14.503  0.1871 -0.1900 -0.1333
  272TMC3     C 4166   0.418   2.938  14.141  0.1148  0.0337 -0.0308
  272TMC3     O 4167   0.502   2.968  14.058 -0.1051 -0.2164  0.3295
  272TMC3     H 4168   0.678   2.900  14.186  0.8335  2.6539  1.2573
  272TMC3    H1 4169   0.290   2.862  14.377 -0.3582 -1.2888 -0.6847
  272TMC3    H2 4170   0.651   2.802  14.595  0.2392 -1.0903 -0.4032
  272TMC3    C7 4171   0.384   2.840  14.608  0.3848  0.6180  0.2831
  272TMC3    C8 4172   0.815   2.838  14.392 -0.3996  0.1736 -0.2356
  272TMC3    O1 4173   0.263   2.826  14.602 -0.1086 -0.0704 -0.0471
  272TMC3    O2 4174   0.875   2.886  14.296 -0.7263  0.4900  0.1778
  273MPD2     C 4175   1.693   1.109  12.326  0.1324 -0.2193  0.0697
  273MPD2    C1 4176   1.828   1.136  12.294  0.0467  0.3689  0.2739
  273MPD2    C2 4177   1.882   1.107  12.171 -0.5683 -0.2613 -0.5738
  273MPD2    C3 4178   1.800   1.063  12.071  0.1301  0.1312 -0.6611
  273MPD2    C4 4179   1.668   1.029  12.103 -0.2343 -0.8231  0.4861
  273MPD2    C5 4180   1.618   1.049  12.231 -0.6256 -0.0326  0.1473
  273MPD2     H 4181   1.986   1.132  12.154 -0.4369 -1.4805 -1.5420
  273MPD2    H1 4182   1.603   0.989  12.026 -2.0522  0.8190  1.1475
  273MPD2    H2 4183   1.643   1.125  12.421  0.3409  2.7445 -0.3284
  273MPD2    H3 4184   1.514   1.024  12.250 -0.8021 -0.8932 -1.9429
  273MPD2     N 4185   1.838   1.050  11.934  0.2040 -0.4388 -0.4609
  273MPD2    H5 4186   1.769   1.014  11.869  0.0820  0.6784 -0.9488
  273MPD2    N1 4187   1.911   1.197  12.391  0.4293 -0.3353  0.0975
  273MPD2    H7 4188   1.874   1.208  12.485 -0.5071 -0.6067 -0.2339
  274TMC3    C1 4189   1.965   1.067  11.736 -0.3698  0.4697 -0.0743
  274TMC3    C2 4190   1.850   1.072  11.667 -0.0383 -0.6357 -0.8037
  274TMC3    C3 4191   1.851   1.151  11.551  0.9036 -0.1779 -0.1364
  274TMC3    C4 4192   2.075   1.132  11.683 -0.2638  0.6044  0.3466
  274TMC3    C5 4193   2.070   1.219  11.582 -1.0159 -0.2079  0.4198
  274TMC3    C6 4194   1.963   1.207  11.499 -0.0437 -0.5027 -0.0399
  274TMC3     C 4195   1.963   1.070  11.885 -0.5612  0.5082 -0.4876
  274TMC3     O 4196   2.070   1.101  11.934  0.6236  0.2296  0.7763
  274TMC3     H 4197   1.758   1.043  11.716  1.2944  1.0900  2.8064
  274TMC3    H1 4198   2.172   1.119  11.730 -0.9218 -2.5037  0.8085
  274TMC3    H2 4199   1.944   1.293  11.436  1.2685  2.2256  3.3466
  274TMC3    C7 4200   2.081   1.352  11.637  0.1496 -0.3824 -0.2080
  274TMC3    C8 4201   1.740   1.140  11.457  0.2553 -0.1056  0.1349
  274TMC3    O1 4202   2.067   1.446  11.562 -0.4017 -0.2078 -0.2003
  274TMC3    O2 4203   1.633   1.091  11.503  0.1478  0.1499  0.1447
  275MPD2     C 4204   2.276   3.512  14.621  0.3381  0.2467 -0.2164
  275MPD2    C1 4205   2.209   3.624  14.573 -0.3212  1.0317  0.3872
  275MPD2    C2 4206   2.080   3.608  14.532  1.2723  0.1736 -0.7883
  275MPD2    C3 4207   2.001   3.491  14.556 -0.4984  0.2900 -0.6697
  275MPD2    C4 4208   2.073   3.383  14.606  1.1001 -0.6475  0.2185
  275MPD2    C5 4209   2.209   3.393  14.635 -0.1711 -0.6322 -0.3514
  275MPD2     H 4210   2.023   3.694  14.499 -0.1853 -0.2957  0.5478
  275MPD2    H1 4211   2.029   3.287  14.629  0.1539 -0.1133  0.6217
  275MPD2    H2 4212   2.381   3.512  14.649  0.2682 -0.2798  0.0367
  275MPD2    H3 4213   2.264   3.304  14.665  2.1352  0.5534 -1.1069
  275MPD2     N 4214   1.857   3.483  14.555  0.5482  0.2433  0.3175
  275MPD2    H5 4215   1.811   3.394  14.568 -0.5059  0.8820  1.0069
  275MPD2    N1 4216   2.259   3.755  14.591  0.0471 -0.1430  0.6465
  275MPD2    H7 4217   2.205   3.834  14.558  0.4965 -0.1112 -0.0074
  276TMC3    C1 4218   2.362   3.920  14.713 -0.4591  0.2896 -0.7712
  276TMC3    C2 4219   2.230   3.958  14.730  0.2223  0.3816 -0.7493
  276TMC3    C3 4220   2.195   4.022  14.845 -0.3664  0.3357 -0.6486
  276TMC3    C4 4221   2.457   3.935  14.808 -0.4901  0.3116 -0.0079
  276TMC3    C5 4222   2.407   3.980  14.929 -0.0907 -0.0051 -0.6015
  276TMC3    C6 4223   2.285   4.033  14.946  0.3917  0.4546 -0.2072
  276TMC3     C 4224   2.374   3.790  14.660 -0.2213  0.3661 -0.3040
  276TMC3     O 4225   2.460   3.719  14.712  0.0776  0.2440  0.0922
  276TMC3     H 4226   2.144   3.955  14.663  1.0906 -0.3340 -1.8378
  276TMC3    H1 4227   2.556   3.903  14.780 -0.7675 -1.6388  1.2109
  276TMC3    H2 4228   2.258   4.072  15.044 -2.1088 -2.0560  0.0889
  276TMC3    C7 4229   2.501   4.013  15.039  0.2374 -0.0552  0.3587
  276TMC3    C8 4230   2.060   4.002  14.896  0.5856 -0.4384  0.1074
  276TMC3    O1 4231   2.473   4.117  15.105 -0.5291  0.2897 -0.0277
  276TMC3    O2 4232   2.007   4.086  14.968  0.2245  0.2561 -0.4737
  277MPD2     C 4233   3.535   2.622  13.181  0.3334 -0.0315 -0.4620
  277MPD2    C1 4234   3.452   2.713  13.233 -0.4264  0.4157  0.2413
  277MPD2    C2 4235   3.383   2.696  13.352  0.3016 -0.1633  0.3271
  277MPD2    C3 4236   3.390   2.580  13.419 -0.4483  1.0077  0.1426
  277MPD2    C4 4237   3.480   2.488  13.376 -0.4268 -0.9343  0.0310
  277MPD2    C5 4238   3.554   2.511  13.261  0.5771 -0.4208  0.1282
  277MPD2     H 4239   3.321   2.770  13.401 -1.5661  0.0288 -2.3299
  277MPD2    H1 4240   3.494   2.396  13.432  1.6187 -0.5868  0.0708
  277MPD2    H2 4241   3.594   2.622  13.090  2.4077  0.0377  0.8835
  277MPD2    H3 4242   3.620   2.430  13.232 -0.3157 -1.8086  1.9241
  277MPD2     N 4243   3.300   2.552  13.524  0.2859  0.1410  0.5249
  277MPD2    H5 4244   3.249   2.631  13.562  1.4545  0.9990  0.2825
  277MPD2    N1 4245   3.421   2.831  13.158  1.0651  0.4792 -0.6214
  277MPD2    H7 4246   3.486   2.857  13.084 -0.7637  1.1335 -1.9914
  278TMC3    C1 4247   3.201   2.436  13.705 -0.5822  0.8498 -0.5629
  278TMC3    C2 4248   3.185   2.330  13.787  0.0571  0.3893 -0.0609
  278TMC3    C3 4249   3.083   2.329  13.882 -0.2686  0.6189 -0.1794
  278TMC3    C4 4250   3.103   2.529  13.705  0.1789  0.4033 -0.2382
  278TMC3    C5 4251   2.995   2.522  13.796 -0.0989  0.0396  0.5448
  278TMC3    C6 4252   2.985   2.421  13.889 -0.2678  0.0829 -0.1249
  278TMC3     C 4253   3.283   2.423  13.587  0.2705 -0.0684 -0.2571
  278TMC3     O 4254   3.332   2.312  13.560  1.1730  0.9064  0.0404
  278TMC3     H 4255   3.248   2.242  13.797  1.0022  1.0814  0.1024
  278TMC3    H1 4256   3.104   2.619  13.646 -1.1678  0.4529 -0.1788
  278TMC3    H2 4257   2.912   2.417  13.969  2.6143  2.0634  2.6125
  278TMC3    C7 4258   2.896   2.629  13.790  0.4817 -0.4228 -0.4395
  278TMC3    C8 4259   3.081   2.222  13.976  0.1646 -0.0000 -0.1495
  278TMC3    O1 4260   2.925   2.739  13.744  0.1877  0.5603  0.0323
  278TMC3    O2 4261   3.189   2.193  14.020  0.3843  0.2282  0.8716
  279MPD2     C 4262   2.742   2.610   0.566 -0.2137  0.5055  0.0636
  279MPD2    C1 4263   2.708   2.735   0.615 -0.0104  0.0474  0.9367
  279MPD2    C2 4264   2.753   2.852   0.550  0.4139  0.0076 -0.2092
  279MPD2    C3 4265   2.826   2.837   0.431 -0.7119 -0.3314  0.6057
  279MPD2    C4 4266   2.863   2.713   0.389  0.0993 -0.9957 -0.0233
  279MPD2    C5 4267   2.815   2.600   0.451 -0.2829 -0.4173  0.9526
  279MPD2     H 4268   2.729   2.950   0.589  1.0528  0.6207 -1.3248
  279MPD2    H1 4269   2.918   2.700   0.297 -0.6986  0.3624 -0.6831
  279MPD2    H2 4270   2.718   2.523   0.626 -0.2915 -0.0649 -0.8001
  279MPD2    H3 4271   2.838   2.506   0.404  0.2609 -0.0301  0.4575
  279MPD2     N 4272   2.866   2.945   0.351  0.2555 -0.3893 -0.1656
  279MPD2    H5 4273   2.896   2.924   0.256  2.6676 -0.7161  0.6945
  279MPD2    N1 4274   2.610   2.737   0.720 -0.6196  0.0293  0.2907
  279MPD2    H7 4275   2.594   2.650   0.769 -0.0986 -0.0762  0.2777
  280TMC3    C1 4276   2.501   2.942   0.672  0.4492 -0.6307  0.1556
  280TMC3    C2 4277   2.448   2.894   0.559  0.3755  0.2328 -0.5535
  280TMC3    C3 4278   2.414   2.986   0.465  0.0074  0.0392 -0.3438
  280TMC3    C4 4279   2.493   3.075   0.719 -0.8585 -0.9430 -0.3159
  280TMC3    C5 4280   2.447   3.162   0.619 -0.1848 -0.0562 -1.2719
  280TMC3    C6 4281   2.412   3.120   0.496 -0.8553  0.0977 -0.0027
  280TMC3     C 4282   2.531   2.843   0.772 -1.3657 -0.0338  0.7168
  280TMC3     O 4283   2.465   2.834   0.873 -0.2038 -0.4245  0.3970
  280TMC3     H 4284   2.433   2.789   0.538 -0.2381 -0.0363  1.1694
  280TMC3    H1 4285   2.508   3.103   0.822  1.7106  2.6375 -1.6439
  280TMC3    H2 4286   2.387   3.188   0.416  3.0111  1.1169 -0.3550
  280TMC3    C7 4287   2.460   3.308   0.635 -0.7374  0.6167 -0.9860
  280TMC3    C8 4288   2.446   2.965   0.329 -1.3067 -0.2502 -0.2685
  280TMC3    O1 4289   2.554   3.328   0.705 -0.3175 -0.3604 -0.7432
  280TMC3    O2 4290   2.498   3.050   0.262  0.0898  0.4610  0.0772
  281TMC3    C1 4291   1.662   2.835  13.678 -0.2052 -0.2753  0.1155
  281TMC3    C2 4292   1.771   2.921  13.695  0.6822 -0.1272  0.0192
  281TMC3    C3 4293   1.884   2.864  13.637  0.2465 -0.1549  0.1038
  281TMC3    C4 4294   1.671   2.705  13.627  0.1991 -0.2193 -0.1795
  281TMC3    C5 4295   1.794   2.663  13.583 -0.0456  0.3118 -0.7733
  281TMC3    C6 4296   1.905   2.742  13.593  0.4654  0.1081  0.1374
  281TMC3     C 4297   1.524   2.886  13.688 -0.5790  0.3208  0.5484
  281TMC3     O 4298   1.432   2.804  13.664  0.2169  0.1027  0.4330
  281TMC3     H 4299   1.782   3.016  13.745 -0.2375  0.0712 -0.1576
  281TMC3    H1 4300   1.584   2.643  13.608  0.3618 -0.5509  0.1525
  281TMC3    H2 4301   2.001   2.720  13.548  1.4772 -0.5470  2.6322
  281TMC3    C7 4302   1.834   2.534  13.625 -0.2274 -0.1851 -0.0920
  281TMC3    C8 4303   2.003   2.924  13.674 -0.2068  0.1965 -0.3441
  281TMC3    O1 4304   1.950   2.519  13.666 -0.1096 -0.1031  0.0743
  281TMC3    O2 4305   2.083   2.848  13.727 -0.8389 -0.1501 -0.2399
  282MPD2     C 4306   3.415   4.095  14.953 -0.6719 -0.1532 -0.2258
  282MPD2    C1 4307   3.322   4.179  14.999  0.3411 -0.8247  0.1128
  282MPD2    C2 4308   3.242   4.232  14.904  0.5150  0.2003  0.3251
  282MPD2    C3 4309   3.236   4.201  14.773 -0.9751  0.5394 -0.4423
  282MPD2    C4 4310   3.324   4.107  14.730 -0.3396  1.0965 -0.1908
  282MPD2    C5 4311   3.409   4.054  14.822 -0.1424 -0.1528 -0.2797
  282MPD2     H 4312   3.185   4.321  14.928 -0.6452 -0.3539 -0.3432
  282MPD2    H1 4313   3.327   4.072  14.628  0.4469 -0.4676  0.3751
  282MPD2    H2 4314   3.486   4.052  15.023 -1.4140 -1.7833 -0.4731
  282MPD2    H3 4315   3.482   3.983  14.786 -1.7250 -1.4199 -0.9856
  282MPD2     N 4316   3.144   4.261  14.688 -0.1285  0.1084 -0.1954
  282MPD2    H5 4317   3.084   4.336  14.722  0.6525 -0.6417  2.8630
  282MPD2    N1 4318   3.306   4.231  15.131 -0.1396 -0.5402 -0.7246
  282MPD2    H7 4319   3.266   4.322  15.150  1.5509  0.1223 -0.2944
  283TMC3    C1 4320   3.372   4.225  15.356 -0.0094  0.1848 -0.0144
  283TMC3    C2 4321   3.347   4.363  15.364  0.1746 -0.1966 -0.1919
  283TMC3    C3 4322   3.305   4.413  15.487  0.5564  0.0272 -1.4835
  283TMC3    C4 4323   3.359   4.149  15.469 -0.1497 -0.7561 -0.3149
  283TMC3    C5 4324   3.324   4.205  15.590 -0.1393  0.3665  0.7609
  283TMC3    C6 4325   3.296   4.338  15.603 -0.3397  0.7039 -0.7094
  283TMC3     C 4326   3.360   4.155  15.233  0.3470  0.3893  0.1807
  283TMC3     O 4327   3.375   4.035  15.234 -0.4672 -0.1349  0.2094
  283TMC3     H 4328   3.355   4.433  15.282 -0.7212 -0.3767 -0.4444
  283TMC3    H1 4329   3.395   4.047  15.461 -0.2995 -0.7775 -0.7580
  283TMC3    H2 4330   3.263   4.379  15.698  0.8481  0.4480 -0.1923
  283TMC3    C7 4331   3.246   4.112  15.673  0.7062 -0.2425  0.0869
  283TMC3    C8 4332   3.276   4.549  15.505  0.6602  0.0802  0.0214
  283TMC3    O1 4333   3.260   4.118  15.795  0.0534 -0.5701 -0.0558
  283TMC3    O2 4334   3.254   4.589  15.617  0.5916 -0.2954  0.4840
  284MPD2     C 4335   1.217   3.737  12.096 -0.4939 -0.4357  0.0670
  284MPD2    C1 4336   1.328   3.818  12.095 -0.1272  0.1144 -0.0920
  284MPD2    C2 4337   1.415   3.814  12.196 -0.2382  0.1790 -0.9379
  284MPD2    C3 4338   1.403   3.720  12.295 -0.3846 -0.1076  0.1025
  284MPD2    C4 4339   1.287   3.643  12.300  0.8979  0.2813 -0.5593
  284MPD2    C5 4340   1.195   3.651  12.197  0.2313  0.7111  0.6021
  284MPD2     H 4341   1.502   3.878  12.198 -0.6443  0.7329 -0.7214
  284MPD2    H1 4342   1.282   3.587  12.393  0.6153  2.9274  1.0186
  284MPD2    H2 4343   1.138   3.755  12.024  0.5479  1.0111 -0.7205
  284MPD2    H3 4344   1.107   3.588  12.190 -0.2954  1.4125  0.9307
  284MPD2     N 4345   1.500   3.705  12.401  0.8528  0.1468  0.2175
  284MPD2    H5 4346   1.474   3.648  12.481  2.1499 -2.4439 -1.1858
  284MPD2    N1 4347   1.362   3.899  11.984  0.0019  0.4270 -0.1965
  284MPD2    H7 4348   1.445   3.957  11.994  0.2888  0.1060 -0.7165
  285TMC3    C1 4349   1.383   3.947  11.756 -0.9764  0.0169 -0.6292
  285TMC3    C2 4350   1.427   3.867  11.655  0.1081  0.1877  0.1353
  285TMC3    C3 4351   1.553   3.893  11.603  1.0927  0.4741  0.1520
  285TMC3    C4 4352   1.452   4.055  11.793  0.6113 -0.0668  0.7116
  285TMC3    C5 4353   1.576   4.080  11.737  0.0565  0.7058 -0.1262
  285TMC3    C6 4354   1.635   3.993  11.649  0.1947 -0.0968 -0.2750
  285TMC3     C 4355   1.306   3.884  11.857 -0.0550 -0.0584 -0.0601
  285TMC3     O 4356   1.218   3.804  11.826 -0.0325 -0.2122  0.2859
  285TMC3     H 4357   1.363   3.782  11.636  1.3846 -0.1111 -2.8444
  285TMC3    H1 4358   1.406   4.118  11.868 -1.5079 -1.0775  0.2262
  285TMC3    H2 4359   1.737   3.997  11.613  0.4269  0.5896  0.4474
  285TMC3    C7 4360   1.652   4.197  11.775 -0.3388  0.5498 -0.1648
  285TMC3    C8 4361   1.619   3.769  11.541  0.1108  0.3880  0.1902
  285TMC3    O1 4362   1.590   4.287  11.828  0.7453 -0.0203 -0.3072
  285TMC3    O2 4363   1.552   3.665  11.539  0.3346 -0.0041  0.2987
  286MPD2     C 4364   2.472   3.515   1.529 -0.0177  0.3048 -0.5191
  286MPD2    C1 4365   2.427   3.417   1.439  0.2528 -0.0053 -0.0805
  286MPD2    C2 4366   2.504   3.300   1.437 -0.4683 -0.5960 -0.4348
  286MPD2    C3 4367   2.603   3.280   1.532 -0.1372  0.2364  0.5971
  286MPD2    C4 4368   2.628   3.378   1.628  0.4719 -0.0823 -0.5554
  286MPD2    C5 4369   2.568   3.499   1.622  0.2473 -0.0333 -0.8198
  286MPD2     H 4370   2.476   3.224   1.365  0.0243 -1.5002  0.3243
  286MPD2    H1 4371   2.718   3.356   1.683 -0.1563 -2.6898 -0.5834
  286MPD2    H2 4372   2.421   3.610   1.536  0.0034  0.4586 -2.5433
  286MPD2    H3 4373   2.594   3.569   1.700  0.4699  1.3950 -2.1817
  286MPD2     N 4374   2.694   3.172   1.534 -1.0120 -0.3626  0.2324
  286MPD2    H5 4375   2.755   3.171   1.615  0.2853 -1.6479 -0.7551
  286MPD2    N1 4376   2.304   3.425   1.368 -0.5972 -0.1198  0.0623
  286MPD2    H7 4377   2.280   3.347   1.307  1.3877 -0.6643 -0.0133
  287TMC3    C1 4378   2.802   2.969   1.465  0.8045 -0.2292  0.1208
  287TMC3    C2 4379   2.863   2.910   1.366 -0.4353  0.4314 -0.4219
  287TMC3    C3 4380   2.992   2.860   1.386 -0.1635  0.3498 -0.4617
  287TMC3    C4 4381   2.859   2.975   1.594  0.0135 -0.5670  0.0460
  287TMC3    C5 4382   2.980   2.914   1.610 -0.3585  0.3701 -0.2244
  287TMC3    C6 4383   3.048   2.848   1.511 -0.7068 -0.3691  0.4061
  287TMC3     C 4384   2.708   3.079   1.433  0.3523 -0.5247 -0.3034
  287TMC3     O 4385   2.647   3.073   1.326 -0.1901  0.5267 -0.5402
  287TMC3     H 4386   2.810   2.908   1.272  1.2875  2.0910 -1.4322
  287TMC3    H1 4387   2.802   3.003   1.683  0.6078 -0.0545  0.2719
  287TMC3    H2 4388   3.146   2.802   1.514 -0.4500  0.1830  0.5080
  287TMC3    C7 4389   3.032   2.929   1.748 -0.8551  0.1178  0.8142
  287TMC3    C8 4390   3.022   2.744   1.303 -0.3886  0.6151  0.0063
  287TMC3    O1 4391   2.955   2.976   1.828  0.2088 -0.7335  0.1764
  287TMC3    O2 4392   3.004   2.637   1.365  0.3008 -0.0124 -0.0304
  288TMC3    C1 4393   3.717   2.380  14.391 -0.3555 -0.0109  1.1622
  288TMC3    C2 4394   3.620   2.402  14.485 -0.2328  0.1166  0.1496
  288TMC3    C3 4395   3.524   2.491  14.457  0.2442 -0.2846 -0.0941
  288TMC3    C4 4396   3.726   2.465  14.281  0.1796  1.0848 -0.8063
  288TMC3    C5 4397   3.625   2.555  14.263  0.0633 -0.1909 -0.4056
  288TMC3    C6 4398   3.527   2.571  14.346 -0.0134 -0.3347  0.0274
  288TMC3     C 4399   3.836   2.309  14.431  0.3700  0.4581 -0.5318
  288TMC3     O 4400   3.832   2.250  14.541 -0.2942  0.2724  0.5398
  288TMC3     H 4401   3.620   2.346  14.577 -2.6902  0.4729  0.3638
  288TMC3    H1 4402   3.786   2.439  14.195  0.7523  0.2602 -0.1680
  288TMC3    H2 4403   3.437   2.629  14.332 -1.1075 -1.6235  1.8244
  288TMC3    C7 4404   3.591   2.586  14.135  0.4993  0.0771  0.0870
  288TMC3    C8 4405   3.429   2.513  14.560  0.7646  0.8887 -0.0239
  288TMC3    O1 4406   3.478   2.554  14.107 -0.1353 -0.3634  0.7780
  288TMC3    O2 4407   3.404   2.633  14.577 -0.3673 -0.0351  0.2286
  289MPD2     C 4408   3.478   1.331  14.443  0.2338 -0.8540  1.0401
  289MPD2    C1 4409   3.444   1.465  14.423  0.4581  0.4971  0.2489
  289MPD2    C2 4410   3.312   1.492  14.399  0.7350 -0.0522  0.0433
  289MPD2    C3 4411   3.218   1.391  14.371 -0.3973  0.1860 -0.5790
  289MPD2    C4 4412   3.258   1.260  14.376 -0.4356  0.0896  0.6878
  289MPD2    C5 4413   3.384   1.229  14.415 -0.3167 -0.6094  0.7701
  289MPD2     H 4414   3.288   1.597  14.411 -0.2040 -0.2013 -0.4983
  289MPD2    H1 4415   3.198   1.183  14.330  2.9023 -1.0621 -1.6884
  289MPD2    H2 4416   3.579   1.298  14.464 -0.0955 -3.4641 -1.5293
  289MPD2    H3 4417   3.412   1.125  14.419 -1.8121 -1.1053 -1.7144
  289MPD2     N 4418   3.083   1.420  14.337 -0.0358  0.0497 -0.5871
  289MPD2    H5 4419   3.027   1.338  14.317 -0.7170 -0.0412  1.7058
  289MPD2    N1 4420   3.542   1.572  14.437 -0.4735 -0.2604 -0.0846
  289MPD2    H7 4421   3.634   1.550  14.473  0.6056 -1.1888 -3.4103
  290TMC3    C1 4422   2.884   1.563  14.308  0.1146  0.3253 -0.0863
  290TMC3    C2 4423   2.833   1.674  14.252  0.6910  0.0528 -0.0500
  290TMC3    C3 4424   2.703   1.687  14.221  0.1696 -0.4597  0.2479
  290TMC3    C4 4425   2.800   1.450  14.324 -0.1956  0.2676 -0.9349
  290TMC3    C5 4426   2.662   1.464  14.295 -0.6624  0.0070  0.0302
  290TMC3    C6 4427   2.617   1.583  14.242  0.0304  0.2206 -0.2045
  290TMC3     C 4428   3.025   1.550  14.339  0.2729  0.7154  0.1216
  290TMC3     O 4429   3.081   1.659  14.322 -0.1527 -0.3809 -0.6653
  290TMC3     H 4430   2.903   1.754  14.237  0.1583  0.1680 -1.9022
  290TMC3    H1 4431   2.838   1.373  14.391 -0.9885 -0.3558 -1.1986
  290TMC3    H2 4432   2.512   1.599  14.224  0.5841  0.7206 -2.9678
  290TMC3    C7 4433   2.570   1.359  14.309  0.3130  0.5550  0.3092
  290TMC3    C8 4434   2.650   1.816  14.193  0.5563  0.1411 -0.3940
  290TMC3    O1 4435   2.452   1.374  14.273  0.1460  0.1808  0.0740
  290TMC3    O2 4436   2.537   1.826  14.154  0.4399  0.4883 -0.1489
  291MPD2     C 4437   3.888   1.646   0.077  0.6280  0.2292 -0.8025
  291MPD2    C1 4438   3.765   1.707   0.107  0.4285 -0.5873  0.4755
  291MPD2    C2 4439   3.740   1.828   0.035 -0.2902 -0.1428  0.3348
  291MPD2    C3 4440   3.821   1.881  17.689  0.1696 -0.3425 -0.1549
  291MPD2    C4 4441   3.943   1.818  17.666  0.7535  0.5902  0.0764
  291MPD2    C5 4442   3.967   1.701  17.727  0.1235 -0.4896 -0.2275
  291MPD2     H 4443   3.638   1.863   0.042 -0.2193 -0.0551  0.9356
  291MPD2    H1 4444   4.025   1.859  17.608  0.9096 -0.1249 -0.2133
  291MPD2    H2 4445   3.926   1.564   0.138  1.7071  2.3199  1.3145
  291MPD2    H3 4446   4.067   1.663  17.711  0.6561  0.6388  0.3848
  291MPD2     N 4447   3.779   1.987  17.608 -0.8713 -1.0212  0.0206
  291MPD2    H5 4448   3.839   2.020  17.533  0.2721 -0.4986  1.1581
  291MPD2    N1 4449   3.666   1.651   0.190  0.5007  0.4529  0.0804
  291MPD2    H7 4450   3.579   1.702   0.197  0.0553 -0.2696 -0.2191
  292TMC3    C1 4451   3.525   1.478   0.270 -0.1028 -0.2639 -0.8817
  292TMC3    C2 4452   3.445   1.576   0.331 -0.3052 -0.4933 -0.1952
  292TMC3    C3 4453   3.321   1.538   0.367  0.3674  0.0039  0.0626
  292TMC3    C4 4454   3.463   1.356   0.238 -0.1797 -0.0985 -0.7759
  292TMC3    C5 4455   3.330   1.331   0.267 -0.6127 -0.1216  0.0759
  292TMC3    C6 4456   3.261   1.422   0.328  0.1231 -0.1088  0.2949
  292TMC3     C 4457   3.654   1.516   0.208  0.2761 -0.4203  0.3107
  292TMC3     O 4458   3.721   1.425   0.159 -0.3803  0.1560  1.0954
  292TMC3     H 4459   3.485   1.670   0.367 -0.1599 -2.0197  3.6190
  292TMC3    H1 4460   3.517   1.281   0.182 -0.1180  0.4201 -1.3973
  292TMC3    H2 4461   3.156   1.415   0.355 -0.0312 -1.9066 -0.8075
  292TMC3    C7 4462   3.271   1.206   0.214 -0.1754 -0.5845 -0.1020
  292TMC3    C8 4463   3.238   1.632   0.443  0.3456 -0.6926  0.0261
  292TMC3    O1 4464   3.331   1.141   0.131  0.2216  0.2460  0.3658
  292TMC3    O2 4465   3.268   1.750   0.435 -0.4602 -0.0762  0.3655
  293MPD2     C 4466   4.402   2.761  12.634 -0.0329 -0.1900  0.1463
  293MPD2    C1 4467   4.318   2.708  12.739  0.6007  0.7297  0.1044
  293MPD2    C2 4468   4.384   2.669  12.856  0.0923  0.0467  0.6335
  293MPD2    C3 4469   4.520   2.699  12.871  0.4523 -0.1996 -0.5572
  293MPD2    C4 4470   4.597   2.746  12.766  0.2955 -0.0003 -0.3070
  293MPD2    C5 4471   4.537   2.780  12.653  0.3865  0.0725  0.1843
  293MPD2     H 4472   4.321   2.621  12.931  0.0116  1.4690  1.4723
  293MPD2    H1 4473   4.704   2.762  12.776  0.1443  2.0997 -2.1414
  293MPD2    H2 4474   4.365   2.793  12.537  0.4126 -0.6729 -0.1829
  293MPD2    H3 4475   4.599   2.819  12.573  1.4397 -1.2530  0.3672
  293MPD2     N 4476   4.579   2.673  12.998 -0.0993  0.1911 -0.0332
  293MPD2    H5 4477   4.512   2.648  13.070  2.2844 -0.0208  2.1095
  293MPD2    N1 4478   4.176   2.717  12.723  0.5272 -0.4968 -0.1454
  293MPD2    H7 4479   4.140   2.756  12.636  1.1621 -0.5518 -0.4389
  294TMC3    C1 4480   3.949   2.686  12.750  0.6336  0.0448  0.4932
  294TMC3    C2 4481   3.868   2.578  12.724  0.2239  0.1789  0.0259
  294TMC3    C3 4482   3.779   2.584  12.617  0.1389 -0.1323 -0.4963
  294TMC3    C4 4483   3.955   2.795  12.669  0.7883 -0.6924  0.3968
  294TMC3    C5 4484   3.859   2.803  12.568  0.1282 -0.5657  0.6835
  294TMC3    C6 4485   3.774   2.696  12.539 -0.3807  0.2414  0.3856
  294TMC3     C 4486   4.077   2.656  12.804  0.3562  0.5941 -0.9023
  294TMC3     O 4487   4.100   2.564  12.884  0.7037 -0.1140 -0.4352
  294TMC3     H 4488   3.873   2.487  12.782 -2.0921  0.0140 -0.0443
  294TMC3    H1 4489   4.023   2.877  12.687 -1.5292  1.4967 -0.7327
  294TMC3    H2 4490   3.706   2.693  12.455  0.8027  1.1590 -0.5916
  294TMC3    C7 4491   3.904   2.875  12.453 -0.2049 -0.1359  0.9484
  294TMC3    C8 4492   3.747   2.455  12.555 -0.8426 -0.4475  0.0548
  294TMC3    O1 4493   4.024   2.886  12.453 -0.0469 -0.0106  0.5602
  294TMC3    O2 4494   3.759   2.436  12.437 -0.0369  0.4004  0.1318
  295MPD2     C 4495   4.189   2.923   0.985  0.5751 -0.8005 -0.8638
  295MPD2    C1 4496   4.299   2.947   1.062 -0.6348  0.5827  0.0835
  295MPD2    C2 4497   4.294   2.946   1.199  0.2082 -0.3799  0.0097
  295MPD2    C3 4498   4.187   2.897   1.267 -0.4842 -0.0287 -0.0919
  295MPD2    C4 4499   4.077   2.877   1.191  0.3724 -0.4477 -0.3506
  295MPD2    C5 4500   4.076   2.885   1.052 -0.0740 -0.6223  0.0213
  295MPD2     H 4501   4.383   2.975   1.253  0.0195  1.0694 -0.4582
  295MPD2    H1 4502   3.991   2.825   1.232  0.1056  2.0699  2.2078
  295MPD2    H2 4503   4.196   2.948   0.880  1.0141  1.2385 -0.3553
  295MPD2    H3 4504   3.983   2.861   1.002 -0.3883 -2.1407  1.3332
  295MPD2     N 4505   4.184   2.868   1.404 -0.2827 -0.4075 -0.4656
  295MPD2    H5 4506   4.095   2.833   1.440  0.0891 -2.0383 -1.1091
  295MPD2    N1 4507   4.420   2.974   1.001 -0.0599  0.5210  0.1136
  295MPD2    H7 4508   4.494   2.971   1.070  0.5742 -0.1530 -0.5987
  296TMC3    C1 4509   4.258   2.806   1.611 -0.0313 -1.0233 -0.1174
  296TMC3    C2 4510   4.341   2.831   1.712  0.5672  0.0143 -1.1052
  296TMC3    C3 4511   4.328   2.748   1.828 -0.8303 -0.1448  0.3318
  296TMC3    C4 4512   4.178   2.695   1.606  0.3554 -0.2373 -0.1159
  296TMC3    C5 4513   4.177   2.610   1.716  0.3608 -0.2540 -0.0642
  296TMC3    C6 4514   4.242   2.639   1.836 -0.1449  0.7186  0.9427
  296TMC3     C 4515   4.288   2.876   1.490 -0.1347  0.0505 -0.4908
  296TMC3     O 4516   4.399   2.922   1.473  0.1039  0.2792 -0.2119
  296TMC3     H 4517   4.399   2.922   1.706  0.2507  0.0950 -2.9714
  296TMC3    H1 4518   4.120   2.662   1.521 -0.3312 -0.3939  0.4131
  296TMC3    H2 4519   4.240   2.575   1.923 -3.5986  1.6021  1.5381
  296TMC3    C7 4520   4.123   2.478   1.692 -0.5211  0.2267  0.2431
  296TMC3    C8 4521   4.374   2.801   1.958  0.9024  0.3597 -0.1815
  296TMC3    O1 4522   4.096   2.451   1.575  0.4433  0.3618 -0.5293
  296TMC3    O2 4523   4.324   2.760   2.059  0.5327 -0.1393  0.4560
  297MPD2     C 4524   2.169   3.202  16.354  0.4488 -0.3205  1.0662
  297MPD2    C1 4525   2.225   3.287  16.263  0.4460 -0.3281 -0.7127
  297MPD2    C2 4526   2.351   3.336  16.292  0.1937  0.3791  0.8969
  297MPD2    C3 4527   2.406   3.307  16.413  0.1560  0.3720 -0.1376
  297MPD2    C4 4528   2.350   3.219  16.507 -0.3553  0.4479  0.5175
  297MPD2    C5 4529   2.227   3.176  16.476 -0.3073  0.1130  1.1726
  297MPD2     H 4530   2.400   3.401  16.221  0.8192 -1.9352 -0.8172
  297MPD2    H1 4531   2.395   3.186  16.600  1.3555 -0.1949 -0.5319
  297MPD2    H2 4532   2.075   3.150  16.341 -0.2652  1.2405 -0.1637
  297MPD2    H3 4533   2.160   3.134  16.550 -0.9193 -2.4098 -0.8270
  297MPD2     N 4534   2.530   3.373  16.444  0.2466 -0.0658  0.0901
  297MPD2    H5 4535   2.553   3.444  16.375 -1.0244 -0.1201 -0.3851
  297MPD2    N1 4536   2.160   3.334  16.150 -0.4437 -0.6571 -0.1464
  297MPD2    H7 4537   2.214   3.388  16.083  0.5921 -0.4287  0.8911
  298TMC3    C1 4538   1.969   3.385  16.017  0.0808 -0.1213 -0.5291
  298TMC3    C2 4539   2.041   3.497  15.979  0.0152 -0.1630  0.3977
  298TMC3    C3 4540   1.977   3.618  15.982 -0.2702 -0.2995  0.4950
  298TMC3    C4 4541   1.834   3.394  16.050  0.9933  0.9216  0.3337
  298TMC3    C5 4542   1.781   3.525  16.063 -0.2588  0.1563 -0.2585
  298TMC3    C6 4543   1.847   3.632  16.021  0.0223 -0.1457  0.3030
  298TMC3     C 4544   2.031   3.297  16.116  0.0676  0.1453 -0.5022
  298TMC3     O 4545   1.953   3.221  16.175  0.3365 -0.5867 -0.2876
  298TMC3     H 4546   2.137   3.487  15.930 -0.6752  0.9472 -1.1924
  298TMC3    H1 4547   1.776   3.303  16.061 -0.6013  1.5572 -2.8167
  298TMC3    H2 4548   1.803   3.729  16.039  0.7761  0.0450  1.1208
  298TMC3    C7 4549   1.729   3.549  16.194 -0.6798  0.3780 -0.0884
  298TMC3    C8 4550   2.044   3.735  15.927  0.3908  0.4709  0.0191
  298TMC3    O1 4551   1.674   3.657  16.213  0.3390 -0.0630 -0.2484
  298TMC3    O2 4552   2.133   3.712  15.847 -0.3600 -0.5040 -0.2228
  299MPD2     C 4553   2.979   3.192  10.650 -0.7734 -0.1136  0.7805
  299MPD2    C1 4554   2.901   3.132  10.748 -0.0721 -0.3399 -0.2293
  299MPD2    C2 4555   2.813   3.037  10.713  0.2351  0.1459 -0.3094
  299MPD2    C3 4556   2.789   3.008  10.578  0.4275  0.1185  0.0349
  299MPD2    C4 4557   2.863   3.068  10.480 -0.4339  0.1287  0.6125
  299MPD2    C5 4558   2.963   3.153  10.520  0.1315 -0.1681 -0.0573
  299MPD2     H 4559   2.764   2.990  10.798  0.0382 -0.4103 -0.7307
  299MPD2    H1 4560   2.835   3.071  10.375  0.4366  1.2531  0.4169
  299MPD2    H2 4561   3.058   3.265  10.665 -0.3122 -0.5380  0.4044
  299MPD2    H3 4562   3.020   3.204  10.443 -1.4303 -0.5963 -1.4844
  299MPD2     N 4563   2.683   2.925  10.541 -0.2368  0.0655  0.3775
  299MPD2    H5 4564   2.682   2.901  10.442 -2.2005 -2.6335  1.0584
  299MPD2    N1 4565   2.936   3.176  10.880  0.2736 -0.0903  0.5419
  299MPD2    H7 4566   3.009   3.246  10.897 -0.8608  1.3786 -0.5942
  300TMC3    C1 4567   2.469   2.825  10.524 -0.7948  0.5360 -0.2546
  300TMC3    C2 4568   2.454   2.862  10.393  0.2761 -0.3882 -0.1112
  300TMC3    C3 4569   2.330   2.838  10.337  0.4151  0.9084  0.3215
  300TMC3    C4 4570   2.364   2.766  10.592  0.1623 -0.0540 -0.0188
  300TMC3    C5 4571   2.256   2.725  10.524  0.1649 -0.0814  0.2019
  300TMC3    C6 4572   2.228   2.776  10.399 -0.7424  0.4651  0.2855
  300TMC3     C 4573   2.579   2.868  10.611  0.3009  0.0391  0.3976
  300TMC3     O 4574   2.553   2.866  10.730 -0.5706  0.1408  0.7250
  300TMC3     H 4575   2.523   2.926  10.339 -0.1029  0.3323  0.2623
  300TMC3    H1 4576   2.384   2.727  10.692 -0.5245  1.0681  0.5564
  300TMC3    H2 4577   2.129   2.777  10.355 -0.4006 -0.2120 -0.5033
  300TMC3    C7 4578   2.135   2.696  10.593  0.9328 -0.0419  0.0971
  300TMC3    C8 4579   2.293   2.922  10.229  0.0091  0.9818 -0.2058
  300TMC3    O1 4580   2.058   2.622  10.530 -0.3693  0.0011 -0.0598
  300TMC3    O2 4581   2.198   2.882  10.162 -0.1926  0.9778  0.1135
  301MPD2     C 4582   0.033   0.672   1.172 -0.5429  0.7865 -0.4415
  301MPD2    C1 4583   4.708   0.553   1.215 -0.6166 -0.3533 -0.3630
  301MPD2    C2 4584   0.036   0.429   1.208  0.1877 -0.1682 -0.0826
  301MPD2    C3 4585   0.147   0.412   1.123  0.3490 -0.1665  0.4385
  301MPD2    C4 4586   0.195   0.525   1.056 -0.0318  0.4141 -0.1024
  301MPD2    C5 4587   0.131   0.646   1.078 -0.5618 -0.3471 -0.6146
  301MPD2     H 4588   4.734   0.343   1.259  1.2029 -0.9899 -0.6706
  301MPD2    H1 4589   0.270   0.520   0.978 -0.9102 -0.6736 -0.8753
  301MPD2    H2 4590   4.736   0.774   1.183 -1.9394  0.2220  0.3684
  301MPD2    H3 4591   0.148   0.734   1.017  0.1938 -0.3301 -0.3703
  301MPD2     N 4592   0.210   0.296   1.089  0.3358  0.6848 -0.5056
  301MPD2    H5 4593   0.292   0.313   1.031  0.4086 -1.3497 -0.9921
  301MPD2    N1 4594   4.583   0.557   1.290 -0.5536 -0.7343 -0.1076
  301MPD2    H7 4595   4.565   0.467   1.333 -0.8163 -0.6254  0.0075
  302TMC3    C1 4596   0.270   0.069   1.071 -0.8971  0.0748 -0.3898
  302TMC3    C2 4597   0.391   0.109   1.027 -0.2961  0.5426  0.2263
  302TMC3    C3 4598   0.467   0.016   0.959  0.6241  0.5292  0.8474
  302TMC3    C4 4599   0.215   4.683   1.037 -1.0241  0.0849  0.2052
  302TMC3    C5 4600   0.289   4.597   0.961  0.7193  0.4232 -0.6547
  302TMC3    C6 4601   0.416   4.630   0.926  0.1670 -0.7520 -0.5830
  302TMC3     C 4602   0.178   0.166   1.117 -0.4525  0.2977  0.4003
  302TMC3     O 4603   0.080   0.121   1.173  0.6641 -0.1828 -1.0007
  302TMC3     H 4604   0.420   0.213   1.020 -1.9321  1.0285  0.5329
  302TMC3    H1 4605   0.108   4.663   1.046 -1.4155  1.2618 -1.9282
  302TMC3    H2 4606   0.473   4.568   0.858  0.5497 -0.0215 -0.9292
  302TMC3    C7 4607   0.225   4.523   0.854 -0.4632  1.0105 -0.7294
  302TMC3    C8 4608   0.550   0.071   0.856 -0.3472 -0.8542 -0.5391
  302TMC3    O1 4609   0.295   4.489   0.757  1.2262  0.1841 -0.7668
  302TMC3    O2 4610   0.642   0.143   0.885  0.3265 -0.6552 -0.2523
  303MPD2     C 4611   0.381   2.814  10.686 -0.3634  0.1966  0.3718
  303MPD2    C1 4612   0.274   2.764  10.616 -0.2073  0.1002  0.4054
  303MPD2    C2 4613   0.281   2.759  10.476  0.0615  0.2084 -0.5762
  303MPD2    C3 4614   0.389   2.807  10.405 -0.1322  0.0993  0.1018
  303MPD2    C4 4615   0.489   2.865  10.483  0.4813 -0.2898  0.0600
  303MPD2    C5 4616   0.489   2.866  10.623 -0.0667 -0.0934  0.2760
  303MPD2     H 4617   0.200   2.718  10.416 -2.0028 -1.4309  3.3328
  303MPD2    H1 4618   0.569   2.908  10.425  1.2875 -0.6803  0.8773
  303MPD2    H2 4619   0.390   2.819  10.794  1.1812  0.9003  0.2190
  303MPD2    H3 4620   0.577   2.897  10.678  0.8010 -1.5765 -0.2609
  303MPD2     N 4621   0.400   2.820  10.267 -0.0460 -0.1765  0.7414
  303MPD2    H5 4622   0.482   2.866  10.228 -0.5816  0.4287  0.3229
  303MPD2    N1 4623   0.153   2.733  10.692 -0.1719 -0.4075  0.3349
  303MPD2    H7 4624   0.169   2.720  10.791 -0.3298 -0.5605  0.3405
  304TMC3    C1 4625   4.670   2.685  10.729 -0.4578  0.2911 -0.1268
  304TMC3    C2 4626   4.545   2.732  10.704  0.6941  0.4458 -0.1625
  304TMC3    C3 4627   4.435   2.646  10.710 -0.8590  0.0453  0.2466
  304TMC3    C4 4628   4.688   2.551  10.751  0.3699  0.1360  0.6536
  304TMC3    C5 4629   4.579   2.469  10.762 -0.5336  0.1468 -0.3549
  304TMC3    C6 4630   4.457   2.519  10.746  0.0808 -0.4576  0.0201
  304TMC3     C 4631   0.025   2.733  10.636  0.2487 -0.2239  0.5064
  304TMC3     O 4632   4.730   2.785  10.526  0.5151 -0.5354  0.3545
  304TMC3     H 4633   4.533   2.838  10.687 -1.1133  0.0075 -1.5602
  304TMC3    H1 4634   0.049   2.508  10.748  0.2256 -0.1780  0.3294
  304TMC3    H2 4635   4.369   2.456  10.762  1.7359 -2.9617 -0.7390
  304TMC3    C7 4636   4.598   2.337  10.707 -0.7971  0.1100 -0.3834
  304TMC3    C8 4637   4.353   2.646  10.587  0.4775  0.4659  0.0868
  304TMC3    O1 4638   4.689   2.269  10.751 -0.2604 -0.4547  0.3362
  304TMC3    O2 4639   4.315   2.535  10.553  0.3986  0.3027 -0.8277
  305MPD2     C 4640   3.125   4.503  14.238 -0.2472 -0.9552 -0.0290
  305MPD2    C1 4641   3.227   4.411  14.224  0.4419 -0.1358  0.6323
  305MPD2    C2 4642   3.245   4.361  14.097  0.6278 -0.3580  0.2646
  305MPD2    C3 4643   3.147   4.378  14.000  0.5902  0.9221 -0.3204
  305MPD2    C4 4644   3.043   4.463  14.019  0.3710  0.1367 -0.6915
  305MPD2    C5 4645   3.031   4.519  14.146 -0.4778  0.2302  0.0552
  305MPD2     H 4646   3.331   4.299  14.074  0.1294 -1.5613  1.7280
  305MPD2    H1 4647   2.972   4.492  13.942  1.3131  3.5797 -0.2793
  305MPD2    H2 4648   3.113   4.563  14.328  1.0376 -1.1170  0.2573
  305MPD2    H3 4649   2.950   4.590  14.154  1.8240  2.8736  0.0794
  305MPD2     N 4650   3.146   4.313  13.874 -0.4019 -0.0815 -0.1854
  305MPD2    H5 4651   3.087   4.348  13.799 -1.1691  0.5908  0.7307
  305MPD2    N1 4652   3.312   4.386  14.343 -0.4084  0.0647 -0.4144
  305MPD2    H7 4653   3.300   4.446  14.423 -0.7976  0.1151 -0.5070
  306TMC3    C1 4654   3.500   4.285  14.455 -0.7541  0.3667  0.3111
  306TMC3    C2 4655   3.620   4.221  14.442  0.9660 -0.5283  0.2274
  306TMC3    C3 4656   3.722   4.225  14.529  0.3770 -0.8343  0.0526
  306TMC3    C4 4657   3.481   4.366  14.565  0.2865 -0.6203 -0.0217
  306TMC3    C5 4658   3.586   4.364  14.662 -0.6515  0.1742 -0.4421
  306TMC3    C6 4659   3.703   4.290  14.651 -0.1812 -0.5839 -0.6415
  306TMC3     C 4660   3.410   4.288  14.338 -0.4806 -0.4867 -0.4326
  306TMC3     O 4661   3.425   4.204  14.257  0.5590  0.1087  0.3620
  306TMC3     H 4662   3.634   4.190  14.339  1.5021 -2.9187  1.0174
  306TMC3    H1 4663   3.394   4.427  14.584  1.4979  1.4551 -1.0995
  306TMC3    H2 4664   3.780   4.301  14.727 -0.8313  0.7679 -0.1684
  306TMC3    C7 4665   3.565   4.442  14.781 -0.0296  0.2429  0.1984
  306TMC3    C8 4666   3.825   4.126  14.509  0.6452 -0.6300  0.1758
  306TMC3    O1 4667   3.502   4.546  14.774 -0.4697 -0.4171 -0.7242
  306TMC3    O2 4668   3.799   4.040  14.426 -0.4180 -0.0630 -0.0061
  307MPD2     C 4669   1.407   3.231   0.645  0.0337 -0.0319  1.0386
  307MPD2    C1 4670   1.353   3.352   0.602  0.3074  0.0337 -0.0528
  307MPD2    C2 4671   1.356   3.456   0.694  0.5927  0.1295  0.3120
  307MPD2    C3 4672   1.415   3.449   0.813 -0.5401  0.1305 -0.0762
  307MPD2    C4 4673   1.475   3.328   0.854  0.1763  0.1998 -0.5195
  307MPD2    C5 4674   1.467   3.220   0.770 -0.0890  0.4187 -0.4782
  307MPD2     H 4675   1.308   3.549   0.665  1.4606  0.4666 -0.0185
  307MPD2    H1 4676   1.531   3.305   0.945 -2.1052  1.7696  1.2836
  307MPD2    H2 4677   1.405   3.142   0.583 -0.8042 -0.6628  1.9772
  307MPD2    H3 4678   1.511   3.123   0.790 -1.6408 -0.0700  0.6024
  307MPD2     N 4679   1.392   3.557   0.903  0.2264  0.3236 -0.4117
  307MPD2    H5 4680   1.312   3.616   0.880 -0.5660 -0.3125  0.7228
  307MPD2    N1 4681   1.314   3.378   0.469  0.3261  0.1651  0.0295
  307MPD2    H7 4682   1.263   3.465   0.464  2.0665  1.1662 -0.1660
  308TMC3    C1 4683   1.196   3.734   1.152  0.1252 -0.2990 -0.3352
  308TMC3    C2 4684   1.211   3.853   1.083 -0.4077  1.0197  0.0730
  308TMC3    C3 4685   1.330   3.880   1.026 -1.1320 -0.3722  0.0942
  308TMC3    C4 4686   1.307   3.650   1.167 -0.0687  0.1791  0.6448
  308TMC3    C5 4687   1.420   3.678   1.095 -0.4017  0.4678 -0.0013
  308TMC3    C6 4688   1.436   3.798   1.039  0.1109  0.7395  0.0959
  308TMC3     C 4689   1.065   3.662   1.138  0.1197  0.5083 -0.5195
  308TMC3     O 4690   1.060   3.554   1.198  0.1978  0.1927 -0.8738
  308TMC3     H 4691   1.129   3.918   1.056  0.3410  2.2717  0.7884
  308TMC3    H1 4692   1.291   3.554   1.214 -1.7822 -0.3569 -1.0531
  308TMC3    H2 4693   1.511   3.803   0.961  0.5584 -1.3188  0.3798
  308TMC3    C7 4694   1.463   3.567   1.019  0.0091 -0.4210  0.4234
  308TMC3    C8 4695   1.350   3.986   0.928 -0.9779  0.2822  0.1008
  308TMC3    O1 4696   1.560   3.508   1.062  0.0332 -0.7675 -0.1839
  308TMC3    O2 4697   1.249   4.030   0.867 -0.4309  0.0325  0.1280
  309MPD2     C 4698   0.443   3.298  17.360 -0.2553 -0.1894 -0.3387
  309MPD2    C1 4699   0.357   3.324  17.258  0.1443 -0.6956 -0.2117
  309MPD2    C2 4700   0.224   3.344  17.291 -0.2107  0.2403 -1.1474
  309MPD2    C3 4701   0.173   3.342  17.422  0.0080 -0.1740  0.0970
  309MPD2    C4 4702   0.267   3.319  17.517  0.8456 -0.2775  0.1012
  309MPD2    C5 4703   0.395   3.283  17.488 -0.1833 -0.4599 -0.0951
  309MPD2     H 4704   0.156   3.375  17.213  2.2916  1.6631 -2.7636
  309MPD2    H1 4705   0.247   3.317  17.623  1.5780 -3.5605  0.1679
  309MPD2    H2 4706   0.548   3.278  17.340 -0.0848 -1.8880  2.2412
  309MPD2    H3 4707   0.468   3.266  17.567  1.2192 -1.2055 -1.5541
  309MPD2     N 4708   0.045   3.387  17.460  0.4979  0.1057 -0.1046
  309MPD2    H5 4709   0.024   3.389  17.560  0.0911  0.9289 -0.2045
  309MPD2    N1 4710   0.390   3.335  17.123  0.5012 -0.6582  0.1600
  309MPD2    H7 4711   0.309   3.342  17.062  2.3456  0.6339 -2.1619
  310TMC3    C1 4712   0.529   3.334  16.920 -0.4637  0.7760 -0.8823
  310TMC3    C2 4713   0.419   3.352  16.840 -0.7372 -0.6292  0.2651
  310TMC3    C3 4714   0.437   3.367  16.703  0.9205  0.3711  0.4069
  310TMC3    C4 4715   0.646   3.297  16.861 -0.0343  0.0731 -0.1504
  310TMC3    C5 4716   0.653   3.276  16.725 -0.2644 -0.8114  0.5324
  310TMC3    C6 4717   0.553   3.328  16.645  0.3332  0.1496 -0.8726
  310TMC3     C 4718   0.522   3.332  17.066  0.0918  0.4886  0.4324
  310TMC3     O 4719   0.629   3.322  17.123 -0.1281  0.4930  0.8297
  310TMC3     H 4720   0.323   3.369  16.886  0.0736  1.0844  1.3031
  310TMC3    H1 4721   0.740   3.293  16.914  0.0470 -0.0482 -0.3017
  310TMC3    H2 4722   0.562   3.312  16.538  2.6763  0.3339 -0.7175
  310TMC3    C7 4723   0.783   3.252  16.665 -1.1115  0.1476  0.9319
  310TMC3    C8 4724   0.331   3.395  16.609 -0.3877  0.2731 -0.3514
  310TMC3    O1 4725   0.869   3.192  16.732 -0.2025  0.8189  0.0558
  310TMC3    O2 4726   0.356   3.394  16.487 -0.5737 -0.0397  0.1114
  311MPD2     C 4727   2.369   4.251  12.687 -0.5674  0.0597 -0.1739
  311MPD2    C1 4728   2.379   4.312  12.809 -0.5119 -0.2619  0.4047
  311MPD2    C2 4729   2.261   4.331  12.884  0.0023  0.9764  0.2413
  311MPD2    C3 4730   2.139   4.286  12.835 -0.9213  0.4699 -0.1192
  311MPD2    C4 4731   2.134   4.201  12.723  0.4735  0.0910  0.0171
  311MPD2    C5 4732   2.252   4.190  12.652 -0.0383 -0.2282  0.5137
  311MPD2     H 4733   2.260   4.381  12.980  1.7571  4.0627 -1.3338
  311MPD2    H1 4734   2.052   4.153  12.670 -0.2344  3.0033 -1.5297
  311MPD2    H2 4735   2.452   4.244  12.617  0.1985 -1.5796  0.8934
  311MPD2    H3 4736   2.245   4.127  12.564  2.6228  0.2202 -0.0109
  311MPD2     N 4737   2.025   4.316  12.906  0.2000  0.3467 -0.1474
  311MPD2    H5 4738   2.023   4.362  12.997  1.5952  0.1317 -0.0027
  311MPD2    N1 4739   2.502   4.362  12.860  1.0317  0.0328  0.0405
  311MPD2    H7 4740   2.505   4.413  12.948  1.1622 -0.5372  0.3626
  312TMC3    C1 4741   1.795   4.305  12.950 -0.2345 -0.2701  0.1800
  312TMC3    C2 4742   1.676   4.312  12.891 -0.2046  0.0287  0.0645
  312TMC3    C3 4743   1.564   4.292  12.966  0.4781 -0.7669 -0.5915
  312TMC3    C4 4744   1.816   4.291  13.087 -0.8480  0.2452 -0.2897
  312TMC3    C5 4745   1.700   4.274  13.152 -0.3953 -0.5139 -0.2635
  312TMC3    C6 4746   1.572   4.279  13.103 -0.6321 -0.8361 -0.2610
  312TMC3     C 4747   1.907   4.286  12.858 -0.8275  0.8066 -0.5724
  312TMC3     O 4748   1.880   4.290  12.738  0.6942  0.4710 -0.5592
  312TMC3     H 4749   1.661   4.325  12.785 -1.3771  1.8150  0.4561
  312TMC3    H1 4750   1.909   4.296  13.142  0.1003 -0.5013 -1.8226
  312TMC3    H2 4751   1.487   4.243  13.160 -0.3403 -0.7244  0.2530
  312TMC3    C7 4752   1.712   4.292  13.288  0.0065  0.2641  0.5337
  312TMC3    C8 4753   1.437   4.251  12.906 -0.6678  0.0581 -0.8086
  312TMC3    O1 4754   1.815   4.266  13.349 -0.0112  0.1484  0.1098
  312TMC3    O2 4755   1.391   4.149  12.952  0.1541  0.2875 -0.5124
  313MPD2     C 4756   1.634   3.301  11.091  0.2002  0.4802 -0.3798
  313MPD2    C1 4757   1.677   3.426  11.060  0.1874 -0.0406 -0.0983
  313MPD2    C2 4758   1.793   3.440  10.989 -0.7327 -0.2643  0.5352
  313MPD2    C3 4759   1.851   3.331  10.936  0.2652  0.4027 -0.0044
  313MPD2    C4 4760   1.807   3.205  10.971 -0.1191  0.0489 -0.3891
  313MPD2    C5 4761   1.692   3.190  11.045  0.4443 -0.1572 -0.6246
  313MPD2     H 4762   1.820   3.543  10.966 -1.4330  0.2708  2.0168
  313MPD2    H1 4763   1.854   3.115  10.933  0.2935 -0.0706  0.3957
  313MPD2    H2 4764   1.546   3.286  11.152  0.6327 -0.7247 -0.0405
  313MPD2    H3 4765   1.653   3.091  11.064  0.5229  0.0252  0.4927
  313MPD2     N 4766   1.947   3.347  10.832 -0.1866  0.4010 -0.3186
  313MPD2    H5 4767   1.975   3.444  10.819 -2.8365  1.0365 -1.3450
  313MPD2    N1 4768   1.617   3.546  11.108  0.4220  0.7632 -0.2962
  313MPD2    H7 4769   1.667   3.624  11.066  0.6967  0.6129 -0.2487
  314TMC3    C1 4770   1.454   3.700  11.182  0.3740  0.1475  0.1805
  314TMC3    C2 4771   1.539   3.801  11.215 -0.6550  0.1843  0.4674
  314TMC3    C3 4772   1.496   3.937  11.206 -0.4731 -0.4131 -0.0892
  314TMC3    C4 4773   1.331   3.721  11.127  0.5284 -0.3728 -0.0735
  314TMC3    C5 4774   1.294   3.852  11.107  0.0295 -0.1851 -0.6068
  314TMC3    C6 4775   1.372   3.953  11.146  0.0556  0.3473 -0.2387
  314TMC3     C 4776   1.500   3.563  11.181 -0.6917  0.9098 -0.2142
  314TMC3     O 4777   1.423   3.473  11.226 -0.1850  0.1499  0.5771
  314TMC3     H 4778   1.641   3.775  11.243 -0.5446  1.4662  1.2576
  314TMC3    H1 4779   1.264   3.641  11.099 -1.0932  1.7393 -2.1785
  314TMC3    H2 4780   1.329   4.052  11.131  0.3314  0.6793  1.1102
  314TMC3    C7 4781   1.184   3.867  11.016 -0.2496 -0.1916  0.3049
  314TMC3    C8 4782   1.557   4.034  11.290  0.6740  1.0015  0.0119
  314TMC3    O1 4783   1.091   3.779  11.026  0.0140  0.3638 -0.4064
  314TMC3    O2 4784   1.675   4.025  11.322 -0.2692 -0.4144  0.4002
  315MPD2     C 4785   1.634   3.133   0.280 -0.0065  0.1618  0.4141
  315MPD2    C1 4786   1.661   3.203   0.398 -0.2676 -0.0540  0.3668
  315MPD2    C2 4787   1.691   3.337   0.395  0.4072 -0.0063  0.4693
  315MPD2    C3 4788   1.691   3.404   0.277  0.0758  1.2573 -0.2024
  315MPD2    C4 4789   1.661   3.346   0.161 -0.2373 -0.0549 -0.6510
  315MPD2    C5 4790   1.635   3.207   0.160 -0.7585 -0.0916  1.3141
  315MPD2     H 4791   1.723   3.385   0.487  0.1433  0.8366  0.1184
  315MPD2    H1 4792   1.669   3.390   0.062 -1.0746 -0.5388 -0.9340
  315MPD2    H2 4793   1.617   3.026   0.287  1.1698 -0.0690 -0.1087
  315MPD2    H3 4794   1.613   3.163   0.063 -2.0644 -0.4445  1.7709
  315MPD2     N 4795   1.728   3.539   0.285  0.2585  0.6336 -0.4970
  315MPD2    H5 4796   1.777   3.568   0.369  1.3252 -0.2625 -0.8079
  315MPD2    N1 4797   1.677   3.147   0.526 -0.7326 -0.4227 -0.6085
  315MPD2    H7 4798   1.717   3.210   0.594 -0.6269 -3.2810  1.9961
  316TMC3    C1 4799   1.799   3.750   0.209 -0.2597 -0.0200  0.2534
  316TMC3    C2 4800   1.916   3.741   0.284  0.0756 -0.3074 -0.1309
  316TMC3    C3 4801   1.994   3.856   0.296 -0.0123 -1.6380 -0.2973
  316TMC3    C4 4802   1.766   3.868   0.152 -0.0839 -0.0360 -0.6963
  316TMC3    C5 4803   1.851   3.975   0.159 -0.3901  0.8868 -0.1098
  316TMC3    C6 4804   1.968   3.970   0.227 -0.1044  0.1825  0.6868
  316TMC3     C 4805   1.732   3.630   0.178 -0.4720  0.5293 -0.1614
  316TMC3     O 4806   1.698   3.624   0.060  0.3399 -0.1773  0.1868
  316TMC3     H 4807   1.932   3.646   0.335  0.0796 -0.0787  0.2962
  316TMC3    H1 4808   1.665   3.888   0.118 -0.6596  2.5905  2.6314
  316TMC3    H2 4809   2.042   4.047   0.210 -0.3738  0.3203  0.1434
  316TMC3    C7 4810   1.819   4.088   0.080 -0.5818 -0.4401  0.9799
  316TMC3    C8 4811   2.099   3.860   0.394  0.1076 -0.5105  0.1022
  316TMC3    O1 4812   1.836   4.197   0.139  0.4074 -0.4999  0.1782
  316TMC3    O2 4813   2.156   3.960   0.427  0.1947 -0.1869 -0.1051
  317MPD2     C 4814   3.781   1.684  12.777  0.7275 -0.0837 -0.7019
  317MPD2    C1 4815   3.876   1.584  12.760  0.0979  0.3797 -0.2273
  317MPD2    C2 4816   3.943   1.534  12.870 -0.2824 -0.6835 -0.1809
  317MPD2    C3 4817   3.919   1.587  13.000 -0.1792  0.2428 -0.3462
  317MPD2    C4 4818   3.832   1.696  13.012 -0.8836  0.3328  0.0029
  317MPD2    C5 4819   3.772   1.750  12.902 -0.2363  0.3576  0.4839
  317MPD2     H 4820   4.006   1.446  12.865  0.5688 -0.0637 -0.3226
  317MPD2    H1 4821   3.801   1.751  13.100  1.3972  0.0400  1.0087
  317MPD2    H2 4822   3.731   1.737  12.697 -0.6054  0.8618  0.7521
  317MPD2    H3 4823   3.708   1.837  12.912  0.1354  1.0165 -2.8087
  317MPD2     N 4824   3.978   1.518  13.107 -0.2874 -0.8909  0.2913
  317MPD2    H5 4825   4.044   1.444  13.087  0.8095  0.2079 -0.1432
  317MPD2    N1 4826   3.915   1.531  12.634 -0.7077 -0.1200  0.9441
  317MPD2    H7 4827   3.993   1.466  12.630 -0.4053  0.2350  1.0771
  318TMC3    C1 4828   3.992   1.400  13.295  0.1443  0.1229 -0.0442
  318TMC3    C2 4829   3.994   1.286  13.213  0.3898 -1.4737  1.1139
  318TMC3    C3 4830   4.043   1.171  13.267 -0.1732 -0.5614  0.6538
  318TMC3    C4 4831   4.023   1.403  13.425  0.4541 -1.1872  0.4035
  318TMC3    C5 4832   4.072   1.280  13.472  0.7507 -0.0332  0.3149
  318TMC3    C6 4833   4.078   1.168  13.395  0.6106  0.2560  0.2015
  318TMC3     C 4834   3.944   1.526  13.237 -0.5894 -0.3446 -0.4761
  318TMC3     O 4835   3.870   1.602  13.300 -0.1320 -0.1834 -0.3265
  318TMC3     H 4836   3.980   1.273  13.106  0.3987  1.6146  0.7320
  318TMC3    H1 4837   4.022   1.492  13.486  3.3644  0.2192 -1.5847
  318TMC3    H2 4838   4.088   1.072  13.445 -0.1686 -1.3894 -2.7769
  318TMC3    C7 4839   4.114   1.283  13.614  0.6221 -0.1740 -0.4429
  318TMC3    C8 4840   3.997   1.045  13.207  0.6889  0.0754 -0.8019
  318TMC3    O1 4841   4.071   1.371  13.686 -0.3616  0.2427 -0.1335
  318TMC3    O2 4842   4.068   0.948  13.219  0.2205 -0.2650  0.2939
  319MPD2     C 4843   4.373   2.716  16.220  0.7700 -0.0500 -0.8271
  319MPD2    C1 4844   4.326   2.751  16.342  0.1256  0.1330  0.6959
  319MPD2    C2 4845   4.202   2.704  16.393 -0.2075 -0.2695  1.1333
  319MPD2    C3 4846   4.131   2.618  16.315 -0.1057 -0.8185 -0.4755
  319MPD2    C4 4847   4.176   2.577  16.194 -0.2856 -0.7945 -0.3460
  319MPD2    C5 4848   4.293   2.628  16.147 -0.8428  0.1057  0.2691
  319MPD2     H 4849   4.175   2.739  16.492 -0.5935  1.7184  0.3234
  319MPD2    H1 4850   4.120   2.509  16.132  0.8895 -0.0066 -2.2830
  319MPD2    H2 4851   4.464   2.753  16.174  0.1181  1.8280 -0.5902
  319MPD2    H3 4852   4.335   2.598  16.052  0.8334  3.1732  0.0192
  319MPD2     N 4853   4.006   2.565  16.351 -0.1022  0.2783  0.1233
  319MPD2    H5 4854   3.961   2.491  16.297  2.6366 -2.7123  2.0012
  319MPD2    N1 4855   4.396   2.827  16.432  0.4140 -0.1532 -0.2406
  319MPD2    H7 4856   4.329   2.863  16.499 -1.2558 -2.4216 -0.6609
  320TMC3    C1 4857   3.805   2.572  16.457 -1.1693  0.2733  0.1972
  320TMC3    C2 4858   3.734   2.643  16.377  0.4593  0.1103 -1.1495
  320TMC3    C3 4859   3.635   2.578  16.307 -0.0304 -0.7730  0.5449
  320TMC3    C4 4860   3.800   2.432  16.457  0.7090  0.3131 -0.6734
  320TMC3    C5 4861   3.692   2.367  16.398 -0.3663  0.4186 -0.2457
  320TMC3    C6 4862   3.609   2.446  16.314  0.5896  0.5786 -0.5503
  320TMC3     C 4863   3.940   2.608  16.463 -0.3434  0.1783 -0.0468
  320TMC3     O 4864   3.968   2.710  16.523  0.2299  0.3984 -0.8379
  320TMC3     H 4865   3.738   2.751  16.392  0.8695  0.1291 -1.3706
  320TMC3    H1 4866   3.881   2.392  16.516  0.6730  0.9769 -0.1792
  320TMC3    H2 4867   3.526   2.397  16.264 -0.5513  1.3848  0.5549
  320TMC3    C7 4868   3.703   2.230  16.359  0.2263 -0.2293  0.4260
  320TMC3    C8 4869   3.576   2.661  16.204 -0.1639  0.7132 -0.6467
  320TMC3    O1 4870   3.633   2.182  16.269  0.2326 -0.1840 -0.4514
  320TMC3    O2 4871   3.610   2.779  16.208 -0.4185  0.1336 -0.3726
  321TMC3    C1 4872   4.554   2.956  16.546  0.7780  0.3415 -0.2722
  321TMC3    C2 4873   4.445   2.994  16.623 -0.3723  0.5075 -0.7951
  321TMC3    C3 4874   4.453   3.110  16.695  0.1992 -0.0098  0.0587
  321TMC3    C4 4875   4.682   3.006  16.568 -0.6967  0.6276  0.0823
  321TMC3    C5 4876   4.692   3.116  16.650  0.2258 -0.5826  0.5180
  321TMC3    C6 4877   4.579   3.169  16.704 -0.5680 -0.5738 -0.2824
  321TMC3     C 4878   4.525   2.870  16.427 -0.3515 -0.1582  0.8215
  321TMC3     O 4879   4.611   2.832  16.353 -0.3974  0.2142  0.6162
  321TMC3     H 4880   4.361   2.929  16.642  1.7525 -1.1514  2.8887
  321TMC3    H1 4881   0.037   2.967  16.529 -1.4269 -2.5751  1.5877
  321TMC3    H2 4882   4.600   3.257  16.763  1.2495 -0.6203 -0.8513
  321TMC3    C7 4883   0.059   3.106  16.754  0.7181  0.4969  0.0592
  321TMC3    C8 4884   4.394   3.105  16.824  0.0909 -0.0948  0.4091
  321TMC3    O1 4885   0.018   3.130  16.869 -0.7173  0.3557 -0.1661
  321TMC3    O2 4886   4.272   3.098  16.830  0.1881  0.3098  0.3955
  322MPD2     C 4887   3.088   3.829  13.716  0.6244  0.3060 -0.4483
  322MPD2    C1 4888   3.144   3.743  13.810  0.6157 -0.5073 -0.2642
  322MPD2    C2 4889   3.148   3.605  13.783  0.4912 -0.0888  0.0667
  322MPD2    C3 4890   3.106   3.554  13.665  0.3224  0.0694  0.0900
  322MPD2    C4 4891   3.040   3.642  13.576  0.2821  1.1118  0.3598
  322MPD2    C5 4892   3.038   3.779  13.600 -0.8965 -0.0555  0.3489
  322MPD2     H 4893   3.213   3.546  13.847  1.1754  0.4157 -0.1707
  322MPD2    H1 4894   3.015   3.615  13.474  0.5965 -0.7536  0.7783
  322MPD2    H2 4895   3.099   3.936  13.725 -0.2733  0.3049  0.7060
  322MPD2    H3 4896   3.001   3.848  13.524 -2.8719 -1.4064  0.0824
  322MPD2     N 4897   3.143   3.419  13.635 -0.6945  0.2359  0.1034
  322MPD2    H5 4898   3.199   3.368  13.702  0.9837 -0.4592 -1.8074
  322MPD2    N1 4899   3.216   3.807  13.915  0.3463 -0.4544 -0.8258
  322MPD2    H7 4900   3.223   3.908  13.923 -0.2594 -0.6884  2.6539
  323TMC3    C1 4901   3.391   3.800  14.081 -0.1340  0.7265 -0.3360
  323TMC3    C2 4902   3.447   3.912  14.027 -0.1010 -0.2954  0.3454
  323TMC3    C3 4903   3.569   3.954  14.079 -0.0168 -0.1491 -0.5282
  323TMC3    C4 4904   3.439   3.745  14.200 -0.1622  0.3076 -0.6355
  323TMC3    C5 4905   3.556   3.793  14.254 -0.8967 -0.2550 -0.6189
  323TMC3    C6 4906   3.625   3.896  14.194  0.2880 -0.2862  0.2760
  323TMC3     C 4907   3.274   3.742  14.019 -0.3182  0.1532  0.0633
  323TMC3     O 4908   3.251   3.630  14.059  0.3447  0.0210  0.1903
  323TMC3     H 4909   3.419   3.944  13.927  1.3981  0.6034  0.2078
  323TMC3    H1 4910   3.377   3.677  14.258  1.0407 -0.3239 -0.0816
  323TMC3    H2 4911   3.727   3.920  14.222 -0.4213  2.1845  0.7677
  323TMC3    C7 4912   3.632   3.707  14.341  0.1033  0.5724 -0.4461
  323TMC3    C8 4913   3.656   4.012  13.979  0.3229  0.0362 -0.2223
  323TMC3    O1 4914   3.591   3.590  14.327 -0.0697 -0.1195  0.0927
  323TMC3    O2 4915   3.766   3.966  13.953 -1.1601  0.4178  0.3980
  324MPD2     C 4916   0.377   0.219  14.117  0.2770 -0.5520 -0.1451
  324MPD2    C1 4917   0.411   0.350  14.137  0.0864 -0.4110 -0.4025
  324MPD2    C2 4918   0.339   0.431  14.220  0.1265  0.7172  0.1220
  324MPD2    C3 4919   0.228   0.386  14.286 -0.6543  0.4719  0.4832
  324MPD2    C4 4920   0.187   0.255  14.262  0.0005  0.7453 -0.1395
  324MPD2    C5 4921   0.264   0.173  14.184  0.4046 -0.5815 -0.9406
  324MPD2     H 4922   0.375   0.532  14.238  0.3297  0.8205 -0.8541
  324MPD2    H1 4923   0.107   0.214  14.322  2.8597 -2.0501  1.8004
  324MPD2    H2 4924   0.439   0.141  14.074  1.3155 -0.6317  1.4656
  324MPD2    H3 4925   0.240   0.068  14.169 -0.0525 -0.6086 -0.0074
  324MPD2     N 4926   0.153   0.468  14.374  0.5253  0.2111  0.1894
  324MPD2    H5 4927   0.064   0.437  14.412  1.7234 -5.4621 -1.7711
  324MPD2    N1 4928   0.522   0.396  14.071 -0.1796  0.1236  0.0811
  324MPD2    H7 4929   0.563   0.483  14.104  0.2519 -0.1587  0.2750
  325TMC3    C1 4930   0.056   0.663  14.464 -0.4919 -0.3054  0.6138
  325TMC3    C2 4931   4.736   0.580  14.557 -0.6948 -0.2253  0.9972
  325TMC3    C3 4932   4.604   0.607  14.578 -0.4432  0.5303  0.7633
  325TMC3    C4 4933   0.007   0.779  14.409 -0.0374 -0.4398  0.4019
  325TMC3    C5 4934   4.619   0.801  14.449  0.0971 -0.3447  0.0000
  325TMC3    C6 4935   4.539   0.714  14.520 -1.0055  0.3689 -0.2143
  325TMC3     C 4936   0.160   0.606  14.385 -1.3786  0.5394  0.4782
  325TMC3     O 4937   0.225   0.678  14.311  0.3297 -0.0225  0.0736
  325TMC3     H 4938   0.040   0.487  14.592  2.7741  1.3015  0.9328
  325TMC3    H1 4939   0.064   0.856  14.359 -1.8329 -0.3627 -1.5248
  325TMC3    H2 4940   4.446   0.754  14.557 -0.2949  1.0090  0.8644
  325TMC3    C7 4941   4.573   0.936  14.413  0.9347 -0.3372 -0.1951
  325TMC3    C8 4942   4.536   0.491  14.532  0.3217  0.7946 -0.5099
  325TMC3    O1 4943   4.651   1.026  14.389 -0.8841  0.2540  0.0861
  325TMC3    O2 4944   4.599   0.410  14.468  0.1054  0.0734 -0.1468
  326MPD2     C 4945   1.399   1.377  11.408  0.0089  0.0853  0.2083
  326MPD2    C1 4946   1.328   1.389  11.291 -0.2650  0.2221 -0.4094
  326MPD2    C2 4947   1.379   1.461  11.181  0.3132 -0.5640  0.5683
  326MPD2    C3 4948   1.504   1.512  11.185 -0.2772 -0.3842 -0.0333
  326MPD2    C4 4949   1.572   1.506  11.306 -0.1679 -0.1721 -0.6668
  326MPD2    C5 4950   1.514   1.443  11.410  0.9516 -0.1672  0.0266
  326MPD2     H 4951   1.324   1.457  11.088 -0.1001 -2.1377  0.8937
  326MPD2    H1 4952   1.669   1.553  11.317 -0.9579  0.9018  1.6229
  326MPD2    H2 4953   1.355   1.349  11.503 -0.1051  1.4691  0.5654
  326MPD2    H3 4954   1.562   1.445  11.507  3.8553 -2.7320 -1.3418
  326MPD2     N 4955   1.567   1.577  11.079  0.3341  0.2191 -0.0508
  326MPD2    H5 4956   1.657   1.618  11.101  0.4811  0.2269 -0.6649
  326MPD2    N1 4957   1.207   1.325  11.273 -0.3869  0.0975 -0.0861
  326MPD2    H7 4958   1.150   1.353  11.194 -2.0380 -0.7981  0.7926
  327TMC3    C1 4959   1.070   1.147  11.258 -0.1891 -0.2739  0.4090
  327TMC3    C2 4960   1.000   1.232  11.175 -0.6430 -0.1148 -0.4172
  327TMC3    C3 4961   0.983   1.210  11.041  0.1404 -0.3267  0.1328
  327TMC3    C4 4962   1.129   1.038  11.201 -0.1499 -0.4439  0.1973
  327TMC3    C5 4963   1.127   1.020  11.064  0.0588  0.1214 -0.2955
  327TMC3    C6 4964   1.045   1.097  10.984 -0.0438  0.4247 -0.0369
  327TMC3     C 4965   1.170   1.210  11.339 -0.3887 -0.1810  1.0521
  327TMC3     O 4966   1.231   1.134  11.416  0.4297  0.7204 -0.4028
  327TMC3     H 4967   0.957   1.323  11.213 -0.8460 -1.0424  1.5667
  327TMC3    H1 4968   1.176   0.954  11.250 -1.2969 -0.7776  0.7401
  327TMC3    H2 4969   1.032   1.074  10.879 -0.3908 -0.7990  0.2753
  327TMC3    C7 4970   1.260   1.038  11.006  0.0443 -0.5740  0.0935
  327TMC3    C8 4971   0.982   1.326  10.954 -0.3516  0.0099 -0.3634
  327TMC3    O1 4972   1.263   1.072  10.888  0.1810 -0.4191 -0.0928
  327TMC3    O2 4973   1.018   1.433  11.002 -0.3724 -0.0448  0.3396
  328MPD2     C 4974   3.959   1.519  17.218  0.0349 -0.2060  0.8243
  328MPD2    C1 4975   3.882   1.459  17.132 -0.1104 -0.5928 -0.1321
  328MPD2    C2 4976   3.846   1.530  17.015  0.1705  0.3334 -0.2166
  328MPD2    C3 4977   3.890   1.663  16.993  0.3943 -0.7748  0.1452
  328MPD2    C4 4978   3.985   1.713  17.077 -0.0459  0.4187  0.4443
  328MPD2    C5 4979   4.016   1.642  17.190  0.3980  0.1380  0.6116
  328MPD2     H 4980   3.791   1.485  16.933 -0.5657  1.2704 -0.2411
  328MPD2    H1 4981   4.009   1.818  17.074  1.0575  0.0732 -2.1461
  328MPD2    H2 4982   3.985   1.469  17.311 -0.3728  0.8153  1.4785
  328MPD2    H3 4983   4.093   1.673  17.260  1.8977 -2.5399  0.1587
  328MPD2     N 4984   3.833   1.752  16.895  0.9218  0.1275 -0.8570
  328MPD2    H5 4985   3.846   1.852  16.903  0.6017  0.2855 -2.4313
  328MPD2    N1 4986   3.818   1.338  17.171  0.2559  0.5342  0.3296
  328MPD2    H7 4987   3.827   1.307  17.268 -3.7382  0.9990  0.8547
  329TMC3    C1 4988   3.668   1.155  17.170  0.2007  0.7941  0.1159
  329TMC3    C2 4989   3.579   1.200  17.257 -0.0779 -0.0856  0.3879
  329TMC3    C3 4990   3.468   1.126  17.277 -0.4104 -0.7045  0.6348
  329TMC3    C4 4991   3.645   1.044  17.089 -0.1937 -0.3902  0.4197
  329TMC3    C5 4992   3.527   0.967  17.107 -0.6717  0.3193  0.1774
  329TMC3    C6 4993   3.446   1.010  17.205 -0.0978 -0.4991  0.2467
  329TMC3     C 4994   3.736   1.263  17.096 -0.0136  0.1258  0.0544
  329TMC3     O 4995   3.727   1.269  16.973 -0.0245 -0.0684  0.5708
  329TMC3     H 4996   3.607   1.293  17.306  0.6279  1.7085 -3.4538
  329TMC3    H1 4997   3.724   1.020  17.019  0.5895 -1.5503  1.7103
  329TMC3    H2 4998   3.354   0.960  17.230  0.1674 -0.6721  0.8570
  329TMC3    C7 4999   3.550   0.827  17.094  0.2373 -0.5808 -0.1232
  329TMC3    C8 5000   3.342   1.213  17.294  0.6824 -0.7133  0.3968
  329TMC3    O1 5001   3.535   0.756  17.193  0.2500  0.1375 -0.2513
  329TMC3    O2 5002   3.239   1.173  17.242  0.1736 -0.3232  0.6453
  330TMC3    C1 5003   1.610   0.774  10.069 -0.0510  0.2897 -0.1704
  330TMC3    C2 5004   1.489   0.736  10.020 -0.1550 -0.5915 -0.1811
  330TMC3    C3 5005   1.421   0.621  10.068 -0.0327 -0.2004 -0.3598
  330TMC3    C4 5006   1.666   0.700  10.171  0.2071  0.2866 -0.2733
  330TMC3    C5 5007   1.591   0.598  10.221 -0.2532  0.3106 -0.1937
  330TMC3    C6 5008   1.473   0.557  10.173 -0.4632  0.4993 -0.5206
  330TMC3     C 5009   1.645   0.921  10.052  0.2712 -0.2015 -0.5472
  330TMC3     O 5010   1.704   0.971  10.143 -0.1089  0.3199  0.5434
  330TMC3     H 5011   1.452   0.799   9.940 -0.4748 -2.1849 -1.2819
  330TMC3    H1 5012   1.757   0.732  10.221  0.5881  0.2034 -0.9194
  330TMC3    H2 5013   1.415   0.481  10.222  0.4746  1.2278  1.7038
  330TMC3    C7 5014   1.647   0.504  10.314 -0.1811 -0.3915  0.1248
  330TMC3    C8 5015   1.289   0.593  10.008  0.3410 -0.5389  0.4801
  330TMC3    O1 5016   1.597   0.396  10.324  0.3669 -0.1205 -0.1186
  330TMC3    O2 5017   1.259   0.656   9.909 -0.2471  0.3524 -0.5524
  331MPD2     C 5018   4.226   4.209  12.735  0.5431 -0.3540 -0.5639
  331MPD2    C1 5019   4.357   4.179  12.700  0.2589 -0.1682 -0.1399
  331MPD2    C2 5020   4.393   4.069  12.623  0.8290  0.6479  0.1645
  331MPD2    C3 5021   4.299   3.976  12.585 -0.6737  0.8315 -0.3078
  331MPD2    C4 5022   4.167   4.003  12.616 -0.7179  0.3097  0.0299
  331MPD2    C5 5023   4.131   4.120  12.690  0.3852 -0.0073  0.3714
  331MPD2     H 5024   4.495   4.041  12.597  0.7891 -0.1833  0.8545
  331MPD2    H1 5025   4.093   3.933  12.581 -1.1863  0.7283  0.1898
  331MPD2    H2 5026   4.198   4.293  12.798 -1.2447 -0.6618 -0.9513
  331MPD2    H3 5027   4.026   4.147  12.704  0.1793  0.7292 -2.5489
  331MPD2     N 5028   4.336   3.863  12.517 -0.5250 -0.6538 -0.2001
  331MPD2    H5 5029   4.437   3.848  12.513 -0.3417  0.2462  1.0531
  331MPD2    N1 5030   4.447   4.273  12.750  0.0252 -0.3040 -0.2316
  331MPD2    H7 5031   4.410   4.345  12.812  0.0624  1.1533 -1.9109
  332TMC3    C1 5032   4.343   3.721  12.322  0.0075  0.2057  0.3387
  332TMC3    C2 5033   4.306   3.743  12.189 -1.1022 -0.1038 -0.2421
  332TMC3    C3 5034   4.394   3.720  12.098 -0.6581  0.3055  0.3109
  332TMC3    C4 5035   4.473   3.691  12.355 -0.8115 -0.2780 -0.3986
  332TMC3    C5 5036   4.562   3.668  12.254  0.2132  0.0665  0.6627
  332TMC3    C6 5037   4.524   3.677  12.120  0.9893 -0.4171 -0.2090
  332TMC3     C 5038   4.259   3.799  12.418  0.5172 -0.5589 -0.4657
  332TMC3     O 5039   4.142   3.819  12.386 -0.5058  0.1252  0.2536
  332TMC3     H 5040   4.211   3.782  12.152 -2.4576 -0.8455  2.4592
  332TMC3    H1 5041   4.507   3.666  12.455  1.7982 -3.5672 -2.0897
  332TMC3    H2 5042   4.591   3.642  12.042 -0.1277 -2.4457 -0.2418
  332TMC3    C7 5043   4.676   3.578  12.280 -0.0922  0.5566 -0.2827
  332TMC3    C8 5044   4.386   3.816  11.986 -0.6489 -0.1660 -1.0099
  332TMC3    O1 5045   4.684   3.471  12.222 -0.3394 -0.4025  0.1929
  332TMC3    O2 5046   4.347   3.927  12.011 -0.1052 -0.1944 -0.3017
  333MPD2     C 5047   4.414   0.004  11.146  0.1587  0.1217 -0.1774
  333MPD2    C1 5048   4.482   4.654  11.060 -0.0592  0.3420  0.2778
  333MPD2    C2 5049   4.477   4.522  11.090 -0.1738 -0.1032 -0.0209
  333MPD2    C3 5050   4.401   4.473  11.193 -0.1449 -0.9301  0.5862
  333MPD2    C4 5051   4.327   4.556  11.273 -0.3757 -0.2683  0.1535
  333MPD2    C5 5052   4.337   4.693  11.247  0.0757  0.1076 -0.6308
  333MPD2     H 5053   4.538   4.451  11.035  1.8238  1.4879  0.1417
  333MPD2    H1 5054   4.264   4.515  11.351 -0.1936  0.4878  0.6969
  333MPD2    H2 5055   4.424   0.111  11.134 -2.4629  0.5230  1.2993
  333MPD2    H3 5056   4.276   0.023  11.305  0.3063 -0.0418 -0.2138
  333MPD2     N 5057   4.390   4.333  11.199 -0.0454  0.2226  0.4673
  333MPD2    H5 5058   4.442   4.280  11.129  1.4419  0.9721  1.0177
  333MPD2    N1 5059   4.562   4.708  10.957 -0.0079  0.2729 -0.2736
  333MPD2    H7 5060   4.580   0.069  10.973 -1.0488  0.5179 -0.5841
  334TMC3    C1 5061   0.015   4.685  10.806 -0.3088  0.1568 -0.6450
  334TMC3    C2 5062   0.120   4.601  10.825  0.2907 -0.0829 -0.7989
  334TMC3    C3 5063   0.244   4.656  10.834 -0.8689 -0.6994 -0.0965
  334TMC3    C4 5064   0.036   0.080  10.779  0.7350  0.4942 -0.4307
  334TMC3    C5 5065   0.163   0.125  10.761  0.8661  0.2591 -1.0051
  334TMC3    C6 5066   0.268   0.047  10.794 -0.6332  0.3668  0.8741
  334TMC3     C 5067   4.627   4.627  10.867 -0.8176  0.1774  1.1624
  334TMC3     O 5068   4.608   4.510  10.840 -0.1754  1.2210 -0.6887
  334TMC3     H 5069   0.106   4.505  10.872 -2.5142 -0.5820 -2.6878
  334TMC3    H1 5070   4.694   0.152  10.766  0.1735  0.0954  0.7626
  334TMC3    H2 5071   0.368   0.086  10.782 -0.7639  0.2623 -0.6378
  334TMC3    C7 5072   0.189   0.256  10.817  0.7309 -0.2853 -0.0702
  334TMC3    C8 5073   0.334   4.605  10.944  0.2143 -0.5943  0.5525
  334TMC3    O1 5074   0.277   0.275  10.901  0.0549 -0.3059 -0.2131
  334TMC3    O2 5075   0.317   4.498  11.005  0.1274  0.1456  0.3756
  335TMC3    C1 5076   4.399   1.594  17.558  0.3803 -0.2355  0.1026
  335TMC3    C2 5077   4.361   1.511  17.459 -0.3776  0.1081  0.1263
  335TMC3    C3 5078   4.425   1.535  17.342 -1.1130  0.0253 -0.6191
  335TMC3    C4 5079   4.507   1.681  17.548 -1.1758  0.7320 -0.3838
  335TMC3    C5 5080   4.574   1.692  17.429 -0.3832  0.8454 -0.2411
  335TMC3    C6 5081   4.529   1.616  17.326 -0.3976 -1.0014  0.4770
  335TMC3     C 5082   4.333   1.571  17.687 -0.2102  0.2145  0.5894
  335TMC3     O 5083   4.274   1.469  17.706  0.5465 -0.3571  0.1564
  335TMC3     H 5084   4.268   1.458  17.472  0.2186 -1.3647 -1.6467
  335TMC3    H1 5085   4.551   1.724  17.638  0.5290  2.0222 -1.8360
  335TMC3    H2 5086   4.580   1.625  17.231 -1.7828 -0.0104 -0.1756
  335TMC3    C7 5087   4.709   1.747  17.409 -0.2581 -0.7863  0.6659
  335TMC3    C8 5088   4.381   1.477  17.219  0.3130 -0.1776 -0.5547
  335TMC3    O1 5089   0.011   1.736  17.296 -0.3583 -0.0923  0.4270
  335TMC3    O2 5090   4.394   1.556  17.124 -0.1533 -0.0970 -0.0470
  336MPD2     C 5091   4.007   3.957  16.357  0.2271 -0.3203  0.1671
  336MPD2    C1 5092   4.015   3.873  16.246  0.2840 -0.2787 -0.2136
  336MPD2    C2 5093   4.087   3.759  16.257 -0.5658  0.0148  0.0168
  336MPD2    C3 5094   4.148   3.719  16.371  0.1214 -0.2693  0.5582
  336MPD2    C4 5095   4.143   3.797  16.481  0.2253 -0.2274  0.5729
  336MPD2    C5 5096   4.070   3.916  16.474 -0.5095  0.1836  0.0782
  336MPD2     H 5097   4.097   3.695  16.171  1.8179 -0.9484  0.9939
  336MPD2    H1 5098   4.198   3.759  16.567  1.6681  0.0284 -0.2281
  336MPD2    H2 5099   3.945   4.046  16.359 -1.3334 -1.4118  0.4271
  336MPD2    H3 5100   4.061   3.975  16.564 -2.9434 -0.3124  0.1552
  336MPD2     N 5101   4.213   3.592  16.387 -0.1055 -0.0914 -0.1566
  336MPD2    H5 5102   4.231   3.555  16.480  0.0582  0.6456  0.1001
  336MPD2    N1 5103   3.946   3.900  16.133  0.5633  0.4412  0.2300
  336MPD2    H7 5104   3.925   3.822  16.070 -0.8489 -0.2726  1.6011
  337TMC3    C1 5105   3.880   4.015  15.944 -0.1206  1.1067  0.2362
  337TMC3    C2 5106   3.793   3.912  15.907  0.2061 -0.4942 -0.0067
  337TMC3    C3 5107   3.736   3.926  15.779  0.4072  0.1873 -0.5116
  337TMC3    C4 5108   3.883   4.138  15.883  0.3781  0.4577  0.1009
  337TMC3    C5 5109   3.808   4.156  15.773 -0.9402 -0.5886  0.0119
  337TMC3    C6 5110   3.739   4.050  15.712 -0.2116  0.1762 -0.2007
  337TMC3     C 5111   3.929   4.024  16.075  0.5631  0.0279  0.3791
  337TMC3     O 5112   3.971   4.133  16.123  0.3007 -0.2023 -0.3171
  337TMC3     H 5113   3.791   3.811  15.944 -1.0087 -0.0477  1.1250
  337TMC3    H1 5114   3.944   4.215  15.927 -0.6851  2.1286 -1.3248
  337TMC3    H2 5115   3.681   4.072  15.623  0.9295 -0.6471 -1.1284
  337TMC3    C7 5116   3.825   4.272  15.694 -0.0001  0.7946  0.5103
  337TMC3    C8 5117   3.626   3.833  15.744 -0.1973 -0.1853  0.1813
  337TMC3    O1 5118   3.808   4.261  15.575 -0.3040 -0.2960 -0.0570
  337TMC3    O2 5119   3.604   3.741  15.819 -0.7153  0.0431 -0.1159
  338MPD2     C 5120   0.037   4.147   1.024  0.3670  0.5173  0.0402
  338MPD2    C1 5121   0.005   4.068   0.916 -0.3226  1.5749 -0.6187
  338MPD2    C2 5122   4.617   4.011   0.921 -0.6886 -0.6320 -0.6648
  338MPD2    C3 5123   4.517   4.035   1.012  0.1665  0.1793 -0.3627
  338MPD2    C4 5124   4.556   4.113   1.116  0.2809 -0.1878 -0.3964
  338MPD2    C5 5125   4.681   4.168   1.122  0.7835  0.4136 -0.2191
  338MPD2     H 5126   4.596   3.951   0.833  0.0084 -0.7948 -0.7163
  338MPD2    H1 5127   4.492   4.125   1.203 -0.7965 -2.0167 -0.9483
  338MPD2    H2 5128   0.136   4.191   1.034 -0.8986  2.9185  2.2129
  338MPD2    H3 5129   4.711   4.211   1.217  0.6691 -1.4061  0.6380
  338MPD2     N 5130   4.385   3.991   0.988 -0.7270  0.3345  0.3248
  338MPD2    H5 5131   4.371   3.938   0.902 -1.4881  0.7274  0.2048
  338MPD2    N1 5132   0.088   4.039   0.809 -0.2417 -0.0288  0.2560
  338MPD2    H7 5133   0.054   3.981   0.732 -0.6944  0.5341  0.0397
  339TMC3    C1 5134   4.166   3.932   1.050  0.0584  0.0241 -0.0004
  339TMC3    C2 5135   4.079   3.897   1.149 -0.2325  0.3486  0.5774
  339TMC3    C3 5136   3.946   3.875   1.115 -0.3469  0.2048  0.0187
  339TMC3    C4 5137   4.125   3.962   0.920  0.1627  0.1344 -0.2027
  339TMC3    C5 5138   3.991   3.941   0.894  1.0095  0.3241 -0.1048
  339TMC3    C6 5139   3.904   3.893   0.985 -0.9050 -1.1315  0.2409
  339TMC3     C 5140   4.289   3.995   1.086 -0.0950 -0.3202 -0.1617
  339TMC3     O 5141   4.302   4.014   1.211 -0.0205 -0.3255 -0.2997
  339TMC3     H 5142   4.113   3.879   1.251  0.1324  0.5257  0.4880
  339TMC3    H1 5143   4.180   4.026   0.851 -0.6631  1.0879  0.0266
  339TMC3    H2 5144   3.802   3.865   0.962 -0.4763 -0.8338 -2.0883
  339TMC3    C7 5145   3.949   3.979   0.760 -0.0928 -0.1685 -0.1772
  339TMC3    C8 5146   3.853   3.798   1.198  0.7959  0.1150  0.4976
  339TMC3    O1 5147   3.828   3.991   0.740 -0.2670 -0.1932 -0.0863
  339TMC3    O2 5148   3.754   3.753   1.142 -0.2378  0.0173 -0.2921
  340MPD2     C 5149   4.701   1.508   9.637  0.7178  0.4691 -0.1617
  340MPD2    C1 5150   4.669   1.540   9.770  0.0144  0.7576 -0.2964
  340MPD2    C2 5151   4.677   1.671   9.811  0.2426  0.5263 -0.2734
  340MPD2    C3 5152   4.723   1.769   9.722 -0.7228 -0.1251 -0.1916
  340MPD2    C4 5153   0.023   1.735   9.594 -0.1896 -0.1184 -0.0376
  340MPD2    C5 5154   0.006   1.608   9.550  0.1491 -0.1661  0.4768
  340MPD2     H 5155   4.655   1.694   9.915 -1.4514 -0.5319 -0.4068
  340MPD2    H1 5156   0.061   1.813   9.528 -1.5878  0.0059 -0.7030
  340MPD2    H2 5157   4.707   1.412   9.588 -1.9905 -1.3541  3.0476
  340MPD2    H3 5158   0.033   1.577   9.450  0.9610  0.0613  0.6292
  340MPD2     N 5159   4.723   1.908   9.752 -0.1620 -0.1965  0.5351
  340MPD2    H5 5160   0.024   1.976   9.688 -0.6038  0.5269  1.0321
  340MPD2    N1 5161   4.631   1.433   9.852  0.3212  0.4962 -0.2525
  340MPD2    H7 5162   4.626   1.340   9.814  0.0630  0.5386 -0.3233
  341TMC3    C1 5163   4.561   1.311  10.029  0.1102  0.4045 -0.4174
  341TMC3    C2 5164   4.431   1.291   9.996  0.1267  0.5925  0.6134
  341TMC3    C3 5165   4.373   1.170  10.030  0.3248 -0.3065  1.1055
  341TMC3    C4 5166   4.644   1.215  10.081  0.0112 -0.4954 -0.1963
  341TMC3    C5 5167   4.590   1.099  10.110  0.0515  0.0796 -0.1204
  341TMC3    C6 5168   4.457   1.074  10.082 -0.0017 -0.6951  0.2230
  341TMC3     C 5169   4.612   1.440   9.989  0.2407  0.3812  0.2061
  341TMC3     O 5170   4.589   1.533  10.065 -0.2162  0.0806  0.6758
  341TMC3     H 5171   4.369   1.371   9.957 -2.3760 -1.6899 -0.1196
  341TMC3    H1 5172   0.012   1.232  10.091 -0.0561 -2.3186  3.5968
  341TMC3    H2 5173   4.408   0.983  10.115  0.7693 -0.5761  1.6649
  341TMC3    C7 5174   4.668   1.003  10.183  0.6316 -0.0558 -0.2876
  341TMC3    C8 5175   4.239   1.139   9.973  0.8283 -0.5027 -0.1600
  341TMC3    O1 5176   0.021   1.053  10.248  0.4359  0.4982  0.5393
  341TMC3    O2 5177   4.207   1.026   9.936  0.6870  0.1563 -0.8311
  342MPD2     C 5178   2.893   4.505   0.364 -0.0477 -0.0774 -0.7664
  342MPD2    C1 5179   2.930   4.505   0.224  0.0904  0.1564  0.1321
  342MPD2    C2 5180   2.975   4.623   0.165  0.1342  0.1725  0.7116
  342MPD2    C3 5181   2.978   4.737   0.248 -0.2351 -0.7791 -0.3117
  342MPD2    C4 5182   2.938   4.732   0.378 -0.6929 -0.4230 -0.1126
  342MPD2    C5 5183   2.897   4.617   0.434  0.0443 -0.0862  1.5324
  342MPD2     H 5184   3.010   4.621   0.062  1.1945 -0.5120  1.0824
  342MPD2    H1 5185   2.931   0.077   0.447 -0.5180 -0.7107  0.2559
  342MPD2    H2 5186   2.868   4.414   0.418  0.1697  0.0579 -0.4407
  342MPD2    H3 5187   2.866   4.613   0.538  1.0336 -0.4995  1.8115
  342MPD2     N 5188   3.017   0.128   0.201  0.3635 -0.5078  0.0765
  342MPD2    H5 5189   3.004   0.203   0.268  0.0838 -3.2430  3.1300
  342MPD2    N1 5190   2.942   4.382   0.144 -0.3066 -0.4776  0.3003
  342MPD2    H7 5191   2.969   4.393   0.047  1.1103 -1.4801  0.5743
  343TMC3    C1 5192   2.952   4.153   0.084  0.2312 -0.0273  0.1904
  343TMC3    C2 5193   3.026   4.191  17.723  0.3787 -0.0874 -1.0037
  343TMC3    C3 5194   3.034   4.099  17.622  0.1593 -0.7874  0.3659
  343TMC3    C4 5195   2.897   4.028   0.104 -0.5879  0.4566  0.2494
  343TMC3    C5 5196   2.910   3.939   0.002 -0.6828 -0.3844 -0.0947
  343TMC3    C6 5197   2.975   3.971  17.641  0.7826  0.6218  0.0975
  343TMC3     C 5198   2.935   4.250   0.191  0.5905 -0.0250  0.5190
  343TMC3     O 5199   2.884   4.214   0.296  0.0857  0.1401 -0.1724
  343TMC3     H 5200   3.077   4.286  17.716  2.2278 -0.8529  2.0364
  343TMC3    H1 5201   2.857   4.009   0.203 -0.8916  0.1728  0.0703
  343TMC3    H2 5202   2.967   3.905  17.555  0.8714  1.1897 -0.3443
  343TMC3    C7 5203   2.831   3.819   0.002  0.3576  0.2364 -0.2261
  343TMC3    C8 5204   3.114   4.129  17.504 -0.9382  0.3702 -0.7448
  343TMC3    O1 5205   2.799   3.767  17.647  0.0106 -0.4631 -0.6430
  343TMC3    O2 5206   3.170   4.236  17.494  0.3213  0.3430 -0.4406
  344MPD2     C 5207   2.955   3.812  11.093 -0.3963  0.6051  0.1242
  344MPD2    C1 5208   3.041   3.727  11.039  0.0395  0.1174 -0.4586
  344MPD2    C2 5209   3.120   3.757  10.928  0.2940 -0.2313 -0.6816
  344MPD2    C3 5210   3.104   3.879  10.856  0.0317 -0.0701 -0.3872
  344MPD2    C4 5211   3.014   3.966  10.910 -0.8323  0.7057  0.3714
  344MPD2    C5 5212   2.950   3.934  11.031  0.0015 -0.0600 -0.7890
  344MPD2     H 5213   3.189   3.679  10.897  0.0178 -1.3498  1.4681
  344MPD2    H1 5214   3.000   4.066  10.871 -0.3053  0.6548  0.0574
  344MPD2    H2 5215   2.879   3.786  11.165 -1.6594 -0.8797 -1.7807
  344MPD2    H3 5216   2.875   4.002  11.072  0.7562  1.3307 -1.6952
  344MPD2     N 5217   3.178   3.920  10.740 -0.3030 -0.6918  0.8009
  344MPD2    H5 5218   3.154   4.010  10.698 -0.3283 -0.2031  1.8667
  344MPD2    N1 5219   3.051   3.597  11.087 -0.0222  0.2285  0.1608
  344MPD2    H7 5220   3.096   3.526  11.031 -2.3508 -1.4748  0.4465
  345TMC3    C1 5221   3.347   3.940  10.594 -0.1759 -0.2620 -0.1265
  345TMC3    C2 5222   3.480   3.928  10.583 -0.0069 -0.0553 -0.6823
  345TMC3    C3 5223   3.553   4.011  10.502 -0.4712  0.2644 -0.3450
  345TMC3    C4 5224   3.279   4.026  10.515 -0.3293  0.3018 -0.5982
  345TMC3    C5 5225   3.350   4.108  10.443 -0.0393  0.3369  0.1553
  345TMC3    C6 5226   3.486   4.096  10.421  0.2104  0.5149 -0.2887
  345TMC3     C 5227   3.289   3.856  10.699  0.1271 -0.1889  0.1959
  345TMC3     O 5228   3.353   3.768  10.754 -0.8222 -0.2622 -0.5684
  345TMC3     H 5229   3.531   3.848  10.635  0.3980  0.8887  0.3832
  345TMC3    H1 5230   3.171   4.038  10.523 -0.4089 -0.9617  0.1712
  345TMC3    H2 5231   3.540   4.167  10.360 -1.7305  0.7986 -1.6680
  345TMC3    C7 5232   3.299   4.237  10.393  0.4087  0.5582 -1.0327
  345TMC3    C8 5233   3.654   4.076  10.570 -0.1418 -0.3212 -0.0581
  345TMC3    O1 5234   3.377   4.335  10.406 -0.8789  0.0903 -0.1911
  345TMC3    O2 5235   3.734   4.011  10.630  0.2767 -0.9567  0.0906
  346MPD2     C 5236   3.992   0.402  14.210 -0.3650 -0.6013 -0.2481
  346MPD2    C1 5237   4.014   0.533  14.174  0.0457 -0.0060 -0.1270
  346MPD2    C2 5238   3.942   0.631  14.231  0.2186  0.0573  0.2053
  346MPD2    C3 5239   3.852   0.606  14.331  0.7536 -0.1921 -0.3364
  346MPD2    C4 5240   3.825   0.479  14.366  0.1263 -0.2355  0.6526
  346MPD2    C5 5241   3.888   0.373  14.305 -0.4428  0.4537  0.0909
  346MPD2     H 5242   3.958   0.735  14.202  1.2279 -0.1810 -0.1053
  346MPD2    H1 5243   3.745   0.456  14.434 -0.1197  2.4023  1.2424
  346MPD2    H2 5244   4.042   0.317  14.164  0.4926  0.6157 -1.5549
  346MPD2    H3 5245   3.864   0.271  14.332 -0.3989  0.7283  1.1637
  346MPD2     N 5246   3.790   0.720  14.378 -0.3157  0.2488 -0.1583
  346MPD2    H5 5247   3.823   0.804  14.331  0.3635 -0.0160 -0.1595
  346MPD2    N1 5248   4.101   0.575  14.076  0.1697  0.4517  0.2920
  346MPD2    H7 5249   4.088   0.672  14.050  0.2199  0.2468 -0.4823
  347TMC3    C1 5250   3.669   0.880  14.501  0.0387 -0.1856  0.1305
  347TMC3    C2 5251   3.725   0.953  14.396  0.3475  0.2502 -0.5281
  347TMC3    C3 5252   3.788   1.072  14.427  0.1265  0.4330 -0.4271
  347TMC3    C4 5253   3.672   0.929  14.626  0.9082  0.4029 -0.4226
  347TMC3    C5 5254   3.733   1.053  14.655  0.2540  0.4533  0.2570
  347TMC3    C6 5255   3.783   1.122  14.548 -0.0124  0.2453 -0.2944
  347TMC3     C 5256   3.707   0.736  14.486  0.2782 -0.2447 -0.1584
  347TMC3     O 5257   3.662   0.653  14.562 -0.2563 -0.1679 -0.1260
  347TMC3     H 5258   3.692   0.936  14.295 -0.2091 -1.3178 -0.0779
  347TMC3    H1 5259   3.618   0.879  14.705  1.5002  0.3118 -0.0748
  347TMC3    H2 5260   3.839   1.213  14.564 -0.3838  0.6797 -1.4257
  347TMC3    C7 5261   3.695   1.104  14.787 -0.0187  0.3996 -1.0292
  347TMC3    C8 5262   3.917   1.063  14.365  0.9243  0.2917  0.1993
  347TMC3    O1 5263   3.600   1.048  14.842 -0.1084 -0.0265 -0.1996
  347TMC3    O2 5264   3.933   0.962  14.298 -0.4287  0.1587  0.2141
  348MPD2     C 5265   2.570   0.549  12.627 -0.4253  0.0911  0.1420
  348MPD2    C1 5266   2.569   0.506  12.494 -0.7333  0.2337  0.3179
  348MPD2    C2 5267   2.477   0.570  12.404 -0.3049 -0.4498 -0.1678
  348MPD2    C3 5268   2.392   0.671  12.443  0.2825  0.6482  0.6460
  348MPD2    C4 5269   2.407   0.716  12.576 -0.3160 -0.4539 -0.4236
  348MPD2    C5 5270   2.485   0.646  12.666 -0.2271  0.0199 -0.7673
  348MPD2     H 5271   2.463   0.519  12.309  1.8887 -3.4822  1.1259
  348MPD2    H1 5272   2.347   0.796  12.618 -2.3446 -1.2385 -1.8069
  348MPD2    H2 5273   2.639   0.504  12.697 -0.8876 -2.0272 -0.7491
  348MPD2    H3 5274   2.482   0.685  12.767 -1.1150 -2.5893  0.2118
  348MPD2     N 5275   2.294   0.718  12.351  0.4510 -0.4389  0.5229
  348MPD2    H5 5276   2.300   0.672  12.260 -0.2863 -1.9197  1.2225
  348MPD2    N1 5277   2.653   0.406  12.447  0.0979 -0.1230  0.2229
  348MPD2    H7 5278   2.645   0.397  12.346  1.6141  0.4428  0.0537
  349TMC3    C1 5279   2.780   0.210  12.433  0.0415 -0.0091  0.4608
  349TMC3    C2 5280   2.777   0.084  12.478 -0.5359 -0.4082  0.3747
  349TMC3    C3 5281   2.771   4.719  12.389  0.3594 -0.1613  0.6449
  349TMC3    C4 5282   2.762   0.229  12.299  0.5605 -0.0168 -0.0687
  349TMC3    C5 5283   2.752   0.121  12.217 -0.0883 -0.0865  0.7723
  349TMC3    C6 5284   2.770   4.732  12.257  0.5021  0.1083 -0.1431
  349TMC3     C 5285   2.718   0.310  12.520 -0.5502 -0.7302 -0.9618
  349TMC3     O 5286   2.716   0.295  12.639  0.3621  0.1594 -0.3619
  349TMC3     H 5287   2.791   0.062  12.583 -1.7142 -2.1827  0.1572
  349TMC3    H1 5288   2.777   0.326  12.251 -2.7803 -0.2961 -1.7008
  349TMC3    H2 5289   2.759   4.652  12.185  3.5382  0.5125 -1.0581
  349TMC3    C7 5290   2.645   0.141  12.122  0.1220 -0.0179  0.5455
  349TMC3    C8 5291   2.792   4.592  12.442  0.0604  0.9101  0.2054
  349TMC3    O1 5292   2.573   0.041  12.110  0.1650 -0.3489  0.1086
  349TMC3    O2 5293   2.719   4.571  12.536  0.1568 -0.2566 -0.8044
  350MPD2     C 5294   1.357   3.475  10.413  0.1555  0.4817 -0.1837
  350MPD2    C1 5295   1.410   3.350  10.393  0.1525  0.2655  0.5332
  350MPD2    C2 5296   1.547   3.341  10.385 -0.2757  0.6809 -0.4606
  350MPD2    C3 5297   1.625   3.451  10.422  1.0223  0.6265  0.4523
  350MPD2    C4 5298   1.569   3.574  10.447 -0.0836 -0.7567  0.6311
  350MPD2    C5 5299   1.434   3.583  10.439  0.2385  0.2490  0.2945
  350MPD2     H 5300   1.588   3.243  10.368 -1.4644  0.2818 -0.9926
  350MPD2    H1 5301   1.625   3.665  10.461 -0.5750 -0.6338  1.7798
  350MPD2    H2 5302   1.253   3.490  10.388 -0.5406  0.7883  2.8380
  350MPD2    H3 5303   1.397   3.685  10.432 -1.5522 -0.3667  0.8315
  350MPD2     N 5304   1.769   3.433  10.405 -0.3640  0.7573  0.4015
  350MPD2    H5 5305   1.799   3.338  10.385  0.8961  0.5551  3.2787
  350MPD2    N1 5306   1.334   3.242  10.356  0.7797  0.1474  0.2455
  350MPD2    H7 5307   1.385   3.163  10.320 -1.8769 -0.9625 -1.0894
  351TMC3    C1 5308   1.168   3.101  10.298  0.3263  0.1485  0.4010
  351TMC3    C2 5309   1.245   3.048  10.198 -0.4578 -0.0995 -0.0333
  351TMC3    C3 5310   1.233   2.920  10.171  0.0093  0.0698  0.2495
  351TMC3    C4 5311   1.049   3.041  10.349 -0.3368  1.1768 -0.1651
  351TMC3    C5 5312   1.029   2.913  10.303  1.0120 -0.0342  0.5313
  351TMC3    C6 5313   1.126   2.850  10.222  0.1956 -0.0718  0.2554
  351TMC3     C 5314   1.198   3.237  10.344 -0.0157  0.5700 -0.4641
  351TMC3     O 5315   1.101   3.304  10.385  0.0247  0.2579  0.1090
  351TMC3     H 5316   1.328   3.105  10.158 -1.5140  0.0942 -1.9082
  351TMC3    H1 5317   0.984   3.077  10.429 -0.5785  1.8185 -0.6453
  351TMC3    H2 5318   1.116   2.746  10.192  1.3958  0.4636 -1.9833
  351TMC3    C7 5319   0.902   2.844  10.314  0.2303 -0.1980 -0.7834
  351TMC3    C8 5320   1.313   2.844  10.072  0.0620 -0.0381 -0.3436
  351TMC3    O1 5321   0.821   2.887  10.395 -0.0744  0.1915  0.6939
  351TMC3    O2 5322   1.294   2.722  10.056 -0.3507  0.2633 -0.4849
  352MPD2     C 5323   3.546   0.897   1.255 -0.6418 -0.5753 -0.1701
  352MPD2    C1 5324   3.637   0.897   1.152 -0.9388 -0.0162 -0.7937
  352MPD2    C2 5325   3.767   0.848   1.182  0.8857  0.5748  0.5663
  352MPD2    C3 5326   3.789   0.782   1.303  0.2014 -0.7835  0.4231
  352MPD2    C4 5327   3.690   0.774   1.397  0.6678 -0.2280  0.2507
  352MPD2    C5 5328   3.570   0.828   1.372  0.0332 -0.1346  0.4027
  352MPD2     H 5329   3.844   0.843   1.105 -0.8151 -1.0456 -1.0408
  352MPD2    H1 5330   3.694   0.722   1.492 -1.2898  0.2742  0.6008
  352MPD2    H2 5331   3.443   0.929   1.245 -0.1806  1.4302  1.3561
  352MPD2    H3 5332   3.484   0.816   1.436 -1.0601 -0.4614 -1.1188
  352MPD2     N 5333   3.901   0.708   1.327  0.0973 -0.3161  0.2404
  352MPD2    H5 5334   3.921   0.648   1.406  0.0061  0.4393  0.8316
  352MPD2    N1 5335   3.603   0.963   1.037 -0.1486 -0.1285  0.0010
  352MPD2    H7 5336   3.511   1.004   1.025 -1.2192 -1.6372  3.0889
  353TMC3    C1 5337   4.133   0.648   1.312  0.0204 -0.4900 -0.5051
  353TMC3    C2 5338   4.261   0.698   1.283  0.1598 -0.0669 -0.3856
  353TMC3    C3 5339   4.363   0.631   1.350  1.2268  0.3287 -0.1698
  353TMC3    C4 5340   4.106   0.529   1.376 -0.3115  0.2999  0.1245
  353TMC3    C5 5341   4.211   0.460   1.421  0.5300  0.0980  0.6796
  353TMC3    C6 5342   4.338   0.511   1.418  0.0523 -0.4109  0.6197
  353TMC3     C 5343   4.022   0.732   1.261 -0.9628 -0.4395  0.0515
  353TMC3     O 5344   4.056   0.837   1.203  0.0958  0.0009 -0.3534
  353TMC3     H 5345   4.278   0.788   1.225  1.7428 -0.2500 -0.2045
  353TMC3    H1 5346   4.011   0.476   1.376 -0.2616  0.2348  4.6464
  353TMC3    H2 5347   4.422   0.451   1.450  0.6816 -0.4919 -1.1636
  353TMC3    C7 5348   4.198   0.328   1.473 -0.1387  0.0158  0.4416
  353TMC3    C8 5349   4.501   0.666   1.306 -0.0630  0.9316  0.2276
  353TMC3    O1 5350   4.212   0.303   1.590  0.6409 -0.2502 -0.9142
  353TMC3    O2 5351   4.516   0.778   1.260 -0.1981 -0.5956  0.4999
  354TMC3    C1 5352   1.271   1.666  12.881 -0.3851  0.3337 -0.3459
  354TMC3    C2 5353   1.221   1.798  12.870 -0.1063 -0.6008 -0.4561
  354TMC3    C3 5354   1.174   1.835  12.751  0.3001 -0.0447 -0.6325
  354TMC3    C4 5355   1.281   1.584  12.775  0.6882 -0.1767 -0.3627
  354TMC3    C5 5356   1.234   1.640  12.656 -0.2242 -0.0785 -0.0010
  354TMC3    C6 5357   1.181   1.762  12.646  0.2565 -0.3198  0.2755
  354TMC3     C 5358   1.283   1.599  13.003 -0.4252 -0.8512  0.0265
  354TMC3     O 5359   1.308   1.482  13.009 -0.7375 -0.2453  0.2561
  354TMC3     H 5360   1.256   1.873  12.939 -1.9712 -1.0570  0.9930
  354TMC3    H1 5361   1.277   1.477  12.794  0.4040 -0.2396 -0.7955
  354TMC3    H2 5362   1.142   1.795  12.550 -1.5817 -1.1179  0.7469
  354TMC3    C7 5363   1.318   1.613  12.543 -0.1634  0.1616  0.4088
  354TMC3    C8 5364   1.158   1.976  12.720 -0.6420 -0.3144  0.1783
  354TMC3    O1 5365   1.288   1.676  12.440 -0.2523  0.7538 -0.0441
  354TMC3    O2 5366   1.186   2.010  12.609  0.0898 -0.2789 -0.1160
  355MPD2     C 5367   2.107   1.896  11.583 -0.2482  0.1934 -0.4974
  355MPD2    C1 5368   2.073   1.990  11.683  0.0690  0.2481 -0.4084
  355MPD2    C2 5369   2.072   1.954  11.822  0.7212 -0.2786  0.8700
  355MPD2    C3 5370   2.122   1.831  11.862  0.4654  0.5663  0.0891
  355MPD2    C4 5371   2.149   1.735  11.764  0.1387 -0.3753  0.4188
  355MPD2    C5 5372   2.148   1.771  11.623  0.6254 -0.0415  0.3437
  355MPD2     H 5373   2.034   2.024  11.896 -2.6178 -0.3435 -0.7984
  355MPD2    H1 5374   2.199   1.642  11.789 -4.0191 -2.1214  2.2932
  355MPD2    H2 5375   2.120   1.922  11.478  3.6124 -2.0044 -0.5499
  355MPD2    H3 5376   2.189   1.700  11.552 -0.1776 -0.2915  0.1311
  355MPD2     N 5377   2.134   1.785  11.989  0.6196 -0.3538  0.1478
  355MPD2    H5 5378   2.151   1.685  11.992 -3.1257 -1.0176 -1.2209
  355MPD2    N1 5379   2.055   2.121  11.632  0.4865 -0.4542 -0.6724
  355MPD2    H7 5380   2.062   2.135  11.531 -1.4699 -1.2919 -0.9286
  356TMC3    C1 5381   2.151   1.987  12.121  0.0243  0.7372 -0.0774
  356TMC3    C2 5382   2.250   2.027  12.044 -0.1659 -0.2975 -0.9737
  356TMC3    C3 5383   2.268   2.158  12.036  0.0911 -0.5699 -0.1575
  356TMC3    C4 5384   2.092   2.074  12.208  0.2420  0.6531  0.1099
  356TMC3    C5 5385   2.120   2.208  12.205 -0.2314  0.2579  0.3537
  356TMC3    C6 5386   2.211   2.253  12.115  0.3575 -0.8328  0.0517
  356TMC3     C 5387   2.123   1.844  12.121 -0.2111  0.0431  0.2378
  356TMC3     O 5388   2.113   1.797  12.233 -0.3238  0.3359 -0.2545
  356TMC3     H 5389   2.296   1.964  11.969  2.3513 -0.2323  0.5530
  356TMC3    H1 5390   2.043   2.032  12.295 -0.7147  0.5653 -0.4695
  356TMC3    H2 5391   2.242   2.357  12.119 -0.8650 -0.4554 -0.4360
  356TMC3    C7 5392   2.135   2.273  12.337 -0.3726 -0.5067  0.5675
  356TMC3    C8 5393   2.330   2.204  11.916  0.0602 -0.1333 -1.4587
  356TMC3    O1 5394   2.112   2.207  12.439  0.0509  0.0287  0.5232
  356TMC3    O2 5395   2.366   2.124  11.829 -0.1328  0.5001 -0.6042
  357MPD2     C 5396   2.901   3.268   1.992  0.3996  0.3879 -0.4853
  357MPD2    C1 5397   2.774   3.205   2.018 -0.6622 -0.2249 -0.3076
  357MPD2    C2 5398   2.661   3.284   2.011  0.3613  0.5940 -0.5791
  357MPD2    C3 5399   2.677   3.421   1.989  0.2682 -0.4186  0.0644
  357MPD2    C4 5400   2.802   3.480   1.963  0.7127 -0.5390 -0.2186
  357MPD2    C5 5401   2.914   3.404   1.978 -0.6662 -0.2868 -0.3804
  357MPD2     H 5402   2.561   3.246   2.030  1.0625 -0.5330  0.7520
  357MPD2    H1 5403   2.815   3.587   1.961  3.3960 -0.8270  1.1361
  357MPD2    H2 5404   2.991   3.209   1.982  0.3292  0.1753  0.1411
  357MPD2    H3 5405   3.009   3.453   1.964  0.0030 -2.2181 -2.6394
  357MPD2     N 5406   2.563   3.507   1.978 -0.4799  0.1777 -0.2082
  357MPD2    H5 5407   2.590   3.604   1.989 -0.1240  0.0178  0.3504
  357MPD2    N1 5408   2.768   3.060   2.027 -0.1618 -0.3254  0.7274
  357MPD2    H7 5409   2.851   3.022   1.984  0.7701  1.7930  0.6710
  358TMC3    C1 5410   2.680   2.848   1.982 -0.2586  0.8027 -0.2765
  358TMC3    C2 5411   2.601   2.817   1.875  0.4683  0.3171  0.1973
  358TMC3    C3 5412   2.645   2.718   1.789 -0.1260  0.1315 -0.0197
  358TMC3    C4 5413   2.807   2.792   1.992  0.2702  0.0421 -0.2841
  358TMC3    C5 5414   2.847   2.694   1.903 -0.0940 -1.0003  0.5677
  358TMC3    C6 5415   2.770   2.645   1.803 -0.3887 -0.3870 -0.2550
  358TMC3     C 5416   2.657   2.981   2.043 -0.4124  0.4036 -0.3881
  358TMC3     O 5417   2.546   3.007   2.086  0.0465 -0.6573  0.8060
  358TMC3     H 5418   2.508   2.873   1.869 -0.3969 -1.0574  0.5132
  358TMC3    H1 5419   2.876   2.824   2.069  0.5184 -0.6963 -0.1979
  358TMC3    H2 5420   2.806   2.583   1.722  2.9118  0.5409  0.5327
  358TMC3    C7 5421   2.972   2.619   1.934  0.0674 -0.1756 -0.7243
  358TMC3    C8 5422   2.560   2.687   1.669  0.2836  0.3439 -0.3869
  358TMC3    O1 5423   3.007   2.548   1.842  0.3010  0.5427  0.3769
  358TMC3    O2 5424   2.589   2.591   1.597 -0.5332 -0.9042  0.1714
  359MPD2     C 5425   2.159   0.794  12.942  0.6372  0.4029 -0.0805
  359MPD2    C1 5426   2.118   0.825  12.821  0.6624 -0.0325  0.3806
  359MPD2    C2 5427   2.058   0.723  12.740  0.7168 -0.5364 -0.9683
  359MPD2    C3 5428   2.023   0.603  12.795 -0.4173  0.1040 -0.2291
  359MPD2    C4 5429   2.065   0.577  12.923 -0.1017  0.7125  0.5608
  359MPD2    C5 5430   2.129   0.673  12.992 -0.6422  0.1968  0.4791
  359MPD2     H 5431   2.040   0.736  12.634  1.5797  2.8241 -0.6992
  359MPD2    H1 5432   2.045   0.480  12.965  0.5102  0.0225 -0.7192
  359MPD2    H2 5433   2.206   0.866  13.009  0.7430 -0.1521  0.4359
  359MPD2    H3 5434   2.148   0.656  13.098  2.4136  0.9301  0.0481
  359MPD2     N 5435   1.923   0.515  12.743  0.1264  0.1289 -0.0482
  359MPD2    H5 5436   1.913   0.442  12.814  1.0942  1.5807  1.5831
  359MPD2    N1 5437   2.124   0.948  12.751 -0.1811  0.7552  0.7843
  359MPD2    H7 5438   2.085   0.945  12.657 -0.5630 -0.1815  0.9815
  360TMC3    C1 5439   2.191   1.166  12.697  0.5866  0.0705 -0.1473
  360TMC3    C2 5440   2.287   1.259  12.708  0.0622  0.6217 -0.3034
  360TMC3    C3 5441   2.298   1.343  12.601  0.2004 -0.0728  0.3163
  360TMC3    C4 5442   2.095   1.173  12.599 -0.0107 -0.0681 -0.6916
  360TMC3    C5 5443   2.106   1.267  12.500  0.0325 -0.7326 -0.3077
  360TMC3    C6 5444   2.215   1.342  12.496  0.5787 -0.7526  0.5508
  360TMC3     C 5445   2.178   1.066  12.804 -0.5008  0.0775 -0.7656
  360TMC3     O 5446   2.231   1.084  12.912 -0.1638  0.2731 -0.2479
  360TMC3     H 5447   2.371   1.256  12.776  0.5397  0.0830 -0.9141
  360TMC3    H1 5448   2.019   1.096  12.588 -1.2247  1.2490 -1.4688
  360TMC3    H2 5449   2.218   1.422  12.423  1.5416  1.1298  2.6903
  360TMC3    C7 5450   2.038   1.253  12.377 -0.1597 -0.2916 -0.2372
  360TMC3    C8 5451   2.414   1.428  12.587  0.2126 -0.2929  0.4977
  360TMC3    O1 5452   2.104   1.277  12.278  0.0538 -0.5933 -0.6748
  360TMC3    O2 5453   2.435   1.519  12.663  0.6277  0.2322  0.3601
  361MPD2     C 5454   3.735   0.099  16.597  0.1730 -0.0977  0.5337
  361MPD2    C1 5455   3.686   0.106  16.729  0.2725 -0.2728  0.7256
  361MPD2    C2 5456   3.749   0.034  16.829 -0.3115  0.6052  0.2666
  361MPD2    C3 5457   3.844   4.677  16.805  0.3050  0.3797  0.2666
  361MPD2    C4 5458   3.889   4.665  16.675  0.2225  0.3897  0.9888
  361MPD2    C5 5459   3.838   0.011  16.568 -0.1812  0.6029  0.1985
  361MPD2     H 5460   3.721   0.058  16.931 -0.8792  1.4919 -0.0896
  361MPD2    H1 5461   3.979   4.608  16.654 -0.0188  0.3341  0.0985
  361MPD2    H2 5462   3.675   0.150  16.522 -1.7073 -0.4468  1.8117
  361MPD2    H3 5463   3.873   4.734  16.467 -1.3266 -1.9092  0.1772
  361MPD2     N 5464   3.918   4.605  16.909  0.6192 -0.0775 -0.5121
  361MPD2    H5 5465   3.990   4.539  16.880 -1.6346 -1.5319 -2.8512
  361MPD2    N1 5466   3.578   0.197  16.749 -0.3558  0.0751 -0.2568
  361MPD2    H7 5467   3.551   0.262  16.677 -2.9585  0.0579  0.7044
  362TMC3    C1 5468   3.398   0.302  16.873 -0.0998  1.0655  0.3024
  362TMC3    C2 5469   3.334   0.295  16.988  0.1583  0.0001 -0.3239
  362TMC3    C3 5470   3.254   0.400  17.026 -0.3223 -0.1669  0.1576
  362TMC3    C4 5471   3.384   0.401  16.785 -0.0545  0.4145 -0.1355
  362TMC3    C5 5472   3.294   0.497  16.820 -0.5385  0.0129  0.6598
  362TMC3    C6 5473   3.228   0.500  16.938  0.0044 -0.3134 -0.4514
  362TMC3     C 5474   3.497   0.193  16.859 -0.3112  0.3381 -0.2860
  362TMC3     O 5475   3.494   0.096  16.931 -0.5013 -0.4068 -0.4062
  362TMC3     H 5476   3.364   0.220  17.059  0.7373  1.3641  0.8641
  362TMC3    H1 5477   3.425   0.391  16.686 -0.1386 -0.9499 -0.0302
  362TMC3    H2 5478   3.154   0.577  16.956 -0.1223 -1.0133  1.9258
  362TMC3    C7 5479   3.271   0.609  16.730 -0.0054  0.2295  0.1572
  362TMC3    C8 5480   3.165   0.368  17.132 -0.3548  0.0685  0.0146
  362TMC3    O1 5481   3.175   0.677  16.759 -0.1614  0.1248  0.6099
  362TMC3    O2 5482   3.155   0.247  17.142 -0.5074  0.1842 -0.3540
  363TMC3    C1 5483   1.746   2.612   9.033  0.0441 -0.1880 -1.2226
  363TMC3    C2 5484   1.817   2.587   9.145 -0.0990  0.2853 -0.2161
  363TMC3    C3 5485   1.800   2.667   9.255 -0.7045 -0.2482  0.0493
  363TMC3    C4 5486   1.646   2.709   9.033 -0.8039  0.3053 -0.2285
  363TMC3    C5 5487   1.646   2.801   9.132  1.1055  0.1758  0.7361
  363TMC3    C6 5488   1.714   2.776   9.251  0.4918  0.1181  0.4238
  363TMC3     C 5489   1.758   2.528   8.914  0.3783 -0.8857  0.0647
  363TMC3     O 5490   1.701   2.567   8.813 -0.3980 -0.5578  0.0581
  363TMC3     H 5491   1.896   2.512   9.149 -0.6804 -0.3603 -0.7803
  363TMC3    H1 5492   1.586   2.717   8.943 -1.0392  2.4408  0.1250
  363TMC3    H2 5493   1.697   2.849   9.330 -0.5018  0.3645 -0.0160
  363TMC3    C7 5494   1.516   2.854   9.159 -0.6165 -1.1476  0.1772
  363TMC3    C8 5495   1.838   2.620   9.390 -0.7839 -0.0053  0.2717
  363TMC3    O1 5496   1.481   2.881   9.274 -0.1420  0.2194  0.0990
  363TMC3    O2 5497   1.804   2.692   9.482  0.2051  0.1659 -0.3503
  364MPD2     C 5498   0.840   1.541  10.515  0.1432 -0.4902  0.0015
  364MPD2    C1 5499   0.895   1.604  10.626  0.5196  1.0174 -0.4614
  364MPD2    C2 5500   0.924   1.528  10.739 -0.3763 -0.5962  0.7522
  364MPD2    C3 5501   0.904   1.393  10.730 -0.3188 -0.8211  0.2281
  364MPD2    C4 5502   0.833   1.337  10.625  0.7871  0.1316  0.1286
  364MPD2    C5 5503   0.807   1.411  10.517 -0.2885 -0.4888  0.7047
  364MPD2     H 5504   0.969   1.575  10.826  1.0857  0.0038 -0.3217
  364MPD2    H1 5505   0.814   1.231  10.634  0.7430  0.2526  1.4318
  364MPD2    H2 5506   0.817   1.599  10.426  1.3191 -1.6863 -1.0703
  364MPD2    H3 5507   0.759   1.362  10.433  1.2720 -0.1042 -0.4234
  364MPD2     N 5508   0.934   1.296  10.833  0.8657  0.3851  0.0105
  364MPD2    H5 5509   0.903   1.199  10.828 -1.4720  1.1100  0.2951
  364MPD2    N1 5510   0.915   1.747  10.609 -0.1459 -0.6428  0.2597
  364MPD2    H7 5511   0.888   1.784  10.519  2.2182 -2.4208 -1.1793
  365TMC3    C1 5512   1.029   1.953  10.623 -0.6106 -0.1944 -0.0621
  365TMC3    C2 5513   1.070   1.926  10.494 -0.5306  1.0628 -0.7745
  365TMC3    C3 5514   1.134   2.029  10.432  0.4868  0.5651 -0.4391
  365TMC3    C4 5515   1.022   2.080  10.666 -0.3696 -0.1353 -0.2491
  365TMC3    C5 5516   1.070   2.185  10.598 -0.1470  0.4663  0.2816
  365TMC3    C6 5517   1.126   2.157  10.478 -0.3291  0.3747  0.5871
  365TMC3     C 5518   0.978   1.836  10.693  0.2022  0.1220  0.3096
  365TMC3     O 5519   0.983   1.827  10.814  0.2766  0.1717  0.5477
  365TMC3     H 5520   1.071   1.830  10.444 -0.0937 -1.0522  3.2779
  365TMC3    H1 5521   0.978   2.099  10.763 -1.8686  2.1092 -1.3863
  365TMC3    H2 5522   1.174   2.237  10.423  0.9764 -0.6022  0.2951
  365TMC3    C7 5523   1.023   2.322  10.612  0.1554 -0.1914 -0.7373
  365TMC3    C8 5524   1.141   2.010  10.285  0.0091  1.0223  0.2295
  365TMC3    O1 5525   1.019   2.384  10.506  0.0034  0.3387 -0.1909
  365TMC3    O2 5526   1.062   1.930  10.248  0.3033 -0.1512 -0.5748
  366MPD2     C 5527   3.730   2.709  15.335  0.1894 -0.4342  0.2394
  366MPD2    C1 5528   3.835   2.797  15.340  0.0383 -0.6875  0.0030
  366MPD2    C2 5529   3.955   2.745  15.372 -0.4970 -0.1698 -0.6333
  366MPD2    C3 5530   3.983   2.611  15.380  0.9518 -0.2731 -0.0376
  366MPD2    C4 5531   3.877   2.523  15.361  0.6174  0.3965  0.4638
  366MPD2    C5 5532   3.745   2.577  15.345 -0.2280  0.2670  0.4640
  366MPD2     H 5533   4.040   2.809  15.397  0.0736 -1.2554  0.2340
  366MPD2    H1 5534   3.886   2.415  15.363  3.7368  0.6605  1.1062
  366MPD2    H2 5535   3.628   2.744  15.322  0.3525  0.7507  2.1180
  366MPD2    H3 5536   3.663   2.506  15.343 -0.5662  0.6272  2.2073
  366MPD2     N 5537   4.114   2.579  15.405 -0.6615  0.4710  0.7388
  366MPD2    H5 5538   4.172   2.656  15.435  0.9516 -0.2269 -0.5949
  366MPD2    N1 5539   3.829   2.934  15.340 -0.2171  0.2142 -0.5934
  366MPD2    H7 5540   3.918   2.980  15.359  0.1145 -1.2071  1.3491
  367TMC3    C1 5541   3.759   3.155  15.287  0.4353 -0.0821 -0.0018
  367TMC3    C2 5542   3.850   3.203  15.383  0.5899 -0.0772 -0.2375
  367TMC3    C3 5543   3.911   3.323  15.364  0.1349  0.7360 -0.4944
  367TMC3    C4 5544   3.740   3.221  15.170 -0.0936 -0.6977  0.0124
  367TMC3    C5 5545   3.799   3.342  15.157 -0.3469 -0.2404  0.2702
  367TMC3    C6 5546   3.888   3.400  15.251 -0.3434  0.2461  0.4634
  367TMC3     C 5547   3.725   3.009  15.292  0.1204 -0.4306  0.4358
  367TMC3     O 5548   3.637   2.978  15.214 -0.1808  0.3475  0.5425
  367TMC3     H 5549   3.867   3.146  15.474  0.9356 -2.3553 -1.7458
  367TMC3    H1 5550   3.680   3.176  15.091 -0.0606 -2.5670  1.0488
  367TMC3    H2 5551   3.955   3.482  15.231  0.7032  0.1132  3.4863
  367TMC3    C7 5552   3.753   3.428  15.040  0.8022 -0.6456 -0.7022
  367TMC3    C8 5553   4.009   3.379  15.457 -0.2775  0.6292  0.2898
  367TMC3    O1 5554   3.757   3.547  15.060 -0.2280 -0.1543 -0.0511
  367TMC3    O2 5555   4.083   3.303  15.523 -0.6025 -0.7341  0.3539
  368MPD2     C 5556   0.468   4.373  13.445 -0.0392  0.6821 -0.6342
  368MPD2    C1 5557   0.438   4.437  13.330 -0.3850 -0.1789 -0.4332
  368MPD2    C2 5558   0.541   4.506  13.261 -0.1638  0.1452 -0.1020
  368MPD2    C3 5559   0.671   4.505  13.312 -0.1066 -0.0034  0.0357
  368MPD2    C4 5560   0.701   4.430  13.422  0.0558  0.8223  0.1293
  368MPD2    C5 5561   0.597   4.369  13.488 -0.0964 -0.2017 -0.2808
  368MPD2     H 5562   0.518   4.557  13.168  0.1296  2.4470  1.0830
  368MPD2    H1 5563   0.802   4.427  13.462 -1.2891  1.6166  3.6006
  368MPD2    H2 5564   0.392   4.320  13.501  0.1163  0.3120 -0.7707
  368MPD2    H3 5565   0.622   4.315  13.578 -0.8560  0.6110  0.4068
  368MPD2     N 5566   0.777   4.577  13.239 -0.1290 -0.5960  0.4834
  368MPD2    H5 5567   0.872   4.574  13.273  0.4934  1.1914 -1.0891
  368MPD2    N1 5568   0.304   4.439  13.293 -0.3629 -0.1269  0.4417
  368MPD2    H7 5569   0.232   4.424  13.362 -0.5986 -1.4588 -0.1002
  369TMC3    C1 5570   0.132   4.557  13.184 -0.1703  0.2006 -0.5183
  369TMC3    C2 5571   0.128   4.669  13.099  0.0643 -0.4411  0.6663
  369TMC3    C3 5572   0.042   0.033  13.134 -0.2660  0.3215 -0.1587
  369TMC3    C4 5573   0.060   4.548  13.297  0.2060 -0.1837 -0.1445
  369TMC3    C5 5574   4.709   4.642  13.321  0.5827  0.6386  0.5099
  369TMC3    C6 5575   4.698   0.015  13.243 -0.1836  0.3798 -0.0635
  369TMC3     C 5576   0.260   4.490  13.179  0.5075  1.1072  0.0412
  369TMC3     O 5577   0.317   4.507  13.072 -0.2742 -0.2005 -0.0391
  369TMC3     H 5578   0.186   4.670  13.007 -1.2873 -1.5765 -0.2122
  369TMC3    H1 5579   0.063   4.461  13.362  1.5785 -0.7496 -0.9788
  369TMC3    H2 5580   4.650   0.102  13.287  0.9286  0.6768  0.5681
  369TMC3    C7 5581   4.618   4.609  13.426 -0.6433 -0.3461 -0.5967
  369TMC3    C8 5582   0.118   0.159  13.134  0.0695  0.8645 -0.3427
  369TMC3    O1 5583   4.645   4.519  13.506 -0.2132  0.0670 -0.4056
  369TMC3    O2 5584   0.054   0.264  13.136  0.2350  0.1627 -0.1790
  370TMC3    C1 5585   4.578   0.933  16.158  0.0419  0.4465 -0.2507
  370TMC3    C2 5586   4.481   0.873  16.243  0.2728 -0.3075 -0.2390
  370TMC3    C3 5587   4.461   0.741  16.223  0.2588 -0.1513  0.5858
  370TMC3    C4 5588   4.644   0.863  16.064  0.2810 -0.1247  0.2561
  370TMC3    C5 5589   4.594   0.742  16.032 -0.4724 -0.2405 -0.6776
  370TMC3    C6 5590   4.509   0.675  16.114  0.2983  0.1176  0.2348
  370TMC3     C 5591   4.657   1.029  16.239  0.1848  0.8134 -0.2232
  370TMC3     O 5592   4.648   1.024  16.361  0.8950 -0.1516 -0.0764
  370TMC3     H 5593   4.420   0.933  16.309  0.8006 -1.1913  1.0653
  370TMC3    H1 5594   4.708   0.918  15.996 -0.0179 -2.3050 -1.8001
  370TMC3    H2 5595   4.487   0.570  16.099  0.0725  0.5387 -2.4839
  370TMC3    C7 5596   4.663   0.668  15.926 -0.0025 -0.1474 -0.4320
  370TMC3    C8 5597   4.409   0.658  16.329 -0.1489  0.1678 -0.1384
  370TMC3    O1 5598   4.713   0.740  15.840 -0.6531  0.1809 -0.0076
  370TMC3    O2 5599   4.405   0.536  16.319  0.0765  0.0973 -0.1383
  371TMC3    C1 5600   1.114   3.722  15.417 -0.5900  0.4300 -0.5205
  371TMC3    C2 5601   0.992   3.740  15.484 -0.6377  0.5768 -0.9741
  371TMC3    C3 5602   0.941   3.868  15.477  0.2514 -0.0119  0.9662
  371TMC3    C4 5603   1.171   3.820  15.347  0.1154 -0.2938  0.5670
  371TMC3    C5 5604   1.111   3.941  15.340 -0.1905  0.0627 -0.1121
  371TMC3    C6 5605   0.992   3.967  15.398  0.3531  0.2843 -0.6061
  371TMC3     C 5606   1.179   3.596  15.416  0.0947 -0.5050 -0.0404
  371TMC3     O 5607   1.292   3.597  15.374  0.5052 -0.0378  0.1942
  371TMC3     H 5608   0.938   3.667  15.544 -0.9525  1.2683 -0.4215
  371TMC3    H1 5609   1.271   3.811  15.306 -0.4396 -3.1544 -0.1792
  371TMC3    H2 5610   0.943   4.064  15.392  0.9351  0.3746 -3.8504
  371TMC3    C7 5611   1.176   4.056  15.273  0.2133  0.2977 -0.1869
  371TMC3    C8 5612   0.800   3.873  15.515  0.5969 -0.4449  0.0632
  371TMC3    O1 5613   1.101   4.142  15.236  0.0703 -0.3079  0.0667
  371TMC3    O2 5614   0.734   3.768  15.510 -0.4782 -0.7650 -0.3325
  372MPD2     C 5615   1.102   0.326  13.218  0.1211  0.0818 -0.8096
  372MPD2    C1 5616   1.173   0.230  13.286  0.6950 -0.1054 -0.4558
  372MPD2    C2 5617   1.108   0.149  13.385 -0.2862 -0.5065  0.3050
  372MPD2    C3 5618   0.978   0.167  13.427 -0.4369 -0.4065 -0.0148
  372MPD2    C4 5619   0.913   0.275  13.368 -0.1438  0.5375  0.0673
  372MPD2    C5 5620   0.974   0.342  13.263 -0.2108 -0.2462  0.2237
  372MPD2     H 5621   1.161   0.061  13.421 -0.8318 -1.2804 -0.7967
  372MPD2    H1 5622   0.806   0.286  13.380 -0.5851 -2.4575 -1.0469
  372MPD2    H2 5623   1.144   0.394  13.145 -0.9831  0.4298 -1.1257
  372MPD2    H3 5624   0.915   0.416  13.209 -0.5288 -1.8055 -1.5530
  372MPD2     N 5625   0.917   0.079  13.522 -0.4614 -0.0136 -0.7851
  372MPD2    H5 5626   0.974   0.005  13.559 -1.9951 -1.0560 -0.5170
  372MPD2    N1 5627   1.308   0.200  13.274 -0.4703  0.1149 -1.1050
  372MPD2    H7 5628   1.344   0.138  13.345  0.0198  0.4898 -1.0315
  373TMC3    C1 5629   0.750   4.713  13.644 -0.5528 -0.3489 -0.1739
  373TMC3    C2 5630   0.624   4.720  13.699 -0.0600 -0.6551 -0.8373
  373TMC3    C3 5631   0.581   4.625  13.787 -0.0892 -0.2068  0.1479
  373TMC3    C4 5632   0.826   4.600  13.666  0.2817 -0.1045 -0.7560
  373TMC3    C5 5633   0.778   4.496  13.751 -0.1304  0.1603 -0.2346
  373TMC3    C6 5634   0.653   4.507  13.815  0.3305 -0.3824 -0.1449
  373TMC3     C 5635   0.795   0.097  13.574  0.4042  0.7362 -0.5442
  373TMC3     O 5636   0.708   0.186  13.555  0.5724  0.2851  0.2690
  373TMC3     H 5637   0.559   0.068  13.689  0.8409 -0.0754 -1.7500
  373TMC3    H1 5638   0.920   4.583  13.614  1.6064  1.6133  1.1070
  373TMC3    H2 5639   0.622   4.439  13.893 -2.4258  3.5915  2.2722
  373TMC3    C7 5640   0.863   4.378  13.774  0.1778 -0.9389 -0.9115
  373TMC3    C8 5641   0.441   4.639  13.823  0.0443 -0.0061 -0.4103
  373TMC3    O1 5642   0.931   4.335  13.680 -0.7047  0.3552 -0.0524
  373TMC3    O2 5643   0.363   4.618  13.731  0.1477  0.0306  0.6572
  374TMC3    C1 5644   0.999   0.416  10.598 -1.1238  0.1469  0.0495
  374TMC3    C2 5645   1.111   0.492  10.559  0.2783 -0.2439  0.2933
  374TMC3    C3 5646   1.090   0.580  10.456  0.2468  0.6161 -0.0595
  374TMC3    C4 5647   0.881   0.415  10.531  0.2122  0.2279  0.0063
  374TMC3    C5 5648   0.870   0.492  10.423  0.0551 -0.0043 -0.1158
  374TMC3    C6 5649   0.973   0.593  10.395 -0.4299 -0.1757  0.0080
  374TMC3     C 5650   1.038   0.317  10.695 -0.5694  0.5233 -0.4452
  374TMC3     O 5651   1.148   0.320  10.744 -0.0430 -0.0285  0.3472
  374TMC3     H 5652   1.204   0.495  10.615  0.5882  1.5474 -0.3178
  374TMC3    H1 5653   0.799   0.344  10.546  0.4979 -0.0920  0.0618
  374TMC3    H2 5654   0.966   0.663  10.313 -0.2075  1.6288  1.5281
  374TMC3    C7 5655   0.743   0.500  10.352 -0.7122  0.4644  0.2881
  374TMC3    C8 5656   1.202   0.669  10.417 -0.0531  0.2172 -0.3347
  374TMC3    O1 5657   0.660   0.425  10.393 -0.2489  0.5790 -0.5442
  374TMC3    O2 5658   1.211   0.707  10.302  0.3677  0.3128 -0.0083
  375MPD2     C 5659   1.291   1.730  17.008 -0.4427 -0.1955  0.4104
  375MPD2    C1 5660   1.175   1.682  16.948  0.0593 -0.4405  0.6016
  375MPD2    C2 5661   1.189   1.575  16.865 -0.0670  0.6279 -0.1095
  375MPD2    C3 5662   1.312   1.519  16.829  0.0019 -0.5422  0.3024
  375MPD2    C4 5663   1.426   1.576  16.884 -0.3968 -0.2126  0.6844
  375MPD2    C5 5664   1.416   1.680  16.969 -1.0022 -0.0900  0.1155
  375MPD2     H 5665   1.098   1.538  16.818  0.3155  0.3753 -0.6483
  375MPD2    H1 5666   1.523   1.539  16.853 -1.5504 -2.1865 -0.5533
  375MPD2    H2 5667   1.285   1.819  17.069 -0.7401 -0.2761  0.4996
  375MPD2    H3 5668   1.511   1.721  17.001 -0.6401  0.2189 -1.3572
  375MPD2     N 5669   1.341   1.410  16.748  0.0647  0.3439  0.5776
  375MPD2    H5 5670   1.434   1.370  16.752 -0.6783 -1.3550  1.1532
  375MPD2    N1 5671   1.049   1.733  16.972  0.0168 -0.8509  0.0571
  375MPD2    H7 5672   0.977   1.681  16.923  0.2504 -1.1735  0.0557
  376TMC3    C1 5673   1.291   1.207  16.626  0.1603 -0.0759  0.0635
  376TMC3    C2 5674   1.410   1.156  16.666  0.6538 -0.3105 -0.2364
  376TMC3    C3 5675   1.474   1.072  16.573  0.5677  0.8177  0.4403
  376TMC3    C4 5676   1.231   1.182  16.505 -0.0284 -0.0492 -0.2082
  376TMC3    C5 5677   1.303   1.104  16.418 -0.7251  0.4865 -0.1902
  376TMC3    C6 5678   1.426   1.055  16.449 -0.4224  0.3380  0.3494
  376TMC3     C 5679   1.240   1.331  16.686 -0.5853  0.4478  0.5943
  376TMC3     O 5680   1.121   1.348  16.673  0.3999  0.4987 -0.0271
  376TMC3     H 5681   1.463   1.180  16.757  1.2811 -1.5779 -0.2754
  376TMC3    H1 5682   1.132   1.218  16.479  0.2603 -0.9084 -2.4564
  376TMC3    H2 5683   1.485   1.007  16.373 -0.4813  1.1874 -0.2279
  376TMC3    C7 5684   1.259   1.091  16.286  0.1583 -0.2214  0.0638
  376TMC3    C8 5685   1.618   1.057  16.595  0.2493  0.0840 -0.3352
  376TMC3    O1 5686   1.337   1.107  16.196 -0.0002 -0.4033 -0.1417
  376TMC3    O2 5687   1.675   1.083  16.492  0.2330  0.3439  0.4220
  377MPD2     C 5688   4.560   0.288  13.414  0.1082 -0.1279 -0.7815
  377MPD2    C1 5689   4.472   0.333  13.317 -0.3715  0.4516 -0.5375
  377MPD2    C2 5690   4.337   0.350  13.352  0.3428 -0.6121 -0.6465
  377MPD2    C3 5691   4.288   0.314  13.482 -0.1438 -0.3455 -0.2075
  377MPD2    C4 5692   4.378   0.268  13.575 -0.1154  0.6442 -0.3321
  377MPD2    C5 5693   4.510   0.258  13.545 -0.1660 -0.5539 -0.8456
  377MPD2     H 5694   4.267   0.368  13.271 -0.0849 -1.5616 -0.4938
  377MPD2    H1 5695   4.350   0.234  13.674 -1.6120 -2.4958 -1.8246
  377MPD2    H2 5696   4.663   0.263  13.392 -0.4727 -1.9776 -1.3891
  377MPD2    H3 5697   4.577   0.211  13.616  0.6853  3.8082  1.2748
  377MPD2     N 5698   4.156   0.330  13.518  0.2707  0.9809  0.0740
  377MPD2    H5 5699   4.133   0.291  13.610 -0.0652 -0.6507 -0.6985
  377MPD2    N1 5700   4.513   0.341  13.180 -0.2937 -0.7291  0.5899
  377MPD2    H7 5701   4.608   0.317  13.154 -0.6183 -0.1231 -1.1323
  378TMC3    C1 5702   4.518   0.453  12.715  0.3307  0.2839  0.1512
  378TMC3    C2 5703   4.477   0.467  12.844  0.1970  0.3065 -0.3836
  378TMC3    C3 5704   4.523   0.384  12.942  1.0553 -0.5021  0.4329
  378TMC3    C4 5705   4.607   0.355  12.683  0.6509 -0.0783  0.7926
  378TMC3    C5 5706   4.650   0.268  12.781  0.0137  0.2145  0.1239
  378TMC3    C6 5707   4.606   0.278  12.911  0.3085 -0.5671 -0.5020
  378TMC3     C 5708   4.445   0.532  12.619 -0.5408  0.3452  0.4398
  378TMC3     O 5709   4.371   0.619  12.663  0.2836  0.0695  0.0582
  378TMC3     H 5710   4.406   0.546  12.865 -0.4651 -0.9352  1.9752
  378TMC3    H1 5711   4.643   0.340  12.582 -0.8154 -0.4789  0.3242
  378TMC3    H2 5712   4.631   0.199  12.981  0.8515  0.0496  0.0017
  378TMC3    C7 5713   0.034   0.188  12.759 -0.0997 -0.1877 -0.5262
  378TMC3    C8 5714   4.445   0.393  13.065  0.1557 -0.8523 -0.0682
  378TMC3    O1 5715   0.062   0.106  12.845  0.5398 -0.1258 -0.3604
  378TMC3    O2 5716   4.334   0.445  13.054  0.0122 -0.2754 -0.2885
  379MPD2     C 5717   4.586   3.522  16.487 -0.2152  0.0526 -0.0366
  379MPD2    C1 5718   4.693   3.500  16.405 -0.5947 -0.3470  0.3626
  379MPD2    C2 5719   0.079   3.462  16.460  1.1428 -0.4782 -0.4626
  379MPD2    C3 5720   0.092   3.439  16.594 -0.9799 -0.2966  0.2123
  379MPD2    C4 5721   4.719   3.461  16.671 -0.0564 -0.5096 -0.1324
  379MPD2    C5 5722   4.600   3.501  16.619  0.2527  0.0870  0.2600
  379MPD2     H 5723   0.165   3.468  16.394  3.3405 -1.0235  2.3437
  379MPD2    H1 5724   4.725   3.469  16.779  0.7633  0.1722 -0.2232
  379MPD2    H2 5725   4.497   3.567  16.444 -0.0949  0.3943  0.0742
  379MPD2    H3 5726   4.520   3.534  16.685  0.6927  1.3669  0.1551
  379MPD2     N 5727   0.210   3.412  16.667  0.1675 -0.5747  0.5441
  379MPD2    H5 5728   0.199   3.395  16.767  3.6588  1.3176  1.2435
  379MPD2    N1 5729   4.676   3.524  16.264 -0.0507 -0.1632  0.4870
  379MPD2    H7 5730   4.588   3.566  16.235  0.8238  1.0314 -0.4258
  380TMC3    C1 5731   4.733   3.523  16.033 -0.4806  0.4523 -0.5281
  380TMC3    C2 5732   0.093   3.498  15.939  0.4856  0.2415  0.1543
  380TMC3    C3 5733   0.052   3.513  15.803 -0.1077  0.0087  0.2761
  380TMC3    C4 5734   4.608   3.565  15.996 -0.0116  0.2549  0.4435
  380TMC3    C5 5735   4.577   3.585  15.865 -0.3265  0.2116  0.3566
  380TMC3    C6 5736   4.668   3.570  15.760  0.3253  0.0654 -0.5180
  380TMC3     C 5737   0.031   3.496  16.168  0.2379 -0.0479  0.1264
  380TMC3     O 5738   0.130   3.425  16.181  0.2774  0.2997 -0.4866
  380TMC3     H 5739   0.194   3.471  15.967  0.9412  2.0379  0.2666
  380TMC3    H1 5740   4.535   3.600  16.068 -0.9641 -3.4513  1.2859
  380TMC3    H2 5741   4.638   3.574  15.656  1.2753 -1.1179 -0.8315
  380TMC3    C7 5742   4.460   3.666  15.836 -0.2754  0.4730  0.3622
  380TMC3    C8 5743   0.140   3.475  15.693 -0.5876  0.4065 -0.1714
  380TMC3    O1 5744   4.427   3.755  15.914  0.0985  0.4637  0.0654
  380TMC3    O2 5745   0.099   3.486  15.581 -0.1920 -0.3720 -0.4396
  381TMC3    C1 5746   4.247   0.191  16.227 -0.7025  0.7098 -0.3496
  381TMC3    C2 5747   4.374   0.225  16.194  0.1505  0.0233  0.3398
  381TMC3    C3 5748   4.469   0.209  16.286  0.1974 -0.3944  0.2575
  381TMC3    C4 5749   4.211   0.159  16.354  0.3254  0.4625 -0.4287
  381TMC3    C5 5750   4.315   0.141  16.445  0.0055 -0.6837  0.1454
  381TMC3    C6 5751   4.438   0.176  16.411 -0.1904 -0.0710 -0.1350
  381TMC3     C 5752   4.141   0.246  16.147 -0.2997 -0.4229  0.2516
  381TMC3     O 5753   4.039   0.284  16.200  0.2350  0.1472 -0.1525
  381TMC3     H 5754   4.406   0.259  16.096  1.0204 -0.5668  0.4178
  381TMC3    H1 5755   4.111   0.128  16.383  0.8473  0.2448  1.1038
  381TMC3    H2 5756   4.523   0.169  16.479 -0.8823  1.3271  0.8677
  381TMC3    C7 5757   4.290   0.091  16.578  0.2968  0.0819 -0.2401
  381TMC3    C8 5758   4.592   0.287  16.270 -0.1643 -0.1598 -0.6022
  381TMC3    O1 5759   4.374   0.009  16.616  0.4908  0.3330  0.2734
  381TMC3    O2 5760   4.643   0.270  16.159 -0.1409 -0.3233  0.4893
  382MPD2     C 5761   4.077   2.933  17.019  0.5072  0.3637 -0.0960
  382MPD2    C1 5762   3.973   2.905  17.108 -0.0190  0.1489  0.8824
  382MPD2    C2 5763   3.921   2.778  17.121 -0.0352 -0.1434  0.9059
  382MPD2    C3 5764   3.980   2.681  17.042 -1.2386 -1.2729  0.1949
  382MPD2    C4 5765   4.085   2.706  16.957 -0.0965  0.4325  0.2643
  382MPD2    C5 5766   4.130   2.837  16.943 -0.8360  0.0358 -0.8234
  382MPD2     H 5767   3.835   2.756  17.183  0.4096  0.4270  1.7151
  382MPD2    H1 5768   4.112   2.627  16.888  0.5208 -0.2772  1.3127
  382MPD2    H2 5769   4.099   3.038  17.004 -0.5229  0.3495 -1.7079
  382MPD2    H3 5770   4.194   2.858  16.857 -0.3592  1.2441 -0.1660
  382MPD2     N 5771   3.942   2.546  17.048  0.3193 -0.3241  0.3097
  382MPD2    H5 5772   3.984   2.481  16.981 -0.9369  0.5888 -1.3595
  382MPD2    N1 5773   3.929   3.009  17.192  0.4884  0.0938 -0.1824
  382MPD2    H7 5774   3.869   2.991  17.272 -0.4194 -1.7129 -1.2763
  383TMC3    C1 5775   3.848   2.347  17.125  0.3488 -0.1738 -0.4353
  383TMC3    C2 5776   3.731   2.274  17.134 -0.4134  0.1273  0.6431
  383TMC3    C3 5777   3.731   2.142  17.111 -0.6849  0.7568 -0.0477
  383TMC3    C4 5778   3.965   2.287  17.084  0.2797 -0.4599 -0.1915
  383TMC3    C5 5779   3.961   2.152  17.063 -0.7101 -0.1334  0.1968
  383TMC3    C6 5780   3.848   2.072  17.081 -0.0073 -1.0994 -0.4849
  383TMC3     C 5781   3.852   2.485  17.135 -0.4775  0.7839  0.0975
  383TMC3     O 5782   3.778   2.538  17.218  0.3790 -0.2540 -0.1058
  383TMC3     H 5783   3.638   2.325  17.158 -1.6422 -0.8185 -2.1591
  383TMC3    H1 5784   4.062   2.335  17.084 -0.1765  0.4503 -0.6089
  383TMC3    H2 5785   3.861   1.965  17.073  1.7169 -0.7661 -2.0894
  383TMC3    C7 5786   4.053   2.089  16.963 -0.1854  0.8202 -0.4019
  383TMC3    C8 5787   3.605   2.075  17.104  0.4313  0.0123 -0.8853
  383TMC3    O1 5788   4.017   1.991  16.908  0.0213  0.7443  0.1047
  383TMC3    O2 5789   3.509   2.149  17.077 -0.7855  0.1165  0.6644
  384MPD2     C 5790   0.994   3.516  12.707 -0.5039  0.0796 -0.5185
  384MPD2    C1 5791   1.008   3.393  12.762  0.7602 -0.5837  0.0945
  384MPD2    C2 5792   1.061   3.290  12.683 -0.9917 -0.2518 -1.0185
  384MPD2    C3 5793   1.075   3.306  12.552  0.7137  0.2568  0.1729
  384MPD2    C4 5794   1.067   3.430  12.494  0.5767 -0.5132  1.0800
  384MPD2    C5 5795   1.023   3.534  12.581  0.2068 -1.0799  0.0395
  384MPD2     H 5796   1.065   3.187  12.717 -0.7891  0.0107 -0.2649
  384MPD2    H1 5797   1.080   3.443  12.387 -1.8652 -0.8339  0.7458
  384MPD2    H2 5798   0.968   3.602  12.768  0.2749 -0.4714  0.5832
  384MPD2    H3 5799   1.005   3.634  12.542  0.1121 -0.6868  1.0916
  384MPD2     N 5800   1.120   3.189  12.479  1.2179  0.4082  0.1920
  384MPD2    H5 5801   1.108   3.107  12.537  2.7493  0.3943  0.5033
  384MPD2    N1 5802   0.967   3.361  12.897 -0.2156 -0.3924 -0.2940
  384MPD2    H7 5803   0.981   3.263  12.915 -0.2592 -0.4063 -0.3353
  385TMC3    C1 5804   1.160   3.033  12.317 -0.5527  0.6701  0.2232
  385TMC3    C2 5805   1.105   2.988  12.203  0.3017 -0.2024  0.4436
  385TMC3    C3 5806   1.045   2.863  12.204 -0.5348 -0.3663 -0.6201
  385TMC3    C4 5807   1.169   2.952  12.425 -0.0711  1.2921  0.3897
  385TMC3    C5 5808   1.111   2.832  12.428  0.1819  0.1767  0.0708
  385TMC3    C6 5809   1.047   2.785  12.318  0.3514 -0.0176 -0.2806
  385TMC3     C 5810   1.144   3.175  12.347  0.0876  0.3749  0.0406
  385TMC3     O 5811   1.155   3.261  12.260  0.0915  0.3633 -0.2834
  385TMC3     H 5812   1.106   3.055  12.118  1.2678 -1.4130 -0.5101
  385TMC3    H1 5813   1.232   2.982  12.508  1.0172 -1.3136  0.4789
  385TMC3    H2 5814   0.985   2.696  12.321  0.5288 -0.1540 -0.6998
  385TMC3    C7 5815   1.047   2.835  12.557 -0.1906  0.5256  0.1652
  385TMC3    C8 5816   1.008   2.807  12.070  0.8771  0.6930  1.0965
  385TMC3    O1 5817   1.033   2.952  12.600 -0.4495  0.1826 -0.4060
  385TMC3    O2 5818   0.969   2.888  11.985 -0.1542 -0.2163  0.2853
  386TMC3    C1 5819   1.323   0.529  12.057  0.2165 -0.7968  0.5285
  386TMC3    C2 5820   1.253   0.551  11.942 -0.1628  1.7921  0.8267
  386TMC3    C3 5821   1.121   0.573  11.953 -0.6599 -0.5649  0.5406
  386TMC3    C4 5822   1.263   0.523  12.178  0.6042  0.7429 -0.3474
  386TMC3    C5 5823   1.127   0.557  12.182 -0.2049 -0.3568  0.5801
  386TMC3    C6 5824   1.059   0.589  12.073  0.3988 -0.2875  0.1464
  386TMC3     C 5825   1.460   0.494  12.051 -0.0753  0.7238 -0.3542
  386TMC3     O 5826   1.532   0.591  12.035  0.5574  0.4111 -0.0425
  386TMC3     H 5827   1.313   0.533  11.854 -2.3626 -0.7920 -0.1654
  386TMC3    H1 5828   1.330   0.510  12.262  0.1541 -1.0157 -0.2642
  386TMC3    H2 5829   0.952   0.606  12.070  0.5643  0.3999 -2.1282
  386TMC3    C7 5830   1.061   0.604  12.298  0.1022  0.2451 -0.1741
  386TMC3    C8 5831   1.033   0.576  11.842  0.0140  0.2453  0.7923
  386TMC3    O1 5832   0.975   0.528  12.347 -0.3017  0.0567 -0.6447
  386TMC3    O2 5833   0.914   0.557  11.854  0.4454  0.2445 -0.0839
  387MPD2     C 5834   2.998   1.017  10.378 -0.2938 -0.4738 -1.1316
  387MPD2    C1 5835   3.059   0.928  10.469  0.1460 -0.1792 -0.0917
  387MPD2    C2 5836   3.083   0.800  10.435 -0.0596 -0.1038 -0.3232
  387MPD2    C3 5837   3.066   0.748  10.312 -0.4996 -0.8058 -0.0201
  387MPD2    C4 5838   3.015   0.833  10.215 -0.3844 -0.2845  0.1788
  387MPD2    C5 5839   2.977   0.962  10.252  0.4550  0.5616  0.5638
  387MPD2     H 5840   3.117   0.735  10.515  1.2843  0.0048 -0.8032
  387MPD2    H1 5841   2.993   0.800  10.114 -0.8652 -0.1855  0.2516
  387MPD2    H2 5842   2.972   1.120  10.397 -2.0738 -1.3120  1.0008
  387MPD2    H3 5843   2.926   1.024  10.179 -2.0835  0.5710  2.3327
  387MPD2     N 5844   3.082   0.611  10.288  0.4204 -0.1101 -0.2254
  387MPD2    H5 5845   3.097   0.559  10.373  2.0300  0.4279 -0.1835
  387MPD2    N1 5846   3.084   0.960  10.605 -0.0592 -0.1273  0.8321
  387MPD2    H7 5847   3.099   0.879  10.664  1.1004 -0.4970  0.0352
  388TMC3    C1 5848   3.174   1.085  10.778 -0.7883  0.1583  0.4611
  388TMC3    C2 5849   3.154   1.164  10.894  0.2565 -0.5773  0.2878
  388TMC3    C3 5850   3.248   1.148  10.994  0.2863 -0.7017 -0.3888
  388TMC3    C4 5851   3.288   1.010  10.751  0.5565  0.4196 -0.2334
  388TMC3    C5 5852   3.381   1.013  10.858  0.1290  0.7325  0.0275
  388TMC3    C6 5853   3.363   1.075  10.976 -0.4304  0.1661 -0.0766
  388TMC3     C 5854   3.074   1.083  10.670 -0.5938  0.0711 -0.4733
  388TMC3     O 5855   3.023   1.186  10.630  0.0881 -0.4843 -0.2207
  388TMC3     H 5856   3.058   1.211  10.915  0.2051  0.3878 -2.1043
  388TMC3    H1 5857   3.316   0.993  10.648  0.6910  0.5106 -0.2118
  388TMC3    H2 5858   3.439   1.073  11.054 -0.0988 -0.5540 -0.4073
  388TMC3    C7 5859   3.482   0.904  10.861 -0.1939 -0.6717  0.3169
  388TMC3    C8 5860   3.250   1.232  11.116  0.2626 -0.1267 -0.4804
  388TMC3    O1 5861   3.580   0.898  10.932 -0.4071  0.4145 -0.9694
  388TMC3    O2 5862   3.344   1.212  11.192 -0.3201  0.4602  0.1636
  389MPD2     C 5863   2.289   4.068  10.906 -0.2929  0.3018  0.3082
  389MPD2    C1 5864   2.309   3.937  10.869 -0.8229  0.3359 -0.1207
  389MPD2    C2 5865   2.324   3.840  10.975 -0.1582  0.3191  0.0244
  389MPD2    C3 5866   2.308   3.874  11.106  0.6259  0.5536 -0.2208
  389MPD2    C4 5867   2.262   4.007  11.138  0.1253 -0.0787  0.1866
  389MPD2    C5 5868   2.249   4.098  11.033 -0.0334 -0.2820 -0.2403
  389MPD2     H 5869   2.348   3.738  10.945  0.3540  0.6119 -0.5565
  389MPD2    H1 5870   2.228   4.022  11.239  1.8769 -0.4299  0.8289
  389MPD2    H2 5871   2.303   4.142  10.828 -1.3271 -1.1926 -1.2822
  389MPD2    H3 5872   2.220   4.201  11.052  0.8258  0.4236 -2.7825
  389MPD2     N 5873   2.326   3.782  11.210  0.3352 -0.1169  0.0343
  389MPD2    H5 5874   2.338   3.800  11.309  1.7054 -2.9170  0.4018
  389MPD2    N1 5875   2.322   3.910  10.728 -0.9181 -0.1353 -0.1483
  389MPD2    H7 5876   2.307   3.984  10.660  0.4710  2.2668  2.1249
  390TMC3    C1 5877   2.333   3.574  11.317 -0.3613  0.6840  0.1970
  390TMC3    C2 5878   2.282   3.448  11.329 -0.9116  0.5329  0.3262
  390TMC3    C3 5879   2.248   3.405  11.450 -0.1828 -0.1494 -0.2043
  390TMC3    C4 5880   2.366   3.650  11.428 -0.7446  0.0167  0.2047
  390TMC3    C5 5881   2.339   3.592  11.545  0.7264 -0.1949  0.3663
  390TMC3    C6 5882   2.273   3.475  11.561  0.4677 -0.1326 -0.1044
  390TMC3     C 5883   2.326   3.646  11.185  0.0064 -0.5348  0.8755
  390TMC3     O 5884   2.291   3.579  11.086  0.3237 -0.0132  0.3326
  390TMC3     H 5885   2.254   3.386  11.245  0.8473 -1.8708  1.5415
  390TMC3    H1 5886   2.427   3.739  11.420  1.0725 -1.3056 -0.8633
  390TMC3    H2 5887   2.275   3.430  11.660  0.1576  3.4648  1.5186
  390TMC3    C7 5888   2.367   3.681  11.652  0.1958  0.2289  0.3175
  390TMC3    C8 5889   2.153   3.296  11.464  0.1157  0.2529  0.2892
  390TMC3    O1 5890   2.453   3.764  11.643  0.8367 -0.2300  0.4187
  390TMC3    O2 5891   2.165   3.211  11.377  0.3861  0.4460  0.0650
  391MPD2     C 5892   1.779   0.723  11.880  0.2642 -0.1972  0.6582
  391MPD2    C1 5893   1.903   0.729  11.826  0.2862  0.6088  0.6556
  391MPD2    C2 5894   1.919   0.751  11.690 -0.0350 -0.1989 -0.0506
  391MPD2    C3 5895   1.808   0.769  11.604 -0.6779 -0.0885  1.2473
  391MPD2    C4 5896   1.683   0.774  11.663  0.5266 -1.4822  0.0941
  391MPD2    C5 5897   1.675   0.748  11.797  0.0777  0.3616 -0.0528
  391MPD2     H 5898   2.016   0.741  11.644 -0.0805  0.8465 -0.3868
  391MPD2    H1 5899   1.593   0.795  11.606  0.1008  1.1051  1.6984
  391MPD2    H2 5900   1.753   0.714  11.985  2.6953 -1.6253  1.1461
  391MPD2    H3 5901   1.579   0.760  11.844  0.3121 -2.2057  1.0666
  391MPD2     N 5902   1.832   0.785  11.463  0.0512  0.0569 -0.5266
  391MPD2    H5 5903   1.923   0.759  11.427 -0.9762 -3.7512 -0.3904
  391MPD2    N1 5904   2.007   0.727  11.921 -0.5125  0.2284 -0.1125
  391MPD2    H7 5905   1.982   0.718  12.019  0.0240  0.3728  0.0360
  392TMC3    C1 5906   1.786   0.834  11.242  0.0243 -0.0401 -0.4521
  392TMC3    C2 5907   1.696   0.811  11.145  0.5306  0.8863  0.7689
  392TMC3    C3 5908   1.729   0.864  11.020 -0.8068  0.1565 -0.2178
  392TMC3    C4 5909   1.896   0.913  11.232 -0.6811 -0.2145  0.5667
  392TMC3    C5 5910   1.920   0.967  11.102 -0.0549  0.2045 -0.3503
  392TMC3    C6 5911   1.845   0.935  10.994  0.6754 -0.4014 -0.4992
  392TMC3     C 5912   1.734   0.817  11.375  0.1998  0.0141 -0.8474
  392TMC3     O 5913   1.612   0.810  11.382 -0.2194 -0.7811 -0.2313
  392TMC3     H 5914   1.601   0.761  11.163  0.0630  1.5251  0.0889
  392TMC3    H1 5915   1.956   0.936  11.319  0.2101  0.6419 -0.2664
  392TMC3    H2 5916   1.866   0.978  10.897  1.6997  0.2406  0.0168
  392TMC3    C7 5917   2.035   1.054  11.094  0.4738  0.2733 -0.1549
  392TMC3    C8 5918   1.633   0.828  10.913 -0.2953 -0.0680  0.4668
  392TMC3    O1 5919   2.046   1.122  11.196 -0.3409 -0.3611 -0.4270
  392TMC3    O2 5920   1.531   0.770  10.944 -0.0700 -0.0881 -0.5140
  393TMC3    C1 5921   1.271   3.180  11.007 -0.2689 -0.1904 -0.0122
  393TMC3    C2 5922   1.170   3.115  11.077  0.4161  0.0456  0.2932
  393TMC3    C3 5923   1.125   2.999  11.021  0.0838  0.2312 -0.1589
  393TMC3    C4 5924   1.346   3.122  10.914  0.3578 -1.0243 -0.5779
  393TMC3    C5 5925   1.301   3.000  10.868  0.0500 -0.4542  0.2961
  393TMC3    C6 5926   1.180   2.952  10.912 -0.2204  0.4842 -0.2441
  393TMC3     C 5927   1.240   3.318  10.975  0.0394 -0.2538 -0.4539
  393TMC3     O 5928   1.126   3.356  11.009 -0.2835 -0.4849  0.1051
  393TMC3     H 5929   1.104   3.177  11.137  0.5117 -0.8006  1.2799
  393TMC3    H1 5930   1.440   3.169  10.886 -0.0326  2.0036  3.1913
  393TMC3    H2 5931   1.146   2.854  10.879  1.3013 -0.2319  0.2818
  393TMC3    C7 5932   1.347   2.953  10.739  0.2903 -0.1707 -0.0344
  393TMC3    C8 5933   0.982   2.970  11.045  0.7509  0.5965  0.0176
  393TMC3    O1 5934   1.263   2.899  10.666 -0.2432 -0.0643  0.0061
  393TMC3    O2 5935   0.928   2.912  10.950 -0.0951  0.0785 -0.3296
  394TMC3    C1 5936   2.385   3.804  10.532  0.1965 -0.3729 -1.5387
  394TMC3    C2 5937   2.337   3.712  10.443 -0.4962 -0.0634 -0.2884
  394TMC3    C3 5938   2.354   3.739  10.306  0.9133  0.0939  0.1224
  394TMC3    C4 5939   2.425   3.928  10.482  0.4098 -0.4892  0.7523
  394TMC3    C5 5940   2.441   3.949  10.350 -0.0072  0.2445  0.2427
  394TMC3    C6 5941   2.411   3.858  10.259  0.1861  0.8025 -1.2884
  394TMC3     C 5942   2.354   3.789  10.671 -0.1568 -0.8652 -0.1414
  394TMC3     O 5943   2.379   3.676  10.716 -0.0709 -0.1137 -0.0934
  394TMC3     H 5944   2.321   3.613  10.483 -0.5614  0.4924  1.0331
  394TMC3    H1 5945   2.438   4.009  10.554  0.6901 -1.0752  1.3583
  394TMC3    H2 5946   2.415   3.880  10.153 -1.0848 -2.5989 -2.0328
  394TMC3    C7 5947   2.515   4.062  10.313  0.1842  0.7208 -0.0059
  394TMC3    C8 5948   2.304   3.640  10.211  0.0416 -0.1613 -0.7417
  394TMC3    O1 5949   2.476   4.098  10.200  0.1229  0.2053  0.1841
  394TMC3    O2 5950   2.271   3.686  10.099  0.2664 -0.0706  0.1129
  395TMC3    C1 5951   2.499   0.848  14.880 -0.3903 -0.1386 -0.2600
  395TMC3    C2 5952   2.364   0.853  14.871  0.6277  0.2061  0.5564
  395TMC3    C3 5953   2.306   0.960  14.811  0.1139 -0.5701  0.0310
  395TMC3    C4 5954   2.575   0.946  14.818 -0.9471  0.5429 -0.1680
  395TMC3    C5 5955   2.507   1.049  14.763  0.4056  0.1629 -0.0707
  395TMC3    C6 5956   2.376   1.060  14.754 -0.2465 -0.0074 -0.1552
  395TMC3     C 5957   2.560   0.765  14.984 -0.1321 -0.0042 -0.4342
  395TMC3     O 5958   2.677   0.736  14.982  0.1395 -0.6701 -0.6766
  395TMC3     H 5959   2.300   0.789  14.930  3.0388 -0.4133  2.5116
  395TMC3    H1 5960   2.683   0.939  14.825 -1.0833 -0.3670  1.1180
  395TMC3    H2 5961   2.329   1.149  14.716 -0.0011  0.0667 -0.2876
  395TMC3    C7 5962   2.579   1.175  14.742 -0.3207  0.1987 -0.2647
  395TMC3    C8 5963   2.169   0.984  14.840 -0.4034 -0.2544 -0.8798
  395TMC3    O1 5964   2.524   1.284  14.756  0.0552  0.0729  0.1892
  395TMC3    O2 5965   2.131   1.088  14.891 -0.1252 -0.3801 -0.3633
  396MPD2     C 5966   2.295   2.196  17.535  0.9118  0.4270 -0.0500
  396MPD2    C1 5967   2.421   2.247  17.515  0.2816 -0.1212  0.1047
  396MPD2    C2 5968   2.437   2.337  17.421  0.2685 -1.0858 -0.1356
  396MPD2    C3 5969   2.335   2.394  17.349 -0.8746  0.6578  0.0126
  396MPD2    C4 5970   2.208   2.352  17.372 -0.1378 -0.0377  0.6739
  396MPD2    C5 5971   2.184   2.260  17.467  0.8229  0.0432  0.1478
  396MPD2     H 5972   2.537   2.359  17.386 -0.1248 -0.4950 -0.8773
  396MPD2    H1 5973   2.120   2.388  17.320 -0.7953 -0.4491  1.4978
  396MPD2    H2 5974   2.278   2.130  17.620 -3.4838  0.2030 -1.1145
  396MPD2    H3 5975   2.087   2.216  17.487  0.8491  0.4509  1.1908
  396MPD2     N 5976   2.368   2.489  17.257 -0.1696  0.8713  0.1153
  396MPD2    H5 5977   2.463   2.522  17.251  0.0488  0.2256  0.0462
  396MPD2    N1 5978   2.535   2.187  17.580  0.6126 -0.1331 -0.0683
  396MPD2    H7 5979   2.506   2.111  17.641 -1.7441 -0.4839 -1.6204
  397TMC3    C1 5980   2.741   2.137  17.664 -0.4172 -1.1182  0.2016
  397TMC3    C2 5981   2.839   2.088  17.586  0.3876 -0.7541  0.3554
  397TMC3    C3 5982   2.846   1.956  17.550 -0.3782 -0.7997 -0.6088
  397TMC3    C4 5983   2.681   2.042  17.741  0.7678  0.4041 -0.4567
  397TMC3    C5 5984   2.689   1.910  17.722  0.0074 -0.0410 -0.3932
  397TMC3    C6 5985   2.763   1.867  17.617  0.6870 -1.1691 -0.5600
  397TMC3     C 5986   2.666   2.227  17.577 -0.7933  0.1746 -0.5143
  397TMC3     O 5987   2.722   2.309  17.505  0.2651  0.3934  0.1374
  397TMC3     H 5988   2.881   2.165  17.523  2.8965 -0.0303  2.8872
  397TMC3    H1 5989   2.596   2.080   0.045 -0.0753 -2.9044  0.5069
  397TMC3    H2 5990   2.781   1.763  17.590 -0.2507 -1.3614 -0.4448
  397TMC3    C7 5991   2.603   1.826   0.054 -0.1606 -0.3397  0.2460
  397TMC3    C8 5992   2.848   1.928  17.404  0.4072  0.0321 -0.5108
  397TMC3    O1 5993   2.567   1.717   0.012  0.3030  0.2863  0.0381
  397TMC3    O2 5994   2.744   1.883  17.359  0.2284  0.0772 -0.1691
  398MPD2     C 5995   0.662   3.973   0.013  0.2396  0.5951  0.0088
  398MPD2    C1 5996   0.737   3.933   0.125 -0.1236  0.0439  0.9473
  398MPD2    C2 5997   0.830   4.023   0.170 -1.0701 -0.7692 -0.5315
  398MPD2    C3 5998   0.852   4.142   0.103  1.1277  0.2803 -0.4508
  398MPD2    C4 5999   0.767   4.180   0.003  0.5053  0.0194 -0.3034
  398MPD2    C5 6000   0.675   4.093  17.713 -0.5710  0.5053 -0.0872
  398MPD2     H 6001   0.899   3.989   0.247 -0.1352  0.9848 -0.6018
  398MPD2    H1 6002   0.782   4.267  17.690  0.1515  1.2303  1.2503
  398MPD2    H2 6003   0.594   3.906  17.712  0.4668  0.6895 -0.4142
  398MPD2    H3 6004   0.617   4.104  17.621  0.5605  1.0732 -0.7325
  398MPD2     N 6005   0.966   4.210   0.144  0.6358 -0.1790 -0.9097
  398MPD2    H5 6006   1.019   4.154   0.210 -0.7572  0.4770  0.7485
  398MPD2    N1 6007   0.732   3.812   0.197 -0.0807  0.1501  0.2741
  398MPD2    H7 6008   0.787   3.795   0.280  0.9224 -0.0888 -0.4395
  399TMC3    C1 6009   0.634   3.608   0.278 -0.0439  0.8329  0.0885
  399TMC3    C2 6010   0.726   3.601   0.382 -0.4348 -0.0623  0.2065
  399TMC3    C3 6011   0.708   3.505   0.475  0.3197 -0.7046 -0.3198
  399TMC3    C4 6012   0.526   3.522   0.266  0.4563  0.6574 -0.3114
  399TMC3    C5 6013   0.502   3.442   0.375 -0.3461  0.6150 -0.2020
  399TMC3    C6 6014   0.601   3.424   0.476 -0.1766  0.1371  0.2868
  399TMC3     C 6015   0.630   3.722   0.181  0.7016 -0.4731  0.2639
  399TMC3     O 6016   0.545   3.712   0.094  0.5678  0.5516 -0.2092
  399TMC3     H 6017   0.800   3.679   0.396 -0.0081 -0.6192  1.0056
  399TMC3    H1 6018   0.447   3.534   0.193 -1.2873  1.7302  1.7345
  399TMC3    H2 6019   0.568   3.366   0.561 -0.3106 -1.6178 -0.9642
  399TMC3    C7 6020   0.367   3.392   0.382  0.8848  0.2285 -0.1648
  399TMC3    C8 6021   0.819   3.489   0.573  0.3980  0.4085  0.1798
  399TMC3    O1 6022   0.311   3.371   0.275 -0.6894  0.1191 -0.0731
  399TMC3    O2 6023   0.904   3.577   0.590 -0.2484 -0.2111 -0.8919
  400TMC3    C1 6024   3.690   1.813  16.725  0.3474 -0.0013  0.7341
  400TMC3    C2 6025   3.557   1.770  16.704 -0.1865  0.1907 -0.2489
  400TMC3    C3 6026   3.463   1.875  16.688 -0.4235 -0.0370 -0.2201
  400TMC3    C4 6027   3.726   1.943  16.747 -0.5193  0.1101  0.1826
  400TMC3    C5 6028   3.627   2.041  16.741 -0.3091 -0.0091 -0.0879
  400TMC3    C6 6029   3.495   2.012  16.707 -0.4128 -0.5108 -0.0166
  400TMC3     C 6030   3.767   1.709  16.781  0.0588 -0.4750  0.2214
  400TMC3     O 6031   3.757   1.604  16.719 -0.0519  1.0669  0.1896
  400TMC3     H 6032   3.533   1.668  16.679 -2.1494  0.0211  2.3358
  400TMC3    H1 6033   3.828   1.978  16.754 -0.5799  0.2741  0.2646
  400TMC3    H2 6034   3.428   2.095  16.685  0.7404  0.9805  2.1057
  400TMC3    C7 6035   3.671   2.183  16.743  0.4705  0.3049 -0.1338
  400TMC3    C8 6036   3.326   1.856  16.653 -0.4284 -0.6131 -0.3689
  400TMC3    O1 6037   3.790   2.214  16.729 -0.0907 -0.0958 -0.3795
  400TMC3    O2 6038   3.256   1.955  16.651  1.1594  0.3953 -0.6061
  401MPD2     C 6039   2.464   0.999   0.314 -0.2698 -0.0584  0.1835
  401MPD2    C1 6040   2.514   0.916   0.413 -0.3448  0.0836 -0.4155
  401MPD2    C2 6041   2.547   0.786   0.385 -0.4727 -0.3419 -1.2931
  401MPD2    C3 6042   2.524   0.731   0.256 -0.1692 -0.1079 -0.2328
  401MPD2    C4 6043   2.471   0.809   0.158 -0.5273 -0.3562  0.1179
  401MPD2    C5 6044   2.438   0.941   0.192  0.0322 -0.3833  0.3046
  401MPD2     H 6045   2.577   0.710   0.456 -1.7640 -0.8970 -1.3378
  401MPD2    H1 6046   2.450   0.775   0.057  2.4905 -0.7177 -0.3957
  401MPD2    H2 6047   2.415   1.094   0.334  0.5723  0.2474  0.8018
  401MPD2    H3 6048   2.383   1.004   0.123 -0.1931 -0.1260  0.7201
  401MPD2     N 6049   2.561   0.599   0.239  0.1804 -0.2275 -0.0476
  401MPD2    H5 6050   2.623   0.561   0.310  1.0110 -2.4219 -1.9782
  401MPD2    N1 6051   2.548   0.961   0.544  0.2739  0.2331  0.6304
  401MPD2    H7 6052   2.590   0.889   0.602  1.8632  1.6091  1.2070
  402TMC3    C1 6053   2.592   0.385   0.152 -0.2416  0.1647  0.6084
  402TMC3    C2 6054   2.592   0.339   0.284 -0.3373  0.5937  0.5259
  402TMC3    C3 6055   2.600   0.208   0.301 -0.0923 -0.5710  0.4140
  402TMC3    C4 6056   2.605   0.308   0.045  0.0162 -0.0669 -0.3762
  402TMC3    C5 6057   2.611   0.174   0.066 -0.5196  0.1052  0.2555
  402TMC3    C6 6058   2.615   0.124   0.194 -0.6478 -0.7422  0.8526
  402TMC3     C 6059   2.551   0.524   0.120  0.5244 -0.7511  0.1647
  402TMC3     O 6060   2.486   0.539   0.017 -0.0004 -0.3578 -0.0803
  402TMC3     H 6061   2.545   0.401   0.360  0.4087 -1.0576  2.3342
  402TMC3    H1 6062   2.609   0.352  17.697  4.4109 -0.6491 -0.4948
  402TMC3    H2 6063   2.647   0.023   0.220 -0.0426 -0.6951  0.2801
  402TMC3    C7 6064   2.674   0.088  17.716  0.5532 -0.7187  0.1963
  402TMC3    C8 6065   2.602   0.145   0.430 -0.1189  0.5056 -0.2771
  402TMC3    O1 6066   2.685   0.144  17.603  0.0560 -0.5403 -0.0115
  402TMC3    O2 6067   2.576   0.026   0.439 -0.1226 -0.1478 -0.0852
  403MPD2     C 6068   0.150   3.329  13.297  0.4383 -0.1805 -0.6597
  403MPD2    C1 6069   0.173   3.212  13.363  0.3751 -0.3216 -0.1681
  403MPD2    C2 6070   0.273   3.210  13.457 -0.3855 -0.4725  0.1764
  403MPD2    C3 6071   0.352   3.315  13.486 -0.8581  0.2086  0.3740
  403MPD2    C4 6072   0.323   3.434  13.421 -1.1393  0.6108  0.1946
  403MPD2    C5 6073   0.230   3.437  13.316 -0.1631  0.1184  0.4147
  403MPD2     H 6074   0.313   3.114  13.489 -2.3057 -1.5464 -0.6539
  403MPD2    H1 6075   0.395   3.515  13.422 -2.0679  1.4628 -1.9937
  403MPD2    H2 6076   0.078   3.335  13.217  0.4777 -0.3953 -0.7101
  403MPD2    H3 6077   0.241   3.518  13.245 -1.5729 -0.4111 -0.3933
  403MPD2     N 6078   0.448   3.298  13.592  0.1861 -0.3747  0.3312
  403MPD2    H5 6079   0.465   3.206  13.630 -1.5022 -0.5025  0.7535
  403MPD2    N1 6080   0.098   3.093  13.334  0.2151  0.0041  0.2626
  403MPD2    H7 6081   0.046   3.095  13.247 -0.9385  3.2361  1.0111
  404TMC3    C1 6082   0.012   2.867  13.369  0.5917  1.6937  0.3056
  404TMC3    C2 6083   4.690   2.782  13.453 -0.6596 -0.0717 -0.3848
  404TMC3    C3 6084   4.622   2.669  13.399  0.3922  0.4720 -0.5504
  404TMC3    C4 6085   0.023   2.833  13.239 -0.0546 -0.1304  0.1054
  404TMC3    C5 6086   4.709   2.716  13.186 -0.0696  0.4189 -0.0156
  404TMC3    C6 6087   4.631   2.634  13.264  0.3424 -0.1346  0.0380
  404TMC3     C 6088   0.081   2.984  13.418 -0.0186 -0.1142 -0.3139
  404TMC3     O 6089   0.114   2.979  13.536  0.3735 -0.1879  0.0298
  404TMC3     H 6090   4.683   2.804  13.559  1.9352 -1.6076  0.1011
  404TMC3    H1 6091   0.081   2.905  13.182  0.7786  0.3154  1.5087
  404TMC3    H2 6092   4.588   2.540  13.233 -0.7295  1.1747 -2.4746
  404TMC3    C7 6093   4.704   2.712  13.040  0.0195  0.0872 -0.3429
  404TMC3    C8 6094   4.508   2.618  13.473  0.4240 -0.4461  0.2621
  404TMC3    O1 6095   0.057   2.773  12.978 -0.4608  0.1215  0.1332
  404TMC3    O2 6096   4.420   2.562  13.408  0.5181  0.4963  0.6009
  405MPD2     C 6097   0.641   3.987  14.750 -0.3342 -0.0405 -0.3025
  405MPD2    C1 6098   0.577   3.869  14.715  0.0343 -0.6466  0.0834
  405MPD2    C2 6099   0.446   3.882  14.664 -0.2958  0.2662 -0.2528
  405MPD2    C3 6100   0.384   4.001  14.644  0.6279 -0.8079 -0.7207
  405MPD2    C4 6101   0.442   4.120  14.683 -0.7851 -0.4032 -0.1898
  405MPD2    C5 6102   0.572   4.109  14.732 -0.1843 -0.3341 -0.7715
  405MPD2     H 6103   0.393   3.800  14.617 -0.3471 -0.1528  0.5321
  405MPD2    H1 6104   0.398   4.217  14.662 -0.1237 -0.1108 -0.2104
  405MPD2    H2 6105   0.740   3.972  14.792  0.2269 -2.0465 -2.3144
  405MPD2    H3 6106   0.628   4.199  14.757 -1.2518 -0.0349  0.5280
  405MPD2     N 6107   0.259   4.004  14.572 -0.2385 -0.2488  0.0190
  405MPD2    H5 6108   0.215   3.912  14.573  0.5732 -0.7087 -4.1175
  405MPD2    N1 6109   0.642   3.743  14.730  0.3814 -0.4567 -0.3998
  405MPD2    H7 6110   0.742   3.743  14.751  0.2231  0.7033  0.3632
  406TMC3    C1 6111   4.604   4.038  14.361 -1.1898 -0.5391  0.2567
  406TMC3    C2 6112   4.623   3.913  14.310 -0.1098  0.3733  0.0116
  406TMC3    C3 6113   0.012   3.859  14.310 -0.0184  0.1192 -0.3516
  406TMC3    C4 6114   4.708   4.106  14.423 -0.2857  0.1806  0.0627
  406TMC3    C5 6115   0.090   4.046  14.426  0.5745 -0.7149  0.7290
  406TMC3    C6 6116   0.112   3.923  14.376 -0.1552 -0.5592 -0.5088
  406TMC3     C 6117   4.479   4.104  14.332  0.4437  0.2962 -0.7097
  406TMC3     O 6118   4.447   4.202  14.396  0.1992  0.1057 -0.2958
  406TMC3     H 6119   4.549   3.860  14.251  1.5545 -0.0020 -1.7648
  406TMC3    H1 6120   4.694   4.195  14.483 -0.9420 -0.5135  0.9228
  406TMC3    H2 6121   0.216   3.891  14.370  0.0276  0.2498 -1.8809
  406TMC3    C7 6122   0.199   4.102  14.500  0.4987 -0.2559 -0.0761
  406TMC3    C8 6123   0.036   3.730  14.249 -0.1930 -0.2870  0.1014
  406TMC3    O1 6124   0.219   4.223  14.497  0.1067  0.2105  0.1435
  406TMC3    O2 6125   4.699   3.683  14.164  0.8179 -0.1095  0.2327
  407MPD2     C 6126   2.557   0.483   9.922  0.2958  0.1242 -0.3411
  407MPD2    C1 6127   2.674   0.538   9.978 -0.2910  0.1439 -0.2963
  407MPD2    C2 6128   2.666   0.622  10.091 -0.5075 -0.5972  0.0291
  407MPD2    C3 6129   2.542   0.667  10.130  0.3679  0.1646 -0.4115
  407MPD2    C4 6130   2.428   0.624  10.066  0.0674  0.5579  0.1022
  407MPD2    C5 6131   2.438   0.528   9.970 -0.1756  0.3826  0.2738
  407MPD2     H 6132   2.758   0.650  10.142 -0.8305  0.5611 -0.0079
  407MPD2    H1 6133   2.334   0.676  10.080  0.1665  0.2077  2.1028
  407MPD2    H2 6134   2.554   0.424   9.832  1.4898  0.6395 -0.7203
  407MPD2    H3 6135   2.345   0.491   9.929 -2.3172  4.3147  1.5181
  407MPD2     N 6136   2.525   0.772  10.219  0.3915  0.1005  0.0332
  407MPD2    H5 6137   2.433   0.813  10.223  0.3520  0.1227 -1.3704
  407MPD2    N1 6138   2.803   0.519   9.921  0.6972  0.0969 -0.1218
  407MPD2    H7 6139   2.882   0.568   9.962  0.1072  1.0588 -0.1273
  408TMC3    C1 6140   2.941   0.490   9.744  0.5743 -0.2663  0.5635
  408TMC3    C2 6141   3.014   0.388   9.697 -0.3751 -0.0924 -0.7373
  408TMC3    C3 6142   3.143   0.412   9.667 -0.1090 -0.0433  0.0922
  408TMC3    C4 6143   2.988   0.613   9.777  0.2504  0.0104 -0.0045
  408TMC3    C5 6144   3.123   0.622   9.748  0.5896  0.0486 -0.1744
  408TMC3    C6 6145   3.195   0.528   9.690  0.7276  0.3189  0.3361
  408TMC3     C 6146   2.820   0.443   9.808 -0.5385  0.7974 -1.0668
  408TMC3     O 6147   2.755   0.350   9.757  0.4609  0.0376  0.3289
  408TMC3     H 6148   2.966   0.292   9.682 -0.5720 -0.4211  2.0794
  408TMC3    H1 6149   2.939   0.693   9.831 -0.0314 -0.7828  0.9281
  408TMC3    H2 6150   3.299   0.555   9.683  0.9180 -1.2319 -2.9194
  408TMC3    C7 6151   3.212   0.712   9.831 -0.0570 -0.2247 -0.2441
  408TMC3    C8 6152   3.226   0.299   9.705  0.9589 -0.3022  0.6673
  408TMC3    O1 6153   3.315   0.661   9.873  0.1968  0.1951 -1.0333
  408TMC3    O2 6154   3.180   0.184   9.692  0.1629 -0.2837  0.5098
  409MPD2     C 6155   2.381   1.246  17.128 -0.3341  0.3678 -0.0497
  409MPD2    C1 6156   2.494   1.280  17.199  0.2284 -0.3058  0.1277
  409MPD2    C2 6157   2.577   1.377  17.148  0.2207 -0.2052 -0.1260
  409MPD2    C3 6158   2.544   1.444  17.026  0.5358  0.1070  0.0342
  409MPD2    C4 6159   2.432   1.407  16.960 -0.5180  0.3850 -0.3195
  409MPD2    C5 6160   2.354   1.314  17.013 -0.6464  0.2041 -0.5329
  409MPD2     H 6161   2.664   1.395  17.209  1.8502 -0.7523 -2.3177
  409MPD2    H1 6162   2.385   1.463  16.880 -1.2829 -0.2238 -0.2942
  409MPD2    H2 6163   2.307   1.174  17.162  0.1663 -0.4948 -0.7542
  409MPD2    H3 6164   2.262   1.299  16.956  0.6731  0.4607 -2.7537
  409MPD2     N 6165   2.610   1.565  16.996 -0.4181  0.0523  0.0673
  409MPD2    H5 6166   2.570   1.626  16.925 -1.1426  1.5754  1.7796
  409MPD2    N1 6167   2.535   1.217  17.323 -1.1832 -0.3280  0.0405
  409MPD2    H7 6168   2.621   1.246  17.369 -2.4044  1.0701  1.4215
  410TMC3    C1 6169   2.765   1.729  16.998 -0.4432 -0.4904  0.4273
  410TMC3    C2 6170   2.890   1.769  17.031  0.1031  0.2313 -0.6606
  410TMC3    C3 6171   2.947   1.874  16.974 -0.2657 -0.4736  0.4198
  410TMC3    C4 6172   2.685   1.807  16.932 -0.2078 -0.6363  0.1772
  410TMC3    C5 6173   2.733   1.922  16.875 -0.4312  0.4446  0.2461
  410TMC3    C6 6174   2.871   1.954  16.887 -0.4862 -0.0477  0.1093
  410TMC3     C 6175   2.725   1.602  17.055  0.2285 -0.5565  0.3277
  410TMC3     O 6176   2.797   1.550  17.136  0.4590 -0.6814  0.2469
  410TMC3     H 6177   2.951   1.715  17.103  1.1540  2.2622 -0.0175
  410TMC3    H1 6178   2.581   1.788  16.909 -0.2579  0.2359 -0.3080
  410TMC3    H2 6179   2.913   2.046  16.848  0.7229 -2.3379 -4.0544
  410TMC3    C7 6180   2.656   1.985  16.763  0.5433 -0.3020  0.0178
  410TMC3    C8 6181   3.086   1.904  16.989 -0.0443 -0.3035  0.3537
  410TMC3    O1 6182   2.538   1.952  16.755 -0.5068  0.6476  0.2718
  410TMC3    O2 6183   3.123   2.023  16.987  0.0535  0.0373  0.4740
  411MPD2     C 6184   2.834   1.950  14.624 -0.0616 -0.0148  0.3923
  411MPD2    C1 6185   2.738   2.010  14.698  0.4298 -0.1733  0.5908
  411MPD2    C2 6186   2.625   1.940  14.732 -0.0522 -0.7443 -0.7727
  411MPD2    C3 6187   2.612   1.812  14.685 -0.2410  0.3860 -0.5743
  411MPD2    C4 6188   2.714   1.750  14.616  0.0607  0.1162 -0.3326
  411MPD2    C5 6189   2.830   1.820  14.581 -0.4496 -0.3568  0.7404
  411MPD2     H 6190   2.538   1.982  14.782 -0.5826 -2.2587 -0.4255
  411MPD2    H1 6191   2.707   1.653  14.569 -1.0951  0.0487 -0.0023
  411MPD2    H2 6192   2.919   2.012  14.597  0.2535  0.0829  1.6043
  411MPD2    H3 6193   2.909   1.775  14.523  0.2233  1.2852  0.3659
  411MPD2     N 6194   2.493   1.732  14.701  0.0561  0.2239 -0.4236
  411MPD2    H5 6195   2.494   1.640  14.658  1.6496  0.0572 -0.0298
  411MPD2    N1 6196   2.762   2.145  14.734  0.0720  0.3220  0.4599
  411MPD2    H7 6197   2.836   2.193  14.683 -1.0305 -1.0546 -2.4581
  412TMC3    C1 6198   2.252   1.697  14.708  0.0542  0.0718  0.5663
  412TMC3    C2 6199   2.146   1.759  14.645 -0.5927 -0.4766  0.6559
  412TMC3    C3 6200   2.019   1.702  14.644 -0.8864 -0.1261  0.2695
  412TMC3    C4 6201   2.237   1.568  14.739  0.2922 -0.0670 -0.0183
  412TMC3    C5 6202   2.125   1.503  14.717  0.4175  0.1496 -0.5379
  412TMC3    C6 6203   2.016   1.567  14.668 -0.3115 -0.4101  0.1779
  412TMC3     C 6204   2.367   1.784  14.730  0.3844  0.2476 -0.2535
  412TMC3     O 6205   2.336   1.897  14.760 -0.1040 -0.1201 -0.0825
  412TMC3     H 6206   2.155   1.864  14.621  2.3679 -1.2787 -1.6360
  412TMC3    H1 6207   2.326   1.522  14.780 -1.5107 -1.7268  2.0750
  412TMC3    H2 6208   1.928   1.508  14.643  0.1560 -0.0121 -2.3890
  412TMC3    C7 6209   2.150   1.389  14.628  0.0445 -0.0978 -0.1170
  412TMC3    C8 6210   1.949   1.724  14.518 -0.0807 -0.4106 -0.2248
  412TMC3    O1 6211   2.241   1.391  14.547  0.1289 -0.4437  0.0084
  412TMC3    O2 6212   2.027   1.756  14.427 -0.0236 -0.1881  0.2560
  413MPD2     C 6213   4.308   0.514  15.413  0.2708  0.1005 -0.4517
  413MPD2    C1 6214   4.243   0.413  15.345  0.2519 -0.1463 -0.0392
  413MPD2    C2 6215   4.310   0.298  15.313  0.4029 -0.2405 -0.1986
  413MPD2    C3 6216   4.442   0.291  15.340 -0.3868 -1.2496 -0.8179
  413MPD2    C4 6217   4.511   0.388  15.413  0.0464  0.5325 -0.1961
  413MPD2    C5 6218   4.437   0.500  15.447 -0.5551 -0.3550  0.0674
  413MPD2     H 6219   4.261   0.217  15.261 -1.3688  0.9100 -0.3450
  413MPD2    H1 6220   4.615   0.391  15.443  0.0444 -0.8042 -0.0424
  413MPD2    H2 6221   4.258   0.601  15.454 -0.3345 -1.1191  1.4323
  413MPD2    H3 6222   4.478   0.578  15.511 -2.8682  0.0914  0.9946
  413MPD2     N 6223   4.509   0.169  15.299  0.6118 -0.0249 -0.2402
  413MPD2    H5 6224   4.452   0.090  15.271  2.3619 -1.0587 -0.8719
  413MPD2    N1 6225   4.102   0.430  15.318  0.0323 -0.0941 -0.1659
  413MPD2    H7 6226   4.061   0.522  15.331  0.4957  0.1173 -0.2019
  414TMC3    C1 6227   4.651   4.734  15.272  0.3928  0.2037 -0.1559
  414TMC3    C2 6228   0.007   4.649  15.335 -0.2949 -0.2180 -0.2281
  414TMC3    C3 6229   0.004   4.515  15.301 -0.2243 -0.2154  0.4236
  414TMC3    C4 6230   4.586   4.688  15.158  0.4140  0.0216  0.7164
  414TMC3    C5 6231   4.597   4.556  15.120 -0.1560  0.5074 -0.6826
  414TMC3    C6 6232   4.656   4.468  15.207  0.0808 -0.1893  0.3374
  414TMC3     C 6233   4.638   0.134  15.311  0.6755  0.2922 -0.0403
  414TMC3     O 6234   4.729   0.194  15.363 -0.3744 -0.1477 -0.1229
  414TMC3     H 6235   0.062   4.685  15.421  0.0031  0.9861 -0.9171
  414TMC3    H1 6236   4.530   0.015  15.092  2.1175 -0.1682 -0.9573
  414TMC3    H2 6237   4.663   4.362  15.184 -0.6158  0.1903 -1.6623
  414TMC3    C7 6238   4.496   4.518  15.021  0.1784 -0.2118 -0.0341
  414TMC3    C8 6239   0.112   4.427  15.344  0.1404 -0.4462  0.9596
  414TMC3    O1 6240   4.392   4.578  15.034 -0.7207  0.3564 -0.2562
  414TMC3    O2 6241   0.085   4.309  15.315  0.4054  0.3497 -0.7295
  415TMC3    C1 6242   0.355   2.779  10.035  0.2305  0.4940  0.3140
  415TMC3    C2 6243   0.485   2.787  10.000 -0.1583 -0.0579 -0.4330
  415TMC3    C3 6244   0.515   2.800   9.865  0.8941 -0.7067 -1.0404
  415TMC3    C4 6245   0.266   2.757   9.932 -0.1005 -0.1030 -0.0158
  415TMC3    C5 6246   0.301   2.743   9.800 -0.1697 -0.0308  0.2593
  415TMC3    C6 6247   0.432   2.775   9.764 -0.7698 -0.4672 -0.2958
  415TMC3     C 6248   0.317   2.762  10.175  0.3630  0.3470  0.5129
  415TMC3     O 6249   0.207   2.715  10.186  0.2549  0.7735  0.4043
  415TMC3     H 6250   0.567   2.788  10.072  0.3952  1.1998 -1.0751
  415TMC3    H1 6251   0.163   2.740   9.964 -0.6162 -0.6401 -1.9213
  415TMC3    H2 6252   0.463   2.771   9.660  0.7125  0.7826  0.1083
  415TMC3    C7 6253   0.214   2.675   9.702  0.2148  0.4830  0.5092
  415TMC3    C8 6254   0.650   2.827   9.836  0.2235 -0.2140  0.0027
  415TMC3    O1 6255   0.245   2.685   9.581 -0.0104 -0.2081 -0.5015
  415TMC3    O2 6256   0.689   2.766   9.735 -0.5012 -0.1461  0.3945
  416MPD2     C 6257   1.828   1.585  12.019 -0.3116  0.2690  0.2574
  416MPD2    C1 6258   1.835   1.610  11.883  0.4781 -0.1694 -0.3132
  416MPD2    C2 6259   1.919   1.536  11.802  0.1499 -0.5824  0.4799
  416MPD2    C3 6260   2.007   1.443  11.854 -0.6322 -0.3319 -0.3397
  416MPD2    C4 6261   1.996   1.418  11.990  0.0116  0.4373  0.2279
  416MPD2    C5 6262   1.905   1.486  12.069 -0.1572  0.6411  0.1230
  416MPD2     H 6263   1.909   1.551  11.695  1.9047 -2.4658  0.0635
  416MPD2    H1 6264   2.037   1.331  12.040 -3.3070 -1.2644  0.0628
  416MPD2    H2 6265   1.746   1.630  12.074 -0.1859  2.5820 -1.4491
  416MPD2    H3 6266   1.879   1.460  12.171 -0.4155  1.2688  0.2184
  416MPD2     N 6267   2.078   1.351  11.777 -0.7962 -0.6445  0.1275
  416MPD2    H5 6268   2.106   1.268  11.828 -2.1441 -0.5827  0.9516
  416MPD2    N1 6269   1.747   1.702  11.823  0.1110  0.2871 -0.7432
  416MPD2    H7 6270   1.690   1.746  11.895  0.2426 -1.1911  0.2518
  417TMC3    C1 6271   1.665   1.867  11.672  0.7468 -0.1154 -0.1255
  417TMC3    C2 6272   1.695   1.955  11.766 -0.0322  0.5468 -0.0777
  417TMC3    C3 6273   1.641   2.075  11.755  0.0838  0.4264  0.1187
  417TMC3    C4 6274   1.591   1.891  11.553  0.3953 -1.0285  0.1173
  417TMC3    C5 6275   1.527   2.017  11.556  0.5871 -0.7086  0.4536
  417TMC3    C6 6276   1.550   2.110  11.657  0.3233  0.0649 -0.0890
  417TMC3     C 6277   1.732   1.740  11.693 -0.2672 -0.0487  0.3750
  417TMC3     O 6278   1.773   1.676  11.596 -0.2753  0.0957  0.0025
  417TMC3     H 6279   1.767   1.940  11.846 -1.1059 -1.7176  0.4661
  417TMC3    H1 6280   1.592   1.824  11.468 -2.1820  0.0267 -0.7539
  417TMC3    H2 6281   1.518   2.213  11.641  3.4047  0.9901 -0.3660
  417TMC3    C7 6282   1.467   2.063  11.435  0.4160  0.3462 -0.5306
  417TMC3    C8 6283   1.625   2.150  11.877 -0.1174  0.2343 -0.1969
  417TMC3    O1 6284   1.482   2.171  11.385  0.5218  0.1610  0.1624
  417TMC3    O2 6285   1.610   2.270  11.869 -0.2926 -0.0561 -0.0030
  418TMC3    C1 6286   1.381   4.391   0.110  0.1236  0.4477  0.8231
  418TMC3    C2 6287   1.243   4.404   0.067  0.5249  0.6026  0.4705
  418TMC3    C3 6288   1.147   4.354   0.148  0.3388 -0.9590 -0.0509
  418TMC3    C4 6289   1.400   4.342   0.239  0.0338 -0.4532  0.1004
  418TMC3    C5 6290   1.301   4.291   0.314  0.1145  0.0779 -0.0540
  418TMC3    C6 6291   1.173   4.298   0.271  0.1195  0.2707 -0.1723
  418TMC3     C 6292   1.461   4.327   0.005  0.7401 -0.0446  0.6093
  418TMC3     O 6293   1.452   4.386  17.648 -0.2198  0.0791 -0.1426
  418TMC3     H 6294   1.224   4.447  17.720  1.0884 -0.9986 -0.3633
  418TMC3    H1 6295   1.503   4.324   0.266  0.3122  0.8591 -0.1203
  418TMC3    H2 6296   1.094   4.267   0.339  0.9743 -0.5081  0.4542
  418TMC3    C7 6297   1.318   4.250   0.451 -0.1382 -0.6043  0.3810
  418TMC3    C8 6298   1.013   4.330   0.087 -1.0268  0.1464  0.2100
  418TMC3    O1 6299   1.233   4.176   0.510 -0.0756 -0.2860  0.3269
  418TMC3    O2 6300   0.978   4.385  17.734 -0.0334 -0.0718 -0.0552
  419MPD2     C 6301   4.306   1.722  12.715  0.3107  0.2371 -0.0014
  419MPD2    C1 6302   4.218   1.828  12.686 -0.1379 -0.0580 -0.6956
  419MPD2    C2 6303   4.146   1.882  12.789 -0.2515  0.4059  0.5191
  419MPD2    C3 6304   4.154   1.836  12.922  0.5302 -0.1319 -0.1768
  419MPD2    C4 6305   4.242   1.732  12.946  0.4982  0.3756 -0.2487
  419MPD2    C5 6306   4.318   1.680  12.843  0.0362  0.5014 -0.0217
  419MPD2     H 6307   4.084   1.969  12.769 -0.0692  0.4877  0.2946
  419MPD2    H1 6308   4.250   1.696  13.049 -2.0329 -0.5837 -0.3985
  419MPD2    H2 6309   4.367   1.668  12.644  0.5324  1.0903 -0.4505
  419MPD2    H3 6310   4.390   1.600  12.856 -2.5292 -1.4990  2.1691
  419MPD2     N 6311   4.082   1.907  13.019  0.1627 -0.3367 -0.1198
  419MPD2    H5 6312   4.011   1.968  12.980  1.0635 -0.5064 -2.0052
  419MPD2    N1 6313   4.188   1.865  12.553  0.1317 -0.2423 -0.2565
  419MPD2    H7 6314   4.125   1.940  12.525 -0.4151 -0.9696 -0.9983
  420TMC3    C1 6315   3.979   1.943  13.226  0.5976  0.2288  0.2946
  420TMC3    C2 6316   3.910   2.041  13.165  0.3099 -0.2038  0.4972
  420TMC3    C3 6317   3.799   2.080  13.227 -0.6334  0.7421  0.2939
  420TMC3    C4 6318   3.961   1.919  13.362  0.0337  1.1745 -0.0037
  420TMC3    C5 6319   3.857   1.975  13.426 -0.2191  0.7278 -0.8038
  420TMC3    C6 6320   3.768   2.051  13.359  0.3159  0.0588 -0.0440
  420TMC3     C 6321   4.093   1.884  13.161 -1.0091 -0.2415 -0.3238
  420TMC3     O 6322   4.191   1.834  13.220  0.4211  0.0218 -0.0339
  420TMC3     H 6323   3.916   2.069  13.061 -1.6280  1.6520  0.8675
  420TMC3    H1 6324   4.028   1.853  13.416 -1.6542 -1.8423 -1.6403
  420TMC3    H2 6325   3.670   2.062  13.405  0.1530  0.8862 -0.5931
  420TMC3    C7 6326   3.817   1.920  13.551  0.3721  0.2442 -0.5048
  420TMC3    C8 6327   3.691   2.132  13.155  0.0393 -0.2900 -0.9181
  420TMC3    O1 6328   3.859   1.804  13.571  0.2314  0.3474 -0.2011
  420TMC3    O2 6329   3.714   2.210  13.066 -0.3128  0.3646 -0.3310
  421TMC3    C1 6330   0.570   3.369  13.774 -0.2333  0.7011  0.1060
  421TMC3    C2 6331   0.532   3.449  13.885  0.8999 -0.2528 -0.5796
  421TMC3    C3 6332   0.576   3.400  14.009  0.2659  0.1456  0.2723
  421TMC3    C4 6333   0.628   3.246  13.784 -0.2489  0.5511 -0.3468
  421TMC3    C5 6334   0.672   3.215  13.904  0.2214  0.0149  0.2088
  421TMC3    C6 6335   0.652   3.286  14.019 -0.5572  0.3803  0.6431
  421TMC3     C 6336   0.500   3.401  13.660  0.4793 -0.0306 -0.7885
  421TMC3     O 6337   0.487   3.522  13.632 -0.2083  0.4626 -0.1971
  421TMC3     H 6338   0.477   3.542  13.878 -0.7909 -1.0271  2.3957
  421TMC3    H1 6339   0.661   3.197  13.693  1.0188  0.7745 -0.0006
  421TMC3    H2 6340   0.691   3.255  14.116  0.0067 -0.2618  0.2053
  421TMC3    C7 6341   0.749   3.091  13.913  0.6436 -0.4546 -0.4748
  421TMC3    C8 6342   0.578   3.495  14.118 -0.3491 -0.5502  0.3527
  421TMC3    O1 6343   0.844   3.097  13.991  0.1544 -0.1697 -0.2296
  421TMC3    O2 6344   0.675   3.501  14.188  0.5180  0.0519 -0.2461
  422TMC3    C1 6345   2.935   4.528  12.776  1.2517  0.6227  0.4476
  422TMC3    C2 6346   2.899   4.656  12.821 -0.2081 -0.5100  0.3695
  422TMC3    C3 6347   2.773   4.664  12.870  1.1000  0.1596 -0.2915
  422TMC3    C4 6348   2.854   4.414  12.793  0.5706  0.3811 -0.9488
  422TMC3    C5 6349   2.734   4.429  12.862 -0.0023  0.7495  0.5754
  422TMC3    C6 6350   2.692   4.550  12.895  0.1343  0.1581 -0.4259
  422TMC3     C 6351   3.061   4.526  12.708 -0.3503 -0.2950 -0.3723
  422TMC3     O 6352   3.095   4.628  12.647 -0.0692  0.0531  0.1289
  422TMC3     H 6353   2.969   4.736  12.800 -2.2554  0.6176 -2.1749
  422TMC3    H1 6354   2.892   4.319  12.755 -1.6021  0.2817 -2.8717
  422TMC3    H2 6355   2.595   4.560  12.941  0.0632  2.1547 -0.9753
  422TMC3    C7 6356   2.631   4.337  12.805  0.3800 -0.0181 -0.1741
  422TMC3    C8 6357   2.731   0.045  12.949  0.0697  0.2793  0.3225
  422TMC3    O1 6358   2.666   4.265  12.715 -0.1808  0.2548  0.4716
  422TMC3    O2 6359   2.646   0.031  13.039  0.3345  0.1501  0.6123
  423MPD2     C 6360   3.647   1.039   0.195 -0.8708  0.1800  0.0453
  423MPD2    C1 6361   3.728   0.991   0.291 -0.8684  0.1642  0.4592
  423MPD2    C2 6362   3.838   0.914   0.256 -0.5873  0.3496  0.6007
  423MPD2    C3 6363   3.866   0.897   0.121  0.0870 -0.2621 -0.2532
  423MPD2    C4 6364   3.792   0.959   0.028 -0.1204 -0.0909 -0.0917
  423MPD2    C5 6365   3.672   1.011   0.068  0.0409  0.8234 -0.1677
  423MPD2     H 6366   3.896   0.873   0.338  1.5520  0.4295 -0.8927
  423MPD2    H1 6367   3.824   0.959  17.675 -2.1279 -0.2947 -0.7162
  423MPD2    H2 6368   3.560   1.102   0.212 -0.8607 -0.1519  1.3044
  423MPD2    H3 6369   3.605   1.049  17.743 -2.3188  1.3812  2.2177
  423MPD2     N 6370   3.985   0.827   0.077 -0.3848  0.3747  0.4508
  423MPD2    H5 6371   3.999   0.838  17.728  0.2856 -1.3951  0.3587
  423MPD2    N1 6372   3.699   1.020   0.426  0.8421  0.6602 -0.2578
  423MPD2    H7 6373   3.761   0.994   0.502 -1.4878  0.5258  1.6104
  424TMC3    C1 6374   3.594   1.127   0.608  0.3833  0.6808 -0.0693
  424TMC3    C2 6375   3.650   1.040   0.698 -0.2283  0.0473 -0.1654
  424TMC3    C3 6376   3.636   1.070   0.831  0.0887 -0.3829  0.0350
  424TMC3    C4 6377   3.511   1.228   0.646  0.0400 -0.2238 -0.7791
  424TMC3    C5 6378   3.502   1.254   0.782  0.3765  0.2996  0.0198
  424TMC3    C6 6379   3.563   1.181   0.882  0.0710 -0.5456 -0.0365
  424TMC3     C 6380   3.582   1.079   0.477  0.0093  0.4294  0.2587
  424TMC3     O 6381   3.472   1.087   0.427 -0.0504  0.1878  0.0611
  424TMC3     H 6382   3.684   0.941   0.670 -0.9492 -0.9477  2.4557
  424TMC3    H1 6383   3.492   1.305   0.572 -0.1454  1.3341  0.8854
  424TMC3    H2 6384   3.548   1.205   0.987 -1.4169  0.1007 -0.4007
  424TMC3    C7 6385   3.395   1.354   0.811 -0.1438 -0.2704  0.4665
  424TMC3    C8 6386   3.683   0.967   0.927 -0.6714  0.2329 -0.2260
  424TMC3    O1 6387   3.308   1.375   0.730 -0.0770 -0.5477  0.0468
  424TMC3    O2 6388   3.770   0.891   0.884 -0.1236  0.0945 -0.5516
  425MPD2     C 6389   3.615   0.222  17.209 -0.4601 -0.1885  0.0780
  425MPD2    C1 6390   3.528   0.128  17.252 -0.4873  0.0484  0.0645
  425MPD2    C2 6391   3.415   0.153  17.333  0.3411  0.1902  0.2198
  425MPD2    C3 6392   3.406   0.284  17.374  0.8712 -0.4085  0.6393
  425MPD2    C4 6393   3.496   0.383  17.332 -0.7345 -0.3018  0.0566
  425MPD2    C5 6394   3.605   0.349  17.258  0.3542  0.3196 -0.7996
  425MPD2     H 6395   3.343   0.078  17.363  0.6630  0.1005  0.7684
  425MPD2    H1 6396   3.490   0.482  17.375 -0.5514  0.3555 -1.4522
  425MPD2    H2 6397   3.705   0.194  17.156  0.3432 -1.3221  2.0745
  425MPD2    H3 6398   3.686   0.418  17.239  0.7975 -0.4476 -1.6463
  425MPD2     N 6399   3.306   0.315  17.470 -0.0016  0.4679 -0.4371
  425MPD2    H5 6400   3.265   0.241  17.525  1.7402  0.2148  0.5158
  425MPD2    N1 6401   3.555   4.732  17.204  0.2290  0.7160  0.1527
  425MPD2    H7 6402   3.639   4.725  17.148  0.4238 -2.0307  0.7793
  426TMC3    C1 6403   3.569   4.507  17.171  0.2697 -0.5139 -0.4312
  426TMC3    C2 6404   3.578   4.506  17.036 -0.0021 -0.7691 -0.3915
  426TMC3    C3 6405   3.624   4.388  16.990 -0.2311 -0.6615 -0.6055
  426TMC3    C4 6406   3.600   4.408  17.259 -0.6377 -0.7795  0.2338
  426TMC3    C5 6407   3.638   4.295  17.200 -0.4391  0.3605 -0.1552
  426TMC3    C6 6408   3.652   4.280  17.067  0.0003  0.0685  0.1992
  426TMC3     C 6409   3.493   4.618  17.232 -0.1838 -0.1070  0.3621
  426TMC3     O 6410   3.391   4.597  17.292 -0.2456 -0.1907  0.5006
  426TMC3     H 6411   3.546   4.586  16.970 -1.1879  1.3536  2.7717
  426TMC3    H1 6412   3.567   4.424  17.361 -1.4423 -0.3056 -0.0969
  426TMC3    H2 6413   3.679   4.186  17.021 -0.4958 -0.4262  0.9176
  426TMC3    C7 6414   3.613   4.166  17.272  0.6694 -0.0456  0.1033
  426TMC3    C8 6415   3.593   4.353  16.855 -0.1852  0.0496  0.0709
  426TMC3    O1 6416   3.609   4.069  17.200 -0.3929 -0.2505  0.4038
  426TMC3    O2 6417   3.666   4.271  16.805 -0.3532  0.2955  0.1816
  427MPD2     C 6418   1.987   2.207  14.868  0.1503  0.0857  0.2248
  427MPD2    C1 6419   1.924   2.119  14.946  0.4539  0.5094 -0.3002
  427MPD2    C2 6420   1.787   2.124  14.959  0.5121 -0.1936  0.4083
  427MPD2    C3 6421   1.710   2.231  14.895 -0.5731 -0.1541  0.4430
  427MPD2    C4 6422   1.782   2.332  14.843 -0.9576 -0.0687  0.2208
  427MPD2    C5 6423   1.920   2.314  14.819 -0.6540  0.0868  0.1569
  427MPD2     H 6424   1.741   2.055  15.028  0.2267  0.0622  0.4711
  427MPD2    H1 6425   1.735   2.415  14.791 -0.7428 -1.1330 -1.6838
  427MPD2    H2 6426   2.092   2.194  14.841  0.4870  1.5940  0.8035
  427MPD2    H3 6427   1.968   2.392  14.762  0.3635  0.3798  1.4002
  427MPD2     N 6428   1.570   2.236  14.895 -0.4844 -0.2914 -0.4624
  427MPD2    H5 6429   1.529   2.310  14.840 -0.7411  2.3023  3.2263
  427MPD2    N1 6430   2.012   2.032  15.020  0.0786  0.1209 -0.4452
  427MPD2    H7 6431   2.110   2.049  14.996  0.1617 -0.1587 -0.2994
  428TMC3    C1 6432   2.085   1.877  15.197 -0.0829  0.2011  0.0781
  428TMC3    C2 6433   2.041   1.767  15.262 -0.2489 -0.2552  0.0831
  428TMC3    C3 6434   2.113   1.727  15.371  0.1331 -0.0426  0.3746
  428TMC3    C4 6435   2.198   1.946  15.230  0.0684  0.6189  0.2743
  428TMC3    C5 6436   2.259   1.910  15.345 -0.0944  0.9186 -0.2517
  428TMC3    C6 6437   2.210   1.806  15.421  0.4294 -0.7017 -0.2606
  428TMC3     C 6438   1.972   1.947  15.126 -0.2610 -0.5377 -0.3614
  428TMC3     O 6439   1.858   1.918  15.166  0.0239 -0.6230  0.1743
  428TMC3     H 6440   1.947   1.719  15.240 -0.5814  1.2553 -1.7171
  428TMC3    H1 6441   2.218   2.043  15.186 -0.1477  1.1603  1.3632
  428TMC3    H2 6442   2.272   1.763  15.499 -1.8212 -0.3521  1.7116
  428TMC3    C7 6443   2.364   1.980  15.408 -0.0255 -0.1387 -0.1291
  428TMC3    C8 6444   2.070   1.622  15.463 -0.3193 -0.0509 -0.0517
  428TMC3    O1 6445   2.357   1.988  15.530 -0.3022  0.2776 -0.1177
  428TMC3    O2 6446   2.043   1.509  15.427 -0.0353 -0.4076  0.3108
  429MPD2     C 6447   2.864   2.364   0.146  0.1372  0.2686  0.5552
  429MPD2    C1 6448   2.972   2.307   0.085  0.4019 -0.2993 -0.7156
  429MPD2    C2 6449   3.020   2.368  17.720  0.3088 -0.6216  0.4222
  429MPD2    C3 6450   2.963   2.479  17.663  0.8173 -0.4888 -0.3093
  429MPD2    C4 6451   2.855   2.537  17.727  0.3662  0.2613  0.0668
  429MPD2    C5 6452   2.808   2.485   0.099 -0.3408 -0.3015  0.8211
  429MPD2     H 6453   3.096   2.317  17.661 -0.2910 -1.6603  0.5562
  429MPD2    H1 6454   2.798   2.616  17.680 -0.4510 -0.5529 -0.3132
  429MPD2    H2 6455   2.830   2.330   0.244 -1.2757 -2.4144 -0.8673
  429MPD2    H3 6456   2.729   2.533   0.155 -1.1456 -0.8112  0.1182
  429MPD2     N 6457   3.005   2.516  17.535 -0.1974  0.0093 -0.3702
  429MPD2    H5 6458   3.092   2.476  17.501  0.2926  1.7964 -1.2517
  429MPD2    N1 6459   3.027   2.184   0.134 -0.3572 -0.5737 -0.7414
  429MPD2    H7 6460   3.109   2.156   0.081  1.3035 -1.5685  2.3007
  430TMC3    C1 6461   3.023   2.625  17.325  0.3255  0.2754  0.1073
  430TMC3    C2 6462   2.963   2.724  17.245  0.3075 -0.2857 -1.0566
  430TMC3    C3 6463   3.031   2.769  17.128  0.1087  0.1293 -0.4513
  430TMC3    C4 6464   3.158   2.590  17.301  0.0539  0.6580  0.4321
  430TMC3    C5 6465   3.220   2.634  17.183  0.1486 -0.0013 -0.1410
  430TMC3    C6 6466   3.162   2.728  17.108  0.0796 -0.4431 -0.0848
  430TMC3     C 6467   2.953   2.606  17.456  0.1449 -0.3721 -0.3010
  430TMC3     O 6468   2.855   2.673  17.477  0.2091 -0.2943  0.9164
  430TMC3     H 6469   2.861   2.758  17.255  1.2452  1.9511  0.7972
  430TMC3    H1 6470   3.205   2.512  17.359  2.8588  0.9022 -1.4774
  430TMC3    H2 6471   3.214   2.751  17.015 -1.2535  0.1394 -0.6849
  430TMC3    C7 6472   3.341   2.562  17.127 -0.3539 -0.0928 -0.4890
  430TMC3    C8 6473   2.962   2.825  17.013 -0.1654  0.6397  0.7047
  430TMC3    O1 6474   3.374   2.462  17.186 -0.1941  0.0164  0.1178
  430TMC3    O2 6475   2.858   2.769  16.980 -0.3926 -0.2847  0.9730
  431MPD2     C 6476   3.616   2.156  12.723 -0.3570 -0.1915 -0.0898
  431MPD2    C1 6477   3.673   2.224  12.624 -1.0178 -0.2100  0.2080
  431MPD2    C2 6478   3.717   2.155  12.509 -0.5462 -0.3430 -0.8115
  431MPD2    C3 6479   3.696   2.019  12.501 -0.5326 -0.1422 -0.1057
  431MPD2    C4 6480   3.631   1.958  12.600  0.1826 -0.5144 -0.3804
  431MPD2    C5 6481   3.582   2.022  12.704 -0.2149 -0.0596 -0.3446
  431MPD2     H 6482   3.770   2.203  12.428 -0.7243  2.2352  0.5998
  431MPD2    H1 6483   3.610   1.851  12.596 -1.4832 -0.2295  0.7431
  431MPD2    H2 6484   3.580   2.204  12.813  0.2824  1.4678 -0.7077
  431MPD2    H3 6485   3.524   1.967  12.778  1.2152  2.2596  2.5093
  431MPD2     N 6486   3.755   1.945  12.400 -0.1160  0.1771 -0.0443
  431MPD2    H5 6487   3.759   1.844  12.412  0.3831  0.1189 -0.6841
  431MPD2    N1 6488   3.699   2.364  12.647 -0.7215 -0.3968  0.3870
  431MPD2    H7 6489   3.676   2.395  12.741  0.9049 -1.1314  1.0180
  432TMC3    C1 6490   3.931   1.897  12.251 -0.1898 -0.4335 -0.6565
  432TMC3    C2 6491   3.988   1.912  12.126 -0.5340  0.5677  0.1031
  432TMC3    C3 6492   4.118   1.894  12.102  0.1127  0.2246 -0.2045
  432TMC3    C4 6493   4.009   1.855  12.352 -0.2182  0.7364  0.4725
  432TMC3    C5 6494   4.146   1.844  12.332  0.2871  0.2357  0.7497
  432TMC3    C6 6495   4.202   1.863  12.212  0.8426  0.0170  0.5960
  432TMC3     C 6496   3.824   1.987  12.288  0.2914  0.2164 -0.9299
  432TMC3     O 6497   3.818   2.097  12.238 -0.5939  0.1722 -0.5393
  432TMC3     H 6498   3.932   1.945  12.039  0.4876  1.8457 -0.0620
  432TMC3    H1 6499   3.971   1.846  12.453 -0.2486 -2.9500  0.1248
  432TMC3    H2 6500   4.308   1.844  12.200  0.5606 -1.4380  0.4272
  432TMC3    C7 6501   4.230   1.804  12.439 -0.1781  0.5430 -0.5022
  432TMC3    C8 6502   4.191   1.993  12.016  0.2771  0.0304 -0.0791
  432TMC3    O1 6503   4.325   1.732  12.421 -0.0624  0.1699  0.6896
  432TMC3    O2 6504   4.304   2.019  12.057  0.1176 -0.0218  0.2843
  433MPD2     C 6505   2.358   1.018  11.280  0.0015 -0.4253 -0.6398
  433MPD2    C1 6506   2.462   0.930  11.294  0.6375 -0.4885 -0.2747
  433MPD2    C2 6507   2.568   0.965  11.373 -0.4607 -0.2007  0.2902
  433MPD2    C3 6508   2.554   1.068  11.467 -0.2393 -0.0982 -0.2581
  433MPD2    C4 6509   2.442   1.147  11.467 -0.4444 -0.4693 -1.3575
  433MPD2    C5 6510   2.343   1.119  11.372  0.0262 -0.3576  0.0182
  433MPD2     H 6511   2.660   0.909  11.372  0.0907  0.7256 -0.7842
  433MPD2    H1 6512   2.413   1.233  11.526 -1.4163 -2.1756  0.6792
  433MPD2    H2 6513   2.278   0.997  11.211 -1.1636  2.3783 -0.1386
  433MPD2    H3 6514   2.253   1.177  11.354  1.2164  1.1536 -0.9716
  433MPD2     N 6515   2.667   1.085  11.550  0.2249 -0.8263  0.0238
  433MPD2    H5 6516   2.736   1.011  11.539  1.2413  0.4564 -2.1381
  433MPD2    N1 6517   2.460   0.823  11.206 -0.2013  0.0513 -1.0618
  433MPD2    H7 6518   2.387   0.817  11.136 -1.6207 -1.3795  0.5723
  434TMC3    C1 6519   2.542   0.629  11.111  0.1948 -0.1425  0.4356
  434TMC3    C2 6520   2.583   0.498  11.152  0.8280  0.8196 -0.4479
  434TMC3    C3 6521   2.655   0.429  11.060  0.0771 -0.1239 -0.3340
  434TMC3    C4 6522   2.559   0.680  10.990  0.1003 -0.6288 -0.4148
  434TMC3    C5 6523   2.622   0.603  10.899 -0.5808 -0.3571 -0.0844
  434TMC3    C6 6524   2.675   0.480  10.934 -0.4139  0.0189 -0.1736
  434TMC3     C 6525   2.544   0.717  11.222  0.2562 -0.3746  0.0106
  434TMC3     O 6526   2.604   0.682  11.327  0.0309  0.1582  0.5890
  434TMC3     H 6527   2.577   0.464  11.255 -1.4562  0.0346 -0.8229
  434TMC3    H1 6528   2.537   0.783  10.962 -1.5324 -0.6941  0.5982
  434TMC3    H2 6529   2.733   0.435  10.853  0.6362 -0.8075  1.0317
  434TMC3    C7 6530   2.571   0.630  10.765 -0.3543 -0.1360  0.1075
  434TMC3    C8 6531   2.727   0.312  11.107 -0.4818 -0.2455 -0.4809
  434TMC3    O1 6532   2.529   0.738  10.739  0.0404  0.2196 -0.2108
  434TMC3    O2 6533   2.704   0.280  11.225  0.3086  0.2006 -0.1950
  435MPD2     C 6534   0.058   0.791  15.261 -0.2059  0.7319 -0.1142
  435MPD2    C1 6535   0.003   0.804  15.389  0.4532 -0.3810 -0.7265
  435MPD2    C2 6536   0.088   0.792  15.502 -0.3298  0.2463  0.1383
  435MPD2    C3 6537   0.214   0.746  15.493  0.0498  0.5414  0.5836
  435MPD2    C4 6538   0.265   0.731  15.367 -0.7809  0.2568 -0.3901
  435MPD2    C5 6539   0.191   0.754  15.249  0.1444  0.0251 -0.1763
  435MPD2     H 6540   0.035   0.799  15.597  0.4880  2.2228  0.4630
  435MPD2    H1 6541   0.362   0.687  15.347 -0.6416  0.0805  0.6708
  435MPD2    H2 6542   0.002   0.801  15.168 -1.1150  0.3887  0.3992
  435MPD2    H3 6543   0.241   0.743  15.154 -1.0711  2.5813 -1.1152
  435MPD2     N 6544   0.273   0.700  15.611 -0.1348  0.4327  0.7515
  435MPD2    H5 6545   0.212   0.712  15.692 -0.0802 -1.1728  1.0181
  435MPD2    N1 6546   4.607   0.837  15.414 -0.5583 -0.2829 -0.1490
  435MPD2    H7 6547   4.582   0.854  15.511 -0.4568  0.9242 -0.3366
  436TMC3    C1 6548   4.305   1.051  15.553  0.8356 -0.1982 -1.0413
  436TMC3    C2 6549   4.409   1.025  15.471 -0.1716 -0.1427 -0.1084
  436TMC3    C3 6550   4.391   0.940  15.373 -0.2508  0.2834 -0.6069
  436TMC3    C4 6551   4.179   0.986  15.544  0.4086  1.1071 -0.2486
  436TMC3    C5 6552   4.170   0.895  15.442  0.2370  0.4067 -0.7346
  436TMC3    C6 6553   4.280   0.859  15.360  0.2342 -0.4757 -0.1270
  436TMC3     C 6554   4.341   1.119  15.673 -1.0268  0.3066  0.8114
  436TMC3     O 6555   4.463   1.156  15.683  0.0864 -0.1477  0.3696
  436TMC3     H 6556   4.503   1.079  15.470 -0.5900  0.5845  0.1682
  436TMC3    H1 6557   4.093   0.996  15.609  0.6070  1.0136  0.0292
  436TMC3    H2 6558   4.270   0.776  15.291 -0.8005  1.0220 -1.7799
  436TMC3    C7 6559   4.038   0.825  15.410  0.9901  0.6350  0.1719
  436TMC3    C8 6560   4.513   0.882  15.318  0.2621  0.6473 -0.1145
  436TMC3    O1 6561   4.043   0.701  15.396 -0.4406 -0.3417 -0.1390
  436TMC3    O2 6562   4.513   0.851  15.200 -0.3370 -0.3265 -0.0046
  437TMC3    C1 6563   3.572   3.270  12.381 -0.1807  0.3608 -0.2536
  437TMC3    C2 6564   3.484   3.341  12.307  0.0812 -0.1032  0.4955
  437TMC3    C3 6565   3.538   3.444  12.226  0.2215  0.4061  0.2349
  437TMC3    C4 6566   3.709   3.304  12.393 -0.4098  0.3901 -0.9428
  437TMC3    C5 6567   3.759   3.404  12.310  0.0846 -0.5223  0.4559
  437TMC3    C6 6568   3.674   3.475  12.219  0.3933  0.5370  0.9232
  437TMC3     C 6569   3.511   3.157  12.448 -1.1526  0.0459  0.6615
  437TMC3     O 6570   3.398   3.112  12.425  0.4684  0.5469 -0.5652
  437TMC3     H 6571   3.378   3.317  12.303  0.3813 -1.2936 -0.3244
  437TMC3    H1 6572   3.776   3.228  12.431 -0.2844 -0.5963 -3.1432
  437TMC3    H2 6573   3.725   3.541  12.150  2.7149 -1.6436  0.5544
  437TMC3    C7 6574   3.897   3.394  12.270 -0.5864  0.4891 -0.3386
  437TMC3    C8 6575   3.444   3.490  12.122  0.1951  0.0124 -0.4390
  437TMC3    O1 6576   3.930   3.432  12.161 -0.3022  0.1926  0.3843
  437TMC3    O2 6577   3.344   3.423  12.107  0.5093  0.1315 -0.1132
  438MPD2     C 6578   1.362   3.810  17.013 -0.2196  0.2570 -0.0063
  438MPD2    C1 6579   1.333   3.696  17.076 -0.0999  0.4304 -0.2168
  438MPD2    C2 6580   1.282   3.704  17.201 -0.8307  0.0785  0.0752
  438MPD2    C3 6581   1.227   3.815  17.250  0.0530 -0.4296  0.5581
  438MPD2    C4 6582   1.240   3.932  17.179  0.5067  0.3967  0.5980
  438MPD2    C5 6583   1.315   3.929  17.065  0.1887  0.1034 -0.1902
  438MPD2     H 6584   1.266   3.613  17.257 -1.1278  0.8531  1.2458
  438MPD2    H1 6585   1.194   4.022  17.216 -1.1476  0.3687 -1.3429
  438MPD2    H2 6586   1.424   3.814  16.924  0.7700  1.4221  0.7302
  438MPD2    H3 6587   1.332   4.023  17.015  1.2171  0.5662  1.0164
  438MPD2     N 6588   1.147   3.819  17.362 -0.0510  0.0325  0.0755
  438MPD2    H5 6589   1.102   3.908  17.384 -1.3924 -1.2898  2.8105
  438MPD2    N1 6590   1.388   3.574  17.032 -1.0725  0.0166  0.0167
  438MPD2    H7 6591   1.375   3.490  17.088  1.0269 -1.0855 -1.1286
  439TMC3    C1 6592   1.489   3.434  16.872  0.3860 -0.2253  0.1952
  439TMC3    C2 6593   1.474   3.378  16.752  0.8012  0.2157 -0.9067
  439TMC3    C3 6594   1.529   3.253  16.728  0.2439  0.0970  0.5988
  439TMC3    C4 6595   1.558   3.373  16.973 -0.3342  0.2102 -0.6099
  439TMC3    C5 6596   1.608   3.248  16.945  0.2144  0.1839  0.7163
  439TMC3    C6 6597   1.589   3.182  16.825 -0.2385 -0.4460  1.1422
  439TMC3     C 6598   1.428   3.562  16.901 -0.7903 -0.0556  0.3891
  439TMC3     O 6599   1.389   3.630  16.806  0.2324 -0.6092  0.1347
  439TMC3     H 6600   1.423   3.428  16.671  0.0659  0.7857 -0.0909
  439TMC3    H1 6601   1.588   3.436  17.055 -0.1471  0.5033 -0.9057
  439TMC3    H2 6602   1.632   3.085  16.803  0.1822 -0.4805  2.0914
  439TMC3    C7 6603   1.727   3.207  17.031  0.0732  0.2641  0.0272
  439TMC3    C8 6604   1.543   3.199  16.595 -0.8608 -0.3060  0.3368
  439TMC3    O1 6605   1.780   3.298  17.098  0.5890  0.1321  0.1829
  439TMC3    O2 6606   1.624   3.107  16.586  0.7380 -0.4041 -0.5196
  440MPD2     C 6607   4.479   3.817  15.034 -0.4111  0.1489  0.0006
  440MPD2    C1 6608   4.554   3.928  15.061  0.1464 -0.0924 -0.1899
  440MPD2    C2 6609   4.691   3.925  15.069 -0.5011 -0.3033 -0.6350
  440MPD2    C3 6610   0.016   3.805  15.023  0.2218 -1.2057  0.6191
  440MPD2    C4 6611   4.680   3.703  14.978 -0.0720  0.2729  0.3113
  440MPD2    C5 6612   4.542   3.710  14.985  0.4302  0.2994 -0.2242
  440MPD2     H 6613   0.008   4.014  15.096 -1.6366 -0.5529  2.3967
  440MPD2    H1 6614   4.727   3.614  14.936 -0.4318  0.1591  0.1459
  440MPD2    H2 6615   4.371   3.814  15.036 -0.4136 -0.6671 -1.1177
  440MPD2    H3 6616   4.484   3.626  14.949 -1.0228  1.6362 -1.0129
  440MPD2     N 6617   0.152   3.792  15.020  0.7096  0.2232 -0.8343
  440MPD2    H5 6618   0.182   3.702  14.985  0.0662  0.3677 -1.7870
  440MPD2    N1 6619   4.496   4.048  15.105  0.6197  0.1036 -0.3222
  440MPD2    H7 6620   4.557   4.126  15.125 -0.0807  0.3563  0.8176
  441TMC3    C1 6621   0.377   3.854  15.029  0.2899 -0.1266  0.6125
  441TMC3    C2 6622   0.452   3.960  15.057  0.2519  0.2641  0.2178
  441TMC3    C3 6623   0.560   3.931  15.132  0.5836 -0.2147 -0.1075
  441TMC3    C4 6624   0.400   3.720  15.062 -0.4058 -0.0059  0.1990
  441TMC3    C5 6625   0.504   3.699  15.152  0.0738 -0.0580  0.1002
  441TMC3    C6 6626   0.582   3.806  15.188 -0.5352 -0.1980  0.0724
  441TMC3     C 6627   0.243   3.887  15.060 -0.3016  0.3166  0.0691
  441TMC3     O 6628   0.227   3.991  15.119  0.2236 -0.6949 -0.7318
  441TMC3     H 6629   0.423   4.060  15.026 -2.7232 -0.3832  0.9245
  441TMC3    H1 6630   0.338   3.639  15.024 -0.1739  1.1439 -2.6297
  441TMC3    H2 6631   0.655   3.795  15.268 -0.4792 -0.8167 -0.0602
  441TMC3    C7 6632   0.453   3.624  15.270  0.1207 -0.2606 -0.7600
  441TMC3    C8 6633   0.597   4.038  15.223 -0.6272  0.3601  0.0121
  441TMC3    O1 6634   0.335   3.601  15.268  0.1729 -0.1865 -0.0212
  441TMC3    O2 6635   0.712   4.065  15.242 -0.0972 -0.1196 -0.2982
  442MPD2     C 6636   2.863   3.856  17.238 -0.2701  0.0124  0.4302
  442MPD2    C1 6637   2.888   3.923  17.121 -0.0056 -0.2108 -0.7248
  442MPD2    C2 6638   2.906   3.847  17.006 -0.9303 -0.2948 -0.3764
  442MPD2    C3 6639   2.905   3.706  17.009 -0.3831  0.2971 -1.0732
  442MPD2    C4 6640   2.868   3.644  17.122  0.3965  0.2029  0.8294
  442MPD2    C5 6641   2.855   3.722  17.238 -0.4143 -0.5236  0.3234
  442MPD2     H 6642   2.922   3.891  16.908  0.2747  0.9822  0.3862
  442MPD2    H1 6643   2.859   3.536  17.119  1.6483  0.0352  3.0617
  442MPD2    H2 6644   2.845   3.899  17.336 -0.1255  0.2586  0.3504
  442MPD2    H3 6645   2.833   3.657  17.322  1.1106  0.6641  1.6310
  442MPD2     N 6646   2.905   3.630  16.885 -0.0228 -0.1904 -0.0657
  442MPD2    H5 6647   2.891   3.531  16.903  2.0996 -0.6179 -0.8261
  442MPD2    N1 6648   2.893   4.066  17.115 -0.2173 -0.4174 -0.1292
  442MPD2    H7 6649   2.895   4.108  17.022 -1.5603  1.9235  0.8957
  443TMC3    C1 6650   2.850   4.283  17.162  0.4440  0.6224 -0.7374
  443TMC3    C2 6651   2.909   4.315  17.040 -0.3762  0.2966 -0.4824
  443TMC3    C3 6652   2.853   4.415  16.963  0.0121 -0.4520 -0.3140
  443TMC3    C4 6653   2.744   4.355  17.207 -0.6441 -0.1107  0.2907
  443TMC3    C5 6654   2.695   4.450  17.127 -0.0477 -0.9689  0.0513
  443TMC3    C6 6655   2.731   4.471  16.998 -0.3904 -0.1695  0.3099
  443TMC3     C 6656   2.859   4.156  17.213 -0.6247 -0.0905  0.2346
  443TMC3     O 6657   2.813   4.131  17.325 -0.5418 -0.3111  0.8137
  443TMC3     H 6658   2.989   4.258  16.995 -1.0943  0.4077 -1.9117
  443TMC3    H1 6659   2.694   4.335  17.300 -0.8112 -0.3949  0.1408
  443TMC3    H2 6660   2.680   4.542  16.935 -1.3064 -0.0770  1.1538
  443TMC3    C7 6661   2.549   4.460  17.142  0.0622 -0.1722 -0.2923
  443TMC3    C8 6662   2.864   4.392  16.825  0.0552  0.6707 -0.0139
  443TMC3    O1 6663   2.476   4.438  17.047  0.5868  0.4824 -0.4940
  443TMC3    O2 6664   2.894   4.279  16.797 -0.5805  0.0195  0.8906
  444MPD2     C 6665   3.233   4.129  17.225 -0.4207  0.3834  0.3451
  444MPD2    C1 6666   3.196   4.016  17.301 -0.1687  0.6481  0.1195
  444MPD2    C2 6667   3.202   3.893  17.243 -0.2317 -0.9120  0.0432
  444MPD2    C3 6668   3.248   3.881  17.108  0.4070 -0.7317 -0.1019
  444MPD2    C4 6669   3.278   3.995  17.032 -0.0461 -0.0050  0.3230
  444MPD2    C5 6670   3.276   4.115  17.096 -0.2593  0.2190  0.4783
  444MPD2     H 6671   3.169   3.801  17.290 -0.6827  0.0457  1.5727
  444MPD2    H1 6672   3.305   3.985  16.928  0.4798  1.1450  0.3530
  444MPD2    H2 6673   3.221   4.227  17.270  1.1597  1.0878 -0.7530
  444MPD2    H3 6674   3.309   4.206  17.047  0.7667  0.1766  1.0914
  444MPD2     N 6675   3.257   3.748  17.052  0.1333 -0.1001  0.2733
  444MPD2    H5 6676   3.220   3.676  17.114 -0.5776 -0.7237 -0.8794
  444MPD2    N1 6677   3.142   4.022  17.430  0.0449 -0.5993 -0.0098
  444MPD2    H7 6678   3.114   3.931  17.464 -0.8842 -0.8013 -1.3119
  445TMC3    C1 6679   3.317   3.566  16.917  0.8816  0.1106  0.2409
  445TMC3    C2 6680   3.238   3.471  16.984  0.1850 -0.0809  0.0908
  445TMC3    C3 6681   3.272   3.340  16.961  0.0848 -0.2536  0.2844
  445TMC3    C4 6682   3.429   3.525  16.847  0.1659 -0.0289  0.0766
  445TMC3    C5 6683   3.479   3.400  16.865 -0.8367 -0.8614 -0.1492
  445TMC3    C6 6684   3.396   3.302  16.915 -0.3182  0.2571 -0.5570
  445TMC3     C 6685   3.306   3.711  16.928  0.3892 -0.4518 -0.2969
  445TMC3     O 6686   3.367   3.777  16.848 -0.2496  0.5157  0.0398
  445TMC3     H 6687   3.142   3.495  17.028 -0.0785 -0.1382 -0.4453
  445TMC3    H1 6688   3.492   3.603  16.805 -1.9717  1.7850  0.2395
  445TMC3    H2 6689   3.426   3.198  16.914 -0.8337  0.1017  0.0702
  445TMC3    C7 6690   3.595   3.356  16.787  0.2554  0.0759  0.0608
  445TMC3    C8 6691   3.206   3.241  17.044  0.2392  1.1100  0.3893
  445TMC3    O1 6692   3.639   3.415  16.686 -0.5151 -0.6394 -0.0575
  445TMC3    O2 6693   3.098   3.274  17.091  0.1491  0.1531 -0.1449
  446MPD2     C 6694   2.524   0.048  11.662 -0.1651 -0.1672 -0.3795
  446MPD2    C1 6695   2.483   0.093  11.541  0.1372 -0.1636  0.2053
  446MPD2    C2 6696   2.561   0.189  11.477  0.0653  0.4331  0.1424
  446MPD2    C3 6697   2.673   0.239  11.541  0.2279 -0.2433  0.2703
  446MPD2    C4 6698   2.708   0.188  11.668 -0.7029 -0.3460  0.4365
  446MPD2    C5 6699   2.630   0.092  11.728 -0.1725  0.5820 -0.0112
  446MPD2     H 6700   2.540   0.214  11.374  0.2031 -0.9456 -0.2246
  446MPD2    H1 6701   2.791   0.234  11.721 -1.3000  1.3488 -0.1162
  446MPD2    H2 6702   2.474   4.699  11.704 -1.3522  1.0552  0.7200
  446MPD2    H3 6703   2.656   0.042  11.821 -2.8834 -0.6570  0.0695
  446MPD2     N 6704   2.759   0.323  11.468 -0.0154 -0.3169 -0.0858
  446MPD2    H5 6705   2.742   0.333  11.369  1.9814 -0.7537 -0.4630
  446MPD2    N1 6706   2.364   0.050  11.476  0.3271  0.8981  0.1285
  446MPD2    H7 6707   2.335   0.099  11.392 -0.1740  0.6465  0.1537
  447TMC3    C1 6708   2.956   0.411  11.391 -0.1409  0.1400 -0.4207
  447TMC3    C2 6709   2.905   0.505  11.303  0.0747  0.2396  0.0007
  447TMC3    C3 6710   2.977   0.534  11.193  0.6226 -0.3096 -0.5065
  447TMC3    C4 6711   3.082   0.358  11.384 -0.4626  0.2641  0.0769
  447TMC3    C5 6712   3.151   0.407  11.277  0.3469 -0.0698  0.0137
  447TMC3    C6 6713   3.109   0.488  11.178 -0.5201 -0.2274  0.3862
  447TMC3     C 6714   2.887   0.371  11.506  0.1558  0.1843 -0.3879
  447TMC3     O 6715   2.949   0.358  11.607  0.2076 -0.2656  0.2683
  447TMC3     H 6716   2.800   0.529  11.309  0.1834  0.2645  1.9939
  447TMC3    H1 6717   3.098   0.278  11.454 -1.1262  0.0536 -0.0099
  447TMC3    H2 6718   3.168   0.512  11.090 -3.0180  0.8540 -0.9643
  447TMC3    C7 6719   3.288   0.355  11.266 -0.2037  0.1454 -0.3000
  447TMC3    C8 6720   2.939   0.639  11.102  0.0868  0.0191  0.4035
  447TMC3    O1 6721   3.348   0.348  11.161  0.5321 -0.6272 -0.0841
  447TMC3    O2 6722   2.989   0.628  10.993 -0.4714 -0.1624 -0.5165
  448TMC3    C1 6723   1.562   0.218  16.370 -0.0099 -0.4045 -0.1124
  448TMC3    C2 6724   1.632   0.104  16.379  0.6869 -0.7473 -0.0382
  448TMC3    C3 6725   1.714   0.081  16.486 -0.0660 -0.2339  0.0967
  448TMC3    C4 6726   1.585   0.313  16.459  0.0309 -0.3225  0.5705
  448TMC3    C5 6727   1.663   0.290  16.568  0.2363  0.2013  0.2250
  448TMC3    C6 6728   1.734   0.174  16.583 -0.8122 -0.5578  0.0344
  448TMC3     C 6729   1.443   0.223  16.285  0.4389  0.0515 -0.5244
  448TMC3     O 6730   1.430   0.137  16.199  0.5517 -0.1329  0.0634
  448TMC3     H 6731   1.609   0.025  16.308  0.0836 -1.9777  1.5167
  448TMC3    H1 6732   1.525   0.403  16.458 -0.2373 -0.5129 -0.4213
  448TMC3    H2 6733   1.797   0.165  16.671 -1.0043  0.1961  0.2533
  448TMC3    C7 6734   1.655   0.389  16.674  0.4640 -0.3863  0.6370
  448TMC3    C8 6735   1.746   4.689  16.526 -0.2460 -0.1012  0.1566
  448TMC3    O1 6736   1.645   0.502  16.635  0.7390  0.1076  0.1674
  448TMC3    O2 6737   1.755   4.666  16.644  0.3795 -0.2417  0.0230
  449MPD2     C 6738   2.768   3.169  14.053 -0.3411 -0.4586  0.0285
  449MPD2    C1 6739   2.656   3.229  14.007 -0.1406 -0.8596  1.0793
  449MPD2    C2 6740   2.532   3.178  14.033 -0.4916 -0.3293  0.1182
  449MPD2    C3 6741   2.520   3.049  14.084 -0.4090 -0.1697  0.2920
  449MPD2    C4 6742   2.630   2.975  14.112 -1.0590  0.3388 -0.0571
  449MPD2    C5 6743   2.754   3.043  14.108 -0.9273 -0.2636 -0.8546
  449MPD2     H 6744   2.439   3.226  14.004 -0.6948 -0.8413 -0.0798
  449MPD2    H1 6745   2.616   2.875  14.149 -1.6976 -0.2425 -1.8901
  449MPD2    H2 6746   2.868   3.211  14.051  0.1708 -1.7345 -1.0430
  449MPD2    H3 6747   2.840   2.988  14.144 -1.8278  0.5878  2.5204
  449MPD2     N 6748   2.390   2.996  14.108  0.3082  0.0875  0.3869
  449MPD2    H5 6749   2.322   3.064  14.076  0.6025 -0.4220 -1.3208
  449MPD2    N1 6750   2.656   3.354  13.940 -0.0839  0.1018 -0.0803
  449MPD2    H7 6751   2.568   3.403  13.929 -0.3352 -0.4639 -0.6018
  450TMC3    C1 6752   2.704   3.550  13.836 -0.1476  0.4414 -0.0348
  450TMC3    C2 6753   2.741   3.578  13.707  1.5195 -0.4352 -0.4817
  450TMC3    C3 6754   2.644   3.640  13.627 -0.3708 -0.3314  0.5741
  450TMC3    C4 6755   2.586   3.597  13.889  0.2444 -0.0974  0.4498
  450TMC3    C5 6756   2.488   3.637  13.801 -0.3498  0.1188  0.2186
  450TMC3    C6 6757   2.515   3.659  13.668 -0.0033  0.1238  0.6165
  450TMC3     C 6758   2.763   3.432  13.895 -0.5165  0.1234  0.7032
  450TMC3     O 6759   2.882   3.410  13.885 -0.3094  0.3643  0.1340
  450TMC3     H 6760   2.836   3.550  13.663  1.8248 -0.8946  0.4782
  450TMC3    H1 6761   2.558   3.571  13.990  2.2790  0.3562  1.1315
  450TMC3    H2 6762   2.429   3.689  13.609  0.1174  0.9365  0.8667
  450TMC3    C7 6763   2.369   3.559  13.812  0.9510 -0.2916  0.1337
  450TMC3    C8 6764   2.661   3.669  13.488 -0.1093 -0.2483  0.5795
  450TMC3    O1 6765   2.405   3.447  13.855 -0.0197  0.1118  0.1404
  450TMC3    O2 6766   2.592   3.756  13.421  0.2189  0.0638 -0.1129
  451MPD2     C 6767   0.191   3.841   1.125 -0.2348 -0.1188 -0.1678
  451MPD2    C1 6768   0.128   3.826   1.254  0.2286  0.4796 -0.0905
  451MPD2    C2 6769   0.099   3.700   1.293 -0.1618 -0.2085  0.2118
  451MPD2    C3 6770   0.108   3.599   1.205  0.8157 -0.6919  0.3585
  451MPD2    C4 6771   0.176   3.615   1.086 -0.1498  0.5412  0.3018
  451MPD2    C5 6772   0.230   3.736   1.056 -0.5148  0.2907 -0.1947
  451MPD2     H 6773   0.062   3.684   1.394  0.9718 -0.2068  0.6271
  451MPD2    H1 6774   0.211   3.531   1.028  0.8529  0.8783  0.4266
  451MPD2    H2 6775   0.227   3.936   1.086  2.2318 -1.1903 -0.5143
  451MPD2    H3 6776   0.294   3.752   0.970 -1.7544 -1.2524 -1.4102
  451MPD2     N 6777   0.039   3.478   1.216  0.1073 -0.0588  0.1488
  451MPD2    H5 6778   0.034   3.423   1.131  0.8329  1.6742 -1.0086
  451MPD2    N1 6779   0.103   3.947   1.331 -0.4566  0.2568 -0.6444
  451MPD2    H7 6780   0.163   4.023   1.301 -0.6781  0.6439 -0.1055
  452TMC3    C1 6781   4.607   3.346   1.302 -0.0931 -0.0833  0.0438
  452TMC3    C2 6782   4.520   3.322   1.412 -0.2596 -0.4909 -0.7791
  452TMC3    C3 6783   4.391   3.283   1.387  0.0450 -0.6808  0.0674
  452TMC3    C4 6784   4.557   3.343   1.174 -1.0376 -0.0847  0.3825
  452TMC3    C5 6785   4.422   3.320   1.158 -0.1864 -0.5921 -0.0777
  452TMC3    C6 6786   4.334   3.298   1.267 -0.2178 -0.5583 -0.2470
  452TMC3     C 6787   4.706   3.442   1.329  0.5018 -0.9894 -0.2230
  452TMC3     O 6788   4.709   3.489   1.441  0.3364  0.1130  0.0499
  452TMC3     H 6789   4.562   3.317   1.512 -1.4575 -3.4023 -0.4096
  452TMC3    H1 6790   4.620   3.353   1.086 -0.6273  2.3339  0.9437
  452TMC3    H2 6791   4.231   3.268   1.253  0.5401 -3.1077 -0.3157
  452TMC3    C7 6792   4.367   3.303   1.022 -0.2871  0.6993 -0.1511
  452TMC3    C8 6793   4.299   3.247   1.498  1.2407  0.8910 -0.3705
  452TMC3    O1 6794   4.448   3.286   0.931  0.1195 -0.2744  0.3048
  452TMC3    O2 6795   4.187   3.213   1.466  0.4412 -0.2967  0.4964
  453TMC3    C1 6796   0.170   3.641  12.019  0.1696  0.4403  0.7483
  453TMC3    C2 6797   0.200   3.548  11.923 -0.3404  0.1428  0.1741
  453TMC3    C3 6798   0.140   3.562  11.802 -0.2752 -0.8009 -0.2277
  453TMC3    C4 6799   0.082   3.746  11.987 -0.4575  0.8095 -0.0662
  453TMC3    C5 6800   0.038   3.758  11.857  0.2892  0.1442  0.2743
  453TMC3    C6 6801   0.054   3.660  11.763  0.5606 -0.2252 -0.3374
  453TMC3     C 6802   0.283   3.692  12.095  0.3777 -0.1013 -0.9663
  453TMC3     O 6803   0.301   3.813  12.085 -0.3320  1.0439 -0.7794
  453TMC3     H 6804   0.268   3.467  11.948 -0.2327  0.0629 -0.3867
  453TMC3    H1 6805   0.068   3.822  12.063  1.7412  1.4794 -0.3414
  453TMC3    H2 6806   0.023   3.666  11.660 -0.5163  2.6363  0.1481
  453TMC3    C7 6807   0.086   3.880  11.792 -0.1059 -0.1231  0.9706
  453TMC3    C8 6808   0.129   3.439  11.714  0.4359 -0.4059 -1.0332
  453TMC3    O1 6809   0.106   3.879  11.673 -0.1296  0.4377  0.0123
  453TMC3    O2 6810   0.072   3.447  11.602 -0.1769  0.5198 -0.1131
  454MPD2     C 6811   3.917   3.392  15.906  0.4839 -0.0707 -0.4278
  454MPD2    C1 6812   3.810   3.477  15.896  0.2288 -0.1628  0.0304
  454MPD2    C2 6813   3.765   3.548  16.010  0.2606 -0.3750  0.2954
  454MPD2    C3 6814   3.830   3.531  16.130  0.0657 -0.8897  0.2226
  454MPD2    C4 6815   3.940   3.445  16.138 -0.5273  0.2606 -0.5633
  454MPD2    C5 6816   3.983   3.378  16.026  0.6016  0.9037  0.2430
  454MPD2     H 6817   3.682   3.614  15.990 -2.5800 -3.9180  0.4118
  454MPD2    H1 6818   4.002   3.447  16.226 -0.9428  1.4924 -0.2851
  454MPD2    H2 6819   3.949   3.352  15.811  2.7691  0.6590  0.0396
  454MPD2    H3 6820   4.074   3.321  16.038  0.0500 -0.3228 -1.3564
  454MPD2     N 6821   3.780   3.585  16.248  0.0495  1.0095 -0.8578
  454MPD2    H5 6822   3.819   3.543  16.332 -0.6610  0.2711 -0.9007
  454MPD2    N1 6823   3.733   3.489  15.777  0.4840  0.5037 -0.4139
  454MPD2    H7 6824   3.663   3.563  15.768  1.4144  1.4077 -0.2737
  455TMC3    C1 6825   3.608   3.680  16.389 -0.0872 -0.9023 -0.5315
  455TMC3    C2 6826   3.534   3.795  16.414  0.4512  0.0459  1.2568
  455TMC3    C3 6827   3.409   3.783  16.466 -0.3683 -0.6972 -0.4416
  455TMC3    C4 6828   3.562   3.558  16.430  0.1304  0.6026 -1.2081
  455TMC3    C5 6829   3.432   3.550  16.483 -0.3149 -0.4012 -0.3429
  455TMC3    C6 6830   3.357   3.658  16.500  0.0129  0.5430  0.6464
  455TMC3     C 6831   3.678   3.681  16.261  0.1196 -0.6252 -0.6056
  455TMC3     O 6832   3.644   3.769  16.182  0.1311 -0.0996 -0.0448
  455TMC3     H 6833   3.566   3.885  16.363 -1.2797 -0.7007 -1.0966
  455TMC3    H1 6834   3.604   3.468  16.387  0.2835  0.5432 -0.9332
  455TMC3    H2 6835   3.265   3.647  16.556 -0.3859 -1.5352 -0.4177
  455TMC3    C7 6836   3.366   3.423  16.472  0.7736  0.7983  0.3522
  455TMC3    C8 6837   3.329   3.901  16.487 -0.0836 -0.6061  0.5974
  455TMC3    O1 6838   3.247   3.419  16.442  0.1595  1.0649 -0.6383
  455TMC3    O2 6839   3.207   3.899  16.483 -0.3247 -0.1470  0.7526
  456MPD2     C 6840   1.830   3.344  16.473 -0.9373 -0.6730 -0.3573
  456MPD2    C1 6841   1.768   3.450  16.411 -0.3525 -0.3326 -0.4185
  456MPD2    C2 6842   1.741   3.565  16.483 -1.2416 -0.9518  0.2111
  456MPD2    C3 6843   1.765   3.568  16.618  0.0935 -0.0804 -0.3527
  456MPD2    C4 6844   1.811   3.459  16.684  0.7141  0.5717  0.3335
  456MPD2    C5 6845   1.841   3.351  16.612  0.3963  0.2734  0.4770
  456MPD2     H 6846   1.707   3.654  16.433  0.1023 -0.7266 -0.2792
  456MPD2    H1 6847   1.854   3.455  16.784  1.4558  1.8351  0.0555
  456MPD2    H2 6848   1.873   3.259  16.422 -0.4588 -1.1319  0.8074
  456MPD2    H3 6849   1.888   3.267  16.661  1.9028  0.0247 -1.3845
  456MPD2     N 6850   1.753   3.694  16.682 -0.0623  0.2334 -0.2992
  456MPD2    H5 6851   1.721   3.772  16.627  0.7144 -0.2866 -1.4830
  456MPD2    N1 6852   1.775   3.445  16.273  0.0627  0.4835 -0.5353
  456MPD2    H7 6853   1.812   3.360  16.232  3.3777  0.9074  1.5773
  457TMC3    C1 6854   1.737   3.852  16.862  0.3504 -0.3060  0.6773
  457TMC3    C2 6855   1.778   3.957  16.774  0.1205 -0.6952 -0.2517
  457TMC3    C3 6856   1.773   4.086  16.825  0.1711 -0.5011  0.3090
  457TMC3    C4 6857   1.718   3.866  16.995  0.2735  0.3446 -0.0968
  457TMC3    C5 6858   1.722   3.991  17.041  0.3898  0.3914  0.4944
  457TMC3    C6 6859   1.741   4.105  16.966  0.8170 -0.9405  0.0996
  457TMC3     C 6860   1.756   3.716  16.818  0.1652  0.3234 -0.0153
  457TMC3     O 6861   1.752   3.635  16.909  0.1808 -0.2629  0.0747
  457TMC3     H 6862   1.798   3.938  16.670  2.8058  0.7714 -0.0035
  457TMC3    H1 6863   1.696   3.785  17.064 -2.3649  0.3740 -0.9133
  457TMC3    H2 6864   1.708   4.205  16.990  1.8085 -0.7910  0.8252
  457TMC3    C7 6865   1.751   3.997  17.183 -0.0778 -0.1610 -0.3439
  457TMC3    C8 6866   1.777   4.205  16.743  0.3969 -0.8159  0.0943
  457TMC3    O1 6867   1.733   3.898  17.250  0.1266 -0.1098  0.1069
  457TMC3    O2 6868   1.740   4.314  16.787 -0.4609 -0.1207 -0.1817
  458MPD2     C 6869   4.360   3.218  12.362  0.0551 -0.3579 -0.2515
  458MPD2    C1 6870   4.288   3.200  12.477 -0.5059  0.1093 -0.8283
  458MPD2    C2 6871   4.158   3.254  12.481  0.0668 -0.3936 -0.2049
  458MPD2    C3 6872   4.103   3.313  12.369  0.0231  0.2041 -0.0101
  458MPD2    C4 6873   4.186   3.346  12.261 -0.4020 -0.4765 -0.1243
  458MPD2    C5 6874   4.307   3.292  12.261  0.0957  0.1842 -0.2315
  458MPD2     H 6875   4.092   3.258  12.566  0.3720  2.5556 -0.1044
  458MPD2    H1 6876   4.156   3.400  12.172 -0.2837  0.6606  0.5250
  458MPD2    H2 6877   4.462   3.182  12.355  0.1378 -0.1924  0.1353
  458MPD2    H3 6878   4.374   3.325  12.183 -1.2938  1.0258 -1.0658
  458MPD2     N 6879   3.966   3.344  12.377  0.4218 -0.0191  0.6448
  458MPD2    H5 6880   3.923   3.310  12.462 -1.2226  0.5817  0.0578
  458MPD2    N1 6881   4.352   3.141  12.588 -0.6006  0.2385  0.2093
  458MPD2    H7 6882   4.449   3.114  12.577 -1.5111 -3.6091  1.8344
  459TMC3    C1 6883   4.358   3.066  12.820 -0.2275 -0.5795 -0.4130
  459TMC3    C2 6884   4.486   3.113  12.838 -0.4623  0.3527  0.2994
  459TMC3    C3 6885   4.542   3.098  12.965 -0.9904 -0.2059  0.4742
  459TMC3    C4 6886   4.290   2.989  12.911  0.0610 -0.0491 -0.0892
  459TMC3    C5 6887   4.356   2.959  13.027 -0.0093  0.1065  1.1192
  459TMC3    C6 6888   4.482   3.016  13.057  1.1649  0.4231 -0.4418
  459TMC3     C 6889   4.284   3.108  12.708 -0.3522 -0.5869  0.1584
  459TMC3     O 6890   4.163   3.096  12.717 -0.4070  1.0888 -0.2735
  459TMC3     H 6891   4.548   3.165  12.766  1.5767  0.4088  2.0590
  459TMC3    H1 6892   4.197   2.948  12.873  0.0547 -1.8802  1.9470
  459TMC3    H2 6893   4.546   2.995  13.142  0.5059  2.4711  0.5564
  459TMC3    C7 6894   4.300   2.870  13.115 -0.0335  0.4122 -0.4097
  459TMC3    C8 6895   4.676   3.161  12.986  0.4882 -0.1142 -0.3033
  459TMC3    O1 6896   4.385   2.822  13.182 -0.0833 -0.2207 -0.3560
  459TMC3    O2 6897   0.020   3.094  13.046  0.4049  0.1510 -0.8595
  460MPD2     C 6898   2.842   0.992  11.170  0.1411 -0.5058  0.6935
  460MPD2    C1 6899   2.860   0.879  11.092 -0.5903 -0.3746 -0.4180
  460MPD2    C2 6900   2.823   0.876  10.959 -0.0345  0.3603 -0.8405
  460MPD2    C3 6901   2.788   0.998  10.899  0.3196 -0.1561 -0.0739
  460MPD2    C4 6902   2.765   1.107  10.978  0.1324  0.5151 -0.7450
  460MPD2    C5 6903   2.785   1.099  11.113  0.1441  0.9031 -0.0269
  460MPD2     H 6904   2.814   0.783  10.905 -0.1681  0.7852 -1.5421
  460MPD2    H1 6905   2.703   1.190  10.946  0.0408  0.4945 -0.6183
  460MPD2    H2 6906   2.865   0.992  11.276 -1.5640  0.5378  1.0728
  460MPD2    H3 6907   2.759   1.187  11.170 -2.3507 -1.0214  1.8190
  460MPD2     N 6908   2.735   0.986  10.769  0.2138  0.0241 -0.2255
  460MPD2    H5 6909   2.718   0.890  10.741 -1.9843  0.5481 -0.7097
  460MPD2    N1 6910   2.888   0.754  11.160 -0.4241  0.4188 -0.0688
  460MPD2    H7 6911   2.876   0.762  11.260 -1.6094 -1.7242 -0.0314
  461TMC3    C1 6912   2.642   1.073  10.555  0.1104  1.0912  0.4947
  461TMC3    C2 6913   2.637   0.947  10.503  0.2059  0.8960  0.4585
  461TMC3    C3 6914   2.571   0.928  10.385 -0.0647 -0.8586 -0.3188
  461TMC3    C4 6915   2.609   1.184  10.479 -0.3489  0.1770  0.3051
  461TMC3    C5 6916   2.552   1.161  10.357 -0.5069  0.0445  0.0160
  461TMC3    C6 6917   2.529   1.033  10.309  0.6371  0.6010  0.4428
  461TMC3     C 6918   2.699   1.094  10.688 -0.6658 -0.5970  0.1064
  461TMC3     O 6919   2.739   1.210  10.711 -1.1060 -0.3279 -0.1343
  461TMC3     H 6920   2.641   0.856  10.561 -2.2433  0.6062  0.1947
  461TMC3    H1 6921   2.643   1.281  10.514 -0.8959  0.9403 -1.2771
  461TMC3    H2 6922   2.463   1.007  10.228  0.1783  0.1039  0.9811
  461TMC3    C7 6923   2.519   1.283  10.275 -0.3958 -0.2632 -0.3714
  461TMC3    C8 6924   2.621   0.810  10.315  0.1422  0.2319 -0.2126
  461TMC3    O1 6925   2.423   1.279  10.197  0.0452  0.6986  0.7771
  461TMC3    O2 6926   2.723   0.755  10.349  0.1474 -0.1470  0.2804
  462TMC3    C1 6927   3.455   2.257  17.443  0.3401  1.1441  0.1377
  462TMC3    C2 6928   3.382   2.156  17.386 -0.1928  1.1676 -0.0417
  462TMC3    C3 6929   3.423   2.028  17.398 -0.8518  0.1210 -0.0274
  462TMC3    C4 6930   3.575   2.233  17.502  0.4545 -0.5030 -0.1550
  462TMC3    C5 6931   3.607   2.096  17.514  0.8688 -0.9056 -0.3787
  462TMC3    C6 6932   3.544   1.994  17.454  0.0145  0.5246 -0.4388
  462TMC3     C 6933   3.383   2.372  17.494  0.1141  0.6051 -0.0170
  462TMC3     O 6934   3.264   2.359  17.497 -0.5445  0.0036 -0.2350
  462TMC3     H 6935   3.289   2.189  17.341 -2.2428 -0.8569  2.6845
  462TMC3    H1 6936   3.630   2.307  17.558  0.1035 -1.7897  1.8795
  462TMC3    H2 6937   3.552   1.894  17.495  0.1198  0.9891  0.6677
  462TMC3    C7 6938   3.668   2.061  17.639  0.0967 -0.3330 -0.0054
  462TMC3    C8 6939   3.314   1.930  17.392  0.0661 -0.3770 -0.7998
  462TMC3    O1 6940   3.590   2.076  17.733  0.1673  0.0562  0.2174
  462TMC3    O2 6941   3.203   1.975  17.405 -0.8381  0.1128  0.0513
  463MPD2     C 6942   3.178   1.460   2.645 -0.2733  0.1651 -0.1862
  463MPD2    C1 6943   3.251   1.453   2.529  0.0694 -0.3209 -0.4873
  463MPD2    C2 6944   3.328   1.557   2.487 -0.0411 -0.8189 -0.3187
  463MPD2    C3 6945   3.333   1.673   2.554 -0.1791  0.5610  0.4374
  463MPD2    C4 6946   3.274   1.675   2.678 -0.2448 -0.3793 -0.0055
  463MPD2    C5 6947   3.190   1.575   2.720 -0.2164  0.2794 -0.0981
  463MPD2     H 6948   3.359   1.553   2.383  0.1717 -1.9157 -0.2203
  463MPD2    H1 6949   3.277   1.768   2.734  0.0361 -0.8082  0.7020
  463MPD2    H2 6950   3.118   1.384   2.693  0.0249 -1.4022 -2.3288
  463MPD2    H3 6951   3.132   1.597   2.808  1.6580 -0.4558  1.3287
  463MPD2     N 6952   3.414   1.783   2.515 -0.0925 -0.1346 -0.1662
  463MPD2    H5 6953   3.401   1.868   2.568  2.9622  0.3377 -0.1653
  463MPD2    N1 6954   3.256   1.344   2.443 -0.3868 -0.0096 -0.3202
  463MPD2    H7 6955   3.320   1.355   2.365 -1.2038 -0.2986 -1.0327
  464TMC3    C1 6956   3.243   1.134   2.359  0.1807 -0.2392  0.2002
  464TMC3    C2 6957   3.297   1.186   2.245  0.0627  0.3404  0.0044
  464TMC3    C3 6958   3.363   1.110   2.156  0.0443 -0.2844 -0.6236
  464TMC3    C4 6959   3.248   1.004   2.375 -0.2023  0.4364  0.8252
  464TMC3    C5 6960   3.322   0.929   2.289 -0.4428 -0.6516 -0.5233
  464TMC3    C6 6961   3.382   0.978   2.179  0.1099 -0.7934 -0.9608
  464TMC3     C 6962   3.212   1.216   2.475  0.4982 -0.4456  0.3539
  464TMC3     O 6963   3.166   1.178   2.584 -0.3735  0.3383 -0.1068
  464TMC3     H 6964   3.286   1.289   2.211  2.5124 -0.5102 -3.3829
  464TMC3    H1 6965   3.213   0.958   2.466  1.0149 -0.6353  0.7459
  464TMC3    H2 6966   3.437   0.916   2.109  0.2718 -0.2993 -1.2668
  464TMC3    C7 6967   3.356   0.795   2.338  0.1101 -0.1892 -0.1027
  464TMC3    C8 6968   3.398   1.160   2.023 -0.5498 -0.0807 -0.6984
  464TMC3    O1 6969   3.354   0.773   2.458  0.0347 -0.4342  0.0779
  464TMC3    O2 6970   3.334   1.252   1.973 -0.2432  0.3111  0.1942
  465MPD2     C 6971   1.020   3.742  16.450 -0.1742 -0.0236  0.2040
  465MPD2    C1 6972   0.945   3.673  16.545  0.0986 -0.6001 -0.0890
  465MPD2    C2 6973   0.814   3.714  16.554  0.7135  0.0588 -0.3646
  465MPD2    C3 6974   0.759   3.805  16.468 -0.0336  0.2522  0.8144
  465MPD2    C4 6975   0.833   3.849  16.360 -0.1338 -0.1442 -0.0863
  465MPD2    C5 6976   0.965   3.811  16.349  0.1280 -0.0700 -0.7515
  465MPD2     H 6977   0.757   3.677  16.638  1.0191 -2.2775 -1.2018
  465MPD2    H1 6978   0.784   3.908  16.283 -3.8704 -0.3240  2.1254
  465MPD2    H2 6979   1.127   3.724  16.452  0.1788  2.0223 -0.7952
  465MPD2    H3 6980   1.022   3.852  16.267  0.6350  2.7172  0.9740
  465MPD2     N 6981   0.624   3.848  16.476  0.4525 -0.1352  0.0165
  465MPD2    H5 6982   0.599   3.902  16.393  0.2890  0.3249  0.3661
  465MPD2    N1 6983   1.001   3.579  16.643 -0.9887 -0.5403 -0.0942
  465MPD2    H7 6984   0.947   3.565  16.728 -1.8505  1.8053 -0.2572
  466TMC3    C1 6985   0.169   3.873  16.578  0.0804  0.4684 -0.2165
  466TMC3    C2 6986   0.147   3.989  16.508 -0.6784  0.2581 -0.2066
  466TMC3    C3 6987   0.261   4.048  16.460  0.4815 -0.3119  0.6949
  466TMC3    C4 6988   0.286   3.810  16.585 -0.0056 -0.8494  0.0834
  466TMC3    C5 6989   0.395   3.869  16.541  0.7421 -0.7830 -0.1980
  466TMC3    C6 6990   0.389   3.990  16.469 -0.5913  0.4384 -1.0924
  466TMC3     C 6991   0.068   3.857  16.685  0.4667  0.1452 -0.4392
  466TMC3     O 6992   0.101   3.809  16.793 -0.2258 -0.3582 -0.4059
  466TMC3     H 6993   0.060   4.052  16.513 -0.3376  0.8071 -1.2215
  466TMC3    H1 6994   0.293   3.730  16.658  0.1389 -1.1837 -0.2954
  466TMC3    H2 6995   0.477   4.046  16.437 -0.1131  0.3768  0.1174
  466TMC3    C7 6996   0.526   3.812  16.567 -0.5420  0.8224  0.7345
  466TMC3    C8 6997   0.247   4.180  16.407  0.0754  1.0196 -0.2041
  466TMC3    O1 6998   0.534   3.737  16.665 -0.2767  0.4649  0.0803
  466TMC3    O2 6999   0.319   4.219  16.316  0.3665  0.2590  0.6541
  467TMC3    C1 7000   1.202   2.071  13.882  0.1266 -0.9520  0.4536
  467TMC3    C2 7001   1.272   1.999  13.792  0.2579  0.0473 -0.4026
  467TMC3    C3 7002   1.259   2.022  13.658 -0.3855  0.2023  0.4936
  467TMC3    C4 7003   1.112   2.163  13.839  0.7646  0.0964 -0.2563
  467TMC3    C5 7004   1.089   2.163  13.704  0.2319 -0.4151 -0.2890
  467TMC3    C6 7005   1.154   2.090  13.614  1.0217  0.5051 -0.4814
  467TMC3     C 7006   1.282   2.105  13.995  0.2112  0.2673 -0.6513
  467TMC3     O 7007   1.301   2.227  14.012  0.0028 -0.1174  0.0176
  467TMC3     H 7008   1.354   1.935  13.823 -0.3810 -1.1612 -1.1753
  467TMC3    H1 7009   1.067   2.224  13.916  0.4945 -1.6109  0.9503
  467TMC3    H2 7010   1.138   2.098  13.507 -2.5162  2.0786  0.1507
  467TMC3    C7 7011   0.968   2.227  13.662  0.5857 -0.4835 -0.1694
  467TMC3    C8 7012   1.381   2.056  13.584  0.6930 -0.3427 -0.5652
  467TMC3    O1 7013   0.930   2.223  13.543 -0.1386  0.5110  0.4033
  467TMC3    O2 7014   1.363   2.132  13.490  0.3765  0.7801  0.7615
  468MPD2     C 7015   0.022   0.720  10.961  0.0878 -0.4251  0.1615
  468MPD2    C1 7016   0.109   0.638  11.017 -0.5966  0.0059  0.3829
  468MPD2    C2 7017   0.134   0.513  10.961 -0.5923 -0.1572  0.5079
  468MPD2    C3 7018   0.077   0.477  10.836 -0.7272  0.2152  0.4485
  468MPD2    C4 7019   4.726   0.556  10.783  0.3056  0.1643 -0.1189
  468MPD2    C5 7020   4.697   0.677  10.843 -1.0251  0.8236  0.0831
  468MPD2     H 7021   0.209   0.461  11.020  1.4362  0.9725 -1.0738
  468MPD2    H1 7022   4.669   0.526  10.695 -0.0001  2.3893 -0.6845
  468MPD2    H2 7023   4.737   0.815  11.007  2.4722  0.5475 -0.6462
  468MPD2    H3 7024   4.626   0.740  10.791 -0.4528  0.2216 -1.4349
  468MPD2     N 7025   0.097   0.354  10.773  0.0837  0.0657  0.3848
  468MPD2    H5 7026   0.034   0.335  10.696  0.1399 -1.9658  0.8142
  468MPD2    N1 7027   0.188   0.672  11.135  0.3333 -0.3108 -0.3263
  468MPD2    H7 7028   0.263   0.608  11.161  0.2454 -0.3886 -0.2666
  469TMC3    C1 7029   0.253   0.812  11.323 -0.4124 -1.1390  0.6530
  469TMC3    C2 7030   0.383   0.775  11.306 -0.0179  0.2912 -0.3033
  469TMC3    C3 7031   0.475   0.795  11.406  0.0958  0.5894 -0.2500
  469TMC3    C4 7032   0.220   0.887  11.432  0.2801 -0.0433  0.0087
  469TMC3    C5 7033   0.323   0.915  11.519  0.2148  0.2385  0.0671
  469TMC3    C6 7034   0.455   0.884  11.504 -0.0160  0.5249  0.1450
  469TMC3     C 7035   0.154   0.774  11.225 -0.9053 -0.3903  1.1885
  469TMC3     O 7036   0.045   0.831  11.238  0.1714 -0.1216  0.2593
  469TMC3     H 7037   0.413   0.714  11.221  1.1163 -0.4394  0.6193
  469TMC3    H1 7038   0.121   0.931  11.438  0.7717  0.8256  1.8878
  469TMC3    H2 7039   0.518   0.908  11.589  2.0382 -3.0528 -0.3645
  469TMC3    C7 7040   0.280   0.981  11.646 -0.1702 -0.0516 -0.1202
  469TMC3    C8 7041   0.607   0.752  11.379 -0.3312 -0.2153 -0.2197
  469TMC3    O1 7042   0.370   1.042  11.704 -0.2961  0.1613 -0.5180
  469TMC3    O2 7043   0.631   0.704  11.269 -0.4898  0.3870  0.8300
  470TMC3    C1 7044   3.372   2.521   1.008  0.1484  0.4935 -0.7303
  470TMC3    C2 7045   3.450   2.610   1.082  0.1504 -0.1781 -0.0708
  470TMC3    C3 7046   3.442   2.613   1.219 -0.4815 -0.4834 -0.0736
  470TMC3    C4 7047   3.286   2.432   1.073 -0.1894 -0.5724 -0.1051
  470TMC3    C5 7048   3.287   2.438   1.210  0.2666  0.5232 -0.1474
  470TMC3    C6 7049   3.358   2.531   1.280 -0.4518 -0.7489  0.2843
  470TMC3     C 7050   3.383   2.529   0.865  0.4375  0.4119 -0.1283
  470TMC3     O 7051   3.459   2.612   0.818 -0.4580  0.1551 -1.0466
  470TMC3     H 7052   3.508   2.682   1.025  0.2360 -0.6759 -0.6025
  470TMC3    H1 7053   3.223   2.359   1.023 -0.4324  0.4409 -1.2828
  470TMC3    H2 7054   3.349   2.542   1.387  2.3423 -1.4738  0.5869
  470TMC3    C7 7055   3.212   2.322   1.273  0.5550  0.8116  0.2297
  470TMC3    C8 7056   3.500   2.723   1.293  0.1948  0.5473 -0.4680
  470TMC3    O1 7057   3.153   2.255   1.196 -0.1982 -0.0427 -0.1274
  470TMC3    O2 7058   3.449   2.758   1.397 -0.5937 -0.4179  0.0241
  471MPD2     C 7059   3.012   3.039  16.537 -0.4386  0.0906 -0.0226
  471MPD2    C1 7060   2.956   2.917  16.580  0.0728  0.2453  0.2983
  471MPD2    C2 7061   2.953   2.881  16.712  0.1617 -0.2366 -0.0431
  471MPD2    C3 7062   3.013   2.959  16.810  0.0176 -0.1175  0.1187
  471MPD2    C4 7063   3.062   3.077  16.765 -0.0914 -0.1369 -0.3834
  471MPD2    C5 7064   3.061   3.121  16.636  0.1442  0.2552  1.0622
  471MPD2     H 7065   2.916   2.785  16.745  2.0298 -0.8959  0.1154
  471MPD2    H1 7066   3.111   3.137  16.840  1.1967 -0.9511 -0.5715
  471MPD2    H2 7067   3.014   3.076  16.435 -0.5536  3.5382  1.2354
  471MPD2    H3 7068   3.111   3.212  16.605  0.7581 -0.0713  1.1143
  471MPD2     N 7069   3.034   2.926  16.943 -0.6061  0.0875 -0.0728
  471MPD2    H5 7070   3.098   2.981  16.998 -1.6071  1.5775 -0.4089
  471MPD2    N1 7071   2.904   2.826  16.483 -0.1308 -0.5134 -0.1541
  471MPD2    H7 7072   2.864   2.738  16.511 -0.3027 -1.3177 -2.9038
  472TMC3    C1 7073   2.850   2.725  16.278  0.0224  0.4330  0.0334
  472TMC3    C2 7074   2.771   2.739  16.162  0.5429  0.0791  0.0995
  472TMC3    C3 7075   2.744   2.629  16.080  0.2458 -0.7016 -0.3012
  472TMC3    C4 7076   2.926   2.616  16.297 -0.8443  0.3608 -0.3828
  472TMC3    C5 7077   2.899   2.514  16.214  0.0208  0.0453  0.4063
  472TMC3    C6 7078   2.812   2.518  16.110 -0.1800 -0.0763 -0.3028
  472TMC3     C 7079   2.902   2.846  16.347 -0.6531  0.8687 -0.0485
  472TMC3     O 7080   2.895   2.950  16.280  0.0863 -0.1501 -0.5670
  472TMC3     H 7081   2.722   2.835  16.148  2.6985  1.1709  0.0811
  472TMC3    H1 7082   2.990   2.609  16.385 -0.5393 -0.6497 -0.6853
  472TMC3    H2 7083   2.793   2.439  16.038 -0.0323  0.1596 -0.5965
  472TMC3    C7 7084   2.883   2.402  16.301 -1.0370 -0.5149 -0.8679
  472TMC3    C8 7085   2.613   2.594  16.049 -0.0253  0.2796  1.0887
  472TMC3    O1 7086   2.959   2.385  16.395 -0.6323 -0.3050  0.0952
  472TMC3    O2 7087   2.589   2.518  15.955  0.1991 -0.3051  0.0016
  473MPD2     C 7088   2.695   4.530  13.892  0.1754  0.0322 -0.0565
  473MPD2    C1 7089   2.718   4.636  13.798  0.5518 -0.2671  0.1156
  473MPD2    C2 7090   2.739   0.025  13.845 -0.3212 -0.2455  0.1945
  473MPD2    C3 7091   2.733   0.050  13.980  0.0744  0.1820 -0.1468
  473MPD2    C4 7092   2.711   4.680  14.069 -0.2649  0.5799  0.0123
  473MPD2    C5 7093   2.698   4.554  14.026 -0.2557 -0.0787 -0.0105
  473MPD2     H 7094   2.749   0.109  13.777  2.0823 -1.4810 -0.9976
  473MPD2    H1 7095   2.697   4.693  14.175  1.5873 -1.7337  0.5427
  473MPD2    H2 7096   2.666   4.429  13.867 -0.2398 -0.2234  1.5051
  473MPD2    H3 7097   2.665   4.475  14.092 -1.8007  0.1025 -0.5635
  473MPD2     N 7098   2.739   0.176  14.039 -0.4917  0.4906  0.2427
  473MPD2    H5 7099   2.732   0.178  14.140 -0.1361 -0.2665  0.2755
  473MPD2    N1 7100   2.710   4.613  13.659  0.2630  0.7718 -0.0422
  473MPD2    H7 7101   2.688   4.516  13.638  1.0179  0.4595  0.5837
  474TMC3    C1 7102   2.805   0.389  14.064  0.2797  0.4668 -0.2414
  474TMC3    C2 7103   2.698   0.437  14.132  0.1567 -0.0830 -0.3733
  474TMC3    C3 7104   2.724   0.544  14.220 -0.0596 -0.5656  0.2602
  474TMC3    C4 7105   2.936   0.413  14.079 -0.0053 -0.0942  0.2886
  474TMC3    C5 7106   2.961   0.512  14.170  0.1284 -0.0338 -0.2323
  474TMC3    C6 7107   2.859   0.580  14.236  0.3231 -0.3690 -0.4211
  474TMC3     C 7108   2.780   0.285  13.971 -0.9155  0.9088 -0.9811
  474TMC3     O 7109   2.812   0.303  13.855 -0.1917 -0.6152  0.6042
  474TMC3     H 7110   2.600   0.404  14.102  0.0544  0.6517 -0.8630
  474TMC3    H1 7111   3.011   0.372  14.013 -0.8189 -0.1249 -0.6281
  474TMC3    H2 7112   2.882   0.651  14.315  0.7729 -3.1542  1.9498
  474TMC3    C7 7113   3.090   0.502  14.240 -0.3455  0.5332 -0.3849
  474TMC3    C8 7114   2.621   0.632  14.258 -0.1502  0.0021 -0.1684
  474TMC3    O1 7115   3.112   0.558  14.350 -0.4494 -0.2392 -0.6425
  474TMC3    O2 7116   2.513   0.578  14.265  0.0730  0.2125 -0.1168
  475MPD2     C 7117   1.687   2.957  10.351 -0.3349 -0.3376 -0.3225
  475MPD2    C1 7118   1.741   3.018  10.456  0.3181 -0.5527  0.6717
  475MPD2    C2 7119   1.669   3.021  10.573 -0.5381 -0.4254  0.2667
  475MPD2    C3 7120   1.538   2.980  10.589 -0.1849 -0.4887  0.4370
  475MPD2    C4 7121   1.480   2.943  10.473  0.2533  0.5968 -0.1120
  475MPD2    C5 7122   1.554   2.927  10.366  0.8965  0.0181 -0.0140
  475MPD2     H 7123   1.719   3.067  10.656  2.0779  0.4083 -1.7664
  475MPD2    H1 7124   1.379   2.904  10.465  0.4753 -0.2653  1.1190
  475MPD2    H2 7125   1.728   2.938  10.253  0.6708 -0.3183  0.0923
  475MPD2    H3 7126   1.503   2.885  10.280 -1.8868  0.9485  1.1943
  475MPD2     N 7127   1.470   2.997  10.707  0.0492  0.2162  0.9549
  475MPD2    H5 7128   1.527   3.031  10.784  0.0946 -0.0663  1.0460
  475MPD2    N1 7129   1.867   3.083  10.460  0.3962  0.1323  0.2944
  475MPD2    H7 7130   1.895   3.103  10.556  2.1649  2.9727 -0.8166
  476TMC3    C1 7131   2.040   3.220  10.397  0.0509 -0.4982 -0.2512
  476TMC3    C2 7132   2.008   3.354  10.350  0.1620  0.6571  0.3833
  476TMC3    C3 7133   1.987   3.449  10.440 -0.0697 -0.2348 -0.3207
  476TMC3    C4 7134   2.065   3.204  10.534 -0.4262  0.8439 -0.6040
  476TMC3    C5 7135   2.044   3.304  10.626  0.8340 -0.0026  0.2814
  476TMC3    C6 7136   2.015   3.434  10.577  0.2683 -0.3476 -0.1134
  476TMC3     C 7137   1.924   3.146  10.354 -0.3828  0.3782  0.5485
  476TMC3     O 7138   1.886   3.168  10.241  0.3650 -0.2388 -0.1389
  476TMC3     H 7139   1.964   3.369  10.252  0.5369  2.9576  0.5677
  476TMC3    H1 7140   2.091   3.106  10.573  2.5137  1.9369  0.1310
  476TMC3    H2 7141   2.001   3.525  10.634  0.6155 -0.4915  0.2034
  476TMC3    C7 7142   1.988   3.252  10.753  0.0725  0.1993 -0.2666
  476TMC3    C8 7143   1.866   3.524  10.424 -0.6758 -0.5659  1.6373
  476TMC3    O1 7144   1.964   3.131  10.741  0.5576  0.3659 -0.4810
  476TMC3    O2 7145   1.856   3.634  10.473 -0.2008 -0.3385  0.0187
  477MPD2     C 7146   3.756   4.697  11.801 -0.4419 -0.1430 -0.4906
  477MPD2    C1 7147   3.647   4.631  11.841  0.9322  0.1834  0.5973
  477MPD2    C2 7148   3.662   4.523  11.928  0.7388 -0.5128 -0.4173
  477MPD2    C3 7149   3.779   4.500  11.997 -0.4168  0.6808  0.0617
  477MPD2    C4 7150   3.893   4.571  11.958 -1.1771  0.5595 -0.0030
  477MPD2    C5 7151   3.873   4.663  11.861  0.4443 -0.0724 -0.7297
  477MPD2     H 7152   3.576   4.463  11.956  0.4725  1.9831  4.1796
  477MPD2    H1 7153   3.992   4.560  12.000 -1.1005  2.3412  0.3120
  477MPD2    H2 7154   3.743   0.031  11.721 -0.3168 -0.9149 -1.2063
  477MPD2    H3 7155   3.963   4.717  11.834  0.9055 -0.5609 -0.1662
  477MPD2     N 7156   3.783   4.384  12.080  0.2560 -0.1396 -0.1768
  477MPD2    H5 7157   3.701   4.325  12.087  0.8519 -0.9124  0.3594
  477MPD2    N1 7158   3.523   4.664  11.791  0.1320  0.1254 -0.0473
  477MPD2    H7 7159   3.518   4.722  11.708  0.1959  1.2968  0.7669
  478TMC3    C1 7160   3.300   4.723  11.797 -0.7354 -0.8130 -0.7578
  478TMC3    C2 7161   3.211   0.052  11.875  0.6352  0.1825 -0.0559
  478TMC3    C3 7162   3.095   0.099  11.813  0.3827  0.1593 -0.1463
  478TMC3    C4 7163   3.275   4.693  11.669 -0.0127 -0.6554 -0.0727
  478TMC3    C5 7164   3.162   0.003  11.607  0.2008  0.3854 -0.5311
  478TMC3    C6 7165   3.075   0.088  11.675 -0.1689 -0.7324  0.6554
  478TMC3     C 7166   3.406   4.661  11.866 -0.2671  0.1583 -0.0450
  478TMC3     O 7167   3.382   4.620  11.979  0.5857  0.2840 -0.2935
  478TMC3     H 7168   3.224   0.054  11.983 -0.6796  2.5716  0.0779
  478TMC3    H1 7169   3.347   4.630  11.619  1.0927  0.4360  0.1312
  478TMC3    H2 7170   2.985   0.130  11.632  0.3981  0.9995  1.1797
  478TMC3    C7 7171   3.165   0.005  11.460  0.1953  0.1024 -0.3071
  478TMC3    C8 7172   3.018   0.178  11.902 -0.6323 -0.0405 -0.8472
  478TMC3    O1 7173   3.272   4.712  11.412  0.0948  0.1304 -0.7376
  478TMC3    O2 7174   2.974   0.132  12.008 -0.0574 -0.5429 -0.4174
  479MPD2     C 7175   2.638   2.177  15.257 -0.1804 -0.0523 -1.0393
  479MPD2    C1 7176   2.571   2.116  15.363 -0.6202  0.2970  0.5922
  479MPD2    C2 7177   2.615   2.127  15.492  0.1299 -0.3769  0.1803
  479MPD2    C3 7178   2.718   2.213  15.515  0.2601 -0.4156 -0.3226
  479MPD2    C4 7179   2.789   2.273  15.410 -0.8197  0.7285  0.1156
  479MPD2    C5 7180   2.753   2.246  15.282  0.1545  0.8368  0.1415
  479MPD2     H 7181   2.574   2.074  15.578  1.3700  1.5081  1.9334
  479MPD2    H1 7182   2.870   2.342  15.432 -2.7237  2.5280  1.4359
  479MPD2    H2 7183   2.626   2.155  15.152  0.7507  0.1909 -1.1958
  479MPD2    H3 7184   2.807   2.282  15.196  1.0829 -2.1547 -0.5262
  479MPD2     N 7185   2.761   2.246  15.646  0.1082 -0.1622  0.8751
  479MPD2    H5 7186   2.854   2.286  15.641 -0.0325  0.1561  0.8418
  479MPD2    N1 7187   2.456   2.037  15.322  0.3628 -0.0918  0.2085
  479MPD2    H7 7188   2.450   2.015  15.224 -2.2905  0.8587  0.1719
  480TMC3    C1 7189   2.401   2.116  15.934  0.8958  0.0007 -0.4787
  480TMC3    C2 7190   2.306   2.172  15.854 -0.2471  0.2730 -1.1018
  480TMC3    C3 7191   2.343   2.254  15.752  0.6077  0.0953 -0.0954
  480TMC3    C4 7192   2.536   2.126  15.904 -0.4773 -0.1908 -0.0173
  480TMC3    C5 7193   2.572   2.203  15.798  0.0893 -1.1054  0.8677
  480TMC3    C6 7194   2.475   2.275  15.728  0.1257  0.2721 -0.2116
  480TMC3     C 7195   2.361   2.028  16.051  0.4620 -0.6804  0.3735
  480TMC3     O 7196   2.447   1.945  16.082 -0.1712  0.3000 -0.4647
  480TMC3     H 7197   2.202   2.141  15.854 -0.5313  1.2355  1.2562
  480TMC3    H1 7198   2.615   2.083  15.964  0.4523  1.0483 -0.3394
  480TMC3    H2 7199   2.521   2.342  15.657 -0.2822 -1.2780 -1.9317
  480TMC3    C7 7200   2.713   2.221  15.775 -0.6178 -0.6079 -0.1543
  480TMC3    C8 7201   2.246   2.252  15.637 -0.0748  0.4334  0.2386
  480TMC3    O1 7202   2.785   2.200  15.870 -0.5226  0.4208  0.1880
  480TMC3    O2 7203   2.132   2.212  15.654  0.0659  0.0128 -0.0432
  481MPD2     C 7204   4.074   1.676  14.291 -0.6538 -0.2283  0.1336
  481MPD2    C1 7205   3.976   1.596  14.343  0.7992  0.1047  0.3719
  481MPD2    C2 7206   3.990   1.545  14.470 -0.3821 -1.0412  0.4671
  481MPD2    C3 7207   4.096   1.583  14.548  0.3745  0.1803  0.2497
  481MPD2    C4 7208   4.186   1.678  14.501 -0.1038 -0.5188 -0.0333
  481MPD2    C5 7209   4.174   1.723  14.372 -0.3775 -0.1365  0.0002
  481MPD2     H 7210   3.904   1.490  14.505 -1.8121  0.3155 -0.9616
  481MPD2    H1 7211   4.262   1.717  14.567  2.0165 -0.5242 -2.4561
  481MPD2    H2 7212   4.059   1.716  14.191  0.3120  0.6961  0.3685
  481MPD2    H3 7213   4.245   1.798  14.338 -1.0741 -0.0152 -1.1810
  481MPD2     N 7214   4.114   1.535  14.682  0.3156  0.3848 -0.5212
  481MPD2    H5 7215   4.192   1.557  14.743  0.4075 -1.6220  0.0712
  481MPD2    N1 7216   3.865   1.558  14.263 -0.3617 -0.1043  0.5787
  481MPD2    H7 7217   3.866   1.593  14.167  1.3668 -0.7629  0.3449
  482TMC3    C1 7218   3.704   1.411  14.164 -0.2429 -0.3386 -0.1855
  482TMC3    C2 7219   3.666   1.281  14.151 -0.2306 -0.9472  0.1750
  482TMC3    C3 7220   3.564   1.243  14.060 -0.2079  0.4295  0.6431
  482TMC3    C4 7221   3.624   1.509  14.108 -0.1614 -0.1168  0.2876
  482TMC3    C5 7222   3.519   1.470  14.023 -0.2740  0.4459  0.6368
  482TMC3    C6 7223   3.483   1.338  14.004 -0.5572  0.1534  0.0988
  482TMC3     C 7224   3.787   1.448  14.283 -0.3848  0.2586  0.0172
  482TMC3     O 7225   3.784   1.363  14.369 -0.2925  0.3826 -0.3632
  482TMC3     H 7226   3.732   1.200  14.182  2.6251  0.6059 -1.9063
  482TMC3    H1 7227   3.628   1.614  14.136  0.3303 -0.2566  0.7211
  482TMC3    H2 7228   3.399   1.312  13.939  0.6687  0.4911 -1.6294
  482TMC3    C7 7229   3.454   1.579  13.961 -0.1354 -1.6021  0.1822
  482TMC3    C8 7230   3.619   1.147  13.979 -0.1956 -0.1352  0.2135
  482TMC3    O1 7231   3.329   1.577  13.950  0.8578  0.0857  0.0601
  482TMC3    O2 7232   3.647   1.042  14.035 -0.0355 -0.0252 -0.2765
  483TMC3    C1 7233   2.579   1.126   0.726 -0.7388 -0.2207 -0.1706
  483TMC3    C2 7234   2.584   1.261   0.759 -0.3583 -0.1768  0.4259
  483TMC3    C3 7235   2.658   1.290   0.863 -0.0094  0.4089  0.1758
  483TMC3    C4 7236   2.625   1.023   0.802  0.4764 -0.0225 -0.5479
  483TMC3    C5 7237   2.680   1.062   0.918  0.3014  0.0197  0.8337
  483TMC3    C6 7238   2.708   1.191   0.951  0.5775 -0.3170 -0.5102
  483TMC3     C 7239   2.540   1.094   0.592 -0.4845  0.2401 -0.0681
  483TMC3     O 7240   2.478   1.181   0.538  0.3849 -0.4123 -0.4057
  483TMC3     H 7241   2.564   1.336   0.684 -0.4187 -1.1196 -0.4923
  483TMC3    H1 7242   2.623   0.920   0.767 -0.8441  0.3843 -1.6416
  483TMC3    H2 7243   2.766   1.211   1.041  0.3811  2.2044 -0.9570
  483TMC3    C7 7244   2.754   0.951   0.985  0.1750 -0.3515  1.2641
  483TMC3    C8 7245   2.769   1.369   0.833  1.1085  0.6200 -0.0010
  483TMC3    O1 7246   2.768   0.849   0.917 -0.0584  0.2180  0.3006
  483TMC3    O2 7247   2.877   1.313   0.850 -0.7972  0.1223 -0.3493
  484MPD2     C 7248   0.071   3.471  12.846  0.0503  0.1968  0.5420
  484MPD2    C1 7249   0.082   3.347  12.908 -0.5951  0.3671 -0.5316
  484MPD2    C2 7250   0.204   3.306  12.955 -0.6607 -0.3041 -0.3574
  484MPD2    C3 7251   0.311   3.391  12.965  0.1715 -0.2255 -0.1509
  484MPD2    C4 7252   0.294   3.510  12.906  0.4275 -0.3856  0.2862
  484MPD2    C5 7253   0.175   3.559  12.856  0.4198  0.4789 -0.3316
  484MPD2     H 7254   0.214   3.207  12.998  1.2873 -0.1059 -0.3837
  484MPD2    H1 7255   0.365   3.592  12.904  0.9211 -0.8046  0.6568
  484MPD2    H2 7256   4.711   3.501  12.811 -0.1293  1.4434  2.1574
  484MPD2    H3 7257   0.170   3.663  12.826  0.4476  0.7372  0.5773
  484MPD2     N 7258   0.439   3.360  13.012  0.1379  0.0437  0.0906
  484MPD2    H5 7259   0.502   3.440  13.003 -1.2378  1.0288 -0.6838
  484MPD2    N1 7260   4.703   3.267  12.909  0.0871  0.0838 -0.1318
  484MPD2    H7 7261   4.630   3.315  12.856 -0.7156 -1.9683 -0.8918
  485TMC3    C1 7262   0.619   3.255  13.114 -0.1025  0.4114 -0.0390
  485TMC3    C2 7263   0.678   3.133  13.135  0.4341 -0.0758 -0.0383
  485TMC3    C3 7264   0.813   3.120  13.124 -0.2307  0.2448 -0.0499
  485TMC3    C4 7265   0.692   3.374  13.103  0.5692  0.0578 -0.1116
  485TMC3    C5 7266   0.827   3.358  13.092  0.2080 -0.7712  0.1321
  485TMC3    C6 7267   0.886   3.236  13.100 -0.4111  0.5482 -0.1135
  485TMC3     C 7268   0.480   3.247  13.076  0.4394 -0.0227 -0.0300
  485TMC3     O 7269   0.420   3.140  13.096  0.0331 -0.1515  0.6790
  485TMC3     H 7270   0.614   3.045  13.133  1.0841 -0.5383 -0.8171
  485TMC3    H1 7271   0.635   3.467  13.100  0.0091 -0.3304 -1.4033
  485TMC3    H2 7272   0.994   3.234  13.100 -0.4698 -2.0199 -0.5360
  485TMC3    C7 7273   0.893   3.439  12.987  0.6524  0.6434  0.0444
  485TMC3    C8 7274   0.860   3.022  13.026  0.1948  0.1737  0.5358
  485TMC3    O1 7275   0.851   3.556  12.966  0.2301  0.6325  0.4125
  485TMC3    O2 7276   0.917   3.074  12.932  0.4760  0.0805 -0.3612
  486MPD2     C 7277   2.342   2.115  13.100  0.1844 -0.1923  0.5225
  486MPD2    C1 7278   2.267   2.075  12.990  0.3897  0.2850 -0.2694
  486MPD2    C2 7279   2.195   2.170  12.920 -0.3366 -0.3377 -0.5113
  486MPD2    C3 7280   2.182   2.297  12.971 -0.4196  0.3160 -0.1826
  486MPD2    C4 7281   2.256   2.336  13.081 -0.0543  0.1044 -0.3295
  486MPD2    C5 7282   2.339   2.246  13.138 -0.2851 -0.6346 -0.5012
  486MPD2     H 7283   2.136   2.142  12.834 -0.6548 -1.9711  0.2334
  486MPD2    H1 7284   2.260   2.435  13.125 -1.3995  0.1570 -0.3507
  486MPD2    H2 7285   2.411   2.052  13.154  0.6863 -0.5397 -0.5329
  486MPD2    H3 7286   2.391   2.276  13.228 -0.9763  1.9134 -0.9567
  486MPD2     N 7287   2.083   2.387  12.910  0.3774 -0.0260  0.1847
  486MPD2    H5 7288   2.039   2.357  12.823  0.8265  0.8201 -0.3392
  486MPD2    N1 7289   2.276   1.938  12.967  0.1707  0.3371 -0.3159
  486MPD2    H7 7290   2.341   1.889  13.028 -2.3254 -0.7345  1.4658
  487TMC3    C1 7291   2.186   1.735  12.891  0.5204 -0.4724 -0.1400
  487TMC3    C2 7292   2.125   1.664  12.787  0.6497 -0.4600 -0.1562
  487TMC3    C3 7293   2.071   1.544  12.809  0.2641  0.2873  0.0982
  487TMC3    C4 7294   2.211   1.676  13.011 -0.9960 -0.0508  1.1058
  487TMC3    C5 7295   2.161   1.548  13.023 -0.2004 -0.2905  0.5014
  487TMC3    C6 7296   2.093   1.476  12.927 -0.0787  0.7602 -0.5046
  487TMC3     C 7297   2.214   1.874  12.861  0.3814  0.4102  0.1737
  487TMC3     O 7298   2.155   1.927  12.769  0.2366  0.4933 -0.3324
  487TMC3     H 7299   2.111   1.716  12.692 -0.3942  0.0273  0.2569
  487TMC3    H1 7300   2.236   1.733  13.099  0.1145 -0.8144  1.2960
  487TMC3    H2 7301   2.072   1.370  12.938  1.6472  0.6305  1.4964
  487TMC3    C7 7302   2.173   1.484  13.153 -0.1591  0.5900 -0.2703
  487TMC3    C8 7303   1.945   1.514  12.742  0.9251 -0.1057  0.3692
  487TMC3    O1 7304   2.069   1.440  13.211 -0.2312  0.0178 -0.0710
  487TMC3    O2 7305   1.873   1.432  12.796 -0.6850 -0.4681 -0.4513
  488MPD2     C 7306   2.300   3.632  16.424 -0.5540 -0.3667 -1.1443
  488MPD2    C1 7307   2.393   3.698  16.504 -0.3553 -0.0872 -0.0667
  488MPD2    C2 7308   2.353   3.743  16.630  0.3353 -0.6413 -0.5371
  488MPD2    C3 7309   2.247   3.691  16.694  0.4685 -0.6405 -0.1868
  488MPD2    C4 7310   2.156   3.618  16.614  0.0695  0.0373 -0.3741
  488MPD2    C5 7311   2.179   3.594  16.481  0.7371 -0.1226 -0.0752
  488MPD2     H 7312   2.429   3.793  16.688 -0.1017 -1.0403  0.3647
  488MPD2    H1 7313   2.073   3.571  16.665  0.4661 -2.1197 -1.6889
  488MPD2    H2 7314   2.324   3.611  16.320  1.4070  0.1299 -0.7906
  488MPD2    H3 7315   2.106   3.543  16.418  0.8412 -0.9045  0.4397
  488MPD2     N 7316   2.215   3.739  16.822 -0.1235  0.3484 -0.1789
  488MPD2    H5 7317   2.261   3.819  16.865 -0.1075 -0.5919  1.5416
  488MPD2    N1 7318   2.525   3.738  16.457  0.0405  0.0155 -0.1901
  488MPD2    H7 7319   2.580   3.792  16.523  2.1150 -1.1949 -0.9438
  489TMC3    C1 7320   2.097   3.756  17.023 -0.6536  0.5488 -0.0461
  489TMC3    C2 7321   2.113   3.893  17.028 -0.7298 -0.3137  0.2701
  489TMC3    C3 7322   2.113   3.948  17.155  0.1625  1.0142 -0.8967
  489TMC3    C4 7323   2.070   3.675  17.130 -0.1835 -0.2660 -0.2182
  489TMC3    C5 7324   2.065   3.737  17.253  0.4238 -0.5744  0.8444
  489TMC3    C6 7325   2.085   3.871  17.266  0.4478 -0.0034 -0.5734
  489TMC3     C 7326   2.113   3.685  16.897 -0.4474  0.1886 -0.5420
  489TMC3     O 7327   2.063   3.571  16.894 -0.3899 -0.0570 -0.2568
  489TMC3     H 7328   2.143   3.953  16.943 -0.8688  0.2705  0.6368
  489TMC3    H1 7329   2.051   3.568  17.124 -1.5671 -0.0955  1.2553
  489TMC3    H2 7330   2.055   3.912  17.362  2.5228  0.4856 -0.1213
  489TMC3    C7 7331   2.097   3.661  17.376 -0.5536 -0.2035  0.5032
  489TMC3    C8 7332   2.180   4.075  17.169 -0.8606 -0.1335  1.1002
  489TMC3    O1 7333   2.190   3.699  17.444  0.6204 -0.4081  0.0891
  489TMC3    O2 7334   2.204   4.132  17.066 -0.5876 -0.2089 -0.2363
  490MPD2     C 7335   3.398   3.430   0.101  0.2186  0.4606 -0.4108
  490MPD2    C1 7336   3.315   3.490   0.193 -0.2122 -0.1047 -0.2818
  490MPD2    C2 7337   3.364   3.578   0.285  0.0229  0.1553 -0.4834
  490MPD2    C3 7338   3.500   3.605   0.283  0.6594  0.6909 -0.3753
  490MPD2    C4 7339   3.581   3.545   0.185 -0.2580 -0.1468 -0.4447
  490MPD2    C5 7340   3.528   3.453   0.103 -0.4382  0.5190 -0.0173
  490MPD2     H 7341   3.299   3.620   0.362  0.3221  0.2645 -0.2911
  490MPD2    H1 7342   3.688   3.559   0.189 -0.5011  1.4699  0.5031
  490MPD2    H2 7343   3.373   3.355   0.026 -0.8707 -0.2781  0.6858
  490MPD2    H3 7344   3.600   3.398   0.043 -1.6087 -0.9979 -0.0417
  490MPD2     N 7345   3.561   3.699   0.369 -0.2608  0.7010  0.2248
  490MPD2    H5 7346   3.659   3.721   0.352  0.3882 -1.0189  1.8031
  490MPD2    N1 7347   3.176   3.451   0.214  0.5180  0.7381 -0.7790
  490MPD2    H7 7348   3.124   3.494   0.290 -0.4425  0.6749 -1.4116
  491TMC3    C1 7349   2.974   3.345   0.166  0.0917  0.8473 -0.5722
  491TMC3    C2 7350   2.964   3.257   0.272  0.0242 -0.6823  0.1384
  491TMC3    C3 7351   2.873   3.160   0.275 -0.3439  0.6173  0.4084
  491TMC3    C4 7352   2.891   3.322   0.061  1.0793 -0.8379  0.3604
  491TMC3    C5 7353   2.810   3.209   0.055  0.1760  0.2473 -0.4969
  491TMC3    C6 7354   2.794   3.127   0.167  0.0510  0.1185 -0.0684
  491TMC3     C 7355   3.109   3.376   0.123  0.5224  0.1363 -0.8135
  491TMC3     O 7356   3.133   3.339   0.007 -0.3863 -0.0232  0.4400
  491TMC3     H 7357   3.013   3.276   0.367 -1.1117 -0.4695  0.6801
  491TMC3    H1 7358   2.897   3.386  17.725 -0.1886 -1.2717 -0.0448
  491TMC3    H2 7359   2.726   3.043   0.165  2.4374 -1.7107 -4.0839
  491TMC3    C7 7360   2.756   3.162  17.680 -0.1689  0.6718 -0.3632
  491TMC3    C8 7361   2.868   3.074   0.391  0.5883 -0.2759 -0.2873
  491TMC3    O1 7362   2.707   3.050  17.681 -0.7043  0.2191 -0.3003
  491TMC3    O2 7363   2.881   3.116   0.507 -0.1866 -0.7197  0.0131
  492MPD2     C 7364   2.936   3.364  11.789 -0.2198  0.4514  0.2917
  492MPD2    C1 7365   2.915   3.253  11.709  0.3233  0.6934 -0.0995
  492MPD2    C2 7366   2.859   3.138  11.766  0.1939  0.6456  0.0577
  492MPD2    C3 7367   2.830   3.131  11.901 -0.0144  0.4079  0.4802
  492MPD2    C4 7368   2.863   3.236  11.981  0.3671  0.0354 -0.4130
  492MPD2    C5 7369   2.914   3.350  11.924  0.3615  0.0871  0.4588
  492MPD2     H 7370   2.816   3.058  11.707 -2.3679  0.0813  2.7047
  492MPD2    H1 7371   2.846   3.226  12.087 -2.1859  0.0620 -0.8195
  492MPD2    H2 7372   2.964   3.464  11.758 -1.2084  0.5524 -0.2775
  492MPD2    H3 7373   2.942   3.437  11.982  0.3667  0.6377 -0.3678
  492MPD2     N 7374   2.775   3.017  11.964  0.6515  0.3961 -0.0284
  492MPD2    H5 7375   2.754   3.028  12.063  0.0133 -0.1293 -0.1052
  492MPD2    N1 7376   2.952   3.272  11.573 -0.6031  0.2246  0.6133
  492MPD2    H7 7377   2.996   3.362  11.554 -0.6926 -0.1363 -1.2486
  493TMC3    C1 7378   2.960   3.227  11.344 -0.0863 -0.2259 -0.0278
  493TMC3    C2 7379   3.001   3.356  11.334 -0.1674 -0.3510  0.0766
  493TMC3    C3 7380   2.998   3.406  11.209 -0.2738  0.2841  0.1277
  493TMC3    C4 7381   2.925   3.147  11.237  0.7298  0.7256  0.0431
  493TMC3    C5 7382   2.932   3.200  11.112 -0.4099 -0.4684 -0.3584
  493TMC3    C6 7383   2.962   3.331  11.099  0.2429 -0.1064  0.2407
  493TMC3     C 7384   2.932   3.177  11.473  0.6458  0.1856  0.2229
  493TMC3     O 7385   2.884   3.068  11.488 -0.1086  0.0297  0.2219
  493TMC3     H 7386   3.036   3.425  11.411 -1.5105  0.4977 -0.0689
  493TMC3    H1 7387   2.899   3.043  11.250 -0.6523  1.3135  1.8977
  493TMC3    H2 7388   2.943   3.383  11.005 -0.2558 -0.4660  0.1395
  493TMC3    C7 7389   2.895   3.116  10.993  0.1718 -0.4055  0.4901
  493TMC3    C8 7390   2.994   3.550  11.202 -0.2714 -0.3586 -0.6358
  493TMC3    O1 7391   2.877   2.997  11.010 -0.0083 -0.3443  0.0027
  493TMC3    O2 7392   2.947   3.613  11.297  0.7220  0.0780  0.5253
  494TMC3    C1 7393   3.534   0.688   0.594  0.3663 -1.1866  0.4977
  494TMC3    C2 7394   3.598   0.580   0.658 -0.4052 -0.8158 -0.2039
  494TMC3    C3 7395   3.688   0.518   0.578 -0.4158  0.2753 -0.3646
  494TMC3    C4 7396   3.543   0.705   0.462 -0.3016 -0.6325  0.2414
  494TMC3    C5 7397   3.618   0.621   0.380 -0.2724  0.6327 -0.2000
  494TMC3    C6 7398   3.696   0.532   0.439 -0.1341 -0.3292  0.2537
  494TMC3     C 7399   3.445   0.767   0.681  0.3862 -0.5367 -0.4716
  494TMC3     O 7400   3.480   0.772   0.801  0.3165 -0.4825 -0.3657
  494TMC3     H 7401   3.581   0.565   0.764 -2.3221 -0.2385 -0.4199
  494TMC3    H1 7402   3.490   0.787   0.415  1.4944  0.1182 -0.4927
  494TMC3    H2 7403   3.774   0.484   0.381  0.5085  0.2764  0.6079
  494TMC3    C7 7404   3.624   0.633   0.234 -0.9341  0.7572  0.0261
  494TMC3    C8 7405   3.729   0.387   0.623 -0.5266  1.4913 -0.1265
  494TMC3    O1 7406   3.704   0.560   0.178  0.4373 -0.1385 -0.1130
  494TMC3    O2 7407   3.717   0.363   0.740 -0.1787 -0.1516 -0.0267
  495TMC3    C1 7408   2.710   2.357  14.819 -0.3829  0.3556 -0.3816
  495TMC3    C2 7409   2.641   2.384  14.707  0.0423 -0.2338  0.0695
  495TMC3    C3 7410   2.529   2.454  14.711 -0.1314 -0.4425 -0.2847
  495TMC3    C4 7411   2.659   2.407  14.935  0.3858 -0.7811  0.5237
  495TMC3    C5 7412   2.551   2.492  14.937 -0.6537  0.2799 -0.3956
  495TMC3    C6 7413   2.478   2.515  14.823 -0.0709  0.2709  0.0396
  495TMC3     C 7414   2.695   2.208  14.832  0.5641 -0.7953  0.6682
  495TMC3     O 7415   2.615   2.156  14.910 -0.5526  0.0310  0.1866
  495TMC3     H 7416   2.669   2.337  14.614 -4.0113  0.5925 -1.5825
  495TMC3    H1 7417   2.705   2.389  15.032  0.4476 -0.8555  0.4805
  495TMC3    H2 7418   2.389   2.576  14.819  0.5829  1.0027 -3.0263
  495TMC3    C7 7419   2.491   2.484  15.071 -0.0822 -0.1004 -0.6113
  495TMC3    C8 7420   2.410   2.379  14.654 -0.4491 -0.5712  0.1484
  495TMC3    O1 7421   2.558   2.523  15.170 -0.3572  0.3240 -0.4428
  495TMC3    O2 7422   2.301   2.402  14.706  0.1586 -0.4930  0.0530
  496MPD2     C 7423   0.105   2.436  15.849  0.6586 -0.4027 -0.0727
  496MPD2    C1 7424   0.055   2.306  15.842 -0.2486  0.2014 -0.0739
  496MPD2    C2 7425   4.692   2.270  15.929 -0.0323  0.0341  0.0100
  496MPD2    C3 7426   4.637   2.359  16.023  0.7671 -1.0234  0.2143
  496MPD2    C4 7427   4.703   2.486  16.036  0.0334 -0.1187  0.6308
  496MPD2    C5 7428   0.070   2.518  15.951 -0.1660  0.1032 -0.0037
  496MPD2     H 7429   4.641   2.176  15.908 -0.4900  0.1817  0.4837
  496MPD2    H1 7430   4.673   2.552  16.116 -1.1366 -1.9057  1.6577
  496MPD2    H2 7431   0.182   2.472  15.782  0.3922 -0.5406 -0.4493
  496MPD2    H3 7432   0.130   2.608  15.959 -0.9558  0.5880  0.4743
  496MPD2     N 7433   4.524   2.329  16.108 -0.0999  0.0999 -0.8262
  496MPD2    H5 7434   4.502   2.397  16.180  2.8035 -2.4652  2.4948
  496MPD2    N1 7435   0.107   2.219  15.747  0.0307 -0.1399  0.1772
  496MPD2    H7 7436   0.180   2.256  15.686  1.2501  0.1723  1.8536
  497TMC3    C1 7437   4.351   2.211  16.215 -0.8070 -0.3434 -0.2120
  497TMC3    C2 7438   4.233   2.174  16.168  1.1256  0.8399  0.1559
  497TMC3    C3 7439   4.127   2.214  16.238 -0.2087 -0.0383 -1.2083
  497TMC3    C4 7440   4.373   2.266  16.337 -0.4867 -0.3214 -0.3049
  497TMC3    C5 7441   4.260   2.298  16.407 -0.8109 -0.2580  0.4552
  497TMC3    C6 7442   4.137   2.265  16.362 -0.1636  0.9809 -0.0007
  497TMC3     C 7443   4.455   2.208  16.111 -0.2825  0.0393  1.1519
  497TMC3     O 7444   4.448   2.126  16.022 -0.0496  0.2167 -0.7463
  497TMC3     H 7445   4.229   2.114  16.077  1.4655  2.1303 -0.7071
  497TMC3    H1 7446   4.475   2.284  16.370 -0.1256 -0.1210 -1.5319
  497TMC3    H2 7447   4.050   2.278  16.425  0.8722 -0.4895  1.7347
  497TMC3    C7 7448   4.269   2.379  16.528  0.4616  0.7629 -0.0232
  497TMC3    C8 7449   4.001   2.249  16.171  0.4826  0.1143  0.2034
  497TMC3    O1 7450   4.183   2.384  16.616 -0.2699  0.1758 -0.5845
  497TMC3    O2 7451   3.940   2.344  16.216  0.0903  0.1409 -0.2885
  498MPD2     C 7452   1.097   3.092   9.879  0.1561  0.0426 -0.6403
  498MPD2    C1 7453   0.996   3.153   9.950 -0.3984  0.1896  0.5716
  498MPD2    C2 7454   0.873   3.088   9.968  0.3785  0.1433  0.5096
  498MPD2    C3 7455   0.842   2.972   9.898  0.1660  0.2595 -0.2477
  498MPD2    C4 7456   0.941   2.907   9.830  0.1400  0.3121 -0.1319
  498MPD2    C5 7457   1.066   2.970   9.822 -0.1321 -0.4938  0.4008
  498MPD2     H 7458   0.794   3.139  10.022 -0.5268  0.8846 -1.5021
  498MPD2    H1 7459   0.927   2.812   9.779 -1.3352 -0.4171  1.6119
  498MPD2    H2 7460   1.199   3.126   9.867 -0.0417  1.2794  1.2525
  498MPD2    H3 7461   1.155   2.920   9.786  1.0345  2.0797 -0.2650
  498MPD2     N 7462   0.716   2.920   9.913  0.2393 -0.5517  0.1912
  498MPD2    H5 7463   0.665   2.973   9.983 -0.6480 -2.1292  0.7253
  498MPD2    N1 7464   1.018   3.277  10.014  0.4743  0.2943  0.4196
  498MPD2    H7 7465   0.943   3.317  10.069  1.2295 -0.0234  1.6769
  499TMC3    C1 7466   1.125   3.483  10.067 -0.4759  0.1694  0.5078
  499TMC3    C2 7467   1.253   3.526  10.091  0.1735 -0.2810 -0.2402
  499TMC3    C3 7468   1.270   3.662  10.086  0.5230 -0.1669 -0.1639
  499TMC3    C4 7469   1.012   3.560  10.040 -0.6755 -0.1274  0.2160
  499TMC3    C5 7470   1.035   3.701  10.038  0.0403 -0.4606 -0.3113
  499TMC3    C6 7471   1.162   3.745  10.058 -0.4312 -0.5012  0.1083
  499TMC3     C 7472   1.133   3.343  10.026  0.5843  0.0132  0.3988
  499TMC3     O 7473   1.242   3.299   9.993  1.1439  0.0365  0.2104
  499TMC3     H 7474   1.331   3.461  10.128  0.7449 -0.5176 -1.8418
  499TMC3    H1 7475   0.920   3.506  10.018  0.2322 -0.8324 -1.8492
  499TMC3    H2 7476   1.186   3.850  10.043  0.0930 -0.6573 -0.1183
  499TMC3    C7 7477   0.931   3.794   9.998 -0.1632  0.4616 -0.1810
  499TMC3    C8 7478   1.391   3.730  10.108 -0.0352  0.2605 -0.1516
  499TMC3    O1 7479   0.965   3.914   9.994  0.1435  0.1267  0.2942
  499TMC3    O2 7480   1.391   3.850  10.135 -0.1977 -0.1654 -0.3570
  500MPD2     C 7481   1.967   4.538  10.011 -0.2049  0.5060  0.2733
  500MPD2    C1 7482   1.952   4.527  10.149  0.2087  0.5818  0.5153
  500MPD2    C2 7483   1.823   4.511  10.200 -0.4018  0.6403 -0.0479
  500MPD2    C3 7484   1.710   4.514  10.114  0.0837  0.4626 -0.3985
  500MPD2    C4 7485   1.726   4.528   9.978  0.1494  0.5211  0.1297
  500MPD2    C5 7486   1.855   4.540   9.931 -0.8346 -0.0832  0.4980
  500MPD2     H 7487   1.803   4.506  10.307 -0.1724  2.0732  0.0615
  500MPD2    H1 7488   1.637   4.535   9.916 -0.6874  1.4490  1.4320
  500MPD2    H2 7489   2.064   4.559   9.966  0.2479 -1.2146  0.4664
  500MPD2    H3 7490   1.879   4.574   9.830  1.7491 -1.7109  0.5592
  500MPD2     N 7491   1.582   4.524  10.161 -0.5463  0.4397 -0.3257
  500MPD2    H5 7492   1.513   4.552  10.092 -1.0908 -1.3118 -0.4831
  500MPD2    N1 7493   2.058   4.535  10.244  0.1583 -0.0538  0.2748
  500MPD2    H7 7494   2.033   4.522  10.341  0.6180 -0.6902  0.3064
  501TMC3    C1 7495   2.275   4.566  10.328 -1.1832  0.2849  0.9964
  501TMC3    C2 7496   2.336   4.687  10.331 -0.2745 -0.6347 -0.3865
  501TMC3    C3 7497   2.433   4.695  10.427 -0.0140 -0.5108  0.6584
  501TMC3    C4 7498   2.306   4.458  10.410 -0.3517 -0.0587 -0.4619
  501TMC3    C5 7499   2.400   4.474  10.503  0.2666 -0.2750 -0.5841
  501TMC3    C6 7500   2.468   4.593  10.514 -0.1964  0.8338 -0.4308
  501TMC3     C 7501   2.188   4.562  10.213 -0.6465  0.9266 -0.9516
  501TMC3     O 7502   2.240   4.589  10.107  0.1229  0.4918 -1.2158
  501TMC3     H 7503   2.287   0.030  10.278  1.4605  0.0095 -1.0198
  501TMC3    H1 7504   2.260   4.359  10.403  3.3699 -1.9210  1.5698
  501TMC3    H2 7505   2.554   4.614  10.577  0.7560  1.9795 -2.1220
  501TMC3    C7 7506   2.423   4.363  10.598 -0.3620  0.1353  0.0373
  501TMC3    C8 7507   2.479   0.088  10.467  1.0524  0.4423  0.5113
  501TMC3    O1 7508   2.378   4.254  10.562  0.3968 -0.7606  0.4949
  501TMC3    O2 7509   2.549   0.091  10.571 -0.5548  0.5856  0.4505
  502TMC3    C1 7510   2.066   3.097  15.093 -0.0730 -0.9371 -0.0288
  502TMC3    C2 7511   2.059   3.216  15.026  0.1928  0.1836  0.5665
  502TMC3    C3 7512   1.942   3.256  14.973  0.8655  0.3438  0.1559
  502TMC3    C4 7513   1.953   3.020  15.110 -0.0018 -0.1991 -0.7840
  502TMC3    C5 7514   1.839   3.067  15.048 -0.8921 -0.1458  0.2516
  502TMC3    C6 7515   1.823   3.187  14.990  0.2830  0.6959  0.4027
  502TMC3     C 7516   2.174   3.090  15.184 -0.1249  0.2153 -0.1455
  502TMC3     O 7517   2.283   3.132  15.149  0.3471 -0.6872 -0.4813
  502TMC3     H 7518   2.147   3.278  15.019 -0.1445  0.0950 -4.0449
  502TMC3    H1 7519   1.958   2.924  15.160 -0.7373  0.9015  1.3854
  502TMC3    H2 7520   1.733   3.214  14.936  0.0302 -0.7641  0.1013
  502TMC3    C7 7521   1.725   2.975  15.060 -0.4370 -0.1024  0.0015
  502TMC3    C8 7522   1.942   3.398  14.930  0.5742  0.4083  0.2822
  502TMC3    O1 7523   1.757   2.859  15.072  0.0453  0.7680  0.0754
  502TMC3    O2 7524   2.050   3.437  14.894  0.0973 -0.1317 -0.6338
  503MPD2     C 7525   3.990   3.865  17.057  0.5322 -0.1055 -0.3629
  503MPD2    C1 7526   4.061   3.924  17.157 -0.1293 -0.4279  0.1617
  503MPD2    C2 7527   4.127   3.842  17.251  0.7203  0.3737  0.0507
  503MPD2    C3 7528   4.116   3.705  17.236  0.6241  0.3678 -0.2125
  503MPD2    C4 7529   4.049   3.648  17.134  0.2459 -0.0820 -0.4787
  503MPD2    C5 7530   3.985   3.731  17.046  0.2222  0.6295  0.1458
  503MPD2     H 7531   4.185   3.896  17.325  0.6282 -0.0961  0.4634
  503MPD2    H1 7532   4.032   3.542  17.120 -1.0069  0.0156  0.3538
  503MPD2    H2 7533   3.931   3.923  16.986 -2.6396 -2.6465  0.2087
  503MPD2    H3 7534   3.926   3.683  16.969  0.8131  0.1369 -0.0005
  503MPD2     N 7535   4.192   3.642  17.330  0.8345 -0.0942  0.2556
  503MPD2    H5 7536   4.240   3.691  17.403 -0.7784  0.1656  1.1473
  503MPD2    N1 7537   4.066   4.068  17.173  0.3362  0.3917  0.2083
  503MPD2    H7 7538   4.123   4.108  17.246  0.2177  2.6728 -0.9341
  504TMC3    C1 7539   4.331   3.499  17.421  0.0689  0.0102  0.4802
  504TMC3    C2 7540   4.319   3.565  17.540 -0.0663  0.5196 -0.0156
  504TMC3    C3 7541   4.434   3.570  17.616 -0.2758  0.1105 -0.0024
  504TMC3    C4 7542   4.441   3.441  17.371  0.1634  0.1721 -0.3764
  504TMC3    C5 7543   4.553   3.461  17.447  0.3079 -0.3076  0.5007
  504TMC3    C6 7544   4.553   3.524  17.569  0.0016  0.2516 -0.1452
  504TMC3     C 7545   4.223   3.511  17.335  0.4536 -0.2259  0.3469
  504TMC3     O 7546   4.214   3.431  17.241 -0.9244 -0.5367 -0.7781
  504TMC3     H 7547   4.217   3.584  17.571  0.1260  1.7477 -0.1726
  504TMC3    H1 7548   4.448   3.386  17.278 -3.3177 -0.3767 -0.3490
  504TMC3    H2 7549   4.648   3.553  17.612 -0.7229  1.4874  0.6179
  504TMC3    C7 7550   4.679   3.415  17.378 -0.1165  0.2673 -0.0662
  504TMC3    C8 7551   4.438   3.703  17.669  0.1229 -0.5638 -0.1942
  504TMC3    O1 7552   4.680   3.424  17.258 -0.8285  0.3315 -0.0162
  504TMC3    O2 7553   4.356   3.784  17.617 -0.1103  0.3797 -0.3157
  505MPD2     C 7554   4.291   2.793  10.105  0.0386 -0.3466 -0.1661
  505MPD2    C1 7555   4.243   2.678  10.173  0.0688  0.3081  0.6896
  505MPD2    C2 7556   4.271   2.658  10.304  0.6656  0.9188 -0.5498
  505MPD2    C3 7557   4.337   2.760  10.376  0.9332  0.2838  0.3499
  505MPD2    C4 7558   4.373   2.872  10.313 -0.0854 -0.7617 -0.8663
  505MPD2    C5 7559   4.346   2.895  10.181  0.4815  0.4468  0.0970
  505MPD2     H 7560   4.253   2.561  10.347 -0.8207  2.6011  2.6067
  505MPD2    H1 7561   4.425   2.947  10.372  1.5663 -0.5045 -2.6756
  505MPD2    H2 7562   4.291   2.805   9.997  2.2918  0.0148 -0.1306
  505MPD2    H3 7563   4.386   2.971  10.115  2.7351 -2.0999 -1.4812
  505MPD2     N 7564   4.376   2.755  10.510 -0.5872 -0.3222 -1.0997
  505MPD2    H5 7565   4.420   2.834  10.556 -1.3393 -0.3569 -0.3258
  505MPD2    N1 7566   4.185   2.581  10.094  0.2475  0.0795  0.1168
  505MPD2    H7 7567   4.182   2.604   9.996 -1.8234  1.3726  0.4754
  506TMC3    C1 7568   4.136   2.359  10.040  0.0963 -0.8327 -0.2405
  506TMC3    C2 7569   4.225   2.365   9.933  0.4197 -0.7718 -0.5074
  506TMC3    C3 7570   4.272   2.245   9.881  0.1100 -0.3924 -0.2866
  506TMC3    C4 7571   4.109   2.237  10.097  0.0658  0.0217  0.1235
  506TMC3    C5 7572   4.161   2.123  10.042 -0.1247 -1.3081 -0.0060
  506TMC3    C6 7573   4.227   2.123   9.922 -0.3801  0.8951 -0.3627
  506TMC3     C 7574   4.142   2.459  10.141 -0.0727  0.4809  0.1389
  506TMC3     O 7575   4.109   2.416  10.250  0.3759 -0.4769  0.5917
  506TMC3     H 7576   4.268   2.459   9.904 -0.2262  0.0826  1.2850
  506TMC3    H1 7577   4.040   2.223  10.180 -0.7263  0.9306 -0.3769
  506TMC3    H2 7578   4.268   2.036   9.872  0.6349  1.1116  0.1113
  506TMC3    C7 7579   4.224   2.043  10.140 -0.7279 -0.5129  0.1562
  506TMC3    C8 7580   4.365   2.247   9.769 -0.2809  0.1815  0.0873
  506TMC3    O1 7581   4.270   1.935  10.109 -0.5493 -0.1260 -0.0972
  506TMC3    O2 7582   4.373   2.151   9.692 -0.4535 -0.1498  0.2374
  507TMC3    C1 7583   0.560   3.347  14.863 -0.2134  0.2483 -0.3406
  507TMC3    C2 7584   0.549   3.263  14.752 -0.2235 -0.8120  0.2570
  507TMC3    C3 7585   0.595   3.294  14.632  0.2039  0.3281  0.2942
  507TMC3    C4 7586   0.620   3.464  14.850  0.2337  0.0795 -0.2155
  507TMC3    C5 7587   0.654   3.507  14.725 -0.0440 -0.6293 -0.6363
  507TMC3    C6 7588   0.641   3.426  14.612 -0.0907  0.1394  0.2406
  507TMC3     C 7589   0.448   3.339  14.956 -0.2698  1.0065  0.5838
  507TMC3     O 7590   0.441   3.430  15.034  0.6255  0.5955 -0.3154
  507TMC3     H 7591   0.500   3.167  14.758  0.4899 -1.0694  1.9751
  507TMC3    H1 7592   0.616   3.541  14.926  2.6640  0.9320 -0.9512
  507TMC3    H2 7593   0.684   3.456  14.518 -1.7400  0.2544 -0.4823
  507TMC3    C7 7594   0.579   3.628  14.701 -0.0004 -0.0212 -0.0339
  507TMC3    C8 7595   0.493   3.258  14.541  0.1033  0.5305  0.0417
  507TMC3    O1 7596   0.462   3.600  14.677 -0.5844  0.1193  0.4489
  507TMC3    O2 7597   0.448   3.146  14.533 -0.2700  0.2504  0.5585
  508MPD2     C 7598   0.918   1.027  16.187  0.6980 -0.0967  0.1734
  508MPD2    C1 7599   1.050   1.047  16.168  0.0588 -0.3667  0.6579
  508MPD2    C2 7600   1.091   1.062  16.037  0.1815  0.3062  0.0213
  508MPD2    C3 7601   1.006   1.071  15.930  0.2203 -0.2397 -0.6329
  508MPD2    C4 7602   0.871   1.058  15.952 -0.5332 -0.4077 -0.6134
  508MPD2    C5 7603   0.837   1.031  16.085  0.2423 -0.1013 -0.8928
  508MPD2     H 7604   1.194   1.069  16.004  0.1221 -0.4830 -0.3278
  508MPD2    H1 7605   0.797   1.052  15.873 -0.0055 -1.3879 -1.0325
  508MPD2    H2 7606   0.864   1.010  16.280  0.6192  1.4115  0.4088
  508MPD2    H3 7607   0.735   1.016  16.118  0.9005 -1.8784  0.3108
  508MPD2     N 7608   1.069   1.084  15.802  0.1658  0.1270 -0.0912
  508MPD2    H5 7609   1.169   1.098  15.801  0.2835 -0.6748  1.3735
  508MPD2    N1 7610   1.128   1.059  16.283 -0.9293  0.0367 -0.0159
  508MPD2    H7 7611   1.081   1.034  16.370  0.6853 -0.0093  0.8385
  509TMC3    C1 7612   1.088   1.252  15.398 -0.4993  0.7136 -0.4738
  509TMC3    C2 7613   1.231   1.250  15.398 -0.0587  0.7431  0.0643
  509TMC3    C3 7614   1.294   1.165  15.487  0.3923  0.0205 -0.1877
  509TMC3    C4 7615   1.019   1.161  15.474 -0.0386  0.4631 -0.4547
  509TMC3    C5 7616   1.088   1.089  15.567 -0.9753 -0.0432  0.4809
  509TMC3    C6 7617   1.224   1.096  15.585 -0.6208  0.1679  0.1290
  509TMC3     C 7618   1.015   1.316  15.298 -0.7427 -0.0630  0.5401
  509TMC3     O 7619   0.894   1.302  15.295  0.4266 -0.6862 -0.9324
  509TMC3     H 7620   1.281   1.303  15.318  1.0168 -0.9054 -0.3592
  509TMC3    H1 7621   0.912   1.159  15.462  0.0434  0.4739 -1.2015
  509TMC3    H2 7622   1.281   1.034  15.653  0.3197  0.0067 -0.8026
  509TMC3    C7 7623   1.002   1.077  15.686  0.6844  0.0154 -0.3109
  509TMC3    C8 7624   1.436   1.187  15.512  0.1999 -0.2262  0.2366
  509TMC3    O1 7625   0.882   1.062  15.668  0.4731 -0.0435  0.3556
  509TMC3    O2 7626   1.501   1.096  15.557 -0.1742 -0.2203  0.2055
  510MPD2     C 7627   3.730   2.634  14.704  0.7335  0.2884 -0.2709
  510MPD2    C1 7628   3.802   2.537  14.767 -0.2940 -0.5820 -0.3445
  510MPD2    C2 7629   3.936   2.522  14.731  0.1183 -0.2927 -0.2515
  510MPD2    C3 7630   3.988   2.578  14.617  0.6171 -0.0332 -0.2415
  510MPD2    C4 7631   3.906   2.658  14.540 -0.2045 -1.1023  0.1460
  510MPD2    C5 7632   3.776   2.689  14.587  0.2352 -0.4937 -0.2215
  510MPD2     H 7633   3.992   2.451  14.790 -1.0449 -1.2714 -0.3344
  510MPD2    H1 7634   3.931   2.698  14.443 -2.9732  1.8914  0.6977
  510MPD2    H2 7635   3.626   2.655  14.727  1.2561  0.7889  1.6458
  510MPD2    H3 7636   3.722   2.755  14.520  0.5829 -0.9934 -0.9922
  510MPD2     N 7637   4.121   2.554  14.581 -0.4396 -0.5554  0.9081
  510MPD2    H5 7638   4.172   2.494  14.645 -1.1339 -1.8125  0.2796
  510MPD2    N1 7639   3.742   2.461  14.867  0.6101  0.6055 -0.4414
  510MPD2    H7 7640   3.789   2.373  14.882  0.9068  0.5600 -1.6788
  511TMC3    C1 7641   3.582   2.391  15.029 -0.5168 -0.0298  0.4500
  511TMC3    C2 7642   3.498   2.420  15.133 -0.2715  0.1092 -0.4185
  511TMC3    C3 7643   3.419   2.322  15.182 -0.2613 -0.5569 -0.4235
  511TMC3    C4 7644   3.574   2.268  14.968 -0.1562 -0.6137 -0.3146
  511TMC3    C5 7645   3.488   2.174  15.012  0.2023  0.0136  0.1450
  511TMC3    C6 7646   3.409   2.201  15.121 -0.0544  0.0577  0.0405
  511TMC3     C 7647   3.640   2.495  14.948 -0.0947 -0.4701 -0.6910
  511TMC3     O 7648   3.613   2.609  14.986 -0.7154  0.2500 -0.4108
  511TMC3     H 7649   3.504   2.512  15.190 -1.7257 -0.2262  0.2528
  511TMC3    H1 7650   3.622   2.253  14.872  0.0979  0.6018 -0.3781
  511TMC3    H2 7651   3.329   2.133  15.148 -0.6991  1.2683  1.1791
  511TMC3    C7 7652   3.477   2.044  14.931 -0.1453  0.6200  0.9777
  511TMC3    C8 7653   3.341   2.361  15.298  0.1527  0.0949  0.4883
  511TMC3    O1 7654   3.529   2.036  14.823  0.6722  0.4674  0.0485
  511TMC3    O2 7655   3.345   2.477  15.338 -0.1096  0.3966  0.0700
  512TMC3    C1 7656   2.469   1.745  13.501 -0.3321  0.2320 -0.7034
  512TMC3    C2 7657   2.524   1.702  13.619 -0.0057  0.1975 -0.0668
  512TMC3    C3 7658   2.645   1.638  13.621  0.7937  0.1281  0.0705
  512TMC3    C4 7659   2.537   1.712  13.387 -0.8552  0.8152 -0.3658
  512TMC3    C5 7660   2.653   1.642  13.386 -0.0675 -0.0824  0.3169
  512TMC3    C6 7661   2.710   1.600  13.506 -0.5188 -0.6703 -0.8533
  512TMC3     C 7662   2.328   1.762  13.477  0.3653  0.6583 -0.1096
  512TMC3     O 7663   2.280   1.815  13.376  0.0306 -0.0936 -0.4227
  512TMC3     H 7664   2.477   1.727  13.713  1.9887  0.7340  0.7729
  512TMC3    H1 7665   2.479   1.720  13.296  1.0731  1.0804 -1.5561
  512TMC3    H2 7666   2.796   1.534  13.503 -0.4171 -0.5755 -0.1111
  512TMC3    C7 7667   2.727   1.636  13.264 -0.3598 -0.2730 -0.3367
  512TMC3    C8 7668   2.736   1.639  13.738 -0.7225 -0.2332  0.4186
  512TMC3    O1 7669   2.698   1.720  13.181  0.3619  0.5422 -0.0989
  512TMC3    O2 7670   2.828   1.561  13.748 -0.3802 -0.2767  0.2431
  513MPD2     C 7671   4.413   1.873  13.519 -0.0481 -0.4557  0.7684
  513MPD2    C1 7672   4.506   1.924  13.432 -0.2726 -0.3159 -0.0240
  513MPD2    C2 7673   4.626   1.962  13.484  0.3063 -0.1172  0.1000
  513MPD2    C3 7674   4.658   1.956  13.614  0.6765 -0.1344  0.4712
  513MPD2    C4 7675   4.561   1.912  13.703 -0.0626 -0.0942 -0.1400
  513MPD2    C5 7676   4.442   1.865  13.648 -0.1680 -0.5353  1.0147
  513MPD2     H 7677   4.703   2.011  13.424  1.4294 -2.9983 -0.8237
  513MPD2    H1 7678   4.578   1.914  13.810  1.6948 -1.3015 -0.4063
  513MPD2    H2 7679   4.314   1.838  13.495 -1.1154  2.7795  0.4497
  513MPD2    H3 7680   4.358   1.837  13.710  0.1880 -2.3953  0.6338
  513MPD2     N 7681   0.044   2.022  13.648 -0.3677 -0.2716 -0.6394
  513MPD2    H5 7682   0.103   2.048  13.570 -2.9702 -1.2214 -2.9349
  513MPD2    N1 7683   4.480   1.921  13.292 -0.2355 -0.3065  0.0388
  513MPD2    H7 7684   4.383   1.910  13.262 -0.2123  2.9896 -1.3120
  514TMC3    C1 7685   4.521   1.912  13.060  0.3555 -0.5193  0.1097
  514TMC3    C2 7686   4.453   2.022  13.007 -0.4603  0.2037  0.3428
  514TMC3    C3 7687   4.479   2.067  12.882 -0.0109 -0.2251  0.5354
  514TMC3    C4 7688   4.609   1.842  12.983 -0.1427 -0.2926 -0.5514
  514TMC3    C5 7689   4.638   1.894  12.861  0.2304  0.2775  0.5951
  514TMC3    C6 7690   4.571   2.000  12.806 -0.2616 -0.0429 -0.2013
  514TMC3     C 7691   4.577   1.930  13.192 -0.0097 -0.1311  0.2830
  514TMC3     O 7692   4.693   1.900  13.207 -0.0660  0.1672  0.0306
  514TMC3     H 7693   4.389   2.080  13.073 -1.3507  1.0340 -1.2479
  514TMC3    H1 7694   4.669   1.763  13.027 -1.7293 -1.4042 -0.3929
  514TMC3    H2 7695   4.606   2.026  12.706 -0.2276 -3.2011 -1.0034
  514TMC3    C7 7696   0.041   1.917  12.850  0.5616 -0.1842  0.1163
  514TMC3    C8 7697   4.383   2.154  12.825 -0.5301  0.2650 -0.3128
  514TMC3    O1 7698   0.103   1.938  12.747  0.1580 -0.3120  0.2032
  514TMC3    O2 7699   4.282   2.173  12.886 -0.4934  0.3202  0.3723
  515MPD2     C 7700   3.046   3.108  14.521 -0.0007 -0.3154  0.3238
  515MPD2    C1 7701   2.932   3.167  14.565  0.3349 -0.0741  0.0480
  515MPD2    C2 7702   2.942   3.279  14.649 -0.3181 -0.1087 -0.4215
  515MPD2    C3 7703   3.065   3.332  14.684  0.8382  0.3763  0.1754
  515MPD2    C4 7704   3.172   3.274  14.640 -0.4668 -0.1972  0.3330
  515MPD2    C5 7705   3.164   3.170  14.556  0.4371  0.3623  0.4913
  515MPD2     H 7706   2.849   3.318  14.688  0.6185  2.7868 -1.1338
  515MPD2    H1 7707   3.268   3.318  14.661 -0.8286  1.5313 -1.6343
  515MPD2    H2 7708   3.054   3.034  14.443 -0.5586 -2.8285  2.6839
  515MPD2    H3 7709   3.249   3.142  14.496  0.2956  1.1812 -0.0890
  515MPD2     N 7710   3.091   3.444  14.761 -0.2492  0.1009 -0.0685
  515MPD2    H5 7711   3.188   3.472  14.775 -0.1584 -0.5738  0.6122
  515MPD2    N1 7712   2.802   3.121  14.533  0.0548 -0.1076  0.0668
  515MPD2    H7 7713   2.726   3.184  14.557 -3.4798 -4.1453 -0.4285
  516TMC3    C1 7714   2.626   3.010  14.451 -0.2693  0.6851 -0.1392
  516TMC3    C2 7715   2.562   3.123  14.402  0.0125 -0.4444  0.4549
  516TMC3    C3 7716   2.429   3.137  14.429  0.4347 -0.3426  0.3409
  516TMC3    C4 7717   2.563   2.914  14.526 -0.0003 -0.7851 -0.1798
  516TMC3    C5 7718   2.436   2.946  14.563 -0.8068 -0.0999  0.5098
  516TMC3    C6 7719   2.366   3.047  14.513  0.1240  0.4426  0.3894
  516TMC3     C 7720   2.769   3.011  14.465  0.1736  0.3915  0.0382
  516TMC3     O 7721   2.835   2.914  14.430  0.4303 -0.1479 -0.4267
  516TMC3     H 7722   2.624   3.194  14.347 -0.2063 -1.5946 -1.2626
  516TMC3    H1 7723   2.621   2.830  14.562  2.1085  1.8713  2.6171
  516TMC3    H2 7724   2.264   3.078  14.537  0.7472  1.3347  1.8634
  516TMC3    C7 7725   2.408   2.892  14.692  0.5381  0.3098 -0.3160
  516TMC3    C8 7726   2.349   3.236  14.367  0.1163 -0.7737 -0.6572
  516TMC3    O1 7727   2.499   2.858  14.763  0.4518  0.1920 -0.3521
  516TMC3    O2 7728   2.236   3.207  14.336 -0.9859  0.1917 -0.1129
  517MPD2     C 7729   2.880   0.876   0.214 -0.3418  0.1883 -0.1853
  517MPD2    C1 7730   3.001   0.865   0.148  0.2522 -0.3903  0.5087
  517MPD2    C2 7731   3.099   0.961   0.169  0.0270  0.5373  0.6480
  517MPD2    C3 7732   3.059   1.076   0.233  0.2755  0.1595 -0.3626
  517MPD2    C4 7733   2.938   1.086   0.301 -0.2382 -0.2550 -0.1916
  517MPD2    C5 7734   2.849   0.983   0.293  0.5418 -0.2111  0.9273
  517MPD2     H 7735   3.194   0.951   0.118  0.2061 -2.8129  1.6192
  517MPD2    H1 7736   2.913   1.171   0.364  0.0608 -0.5780  0.3595
  517MPD2    H2 7737   2.800   0.802   0.208 -0.1872  0.0513 -0.5353
  517MPD2    H3 7738   2.751   0.988   0.339 -0.2551 -1.9781 -0.6235
  517MPD2     N 7739   3.142   1.184   0.253  0.2077  0.2417  0.1217
  517MPD2    H5 7740   3.101   1.261   0.305 -1.2033 -0.9046  0.6993
  517MPD2    N1 7741   3.030   0.746   0.080 -0.2406  0.9138  0.4212
  517MPD2    H7 7742   3.101   0.751   0.007  0.6966  0.8531  1.3370
  518TMC3    C1 7743   3.024   0.514   0.028  0.6047  0.6663  1.0597
  518TMC3    C2 7744   3.015   0.397   0.089 -0.2230  0.0501 -0.0961
  518TMC3    C3 7745   3.085   0.293   0.037  0.1944 -0.2974 -0.2621
  518TMC3    C4 7746   3.100   0.542  17.662 -0.4763  0.2084  0.1726
  518TMC3    C5 7747   3.164   0.427  17.611 -0.3833  1.2238 -0.1759
  518TMC3    C6 7748   3.152   0.308  17.673  0.3223  0.6664  0.3091
  518TMC3     C 7749   2.969   0.623   0.109  0.0535  0.3534 -0.5529
  518TMC3     O 7750   2.905   0.596   0.212 -0.3951  0.1175  0.3096
  518TMC3     H 7751   2.963   0.388   0.184 -0.5616 -1.3727 -0.4083
  518TMC3    H1 7752   3.125   0.643  17.632  1.7154 -0.1848  0.6138
  518TMC3    H2 7753   3.216   0.222  17.654 -0.4013 -0.0253  0.9645
  518TMC3    C7 7754   3.259   0.441  17.508 -0.0220  0.5582  0.0126
  518TMC3    C8 7755   3.072   0.157   0.078 -0.2418 -0.6475  0.5987
  518TMC3    O1 7756   3.299   0.549  17.469 -0.3514 -0.3202  0.2200
  518TMC3    O2 7757   3.084   0.076  17.738  0.3389 -0.1724  0.0097
  519MPD2     C 7758   4.021   3.426  14.247 -0.2261  0.0763  0.3003
  519MPD2    C1 7759   3.935   3.363  14.157 -0.2801  0.3575 -0.1129
  519MPD2    C2 7760   3.955   3.226  14.145 -0.9039  0.9298  0.2981
  519MPD2    C3 7761   4.071   3.173  14.179  0.0052  0.7054 -0.3343
  519MPD2    C4 7762   4.155   3.234  14.272 -0.0212 -0.4307 -0.0439
  519MPD2    C5 7763   4.130   3.361  14.306  0.0471 -0.3112 -0.4772
  519MPD2     H 7764   3.886   3.176  14.077  2.0560 -2.5384 -0.1223
  519MPD2    H1 7765   4.246   3.193  14.314  0.9146  1.3370 -0.3625
  519MPD2    H2 7766   4.009   3.531  14.271 -1.0332 -0.1458  0.8650
  519MPD2    H3 7767   4.193   3.415  14.376 -2.2211 -0.5241  1.7576
  519MPD2     N 7768   4.123   3.053  14.121 -0.3829 -0.1533  0.0588
  519MPD2    H5 7769   4.219   3.030  14.145 -1.2088 -1.5308  2.1018
  519MPD2    N1 7770   3.822   3.420  14.094 -0.3177  0.2742  0.6801
  519MPD2    H7 7771   3.764   3.365  14.031  0.9863 -1.8773  1.3452
  520TMC3    C1 7772   4.145   2.883  13.967  0.3363  0.3952 -0.0510
  520TMC3    C2 7773   4.114   2.877  13.835 -0.1288  0.1753  0.6941
  520TMC3    C3 7774   4.218   2.907  13.751 -0.1242 -0.4392  0.4926
  520TMC3    C4 7775   4.279   2.883  14.005  0.2585 -0.7245  0.6063
  520TMC3    C5 7776   4.376   2.912  13.916 -0.5542  0.2469  0.0873
  520TMC3    C6 7777   4.349   2.927  13.786 -0.2192 -0.2277  0.2860
  520TMC3     C 7778   4.054   2.965  14.041 -0.5728 -0.2432 -0.3394
  520TMC3     O 7779   3.936   2.971  14.008  0.4827  0.1047  0.2162
  520TMC3     H 7780   4.009   2.875  13.808 -0.4845  1.5105  1.9867
  520TMC3    H1 7781   4.305   2.866  14.109 -0.2450  1.9630  1.1590
  520TMC3    H2 7782   4.436   2.939  13.722 -1.7033 -1.1358 -1.9135
  520TMC3    C7 7783   4.515   2.894  13.958  0.4105 -0.6381 -0.1406
  520TMC3    C8 7784   4.184   2.967  13.623  0.2611 -0.4086 -0.3755
  520TMC3    O1 7785   4.537   2.847  14.066  0.0538 -0.4643 -0.2081
  520TMC3    O2 7786   4.272   3.006  13.545 -0.0987  0.4905 -0.2448
  521MPD2     C 7787   0.213   1.902  17.649 -0.4648 -0.0137  0.2621
  521MPD2    C1 7788   0.168   1.847  17.531  0.2133 -0.1721  0.1103
  521MPD2    C2 7789   0.260   1.841  17.428 -0.1508 -0.1727  0.2924
  521MPD2    C3 7790   0.391   1.885  17.445  0.3548  0.7415  0.4135
  521MPD2    C4 7791   0.428   1.930  17.567 -0.0136 -0.3569  0.2083
  521MPD2    C5 7792   0.340   1.935  17.673 -0.1871  0.1150 -0.0672
  521MPD2     H 7793   0.235   1.810  17.327 -0.2802 -3.4830  1.3355
  521MPD2    H1 7794   0.532   1.956  17.580  0.3985 -2.8294  1.8653
  521MPD2    H2 7795   0.143   1.907  17.731 -0.2324  0.4486  0.4338
  521MPD2    H3 7796   0.375   1.978   0.016  0.3735 -1.7866  0.5857
  521MPD2     N 7797   0.482   1.880  17.328  0.7580 -0.1904  0.0023
  521MPD2    H5 7798   0.437   1.850  17.242  1.5325 -2.1072  0.2644
  521MPD2    N1 7799   0.029   1.804  17.519  0.3516 -0.5607 -1.0172
  521MPD2    H7 7800   4.715   1.818  17.605  2.3594  1.2908 -0.1150
  522TMC3    C1 7801   0.678   1.880  17.198 -0.2836  0.6786  0.2136
  522TMC3    C2 7802   0.816   1.871  17.193  0.2748  0.5986  0.1424
  522TMC3    C3 7803   0.868   1.828  17.073 -0.2549  0.6452 -0.5656
  522TMC3    C4 7804   0.598   1.854  17.088 -0.6558  0.2833 -0.9587
  522TMC3    C5 7805   0.663   1.829  16.965 -0.3015  0.0481 -0.2022
  522TMC3    C6 7806   0.793   1.808  16.960 -0.4709 -0.1610  0.5569
  522TMC3     C 7807   0.617   1.895  17.327 -0.4129 -0.2813 -0.2958
  522TMC3     O 7808   0.690   1.925  17.422  0.8706 -0.1158  0.4221
  522TMC3     H 7809   0.865   1.899  17.285  1.9435 -1.8841 -0.0067
  522TMC3    H1 7810   0.493   1.876  17.075 -0.2986  1.1062 -2.4155
  522TMC3    H2 7811   0.841   1.760  16.875  0.0762  0.1400  0.6947
  522TMC3    C7 7812   0.596   1.802  16.845 -0.5109  0.4716  0.0136
  522TMC3    C8 7813   1.013   1.830  17.062  0.0025  0.3408  0.2268
  522TMC3    O1 7814   0.481   1.753  16.850  0.2525  0.2549 -0.3335
  522TMC3    O2 7815   1.080   1.905  17.138  0.5659 -0.6970  0.1817
  523MPD2     C 7816   2.731   1.577  10.218  0.5168 -0.2751 -0.0166
  523MPD2    C1 7817   2.620   1.503  10.209 -0.0044  0.6930  0.1430
  523MPD2    C2 7818   2.518   1.546  10.121 -0.0200 -0.5665 -0.1056
  523MPD2    C3 7819   2.528   1.658  10.045 -0.0936  0.0794 -0.1027
  523MPD2    C4 7820   2.634   1.742  10.073 -0.9931  0.7314 -0.4978
  523MPD2    C5 7821   2.737   1.699  10.154  0.3362  0.1862  0.1601
  523MPD2     H 7822   2.423   1.496  10.113 -0.9194  0.6635  3.0881
  523MPD2    H1 7823   2.654   1.835  10.022  1.8521 -1.4709 -3.3787
  523MPD2    H2 7824   2.813   1.538  10.278  1.1182 -0.6856 -1.1038
  523MPD2    H3 7825   2.821   1.763  10.179  0.6603  0.2090 -0.9579
  523MPD2     N 7826   2.437   1.707   9.947  0.2227 -0.2901 -0.0685
  523MPD2    H5 7827   2.469   1.791   9.901  0.9610 -0.9317 -0.7123
  523MPD2    N1 7828   2.609   1.394  10.293 -0.6433 -0.1175 -0.8410
  523MPD2    H7 7829   2.689   1.376  10.353 -0.1352  1.1572 -1.1526
  524TMC3    C1 7830   2.276   1.714   9.780  0.4186 -0.5298 -0.0597
  524TMC3    C2 7831   2.216   1.636   9.684  0.3803 -0.1294 -0.2905
  524TMC3    C3 7832   2.161   1.708   9.578  0.1895  0.5512 -0.2604
  524TMC3    C4 7833   2.270   1.848   9.789  0.4791 -0.1133 -0.4233
  524TMC3    C5 7834   2.197   1.910   9.684  0.0360 -0.4746 -0.7352
  524TMC3    C6 7835   2.142   1.848   9.580  0.4972  0.5933  0.2306
  524TMC3     C 7836   2.328   1.636   9.889 -0.3435 -0.8274  0.5180
  524TMC3     O 7837   2.273   1.526   9.915  0.0958  0.3047 -0.0044
  524TMC3     H 7838   2.233   1.529   9.690  0.7790 -0.1917 -2.3766
  524TMC3    H1 7839   2.314   1.902   9.872 -0.8917 -0.0753  0.2744
  524TMC3    H2 7840   2.098   1.900   9.496  0.1082 -0.9702 -0.5374
  524TMC3    C7 7841   2.166   2.049   9.708  0.0132 -0.0275 -0.1768
  524TMC3    C8 7842   2.126   1.636   9.454 -0.0966 -0.1877 -0.5584
  524TMC3    O1 7843   2.197   2.094   9.817  0.0518 -0.0805 -0.8519
  524TMC3    O2 7844   2.084   1.698   9.356 -0.0380  0.9319 -0.2309
  525MPD2     C 7845   0.889   3.160  14.502 -0.1392  0.3892  0.3812
  525MPD2    C1 7846   1.009   3.126  14.559  0.7220  0.3110 -0.1969
  525MPD2    C2 7847   1.122   3.207  14.526  0.2404 -0.6279  0.1317
  525MPD2    C3 7848   1.109   3.314  14.448 -0.0534 -0.4349 -0.3105
  525MPD2    C4 7849   0.992   3.336  14.380 -0.2651 -0.5354 -0.6478
  525MPD2    C5 7850   0.885   3.255  14.401 -1.0128  0.3740  0.0802
  525MPD2     H 7851   1.211   3.191  14.586  0.6639  0.7721 -0.1244
  525MPD2    H1 7852   0.985   3.402  14.294  1.0355 -1.4709 -1.4733
  525MPD2    H2 7853   0.796   3.109  14.521  1.5080 -2.5587  0.6046
  525MPD2    H3 7854   0.790   3.269  14.351 -1.2887 -0.8019  0.2804
  525MPD2     N 7855   1.213   3.410  14.438 -0.1047 -0.5186 -0.6475
  525MPD2    H5 7856   1.183   3.498  14.397 -0.9849 -0.4127  0.2192
  525MPD2    N1 7857   1.030   3.031  14.664 -0.5790 -0.9001  0.0737
  525MPD2    H7 7858   1.124   3.032  14.702 -0.3524 -1.3802 -0.4827
  526TMC3    C1 7859   0.998   2.864  14.825  0.0236 -0.9760 -0.9190
  526TMC3    C2 7860   0.908   2.795  14.906  0.5926  0.1259 -0.7749
  526TMC3    C3 7861   0.970   2.707  14.991 -0.0798  0.0415  0.4907
  526TMC3    C4 7862   1.139   2.849  14.830 -0.1112  0.3374 -0.4475
  526TMC3    C5 7863   1.186   2.773  14.926  0.4387 -0.0566 -1.0175
  526TMC3    C6 7864   1.108   2.702  15.011 -0.2752 -0.0255 -0.2374
  526TMC3     C 7865   0.933   2.947  14.723 -0.3791  0.0268  0.1896
  526TMC3     O 7866   0.813   2.949  14.700  0.0202 -0.2905 -0.4831
  526TMC3     H 7867   0.804   2.780  14.878 -0.6695  0.9770  3.4673
  526TMC3    H1 7868   1.201   2.879  14.746  0.8008  2.2498  0.9189
  526TMC3    H2 7869   1.158   2.638  15.083  1.7814 -1.1618 -2.6603
  526TMC3    C7 7870   1.323   2.725  14.919 -0.4012  0.4478  0.8808
  526TMC3    C8 7871   0.901   2.675  15.107 -0.0401  0.3024  0.9038
  526TMC3    O1 7872   1.352   2.612  14.964  0.4470 -0.3033 -0.6392
  526TMC3    O2 7873   0.963   2.632  15.204  0.1469  0.2653 -0.3489
  527MPD2     C 7874   3.121   1.651   1.119  0.0494  1.0208  0.8605
  527MPD2    C1 7875   3.239   1.620   1.189  0.1403  0.2688  0.1054
  527MPD2    C2 7876   3.333   1.553   1.119  0.2219 -0.2686  0.4779
  527MPD2    C3 7877   3.305   1.498   0.992 -0.3488 -0.5575  0.3497
  527MPD2    C4 7878   3.184   1.520   0.934 -0.4530 -0.0075 -0.3248
  527MPD2    C5 7879   3.095   1.604   0.994 -0.0775 -1.0187 -0.5907
  527MPD2     H 7880   3.431   1.537   1.164 -0.7803 -0.8475  2.4439
  527MPD2    H1 7881   3.162   1.502   0.829 -0.3065 -0.2111 -0.3196
  527MPD2    H2 7882   3.045   1.721   1.154 -2.6113 -1.7755  0.7542
  527MPD2    H3 7883   3.008   1.640   0.938  0.3191  1.0776  0.1539
  527MPD2     N 7884   3.406   1.422   0.925  0.0020 -1.1766 -0.3516
  527MPD2    H5 7885   3.497   1.403   0.965  0.4954 -1.3135 -1.5601
  527MPD2    N1 7886   3.264   1.652   1.326 -0.0018 -0.5048  0.4908
  527MPD2    H7 7887   3.355   1.634   1.367 -0.1153 -0.4223  0.7746
  528TMC3    C1 7888   3.222   1.721   1.540  0.1931 -0.8390  0.5306
  528TMC3    C2 7889   3.312   1.814   1.520  0.6116  0.0235  0.6576
  528TMC3    C3 7890   3.322   1.909   1.613 -0.7056  0.0593  0.4485
  528TMC3    C4 7891   3.139   1.722   1.648  0.5649 -0.1193  0.0827
  528TMC3    C5 7892   3.158   1.815   1.744  0.4606  0.1020 -0.5640
  528TMC3    C6 7893   3.251   1.918   1.729  0.3909  0.0256 -0.1868
  528TMC3     C 7894   3.164   1.692   1.414 -0.0949  0.2228 -0.6490
  528TMC3     O 7895   3.046   1.664   1.402 -0.1201 -0.1234 -0.3784
  528TMC3     H 7896   3.388   1.807   1.443  0.8054  0.5265  0.8035
  528TMC3    H1 7897   3.055   1.653   1.650  0.0133  0.5924  1.2695
  528TMC3    H2 7898   3.252   2.004   1.795  1.9962  1.2134 -1.7704
  528TMC3    C7 7899   3.078   1.814   1.867 -0.0214  0.1321  0.4706
  528TMC3    C8 7900   3.416   2.018   1.592 -0.7520  0.5358  0.4738
  528TMC3    O1 7901   2.956   1.789   1.861  0.5056 -0.0257  0.0748
  528TMC3    O2 7902   3.430   2.082   1.693  0.6982 -0.4047  0.0631
  529MPD2     C 7903   2.206   0.316   0.065 -0.9932  0.2746  0.1361
  529MPD2    C1 7904   2.118   0.230   0.131  0.5917 -0.3490 -0.5243
  529MPD2    C2 7905   2.019   0.172   0.054 -0.7465 -0.3873  0.1961
  529MPD2    C3 7906   1.995   0.203  17.672 -0.6510  0.0488  0.1341
  529MPD2    C4 7907   2.088   0.290  17.606  0.5763  0.1940 -0.3470
  529MPD2    C5 7908   2.195   0.342  17.680 -0.3308 -0.2056 -0.4467
  529MPD2     H 7909   1.951   0.118   0.120  0.6563  0.0773  2.0185
  529MPD2    H1 7910   2.077   0.317  17.502 -0.4943  1.8242  0.1972
  529MPD2    H2 7911   2.287   0.362   0.121 -1.0925  0.5582  0.0496
  529MPD2    H3 7912   2.273   0.400  17.633 -1.3216 -0.0760 -1.9103
  529MPD2     N 7913   1.880   0.159  17.603  0.6963 -0.0724 -0.3279
  529MPD2    H5 7914   1.855   0.212  17.521  1.4272  0.5455 -0.1535
  529MPD2    N1 7915   2.137   0.186   0.265 -0.4934  0.1077  0.3322
  529MPD2    H7 7916   2.080   0.107   0.292 -1.4389  0.3503 -0.9622
  530TMC3    C1 7917   2.212   0.162   0.481 -0.6563  0.2961  0.0339
  530TMC3    C2 7918   2.303   0.188   0.583  0.5412 -0.0732  1.1146
  530TMC3    C3 7919   2.294   0.128   0.705  0.3188 -1.2355  0.3467
  530TMC3    C4 7920   2.102   0.080   0.503  0.6438 -0.1088  0.2401
  530TMC3    C5 7921   2.095   0.014   0.620 -0.2127 -0.7087  1.2167
  530TMC3    C6 7922   2.190   0.034   0.712 -0.5990 -0.3289 -0.1630
  530TMC3     C 7923   2.230   0.228   0.356  0.4821 -0.0455  0.2424
  530TMC3     O 7924   2.319   0.316   0.355 -0.0061  0.2846  0.1511
  530TMC3     H 7925   2.365   0.275   0.566  1.6322 -1.1696 -0.5337
  530TMC3    H1 7926   2.022   0.067   0.432  1.4134  0.6718 -0.7597
  530TMC3    H2 7927   2.177   4.732   0.812  1.1249 -1.7838 -0.5004
  530TMC3    C7 7928   1.964   4.715   0.670 -0.3921 -0.2970  0.0536
  530TMC3    C8 7929   2.332   0.196   0.823 -0.5518  0.3781  0.6689
  530TMC3    O1 7930   1.977   4.635   0.766  0.4670  0.7423 -0.3325
  530TMC3    O2 7931   2.349   0.315   0.821 -0.0823  0.6807  0.2255
  531MPD2     C 7932   0.495   1.947  13.109  0.3343 -0.2500 -0.1497
  531MPD2    C1 7933   0.389   1.961  13.195 -0.5772  0.4815 -0.7006
  531MPD2    C2 7934   0.256   1.963  13.150 -0.0660 -0.0179 -0.0111
  531MPD2    C3 7935   0.228   1.935  13.016 -0.3037 -0.1089  0.3412
  531MPD2    C4 7936   0.339   1.915  12.937 -0.2743  0.2077 -0.0033
  531MPD2    C5 7937   0.471   1.927  12.981 -0.3134 -0.1507 -0.1720
  531MPD2     H 7938   0.176   1.989  13.218 -0.7572  2.5561 -1.8010
  531MPD2    H1 7939   0.319   1.882  12.835  0.9470  0.0355 -0.1908
  531MPD2    H2 7940   0.595   1.951  13.149 -0.5129 -1.6013  2.1444
  531MPD2    H3 7941   0.547   1.897  12.911 -0.4814 -0.4610 -0.2207
  531MPD2     N 7942   0.093   1.928  12.980 -0.4100  0.4700 -0.0935
  531MPD2    H5 7943   0.027   1.930  13.058 -1.0021  0.2130 -0.5886
  531MPD2    N1 7944   0.421   2.004  13.329  0.6698  0.2053 -0.4046
  531MPD2    H7 7945   0.519   2.001  13.355  0.1352 -3.4968  1.1775
  532TMC3    C1 7946   0.365   2.056  13.557 -0.2986 -0.7587 -0.7079
  532TMC3    C2 7947   0.273   2.122  13.634 -0.5768 -0.3027  0.3411
  532TMC3    C3 7948   0.242   2.072  13.761 -0.0576  0.6278 -0.3576
  532TMC3    C4 7949   0.431   1.954  13.613  0.4150  0.5388  0.3580
  532TMC3    C5 7950   0.412   1.923  13.743  0.0375 -0.1082 -0.1442
  532TMC3    C6 7951   0.323   1.983  13.824  0.5061 -0.0909  0.2950
  532TMC3     C 7952   0.322   2.047  13.421  0.0734  0.4792  0.4134
  532TMC3     O 7953   0.199   2.065  13.417 -0.5336 -0.1379  0.0457
  532TMC3     H 7954   0.209   2.197  13.588  1.1623 -0.4011 -2.2282
  532TMC3    H1 7955   0.501   1.896  13.554  0.3657 -0.3208  1.1273
  532TMC3    H2 7956   0.298   1.951  13.925  2.1305 -3.4008 -0.3466
  532TMC3    C7 7957   0.481   1.805  13.792 -0.1556  0.6418 -0.1211
  532TMC3    C8 7958   0.104   2.029  13.767 -0.3131 -0.0718  0.8051
  532TMC3    O1 7959   0.542   1.820  13.899 -0.3030 -0.2885  0.7698
  532TMC3    O2 7960   0.059   1.993  13.875  0.2958  0.0136 -0.2518
  533TMC3    C1 7961   1.424   3.512  14.491  0.3696 -0.3585  0.2370
  533TMC3    C2 7962   1.557   3.507  14.481  0.0366 -0.3176  0.4073
  533TMC3    C3 7963   1.631   3.578  14.571 -0.5236  0.1478  0.0426
  533TMC3    C4 7964   1.366   3.608  14.571 -0.2032 -0.1700  0.4808
  533TMC3    C5 7965   1.439   3.688  14.659 -0.4796  0.5185  0.0142
  533TMC3    C6 7966   1.577   3.671  14.650  0.2273  0.1014 -0.1649
  533TMC3     C 7967   1.346   3.387  14.479 -0.5782 -0.1784  0.7219
  533TMC3     O 7968   1.400   3.280  14.504 -0.0481 -0.1407 -0.4954
  533TMC3     H 7969   1.607   3.431  14.422 -2.9468 -1.8992 -0.0771
  533TMC3    H1 7970   1.261   3.594  14.591 -0.8469  0.5930 -2.3491
  533TMC3    H2 7971   1.643   3.724  14.718  0.8529 -0.9545  0.0456
  533TMC3    C7 7972   1.373   3.673  14.781  0.5549 -0.1248  0.1135
  533TMC3    C8 7973   1.780   3.597  14.543  0.0073  0.5722  0.4476
  533TMC3    O1 7974   1.375   3.553  14.817  0.0531 -0.2190  0.4327
  533TMC3    O2 7975   1.810   3.717  14.544 -0.9869 -0.2908 -0.8012
  534MPD2     C 7976   3.451   0.508   2.345 -0.4175  0.5579 -0.3294
  534MPD2    C1 7977   3.410   0.575   2.232 -0.5381 -0.1373  0.1637
  534MPD2    C2 7978   3.425   0.512   2.108 -0.5020 -0.2441 -0.1408
  534MPD2    C3 7979   3.467   0.381   2.100  0.1174 -0.0657  0.1364
  534MPD2    C4 7980   3.503   0.322   2.220 -0.9260 -0.0073 -0.2953
  534MPD2    C5 7981   3.505   0.383   2.339 -0.2179 -0.5846  0.1634
  534MPD2     H 7982   3.403   0.564   2.016 -1.3071  1.9911  1.3022
  534MPD2    H1 7983   3.538   0.219   2.216 -0.8015 -0.0361  1.8215
  534MPD2    H2 7984   3.449   0.558   2.441 -1.9800 -2.9893  1.4729
  534MPD2    H3 7985   3.540   0.345   2.434 -0.9235  3.4075  1.9852
  534MPD2     N 7986   3.479   0.309   1.974 -0.0283 -0.1065 -0.3936
  534MPD2    H5 7987   3.510   0.213   1.983 -0.5689 -0.1921  0.5130
  534MPD2    N1 7988   3.364   0.706   2.237  0.8645 -0.3071 -0.2304
  534MPD2    H7 7989   3.354   0.746   2.144  0.0105 -2.1856 -0.9368
  535TMC3    C1 7990   3.469   0.257   1.745 -0.3092  0.1944  0.1011
  535TMC3    C2 7991   3.458   0.127   1.778 -0.7483  0.1801 -0.4846
  535TMC3    C3 7992   3.461   0.039   1.676  0.0595  0.3073 -0.3322
  535TMC3    C4 7993   3.479   0.302   1.622 -0.2089 -0.1747 -0.0269
  535TMC3    C5 7994   3.477   0.211   1.521 -0.1134 -0.0010 -0.0337
  535TMC3    C6 7995   3.459   0.077   1.549 -0.0417 -0.0861  0.0344
  535TMC3     C 7996   3.462   0.361   1.850  0.1373  0.3283 -0.1386
  535TMC3     O 7997   3.441   0.478   1.815  0.6847 -0.0450  0.1133
  535TMC3     H 7998   3.435   0.089   1.878 -1.0863  0.9043 -0.2882
  535TMC3    H1 7999   3.516   0.403   1.605 -0.0672 -0.2312 -0.0561
  535TMC3    H2 8000   3.468   0.006   1.466  0.9984  2.3023 -1.8914
  535TMC3    C7 8001   3.454   0.255   1.386  0.4720 -0.3958 -0.0806
  535TMC3    C8 8002   3.413   4.648   1.707  0.1278  0.4426  0.4463
  535TMC3    O1 8003   3.478   0.161   1.310  0.3052 -0.2608 -0.0264
  535TMC3    O2 8004   3.453   4.594   1.811  0.7083  0.2504 -0.3068
  536MPD2     C 8005   2.602   2.989  16.540  0.4420  0.3265 -0.3825
  536MPD2    C1 8006   2.504   2.901  16.575  0.3409 -0.1001  0.8767
  536MPD2    C2 8007   2.410   2.862  16.475  0.0115  0.8681  0.7689
  536MPD2    C3 8008   2.422   2.910  16.345 -0.0456 -0.0770 -0.0626
  536MPD2    C4 8009   2.535   2.981  16.316 -0.2339  0.1461  0.3305
  536MPD2    C5 8010   2.617   3.034  16.412  0.1836 -0.0472  0.1259
  536MPD2     H 8011   2.329   2.799  16.510  1.2878 -1.3835 -0.3346
  536MPD2    H1 8012   2.543   3.003  16.210  1.8321 -1.3578  0.1918
  536MPD2    H2 8013   2.671   3.035  16.610 -0.5121  1.9883 -0.5351
  536MPD2    H3 8014   2.692   3.105  16.378  1.7518 -2.3773 -1.3312
  536MPD2     N 8015   2.321   2.899  16.241  0.4578  0.4694  0.1758
  536MPD2    H5 8016   2.324   2.965  16.165  1.0401  0.4603  0.1913
  536MPD2    N1 8017   2.499   2.864  16.712  0.1830 -0.3266 -0.0470
  536MPD2    H7 8018   2.570   2.911  16.767  1.9319 -2.4382 -0.5284
  537TMC3    C1 8019   2.429   2.764  16.912  0.3537 -1.9274  0.0787
  537TMC3    C2 8020   2.518   2.843  16.985 -0.9736  0.4866 -0.3836
  537TMC3    C3 8021   2.523   2.819  17.119  0.7896  1.0719  0.7443
  537TMC3    C4 8022   2.345   2.677  16.964  0.6750 -0.2139  0.0848
  537TMC3    C5 8023   2.355   2.651  17.100 -0.5131  0.2090  0.3407
  537TMC3    C6 8024   2.446   2.722  17.176 -0.1026 -0.1543 -0.0139
  537TMC3     C 8025   2.407   2.783  16.771  0.1144 -0.2853  0.3334
  537TMC3     O 8026   2.337   2.704  16.715 -0.4378 -0.4217  0.1076
  537TMC3     H 8027   2.571   2.930  16.950 -2.4208  1.0625 -1.0876
  537TMC3    H1 8028   2.277   2.618  16.904  0.5776 -1.1293  1.0931
  537TMC3    H2 8029   2.440   2.724  17.284 -1.4784 -0.0979 -0.0956
  537TMC3    C7 8030   2.281   2.547  17.162 -0.5762 -0.2983 -0.2443
  537TMC3    C8 8031   2.588   2.909  17.215  0.1657  0.3696 -0.0319
  537TMC3    O1 8032   2.177   2.504  17.115  0.2584 -0.0296 -0.2569
  537TMC3    O2 8033   2.623   2.854  17.317  0.1462  0.2665 -0.1018
  538TMC3    C1 8034   3.388   0.706  11.438 -0.3548  0.4143  0.4610
  538TMC3    C2 8035   3.516   0.747  11.412  0.1221  0.0332 -0.3707
  538TMC3    C3 8036   3.542   0.881  11.392 -0.0165  0.6244  0.2271
  538TMC3    C4 8037   3.287   0.795  11.443  0.4076  0.6527  0.1492
  538TMC3    C5 8038   3.320   0.926  11.433 -0.0875 -0.9070 -0.2446
  538TMC3    C6 8039   3.447   0.982  11.407 -0.1652 -0.0950 -0.3685
  538TMC3     C 8040   3.370   0.614  11.551 -0.2393 -0.0789 -0.7993
  538TMC3     O 8041   3.261   0.555  11.553 -0.3451  0.4396 -0.0148
  538TMC3     H 8042   3.604   0.684  11.408 -0.2483 -0.4721 -0.5175
  538TMC3    H1 8043   3.190   0.767  11.484  1.7105 -2.4980  1.1156
  538TMC3    H2 8044   3.479   1.085  11.401 -0.4862  0.0028 -0.3765
  538TMC3    C7 8045   3.218   1.015  11.476  0.5933 -0.4398  0.0297
  538TMC3    C8 8046   3.679   0.917  11.348 -0.4716 -0.0577 -0.3882
  538TMC3    O1 8047   3.100   0.985  11.471 -0.0300 -0.1495 -0.6331
  538TMC3    O2 8048   3.758   0.826  11.340  0.1295 -0.2884  0.4025
  539MPD2     C 8049   3.018   0.403  12.089  0.4203  0.0313  0.1087
  539MPD2    C1 8050   2.999   0.417  11.950 -0.5003 -0.1887 -0.2762
  539MPD2    C2 8051   2.964   0.542  11.897 -0.1563 -0.0533  0.1019
  539MPD2    C3 8052   2.965   0.659  11.974  0.2816 -0.3756 -0.5415
  539MPD2    C4 8053   2.999   0.644  12.102 -0.3437  0.1821 -0.0470
  539MPD2    C5 8054   3.024   0.519  12.160 -0.0361 -0.9592 -0.7795
  539MPD2     H 8055   2.943   0.547  11.791 -4.2309  1.3523  0.9501
  539MPD2    H1 8056   3.005   0.730  12.168 -1.8427  1.5447 -1.7094
  539MPD2    H2 8057   3.042   0.313  12.145 -0.4553 -0.4544 -0.3028
  539MPD2    H3 8058   3.053   0.515  12.265 -1.1757  1.0397 -0.3808
  539MPD2     N 8059   2.946   0.791  11.936 -0.4820 -0.9621  0.0961
  539MPD2    H5 8060   2.956   0.862  12.008  0.2698 -0.7189 -0.2460
  539MPD2    N1 8061   3.015   0.308  11.859 -0.2035  0.0384  0.1488
  539MPD2    H7 8062   3.027   0.331  11.761 -1.2446  2.8962  0.6851
  540TMC3    C1 8063   2.911   0.998  11.825 -0.3139 -0.0496  0.0940
  540TMC3    C2 8064   2.863   1.061  11.716 -0.4889  1.2790 -0.6096
  540TMC3    C3 8065   2.790   1.177  11.736 -0.3681 -0.4630 -0.4014
  540TMC3    C4 8066   2.891   1.063  11.945 -0.3841 -0.2157 -0.0210
  540TMC3    C5 8067   2.841   1.188  11.957 -0.7247  0.1696  0.0866
  540TMC3    C6 8068   2.788   1.254  11.848 -0.3809  0.0613 -0.0356
  540TMC3     C 8069   2.923   0.853  11.813  0.6033 -0.0054  0.9039
  540TMC3     O 8070   2.893   0.793  11.707 -0.1528  0.2051 -0.2759
  540TMC3     H 8071   2.886   1.013  11.622  0.6451 -0.0259  0.3322
  540TMC3    H1 8072   2.922   1.015  12.037 -0.4997  1.1602  0.7455
  540TMC3    H2 8073   2.721   1.339  11.853  0.5102  0.7918 -0.3218
  540TMC3    C7 8074   2.776   1.223  12.080  0.3644  0.6423 -0.0025
  540TMC3    C8 8075   2.678   1.185  11.645 -0.2039  0.3190  0.4446
  540TMC3    O1 8076   2.740   1.130  12.151  0.2361 -0.2413 -0.2169
  540TMC3    O2 8077   2.607   1.282  11.658 -0.6210  0.2602  0.5900
  541MPD2     C 8078   1.137   2.261  12.973  0.0705  0.4943  0.5836
  541MPD2    C1 8079   1.154   2.206  12.851 -0.2413  0.0476  0.2122
  541MPD2    C2 8080   1.198   2.289  12.747 -0.2119 -0.0951 -0.3821
  541MPD2    C3 8081   1.244   2.422  12.768 -0.3136  0.4409 -0.0019
  541MPD2    C4 8082   1.230   2.471  12.891 -0.1014  0.4251  0.5526
  541MPD2    C5 8083   1.174   2.394  12.992  0.1445  0.2174 -0.0636
  541MPD2     H 8084   1.224   2.250  12.650 -0.3727  2.9994 -1.6733
  541MPD2    H1 8085   1.276   2.564  12.922 -1.5385  1.0791  0.7543
  541MPD2    H2 8086   1.083   2.210  13.053 -0.3820 -1.5211 -1.0011
  541MPD2    H3 8087   1.178   2.434  13.092  0.4669  0.8278 -0.3232
  541MPD2     N 8088   1.322   2.479  12.662  0.4728  0.5826  0.0187
  541MPD2    H5 8089   1.311   2.442  12.569  1.8833  1.0541 -0.3346
  541MPD2    N1 8090   1.142   2.063  12.832  0.6017  0.0083 -0.8850
  541MPD2    H7 8091   1.119   2.010  12.916  1.1108  1.0529 -0.0717
  542TMC3    C1 8092   1.451   2.639  12.538 -0.5667  0.0095  0.4271
  542TMC3    C2 8093   1.510   2.547  12.456 -0.1912 -0.1460  0.4491
  542TMC3    C3 8094   1.590   2.594  12.361  0.5889 -0.8472 -0.0435
  542TMC3    C4 8095   1.469   2.771  12.525 -0.0384 -0.2335 -0.1271
  542TMC3    C5 8096   1.539   2.811  12.420 -0.8113  0.9316  0.0822
  542TMC3    C6 8097   1.590   2.725  12.324 -0.3526 -0.0761 -0.8664
  542TMC3     C 8098   1.384   2.600  12.664 -0.0113  0.0904 -0.5725
  542TMC3     O 8099   1.400   2.674  12.758 -0.2095 -0.0757  0.5028
  542TMC3     H 8100   1.498   2.441  12.475  0.3068 -0.4622 -1.0338
  542TMC3    H1 8101   1.421   2.835  12.598  0.9556  0.9430 -0.5053
  542TMC3    H2 8102   1.648   2.747  12.236  1.1062 -1.6170 -0.2920
  542TMC3    C7 8103   1.524   2.956  12.396 -0.0609 -0.1064  0.3047
  542TMC3    C8 8104   1.655   2.510  12.267 -0.2732  0.0117 -0.2231
  542TMC3    O1 8105   1.466   3.018  12.486  0.0954  0.1614 -0.1181
  542TMC3    O2 8106   1.628   2.535  12.150  0.0760  0.0952  0.1402
  543TMC3    C1 8107   1.023   3.738  17.542  0.6660 -0.1622 -0.0731
  543TMC3    C2 8108   1.010   3.643  17.639 -0.3073  0.4910  0.6167
  543TMC3    C3 8109   0.894   3.585  17.656  0.9701 -0.3683  0.3465
  543TMC3    C4 8110   0.913   3.792  17.480 -0.6776  0.1898 -0.1272
  543TMC3    C5 8111   0.789   3.728  17.507  0.3309  0.0497 -1.0922
  543TMC3    C6 8112   0.777   3.625  17.593  0.4419  0.0498  0.0507
  543TMC3     C 8113   1.133   3.716  17.451  0.3096  0.1583  0.4641
  543TMC3     O 8114   1.191   3.611  17.471  0.5242  0.9524 -0.5371
  543TMC3     H 8115   1.099   3.594  17.675 -0.6518 -1.3939 -1.0610
  543TMC3    H1 8116   0.925   3.864  17.400 -2.1894  0.6316  0.0387
  543TMC3    H2 8117   0.680   3.584  17.620 -0.8189  3.1393  0.1946
  543TMC3    C7 8118   0.672   3.798  17.456 -0.7473  0.7569 -0.1085
  543TMC3    C8 8119   0.896   3.477  17.746 -0.3452 -0.2608  0.0146
  543TMC3    O1 8120   0.689   3.916  17.430  0.0816 -0.2831  1.0983
  543TMC3    O2 8121   0.997   3.472   0.067 -0.1200 -0.0472  0.3950
  544MPD2     C 8122   0.680   3.056   0.222 -0.9372  0.1978 -0.4187
  544MPD2    C1 8123   0.814   3.096   0.202  0.1337  0.3979 -0.2211
  544MPD2    C2 8124   0.844   3.211   0.136 -0.0227 -0.4514  0.8204
  544MPD2    C3 8125   0.746   3.294   0.086  0.2824  0.0415 -0.2454
  544MPD2    C4 8126   0.617   3.255   0.104 -0.1921  0.0796 -0.4956
  544MPD2    C5 8127   0.583   3.135   0.167 -0.0548 -0.2934 -0.4298
  544MPD2     H 8128   0.947   3.242   0.133 -0.1290  0.0643  2.7296
  544MPD2    H1 8129   0.540   3.307   0.049  1.5386  0.9844 -2.0825
  544MPD2    H2 8130   0.667   2.959   0.269 -0.9752  0.7942  0.8087
  544MPD2    H3 8131   0.478   3.107   0.171 -0.5233  0.9968 -3.3401
  544MPD2     N 8132   0.777   3.410   0.012 -0.1096  0.5663  0.1775
  544MPD2    H5 8133   0.690   3.446  17.725 -0.4628  0.5590  0.9785
  544MPD2    N1 8134   0.919   3.010   0.240 -0.4690 -0.6504  0.4360
  544MPD2    H7 8135   0.903   2.947   0.318 -2.5398  0.3110  0.7837
  545TMC3    C1 8136   1.152   2.935   0.231  0.3698  0.5015  0.0055
  545TMC3    C2 8137   1.259   2.912   0.141  0.0003  0.3127 -0.3652
  545TMC3    C3 8138   1.375   2.865   0.193 -0.1109 -0.3790  0.2816
  545TMC3    C4 8139   1.145   2.894   0.358  0.3280 -0.8308 -0.6003
  545TMC3    C5 8140   1.268   2.856   0.409  0.3407  0.5601 -0.1419
  545TMC3    C6 8141   1.378   2.842   0.329 -0.8054 -0.2753 -0.2775
  545TMC3     C 8142   1.038   2.995   0.164  0.1068 -0.1837  0.6261
  545TMC3     O 8143   1.061   3.051   0.057  0.1230 -0.4180  0.2140
  545TMC3     H 8144   1.254   2.937   0.035  1.0929 -0.3248 -0.5665
  545TMC3    H1 8145   1.075   2.929   0.433 -1.7085 -0.7719 -2.5407
  545TMC3    H2 8146   1.478   2.819   0.364 -0.6268  0.0874 -0.5415
  545TMC3    C7 8147   1.271   2.782   0.534  0.4934  0.6558 -0.0190
  545TMC3    C8 8148   1.496   2.852   0.109 -0.0832 -0.1844  0.2512
  545TMC3    O1 8149   1.159   2.760   0.581 -0.6677  0.2585 -0.0727
  545TMC3    O2 8150   1.588   2.787   0.158 -0.3138  0.6255  0.7106
  546MPD2     C 8151   2.563   3.454   0.251  0.6378  0.7429  0.2652
  546MPD2    C1 8152   2.580   3.473   0.113 -0.1166  0.5295  0.4844
  546MPD2    C2 8153   2.659   3.575   0.060  0.5528  0.3017 -0.1210
  546MPD2    C3 8154   2.726   3.659   0.151  0.0203 -0.1732 -0.5727
  546MPD2    C4 8155   2.710   3.639   0.284  0.4293 -0.5980  0.0726
  546MPD2    C5 8156   2.635   3.539   0.332 -1.3261 -0.1959 -0.1595
  546MPD2     H 8157   2.667   3.579  17.702  1.1112 -0.3378 -0.1054
  546MPD2    H1 8158   2.748   3.702   0.363 -0.4591 -0.1123  0.1108
  546MPD2    H2 8159   2.510   3.372   0.298  2.4395 -0.7168 -0.2880
  546MPD2    H3 8160   2.619   3.542   0.440  2.0008 -0.7729  0.3422
  546MPD2     N 8161   2.797   3.774   0.122 -0.2210 -0.1106 -0.3666
  546MPD2    H5 8162   2.838   3.819   0.203  0.7149 -0.9375 -0.3809
  546MPD2    N1 8163   2.501   3.378   0.041  0.0397  0.4784 -0.3050
  546MPD2    H7 8164   2.477   3.293   0.091  0.1041  1.4369  1.3483
  547TMC3    C1 8165   2.391   3.271  17.612 -0.1797 -1.0214 -0.4097
  547TMC3    C2 8166   2.305   3.285  17.502 -0.9807  0.3071 -1.2200
  547TMC3    C3 8167   2.204   3.202  17.482  0.3326  0.2518  0.6242
  547TMC3    C4 8168   2.369   3.173  17.701  0.6543 -0.2534  0.3085
  547TMC3    C5 8169   2.262   3.090  17.680  0.2611 -0.4239  0.3899
  547TMC3    C6 8170   2.178   3.105  17.574  0.6483 -0.0590  0.2414
  547TMC3     C 8171   2.456   3.388  17.661 -0.1573 -0.1977 -0.4475
  547TMC3     O 8172   2.459   3.491  17.590  0.2363 -0.6272  0.3110
  547TMC3     H 8173   2.307   3.360  17.424  0.7020  2.4889  0.9154
  547TMC3    H1 8174   2.418   3.148   0.044 -0.7509  0.9610  1.3621
  547TMC3    H2 8175   2.081   3.057  17.585  0.3903  0.2319 -0.7743
  547TMC3    C7 8176   2.198   3.024   0.043  0.2172 -0.7446 -0.0230
  547TMC3    C8 8177   2.150   3.184  17.354 -0.5656  0.2884  0.1821
  547TMC3    O1 8178   2.196   3.093   0.148  0.8445  0.0193  0.4484
  547TMC3    O2 8179   2.127   3.278  17.278 -0.6532  0.3086 -0.3382
  548MPD2     C 8180   2.093   3.809  12.719 -0.1831  0.4068 -0.0855
  548MPD2    C1 8181   2.043   3.687  12.744 -0.0216 -0.2357 -0.1978
  548MPD2    C2 8182   2.101   3.578  12.683  0.0663  0.1281  0.4115
  548MPD2    C3 8183   2.211   3.590  12.599  0.3017 -0.2369  0.0170
  548MPD2    C4 8184   2.261   3.718  12.585  0.3656  0.1531  0.0622
  548MPD2    C5 8185   2.194   3.830  12.635 -0.0523  0.1060  0.2079
  548MPD2     H 8186   2.058   3.480  12.701  1.0076 -0.2157  0.8053
  548MPD2    H1 8187   2.343   3.730  12.515  1.0560  0.0048  0.8443
  548MPD2    H2 8188   2.041   3.897  12.756 -1.8402 -0.4731 -0.3390
  548MPD2    H3 8189   2.226   3.930  12.608 -1.0793 -0.0991 -1.7482
  548MPD2     N 8190   2.276   3.472  12.545  0.1770  0.2615 -0.0009
  548MPD2    H5 8191   2.374   3.482  12.520  0.0854  2.1136  0.3755
  548MPD2    N1 8192   1.936   3.682  12.836  0.6112 -0.0079  0.7843
  548MPD2    H7 8193   1.909   3.772  12.875  0.4587  1.1631 -2.0331
  549TMC3    C1 8194   1.727   3.605  12.901  0.4392 -0.2711  0.4236
  549TMC3    C2 8195   1.669   3.713  12.841  0.1541 -0.3287  0.2498
  549TMC3    C3 8196   1.530   3.718  12.833  0.7983 -0.3270  0.0665
  549TMC3    C4 8197   1.649   3.504  12.950 -0.1066 -0.2498  0.1161
  549TMC3    C5 8198   1.514   3.507  12.929  0.0310 -0.7926  0.3382
  549TMC3    C6 8199   1.452   3.619  12.889  0.0043 -1.1872  0.4305
  549TMC3     C 8200   1.858   3.572  12.862  0.5507  0.2761 -0.5212
  549TMC3     O 8201   1.886   3.451  12.845  0.3614  0.6375  0.0768
  549TMC3     H 8202   1.723   3.786  12.783 -1.0045  1.0087  0.8730
  549TMC3    H1 8203   1.709   3.421  12.988  0.1565 -0.1523 -0.0851
  549TMC3    H2 8204   1.344   3.622  12.887  0.0564 -0.5001 -2.0036
  549TMC3    C7 8205   1.431   3.408  12.986  0.3691 -0.2040 -0.3808
  549TMC3    C8 8206   1.465   3.818  12.756  0.4406 -0.6807 -0.0984
  549TMC3    O1 8207   1.315   3.432  13.023  0.0215 -0.2299 -0.0243
  549TMC3    O2 8208   1.347   3.810  12.734 -0.2021  0.9901  0.3025
  550TMC3    C1 8209   0.549   1.800  12.208 -0.4863  0.0073 -0.3155
  550TMC3    C2 8210   0.641   1.772  12.306 -0.0337 -0.3863  0.2760
  550TMC3    C3 8211   0.749   1.856  12.295 -0.0639  0.4986  0.1121
  550TMC3    C4 8212   0.553   1.903  12.116 -0.0865  0.0350 -0.3606
  550TMC3    C5 8213   0.668   1.972  12.115 -0.2906 -0.1087 -0.1224
  550TMC3    C6 8214   0.767   1.955  12.206  0.2014  0.5236  0.4925
  550TMC3     C 8215   0.434   1.715  12.206  0.2325 -0.6097 -0.2613
  550TMC3     O 8216   0.445   1.598  12.240 -0.8466 -0.6501 -0.3461
  550TMC3     H 8217   0.613   1.709  12.389 -0.3365  1.2253  1.3921
  550TMC3    H1 8218   0.474   1.921  12.044  0.6332  0.6146 -1.0109
  550TMC3    H2 8219   0.851   2.023  12.199  0.9607 -0.5433 -0.6464
  550TMC3    C7 8220   0.666   2.101  12.050 -0.4101  1.1076 -0.0273
  550TMC3    C8 8221   0.795   1.894  12.423  0.4605  0.6500 -0.8100
  550TMC3    O1 8222   0.768   2.150  12.003 -0.3992 -0.6213  0.7382
  550TMC3    O2 8223   0.807   2.013  12.442 -0.4555  0.1111  0.4549
  551TMC3    C1 8224   3.144   4.140  13.488  0.3774 -0.0295  0.2536
  551TMC3    C2 8225   3.271   4.136  13.429  0.0332 -0.6369 -0.9794
  551TMC3    C3 8226   3.375   4.161  13.507  0.6675 -0.4009  0.1326
  551TMC3    C4 8227   3.134   4.167  13.622 -0.3854  0.1854 -0.4719
  551TMC3    C5 8228   3.244   4.197  13.690  0.2815 -0.2466  0.5757
  551TMC3    C6 8229   3.372   4.199  13.639  0.2331 -0.7803  0.1915
  551TMC3     C 8230   3.030   4.127  13.397  0.9499  0.0388  0.5365
  551TMC3     O 8231   3.056   4.099  13.280 -0.3727 -0.3325 -0.3101
  551TMC3     H 8232   3.294   4.129  13.324  1.5820 -0.3409 -0.6634
  551TMC3    H1 8233   3.034   4.186  13.660 -0.1964 -0.1745  0.2097
  551TMC3    H2 8234   3.454   4.215  13.707 -0.2993  0.1064  0.6197
  551TMC3    C7 8235   3.242   4.224  13.833 -0.9307  0.3785 -0.4948
  551TMC3    C8 8236   3.483   4.213  13.425  0.7520 -0.0052  0.1107
  551TMC3    O1 8237   3.321   4.158  13.892  0.3389 -0.0634  0.1439
  551TMC3    O2 8238   3.517   4.141  13.330 -0.1254 -0.8346 -0.6819
  552MPD2     C 8239   0.099   1.665  13.950  0.3210 -0.5595  0.4651
  552MPD2    C1 8240   0.220   1.607  13.943 -0.2098 -0.4022 -0.5965
  552MPD2    C2 8241   0.316   1.650  14.036 -0.5925  0.2387 -0.3368
  552MPD2    C3 8242   0.283   1.730  14.138 -0.9001  0.2645 -0.6916
  552MPD2    C4 8243   0.154   1.785  14.141 -0.2569 -0.6287  0.2483
  552MPD2    C5 8244   0.062   1.756  14.044  0.2883  0.3888 -0.4655
  552MPD2     H 8245   0.413   1.601  14.027 -0.1443  0.7273  1.8242
  552MPD2    H1 8246   0.128   1.855  14.219  0.9645 -0.6493  0.6661
  552MPD2    H2 8247   0.010   1.635  13.895 -0.2677  1.4730  0.2959
  552MPD2    H3 8248   4.698   1.790  14.052  0.2690 -0.1223  1.6704
  552MPD2     N 8249   0.366   1.749  14.245  0.2965  0.0408  0.1757
  552MPD2    H5 8250   0.331   1.800  14.326 -3.1026 -0.2049 -1.1511
  552MPD2    N1 8251   0.256   1.507  13.850 -0.9936  0.2387 -0.3635
  552MPD2    H7 8252   0.348   1.462  13.855 -0.4821  1.2048 -1.1905
  553TMC3    C1 8253   0.221   1.360  13.674  0.1276  0.5798  0.0526
  553TMC3    C2 8254   0.175   1.339  13.547  0.2583 -0.2247 -0.2992
  553TMC3    C3 8255   0.186   1.219  13.485  0.9521 -0.1095 -0.2073
  553TMC3    C4 8256   0.309   1.269  13.728  0.8814  0.1584 -0.1941
  553TMC3    C5 8257   0.318   1.143  13.671  0.4203  0.0643  0.1357
  553TMC3    C6 8258   0.257   1.117  13.549 -0.1367 -0.1707  0.3132
  553TMC3     C 8259   0.173   1.466  13.751  0.4254  0.5183 -0.6731
  553TMC3     O 8260   0.057   1.498  13.732 -0.0423 -0.7240  0.0406
  553TMC3     H 8261   0.103   1.405  13.499 -1.2579 -1.0292  0.8853
  553TMC3    H1 8262   0.378   1.292  13.809 -0.4952  1.1371  0.7112
  553TMC3    H2 8263   0.270   1.023  13.498 -3.5194 -0.1216 -0.6297
  553TMC3    C7 8264   0.444   1.073  13.693 -0.4183 -0.4382  0.5749
  553TMC3    C8 8265   0.213   1.216  13.339  0.3071 -0.5765 -0.1564
  553TMC3    O1 8266   0.510   1.037  13.592  0.1033  0.0554  0.1788
  553TMC3    O2 8267   0.266   1.118  13.298 -0.6258  0.1871 -0.0727
  554TMC3    C1 8268   2.169   0.877  12.224  0.0456 -0.3666 -0.0869
  554TMC3    C2 8269   2.156   0.771  12.137  0.0631 -0.1661  0.2718
  554TMC3    C3 8270   2.210   0.792  12.013 -0.5564  0.3062  0.0839
  554TMC3    C4 8271   2.219   0.996  12.190  0.0194  0.2139 -0.0275
  554TMC3    C5 8272   2.292   1.003  12.073  0.4024 -0.1118 -0.5200
  554TMC3    C6 8273   2.286   0.901  11.986  0.2000 -0.6008 -0.3365
  554TMC3     C 8274   2.216   0.833  12.358  0.2108  0.6642 -0.9147
  554TMC3     O 8275   2.223   0.909  12.452  0.2080 -0.2701  0.6135
  554TMC3     H 8276   2.112   0.674  12.154 -2.1733  0.4265 -2.1927
  554TMC3    H1 8277   2.231   1.069  12.269  0.4317  0.2219 -0.0971
  554TMC3    H2 8278   2.323   0.925  11.887 -1.3163 -2.9282 -1.4819
  554TMC3    C7 8279   2.386   1.119  12.037  0.5119  0.0092  0.2737
  554TMC3    C8 8280   2.141   0.742  11.894 -0.1737  0.4448 -0.3317
  554TMC3    O1 8281   2.464   1.093  11.945 -0.0186 -0.3549  0.4992
  554TMC3    O2 8282   2.210   0.737  11.796  0.2171 -0.3499  0.6253
  555TMC3    C1 8283   1.193   0.114  14.886 -0.3663 -0.1858 -1.1689
  555TMC3    C2 8284   1.076   0.170  14.931  1.1770 -0.7290 -0.6734
  555TMC3    C3 8285   1.015   0.111  15.040 -0.3056  0.2608 -0.4325
  555TMC3    C4 8286   1.248   0.003  14.943 -0.2327 -0.6017  0.5683
  555TMC3    C5 8287   1.187   4.693  15.059  0.5875 -0.5277 -0.7866
  555TMC3    C6 8288   1.065   0.003  15.108 -0.3206  0.0553 -0.1221
  555TMC3     C 8289   1.268   0.183  14.783 -0.0355 -0.4964 -0.0117
  555TMC3     O 8290   1.388   0.175  14.794 -0.2291  0.3526  0.1940
  555TMC3     H 8291   1.033   0.255  14.878 -1.5400 -0.3147  2.1816
  555TMC3    H1 8292   1.338   4.699  14.900  0.0210 -0.8364  1.3244
  555TMC3    H2 8293   1.030   4.710  15.206  1.2773  0.6265  0.6213
  555TMC3    C7 8294   1.237   4.565  15.123  0.0742  0.4340 -0.0109
  555TMC3    C8 8295   0.939   0.201  15.130 -0.5157  0.8770  0.0472
  555TMC3    O1 8296   1.160   4.518  15.210  0.0669  0.2718 -0.0908
  555TMC3    O2 8297   0.837   0.256  15.086  0.1116  0.6513  0.0571
  556MPD2     C 8298   3.694   2.319  10.788 -0.0049  0.3294 -0.3359
  556MPD2    C1 8299   3.717   2.247  10.906 -0.1362  0.6159 -0.8853
  556MPD2    C2 8300   3.697   2.108  10.902 -0.5283 -0.1161  0.3864
  556MPD2    C3 8301   3.664   2.042  10.783  0.3159 -0.2091  0.1620
  556MPD2    C4 8302   3.636   2.126  10.675 -0.3737  0.4535 -0.0676
  556MPD2    C5 8303   3.633   2.261  10.684 -0.2147 -0.2891  0.2746
  556MPD2     H 8304   3.710   2.049  10.992 -0.3931 -0.5976  0.0505
  556MPD2    H1 8305   3.608   2.085  10.579 -2.7197 -0.2353  0.8963
  556MPD2    H2 8306   3.704   2.427  10.788  1.3143  0.2122  1.7966
  556MPD2    H3 8307   3.598   2.320  10.600 -1.9983 -2.4907 -0.5350
  556MPD2     N 8308   3.660   1.900  10.782  0.0187  0.6481  0.4869
  556MPD2    H5 8309   3.695   1.854  10.865  0.1130 -1.4507 -0.7049
  556MPD2    N1 8310   3.753   2.306  11.027  0.6507 -0.2182 -0.3326
  556MPD2    H7 8311   3.754   2.241  11.104  1.2099 -0.4885 -0.5675
  557TMC3    C1 8312   3.611   1.682  10.705 -0.7517  0.1924 -0.4572
  557TMC3    C2 8313   3.570   1.603  10.601 -0.3309 -0.3912 -0.5542
  557TMC3    C3 8314   3.606   1.472  10.609  0.3371 -0.1179 -0.5928
  557TMC3    C4 8315   3.685   1.646  10.812 -0.1221 -0.5101  0.5147
  557TMC3    C5 8316   3.722   1.513  10.812 -0.0725  0.0650 -0.1595
  557TMC3    C6 8317   3.685   1.429  10.709  0.0238 -0.0546  0.0340
  557TMC3     C 8318   3.598   1.825  10.681  0.1809  0.5676 -1.3891
  557TMC3     O 8319   3.538   1.866  10.583 -0.0360 -0.4347 -0.4568
  557TMC3     H 8320   3.506   1.633  10.519  1.0573  0.1080 -1.4675
  557TMC3    H1 8321   3.688   1.688  10.912 -2.1486  0.6408  0.0882
  557TMC3    H2 8322   3.692   1.322  10.724  0.8557  0.2034  1.4678
  557TMC3    C7 8323   3.725   1.442  10.947 -0.3258  0.2360  0.5381
  557TMC3    C8 8324   3.530   1.384  10.530 -0.0488 -0.1768 -0.4592
  557TMC3    O1 8325   3.624   1.445  11.015  0.1772 -0.1351 -0.0231
  557TMC3    O2 8326   3.457   1.430  10.441  0.2298 -0.3083  0.0908
  558TMC3    C1 8327   1.395   4.486  10.281  0.0063 -0.6810 -0.7438
  558TMC3    C2 8328   1.327   4.391  10.351 -0.4436 -0.4042  0.0661
  558TMC3    C3 8329   1.195   4.427  10.367 -0.6631  0.7713  0.4002
  558TMC3    C4 8330   1.347   4.600  10.231  0.1484  0.5589  0.3347
  558TMC3    C5 8331   1.214   4.618  10.231  0.4933 -0.1051 -0.3818
  558TMC3    C6 8332   1.133   4.530  10.297 -0.0871 -0.1552 -0.4231
  558TMC3     C 8333   1.538   4.469  10.271 -0.0982 -0.0109  0.2227
  558TMC3     O 8334   1.595   4.389  10.344  0.5763  0.9230  0.9251
  558TMC3     H 8335   1.378   4.305  10.392  4.5608  1.0398 -2.9748
  558TMC3    H1 8336   1.407   4.677  10.185 -0.0583  1.2639  1.2598
  558TMC3    H2 8337   1.029   4.558  10.305  0.3356  0.6529  2.1713
  558TMC3    C7 8338   1.156   4.691  10.117 -0.8021  0.5329  0.0429
  558TMC3    C8 8339   1.109   4.329  10.431  0.1343  0.3314  0.2942
  558TMC3    O1 8340   1.241   0.022  10.056  0.2811 -0.4205 -0.0056
  558TMC3    O2 8341   0.989   4.325  10.399  0.2686  0.5991 -0.3291
  559MPD2     C 8342   1.593   0.459  11.009 -0.1235  0.2811  0.1024
  559MPD2    C1 8343   1.526   0.379  11.104 -0.1986  0.0573  0.5399
  559MPD2    C2 8344   1.597   0.296  11.183 -0.1308 -0.4707  0.4229
  559MPD2    C3 8345   1.733   0.305  11.189  0.3353  0.1448  0.6799
  559MPD2    C4 8346   1.803   0.395  11.108  0.1998  0.5029 -0.2035
  559MPD2    C5 8347   1.729   0.463  11.020  0.3487  0.4020 -0.1854
  559MPD2     H 8348   1.551   0.213  11.234 -1.9603  0.8600  0.9244
  559MPD2    H1 8349   1.911   0.403  11.100  0.4182 -1.1580  0.8962
  559MPD2    H2 8350   1.548   0.519  10.931  2.7906  0.3964 -1.5115
  559MPD2    H3 8351   1.775   0.528  10.947  1.4107  0.7258  0.7797
  559MPD2     N 8352   1.801   0.211  11.267 -0.5346  0.5830 -0.0778
  559MPD2    H5 8353   1.747   0.139  11.313 -0.8177  1.1891  0.5442
  559MPD2    N1 8354   1.387   0.383  11.096  0.7082  0.0428  0.4487
  559MPD2    H7 8355   1.348   0.443  11.023  0.2881 -0.2135  0.4604
  560TMC3    C1 8356   1.971   0.069  11.353  0.0270 -0.3419  0.0923
  560TMC3    C2 8357   1.886   4.702  11.373  0.1092  0.2227  0.0741
  560TMC3    C3 8358   1.947   4.585  11.411 -0.3180  0.5825 -1.1062
  560TMC3    C4 8359   2.097   0.068  11.412  0.1068  0.5892 -0.3309
  560TMC3    C5 8360   2.152   4.684  11.449  0.4624  0.4531  0.5053
  560TMC3    C6 8361   2.078   4.572  11.445 -0.9142 -0.2034 -0.4017
  560TMC3     C 8362   1.939   0.193  11.282  0.3416 -0.4642  0.3340
  560TMC3     O 8363   2.023   0.280  11.249  0.3754  0.4626  0.7189
  560TMC3     H 8364   1.798   4.700  11.311  0.5719  2.3919 -0.6604
  560TMC3    H1 8365   2.159   0.157  11.414  0.9856 -0.0679  1.9048
  560TMC3    H2 8366   2.120   4.480  11.482  2.0100  0.9966 -0.7980
  560TMC3    C7 8367   2.280   4.682  11.516  0.6312  0.5770 -0.2405
  560TMC3    C8 8368   1.872   4.471  11.438 -0.4186  0.0853  0.2111
  560TMC3    O1 8369   2.295   4.599  11.606  0.4300 -0.3820 -0.1950
  560TMC3    O2 8370   1.914   4.353  11.441  0.0644  0.7754 -0.1687
  561TMC3    C1 8371   4.401   3.927  11.156 -0.1122  0.4497  0.4003
  561TMC3    C2 8372   4.346   3.839  11.241  0.1037 -0.2438  0.1288
  561TMC3    C3 8373   4.284   3.895  11.350 -0.0227  0.2746  0.1011
  561TMC3    C4 8374   4.405   4.065  11.161  0.4388  0.3915 -0.4057
  561TMC3    C5 8375   4.330   4.110  11.267 -0.2745 -0.6670  0.1657
  561TMC3    C6 8376   4.274   4.028  11.362 -0.7102  1.3047 -0.2377
  561TMC3     C 8377   4.487   3.864  11.056  0.2587  0.2003 -0.2297
  561TMC3     O 8378   4.460   3.756  11.006  0.4244  0.1022  0.4643
  561TMC3     H 8379   4.366   3.733  11.235 -1.6830 -0.6401  1.1315
  561TMC3    H1 8380   4.455   4.115  11.079 -0.7257 -0.9617 -1.9496
  561TMC3    H2 8381   4.219   4.079  11.441  0.8800 -1.0397  2.3592
  561TMC3    C7 8382   4.312   4.260  11.286  0.3700  0.0397 -0.7681
  561TMC3    C8 8383   4.223   3.805  11.450  0.0283 -0.5194  0.1058
  561TMC3    O1 8384   4.242   4.292  11.384  0.4513 -0.3394 -0.1551
  561TMC3    O2 8385   4.225   3.689  11.414  0.3152 -0.1804  0.0349
  562TMC3    C1 8386   0.948   0.678  16.195 -0.3773 -0.4221  0.6935
  562TMC3    C2 8387   0.815   0.708  16.188  0.1059 -0.0448  0.1968
  562TMC3    C3 8388   0.748   0.687  16.073 -0.3179 -0.4938  0.0766
  562TMC3    C4 8389   1.020   0.620  16.092 -0.0072  0.1742  0.2380
  562TMC3    C5 8390   0.942   0.582  15.981 -0.3698 -0.3262  0.1611
  562TMC3    C6 8391   0.808   0.626  15.966  0.0257 -0.2982  0.4130
  562TMC3     C 8392   1.010   0.710  16.320 -0.0889 -0.3493 -0.3936
  562TMC3     O 8393   0.936   0.749  16.407 -0.2711  0.4076  0.6170
  562TMC3     H 8394   0.768   0.746  16.278 -1.1535 -2.2739  0.4791
  562TMC3    H1 8395   1.116   0.571  16.101 -1.7126 -3.3358 -1.0009
  562TMC3    H2 8396   0.745   0.603  15.880 -0.3216  1.9364  0.0835
  562TMC3    C7 8397   0.992   0.496  15.879  0.4225 -0.4070 -0.2672
  562TMC3    C8 8398   0.618   0.745  16.066 -0.7233  0.9992  0.1629
  562TMC3    O1 8399   0.907   0.452  15.802 -0.6270  0.0515 -0.6821
  562TMC3    O2 8400   0.550   0.747  16.168  0.2123 -0.2380  0.9304
  563MPD2     C 8401   3.425   2.210  15.736  0.0238  0.3945  0.3011
  563MPD2    C1 8402   3.389   2.120  15.832 -0.1272  0.5432  0.3199
  563MPD2    C2 8403   3.451   2.000  15.837 -0.2181  0.2921  0.7022
  563MPD2    C3 8404   3.540   1.966  15.740 -0.7367  0.1907 -0.2687
  563MPD2    C4 8405   3.561   2.044  15.629  0.0961 -0.6251 -0.6479
  563MPD2    C5 8406   3.504   2.168  15.629 -0.2410  0.2042  0.1344
  563MPD2     H 8407   3.426   1.925  15.912  1.5829  0.1628  1.1672
  563MPD2    H1 8408   3.634   2.029  15.550  2.2182 -0.6867  1.3243
  563MPD2    H2 8409   3.364   2.299  15.724  0.0421  0.3304 -0.2951
  563MPD2    H3 8410   3.517   2.226  15.539  1.9420  0.6767  0.7509
  563MPD2     N 8411   3.609   1.850  15.761  0.1322 -0.2066  0.1868
  563MPD2    H5 8412   3.581   1.809  15.849  1.3598 -0.4355  0.4574
  563MPD2    N1 8413   3.291   2.160  15.921  0.1666  0.3296 -0.2702
  563MPD2    H7 8414   3.261   2.255  15.943 -0.2052  0.3184 -0.7381
  564TMC3    C1 8415   3.143   2.138  16.102  0.4015 -0.0534 -0.2503
  564TMC3    C2 8416   3.010   2.105  16.110 -0.5113 -0.2099 -0.5861
  564TMC3    C3 8417   2.957   2.033  16.210 -0.0958 -0.5357  0.2698
  564TMC3    C4 8418   3.220   2.114  16.212 -0.0263 -0.4593 -0.1994
  564TMC3    C5 8419   3.167   2.038  16.313 -0.0372 -0.4629  0.7437
  564TMC3    C6 8420   3.036   2.008  16.320  0.0228 -0.1343 -0.8773
  564TMC3     C 8421   3.204   2.078  15.984 -0.4893 -0.5170 -0.4713
  564TMC3     O 8422   3.156   1.975  15.945  0.0247  0.5702  0.6575
  564TMC3     H 8423   2.945   2.136  16.029 -2.5427  2.5193  2.0734
  564TMC3    H1 8424   3.327   2.132  16.209  0.2840 -2.3387 -0.3471
  564TMC3    H2 8425   2.999   1.947  16.401 -0.0308  2.4161  1.0278
  564TMC3    C7 8426   3.241   1.918  16.318  0.5247 -0.3074  0.4893
  564TMC3    C8 8427   2.873   1.923  16.167  0.3070  0.2247  0.4725
  564TMC3    O1 8428   3.365   1.924  16.326  0.4510  0.0555 -0.1719
  564TMC3    O2 8429   2.882   1.825  16.239  0.1827  0.3719 -0.9045
  565TMC3    C1 8430   4.001   3.054  10.148 -0.2543  0.5848 -0.2101
  565TMC3    C2 8431   3.923   3.017  10.260  0.6619 -0.0044 -0.9254
  565TMC3    C3 8432   3.850   2.910  10.246 -0.5010  0.3935 -0.0403
  565TMC3    C4 8433   4.000   2.980  10.035  0.2527 -0.2008  0.7052
  565TMC3    C5 8434   3.917   2.871  10.028 -0.0768 -0.6083 -0.2355
  565TMC3    C6 8435   3.843   2.831  10.135 -0.1327  0.7087 -0.3843
  565TMC3     C 8436   4.078   3.173  10.143 -0.5314  0.4323 -1.0812
  565TMC3     O 8437   4.145   3.200  10.045 -0.0048  0.0552 -0.1019
  565TMC3     H 8438   3.945   3.056  10.359 -0.8232 -0.8172 -0.2862
  565TMC3    H1 8439   4.059   3.011   9.950 -0.0503  0.3674  0.6987
  565TMC3    H2 8440   3.806   2.730  10.147  0.8055  0.6593  2.0102
  565TMC3    C7 8441   3.930   2.792   9.907  0.4289  0.0986 -0.4218
  565TMC3    C8 8442   3.748   2.886  10.347 -0.4507  0.0340 -0.4104
  565TMC3    O1 8443   4.015   2.822   9.820 -0.0698  0.4166 -0.2606
  565TMC3    O2 8444   3.751   2.964  10.442 -0.8368  0.1403  0.4428
  566MPD2     C 8445   0.633   4.566  14.304 -0.3004  0.4986 -0.2296
  566MPD2    C1 8446   0.693   4.634  14.201  0.6858  0.2674  0.0006
  566MPD2    C2 8447   0.619   4.653  14.085 -0.6510 -0.0661  0.3061
  566MPD2    C3 8448   0.489   4.601  14.076 -0.0718 -0.5137 -0.0391
  566MPD2    C4 8449   0.437   4.534  14.188 -0.2002 -0.1346 -0.2146
  566MPD2    C5 8450   0.511   4.516  14.296  0.4657  0.0757  0.3899
  566MPD2     H 8451   0.659   4.714  14.005  1.1126 -0.2359  1.0626
  566MPD2    H1 8452   0.335   4.502  14.201 -0.6514  1.8069  1.0481
  566MPD2    H2 8453   0.689   4.528  14.389 -1.1912  1.3607  0.7334
  566MPD2    H3 8454   0.479   4.461  14.383  0.1069  0.5243  0.5384
  566MPD2     N 8455   0.412   4.605  13.956 -0.2764 -0.7177  0.6476
  566MPD2    H5 8456   0.319   4.574  13.982 -1.7862  4.3641  1.2355
  566MPD2    N1 8457   0.828   4.667  14.220 -0.5981 -1.2619  0.5605
  566MPD2    H7 8458   0.867   4.654  14.312  0.2247  1.9724  0.6603
  567TMC3    C1 8459   1.046   0.028  14.199  0.5381 -0.5290  0.1183
  567TMC3    C2 8460   1.144   0.076  14.114  0.4972 -0.8142  0.1172
  567TMC3    C3 8461   1.267   0.098  14.161 -0.0125 -0.5225  0.0792
  567TMC3    C4 8462   1.085   0.011  14.332  0.3743  0.2632  0.5715
  567TMC3    C5 8463   1.217   0.024  14.370 -0.9046  0.1192  0.1388
  567TMC3    C6 8464   1.314   0.066  14.284 -0.0687  0.6356  0.0642
  567TMC3     C 8465   0.913   4.737  14.135 -0.1772 -0.5239 -0.5792
  567TMC3     O 8466   0.884   0.055  14.029 -0.0062 -0.2530  0.2573
  567TMC3     H 8467   1.132   0.085  14.006 -0.2945  0.2021  0.2906
  567TMC3    H1 8468   1.014   4.721  14.409  1.4884 -1.0062  1.1200
  567TMC3    H2 8469   1.418   0.065  14.315  0.3331  1.2868 -1.2643
  567TMC3    C7 8470   1.266   4.675  14.480  0.2042  0.5373  0.5906
  567TMC3    C8 8471   1.368   0.113  14.058 -0.1329  0.1326  0.4613
  567TMC3    O1 8472   1.376   4.622  14.476 -0.0101 -0.1447  0.0987
  567TMC3    O2 8473   1.334   0.183  13.962 -0.0076  0.0089 -0.5846
  568MPD2     C 8474   3.440   0.671  16.415 -0.3615  0.2023  0.5545
  568MPD2    C1 8475   3.336   0.680  16.504 -0.0421 -0.4482 -0.0076
  568MPD2    C2 8476   3.229   0.766  16.470  0.4278 -0.2366 -0.1226
  568MPD2    C3 8477   3.227   0.832  16.348  0.3645  0.2518  0.6351
  568MPD2    C4 8478   3.327   0.812  16.251  0.7122 -0.7104  0.3672
  568MPD2    C5 8479   3.438   0.733  16.288  0.2928  0.5607  0.0170
  568MPD2     H 8480   3.151   0.777  16.545  1.0524 -1.7057  0.7411
  568MPD2    H1 8481   3.332   0.861  16.154  0.7250  0.5865  1.0193
  568MPD2    H2 8482   3.534   0.619  16.430  0.2288  0.9056 -0.6893
  568MPD2    H3 8483   3.521   0.727  16.218 -0.6225  3.6367 -1.3396
  568MPD2     N 8484   3.127   0.927  16.322  0.3013 -0.1136  0.0692
  568MPD2    H5 8485   3.049   0.922  16.387  0.6083 -0.0597  0.4462
  568MPD2    N1 8486   3.356   0.608  16.624  0.0961  0.1678  0.2989
  568MPD2    H7 8487   3.438   0.548  16.630  0.0210  0.1574  1.1196
  569TMC3    C1 8488   2.993   1.086  16.216  0.2553 -0.6178  0.7862
  569TMC3    C2 8489   2.947   1.143  16.333  0.0135  0.0942 -0.4745
  569TMC3    C3 8490   2.847   1.236  16.325 -0.8018  0.2603  0.2748
  569TMC3    C4 8491   2.940   1.126  16.098  1.5305  0.0140  0.1106
  569TMC3    C5 8492   2.833   1.219  16.097  0.1136 -0.5549 -0.3632
  569TMC3    C6 8493   2.777   1.268  16.213  0.0745  0.3483  0.4475
  569TMC3     C 8494   3.111   1.000  16.206 -0.5990 -0.6594  0.5342
  569TMC3     O 8495   3.174   1.010  16.102  0.2899 -0.3668 -0.3132
  569TMC3     H 8496   3.012   1.134  16.419  1.5253  0.0149 -1.6312
  569TMC3    H1 8497   2.968   1.077  16.005 -0.5702 -0.2293 -0.3912
  569TMC3    H2 8498   2.689   1.330  16.204  0.9875  1.5125 -0.3889
  569TMC3    C7 8499   2.838   1.312  15.987 -0.0395 -0.2844 -0.3902
  569TMC3    C8 8500   2.836   1.344  16.422 -0.1258  0.2166  0.7551
  569TMC3    O1 8501   2.899   1.273  15.890  0.0888 -0.2633 -0.4976
  569TMC3    O2 8502   2.731   1.408  16.419 -0.3565 -0.2896 -0.4756
  570TMC3    C1 8503   2.644   3.838  16.280  0.2921 -0.4821  0.1204
  570TMC3    C2 8504   2.742   3.823  16.184 -0.3843 -0.4288 -0.2790
  570TMC3    C3 8505   2.814   3.927  16.149  0.0165  0.5734 -0.0373
  570TMC3    C4 8506   2.627   3.959  16.340 -0.2878 -0.1455 -0.3164
  570TMC3    C5 8507   2.709   4.066  16.304 -0.1389  0.3225  0.2725
  570TMC3    C6 8508   2.810   4.046  16.211  0.0024 -0.0894  0.3776
  570TMC3     C 8509   2.570   3.723  16.327  0.6190  1.0277 -0.2343
  570TMC3     O 8510   2.551   3.626  16.252 -0.1191 -0.0021 -0.3484
  570TMC3     H 8511   2.770   3.723  16.151 -0.3523 -0.3629 -0.4508
  570TMC3    H1 8512   2.549   3.971  16.414 -0.5802 -1.6074 -0.3818
  570TMC3    H2 8513   2.884   4.120  16.183 -0.7606  0.0347 -1.3168
  570TMC3    C7 8514   2.712   4.177  16.381 -0.3281  0.3293  0.3967
  570TMC3    C8 8515   2.909   3.923  16.041 -0.6323 -0.6444  0.2874
  570TMC3    O1 8516   2.637   4.179  16.480 -0.1356  0.3513 -0.3668
  570TMC3    O2 8517   3.001   4.002  16.040  0.2619  0.1414  0.1355
  571MPD2     C 8518   0.219   3.240   1.510  0.6702  0.2490  0.1159
  571MPD2    C1 8519   0.272   3.294   1.394  0.0196 -0.1869 -0.2788
  571MPD2    C2 8520   0.235   3.241   1.267  0.8151  0.4470 -0.1278
  571MPD2    C3 8521   0.142   3.144   1.257 -0.3367 -0.1641  0.0148
  571MPD2    C4 8522   0.090   3.092   1.375 -0.5178 -0.1256 -0.6102
  571MPD2    C5 8523   0.121   3.139   1.503  0.1609 -0.3179  0.2835
  571MPD2     H 8524   0.283   3.280   1.178  2.2886  1.2026  0.9836
  571MPD2    H1 8525   0.014   3.015   1.362 -0.2195 -0.9349  2.5334
  571MPD2    H2 8526   0.227   3.283   1.609  0.3917  1.5971 -0.4351
  571MPD2    H3 8527   0.067   3.107   1.591 -0.0523 -1.8678 -0.4205
  571MPD2     N 8528   0.103   3.092   1.134  0.1882  0.8596  1.0438
  571MPD2    H5 8529   0.028   3.024   1.136  0.1139  0.9373  0.9351
  571MPD2    N1 8530   0.351   3.407   1.407  0.1882  0.0993  0.3769
  571MPD2    H7 8531   0.358   3.441   1.502 -0.1677  1.5193 -0.1181
  572TMC3    C1 8532   0.051   3.085   0.909 -0.3161 -0.2757  0.0356
  572TMC3    C2 8533   4.659   3.062   0.946  0.2283  0.8052  0.3560
  572TMC3    C3 8534   4.586   3.019   0.840 -0.2703  0.2904  0.2407
  572TMC3    C4 8535   0.108   3.055   0.787 -0.2279  0.2218  0.7282
  572TMC3    C5 8536   0.019   3.005   0.693 -0.0366 -0.1242  0.3323
  572TMC3    C6 8537   4.626   2.997   0.710 -0.0209 -0.1240 -0.0034
  572TMC3     C 8538   0.141   3.132   1.009 -0.9370  0.2211 -1.1210
  572TMC3     O 8539   0.227   3.208   0.964 -0.3536  0.1345  0.1103
  572TMC3     H 8540   4.610   3.132   1.013 -1.4510 -1.9184  1.9657
  572TMC3    H1 8541   0.212   3.077   0.767 -0.0224  0.0092  1.5568
  572TMC3    H2 8542   4.562   2.956   0.633  1.1869  2.1210 -2.2023
  572TMC3    C7 8543   0.078   2.975   0.562 -0.1139 -0.2167  0.4314
  572TMC3    C8 8544   4.449   2.977   0.868  0.6322 -0.5718 -0.0368
  572TMC3    O1 8545   0.003   2.936   0.473  0.3086 -0.4732  0.0948
  572TMC3    O2 8546   4.396   2.916   0.775  0.1245  0.1271  0.0463
  573MPD2     C 8547   2.347   2.968   1.545  0.0397 -0.1265 -0.2466
  573MPD2    C1 8548   2.394   2.840   1.541  0.5589  0.5853 -0.1255
  573MPD2    C2 8549   2.349   2.759   1.436  0.0347 -0.4393 -0.1851
  573MPD2    C3 8550   2.243   2.796   1.351  0.6684  0.3108 -0.5181
  573MPD2    C4 8551   2.189   2.923   1.370 -0.6496  0.8682  0.1495
  573MPD2    C5 8552   2.255   3.012   1.455 -0.5692  0.6417  0.4857
  573MPD2     H 8553   2.379   2.654   1.437  3.5573  0.5944  1.0879
  573MPD2    H1 8554   2.130   2.964   1.289 -0.9362  1.0451  0.4456
  573MPD2    H2 8555   2.381   3.033   1.625 -1.9148 -1.0639  1.3264
  573MPD2    H3 8556   2.228   3.117   1.458  3.5787  1.8177 -2.3584
  573MPD2     N 8557   2.193   2.723   1.248 -0.7257  0.4881  0.2514
  573MPD2    H5 8558   2.120   2.764   1.191  0.7301  1.2384 -1.0839
  573MPD2    N1 8559   2.487   2.802   1.647 -0.3430 -0.3552  0.3668
  573MPD2    H7 8560   2.495   2.879   1.713 -0.8984 -1.8755  2.2024
  574TMC3    C1 8561   2.165   2.571   1.089  0.5435  0.5996 -0.4513
  574TMC3    C2 8562   2.026   2.586   1.092 -0.2436 -0.4995  0.1523
  574TMC3    C3 8563   1.964   2.560   0.971  0.1537 -0.2566 -0.0156
  574TMC3    C4 8564   2.236   2.529   0.977  0.1478 -0.1390 -1.0228
  574TMC3    C5 8565   2.170   2.503   0.865  0.5513  0.1046 -0.0881
  574TMC3    C6 8566   2.036   2.523   0.861 -0.6410  0.0160  0.9759
  574TMC3     C 8567   2.245   2.609   1.203 -0.4899  0.2028  0.1629
  574TMC3     O 8568   2.352   2.551   1.216  0.1283 -0.0288 -0.7266
  574TMC3     H 8569   1.966   2.629   1.171 -0.6545 -0.3823 -0.2241
  574TMC3    H1 8570   2.345   2.528   0.983  0.0585 -1.8604  0.3076
  574TMC3    H2 8571   1.982   2.479   0.779  1.8195 -0.5638 -0.3175
  574TMC3    C7 8572   2.226   2.498   0.728 -0.2778  0.1155  0.1570
  574TMC3    C8 8573   1.818   2.547   0.971  0.4508  0.3297 -0.3094
  574TMC3    O1 8574   2.149   2.527   0.639 -0.4972 -0.0097 -0.5231
  574TMC3    O2 8575   1.772   2.517   1.079  0.3170 -0.3353  0.1587
  575TMC3    C1 8576   3.558   3.014  11.173 -0.5001  0.2072 -0.5930
  575TMC3    C2 8577   3.540   2.910  11.258 -0.2556  0.1249  0.3007
  575TMC3    C3 8578   3.555   2.785  11.204 -0.1393  0.8071 -0.4599
  575TMC3    C4 8579   3.574   3.000  11.040 -0.0530 -0.2041  0.9335
  575TMC3    C5 8580   3.593   2.872  10.988  1.0774  0.0156  0.2018
  575TMC3    C6 8581   3.577   2.769  11.069 -0.4107 -0.5254 -1.1730
  575TMC3     C 8582   3.559   3.143  11.245 -0.0323  0.9475  0.1556
  575TMC3     O 8583   3.529   3.149  11.366 -0.2299  0.4149 -0.0292
  575TMC3     H 8584   3.524   2.919  11.364  0.2791  2.3899  0.1928
  575TMC3    H1 8585   3.565   3.079  10.966  1.3311  0.0425  1.0417
  575TMC3    H2 8586   3.604   2.669  11.037 -0.6316 -0.8796 -0.2452
  575TMC3    C7 8587   3.592   2.853  10.843 -0.1939 -0.3675  0.2486
  575TMC3    C8 8588   3.494   2.667  11.270  0.7668 -0.9063  0.3270
  575TMC3    O1 8589   3.614   2.949  10.772  0.1565  0.7579  0.3603
  575TMC3    O2 8590   3.474   2.569  11.202  0.2385  0.0902 -0.0561
  576MPD2     C 8591   3.677   4.027  12.797 -0.5994 -0.2745 -0.0370
  576MPD2    C1 8592   3.686   4.143  12.724  0.1291 -0.1399 -0.1328
  576MPD2    C2 8593   3.628   4.258  12.772 -0.2279  0.7933  0.1454
  576MPD2    C3 8594   3.550   4.243  12.886 -0.2084  0.0865  0.1762
  576MPD2    C4 8595   3.533   4.126  12.960  0.9765  0.4820  1.3848
  576MPD2    C5 8596   3.601   4.013  12.909 -0.8922 -0.3699  0.2672
  576MPD2     H 8597   3.628   4.354  12.723 -0.7355  0.6729 -0.0857
  576MPD2    H1 8598   3.479   4.114  13.053 -0.2262 -1.4676  0.4382
  576MPD2    H2 8599   3.701   3.930  12.754  0.8070 -0.3363  0.8982
  576MPD2    H3 8600   3.597   3.918  12.960 -1.2194 -0.2697  0.4310
  576MPD2     N 8601   3.494   4.362  12.945  0.0771  0.1617 -0.2668
  576MPD2    H5 8602   3.512   4.450  12.898 -0.1275  0.0643 -0.5234
  576MPD2    N1 8603   3.742   4.150  12.591 -0.1319 -0.7178  0.9681
  576MPD2    H7 8604   3.750   4.238  12.542  1.9873  0.0690  2.7613
  577TMC3    C1 8605   3.852   4.070  12.392 -0.3512 -0.1223  0.4282
  577TMC3    C2 8606   3.828   3.969  12.307 -0.2548 -0.6386  0.2883
  577TMC3    C3 8607   3.833   4.000  12.172  0.7720 -0.2326 -1.0142
  577TMC3    C4 8608   3.874   4.197  12.346 -0.2316 -0.2986  0.1197
  577TMC3    C5 8609   3.860   4.219  12.212  0.4750  0.4196 -0.0053
  577TMC3    C6 8610   3.842   4.121  12.118  0.1390 -0.1897  0.0230
  577TMC3     C 8611   3.816   4.045  12.528 -0.4809  0.1796  0.2651
  577TMC3     O 8612   3.837   3.927  12.562  0.5677  0.5148 -0.1414
  577TMC3     H 8613   3.849   3.867  12.338 -0.0586 -0.6871 -0.0025
  577TMC3    H1 8614   3.895   4.285  12.405 -1.5152 -0.8031  1.3371
  577TMC3    H2 8615   3.875   4.148  12.018  0.7742 -2.1563 -0.2942
  577TMC3    C7 8616   3.891   4.348  12.159 -0.3522  0.0776  0.5969
  577TMC3    C8 8617   3.837   3.889  12.083  0.1718 -1.0288 -0.6719
  577TMC3    O1 8618   3.992   4.405  12.202 -0.0526  0.5696  0.1437
  577TMC3    O2 8619   3.760   3.797  12.102  0.3163  0.4302 -0.0793
  578MPD2     C 8620   2.688   0.320   0.740 -0.0242  0.3231 -0.1376
  578MPD2    C1 8621   2.672   0.212   0.656  0.2395 -0.2675 -0.3852
  578MPD2    C2 8622   2.684   0.084   0.706  0.2834 -0.1388 -0.5202
  578MPD2    C3 8623   2.717   0.063   0.845 -0.3317  0.1005 -0.2009
  578MPD2    C4 8624   2.739   0.177   0.923  0.0225 -0.6695 -0.3235
  578MPD2    C5 8625   2.725   0.304   0.868  0.0452 -0.3921  0.5439
  578MPD2     H 8626   2.671   4.738   0.639 -1.2472 -1.3033  1.2672
  578MPD2    H1 8627   2.748   0.164   1.030  1.5572 -2.0840 -0.6301
  578MPD2    H2 8628   2.692   0.419   0.695  0.7356 -1.0551 -3.1256
  578MPD2    H3 8629   2.728   0.391   0.933  1.3273 -0.3674  0.4580
  578MPD2     N 8630   2.722   4.668   0.887  0.5340 -0.4681 -0.9092
  578MPD2    H5 8631   2.690   4.590   0.830 -0.1249 -0.2038 -0.9030
  578MPD2    N1 8632   2.640   0.239   0.521 -0.7419  0.5453  0.1725
  578MPD2    H7 8633   2.653   0.333   0.484 -1.9077  0.6853  0.1273
  579TMC3    C1 8634   2.824   4.492   1.005 -0.3377 -0.6587 -0.2770
  579TMC3    C2 8635   2.882   4.460   1.126 -0.3677  0.4270 -0.2279
  579TMC3    C3 8636   2.919   4.325   1.141  0.1315  0.8144  0.4231
  579TMC3    C4 8637   2.812   4.410   0.899  0.0922  0.4857  0.6593
  579TMC3    C5 8638   2.859   4.281   0.914 -0.5268  0.2628  0.1058
  579TMC3    C6 8639   2.916   4.238   1.031 -0.3875 -0.0112 -0.0586
  579TMC3     C 8640   2.792   4.635   0.997 -0.6631  0.7642  0.4908
  579TMC3     O 8641   2.839   4.704   1.087  0.0300 -0.2235 -0.4260
  579TMC3     H 8642   2.870   4.527   1.210 -0.5486  0.3114 -0.1590
  579TMC3    H1 8643   2.784   4.447   0.801 -1.2578 -0.7200  0.5880
  579TMC3    H2 8644   2.951   4.136   1.044  1.4935  0.6131 -0.3391
  579TMC3    C7 8645   2.818   4.183   0.814  0.3583  0.0108 -0.0560
  579TMC3    C8 8646   2.990   4.276   1.258 -0.1457  0.0457  0.0641
  579TMC3    O1 8647   2.855   4.068   0.828 -0.5176 -0.2164  0.2787
  579TMC3    O2 8648   3.032   4.160   1.265  0.3776 -0.5655  0.5375
  580TMC3    C1 8649   1.729   3.686  12.476 -0.0756  0.1755 -0.0840
  580TMC3    C2 8650   1.852   3.735  12.441  0.5061  0.2045 -0.0091
  580TMC3    C3 8651   1.950   3.655  12.383  0.6993 -0.1164 -0.2201
  580TMC3    C4 8652   1.712   3.552  12.470 -0.3378  0.3986  0.3748
  580TMC3    C5 8653   1.816   3.477  12.411 -0.7685 -0.6285  0.3966
  580TMC3    C6 8654   1.939   3.520  12.372  0.9177  0.0223 -0.3479
  580TMC3     C 8655   1.629   3.764  12.403 -0.0285  0.4212  0.5458
  580TMC3     O 8656   1.670   3.858  12.337 -0.3983  0.0987  0.4877
  580TMC3     H 8657   1.870   3.842  12.437  0.0721  0.2123 -1.6579
  580TMC3    H1 8658   1.622   3.504  12.506 -0.4520  0.4234  0.1257
  580TMC3    H2 8659   2.015   3.452  12.336  1.7567  0.2752  0.9498
  580TMC3    C7 8660   1.819   3.331  12.448  0.0190 -0.2769  0.1714
  580TMC3    C8 8661   2.058   3.727  12.317  0.4285 -0.6735  0.8459
  580TMC3    O1 8662   1.753   3.306  12.546  0.5374  0.4070  0.1682
  580TMC3    O2 8663   2.072   3.847  12.332 -0.2716  0.5568  0.3654
  581MPD2     C 8664   4.655   2.736  14.838  0.1178 -0.1272 -0.0059
  581MPD2    C1 8665   4.535   2.726  14.913 -0.9423  0.1204 -0.5560
  581MPD2    C2 8666   4.422   2.778  14.845 -0.1922  0.8487  0.5356
  581MPD2    C3 8667   4.421   2.840  14.720 -0.0093 -0.4283  0.2341
  581MPD2    C4 8668   4.543   2.847  14.661 -0.6439 -0.3620  0.4210
  581MPD2    C5 8669   4.655   2.794  14.718 -0.1575 -0.2189  0.2182
  581MPD2     H 8670   4.324   2.760  14.888  0.8439  0.9535  2.9717
  581MPD2    H1 8671   4.557   2.892  14.564 -1.9425  0.0440  0.4315
  581MPD2    H2 8672   0.014   2.699  14.869 -0.3730 -0.4132  1.1700
  581MPD2    H3 8673   0.011   2.809  14.667 -1.0210  1.2084 -0.9624
  581MPD2     N 8674   4.300   2.879  14.661 -0.5475 -0.1824  0.7072
  581MPD2    H5 8675   4.217   2.886  14.719 -0.9275 -2.5693  0.4839
  581MPD2    N1 8676   4.537   2.678  15.040  0.4959  0.2599 -0.0591
  581MPD2    H7 8677   4.623   2.638  15.078 -0.2358 -1.4620 -0.2199
  582TMC3    C1 8678   4.444   2.572  15.226 -0.2149 -0.5256  0.3952
  582TMC3    C2 8679   4.494   2.658  15.321 -0.2669 -0.7210  0.3449
  582TMC3    C3 8680   4.438   2.654  15.443  0.9271 -0.6365  0.0555
  582TMC3    C4 8681   4.356   2.476  15.259  0.2139  0.3162 -0.0610
  582TMC3    C5 8682   4.306   2.463  15.387  0.0858 -0.3091  0.4120
  582TMC3    C6 8683   4.344   2.560  15.480 -0.2804 -0.2245 -0.2178
  582TMC3     C 8684   4.421   2.634  15.102  0.0293 -0.2803 -1.3346
  582TMC3     O 8685   4.306   2.629  15.068 -0.0729 -0.1520 -0.2797
  582TMC3     H 8686   4.563   2.738  15.297 -2.5358  0.8590 -0.9239
  582TMC3    H1 8687   4.326   2.408  15.180  2.1106  1.0458 -1.4077
  582TMC3    H2 8688   4.307   2.558  15.582 -2.4865 -1.8362 -1.0650
  582TMC3    C7 8689   4.161   2.454  15.387 -0.7304  0.1795 -0.2791
  582TMC3    C8 8690   4.509   2.722  15.549 -0.4097  0.1954 -0.5549
  582TMC3    O1 8691   4.115   2.360  15.320 -0.3041  0.4990  0.4562
  582TMC3    O2 8692   4.622   2.756  15.521 -0.3295  0.3220  0.5800
  583MPD2     C 8693   4.199   0.058  16.854 -0.1908 -0.2606  0.9792
  583MPD2    C1 8694   4.162   0.168  16.774  0.3564  0.2158  0.0128
  583MPD2    C2 8695   4.099   0.275  16.832 -0.2746 -0.2170  0.1014
  583MPD2    C3 8696   4.079   0.279  16.972  0.7242 -0.6323  0.1507
  583MPD2    C4 8697   4.137   0.175  17.053 -0.1665 -0.3014  0.2754
  583MPD2    C5 8698   4.181   0.060  16.990  0.4996 -0.4092  0.4004
  583MPD2     H 8699   4.076   0.362  16.773 -1.2951 -0.2061  0.5126
  583MPD2    H1 8700   4.133   0.176  17.161 -1.5250  0.7338  0.2124
  583MPD2    H2 8701   4.240   4.709  16.803 -0.2195 -1.3151  2.7832
  583MPD2    H3 8702   4.218   4.709  17.040 -1.4096 -2.9563 -2.7284
  583MPD2     N 8703   4.023   0.397  17.028  0.0594  0.0909 -0.1204
  583MPD2    H5 8704   3.995   0.463  16.956 -0.5924  1.6778  1.5824
  583MPD2    N1 8705   4.189   0.163  16.636 -0.1204  0.1825  0.0389
  583MPD2    H7 8706   4.150   0.235  16.576  0.3478  1.0359  0.7546
  584TMC3    C1 8707   3.965   0.554  17.190  0.8713 -0.6090 -0.2716
  584TMC3    C2 8708   3.967   0.656  17.092  0.7621 -0.6516  0.5266
  584TMC3    C3 8709   3.921   0.776  17.136  0.0174 -0.5176  0.1114
  584TMC3    C4 8710   3.916   0.570  17.314  0.4175  0.2930 -0.0160
  584TMC3    C5 8711   3.856   0.691  17.345 -0.7981 -0.1560 -0.2418
  584TMC3    C6 8712   3.864   0.798  17.257 -0.2984  0.2046  0.0301
  584TMC3     C 8713   4.014   0.423  17.163  0.1468  0.2553 -0.9263
  584TMC3     O 8714   4.034   0.351  17.262  0.5044 -0.4685 -0.1374
  584TMC3     H 8715   4.012   0.643  16.994  1.5195  0.4215  0.7293
  584TMC3    H1 8716   3.937   0.494  17.388  0.0624 -0.6349 -0.8689
  584TMC3    H2 8717   3.819   0.892  17.287 -1.4971 -0.6037  0.7573
  584TMC3    C7 8718   3.779   0.692  17.476  0.8517  0.2988 -0.1764
  584TMC3    C8 8719   3.957   0.886  17.057  0.6882  0.2131  0.4812
  584TMC3    O1 8720   3.837   0.631  17.558 -1.2412 -0.4016  0.2118
  584TMC3    O2 8721   3.971   0.874  16.937  0.1042 -0.4312 -0.0267
  585MPD2     C 8722   3.573   4.547   0.862 -0.5870  0.2478  0.4855
  585MPD2    C1 8723   3.516   4.554   0.739  0.3429 -0.2812 -0.4201
  585MPD2    C2 8724   3.529   4.446   0.652 -0.3114  0.2623 -0.9795
  585MPD2    C3 8725   3.605   4.333   0.691  0.1208  0.2463  0.2476
  585MPD2    C4 8726   3.653   4.321   0.817  0.1156  0.3348  0.0914
  585MPD2    C5 8727   3.639   4.430   0.901  0.8942 -0.1341  0.7149
  585MPD2     H 8728   3.510   4.457   0.545  0.6464  0.9639 -1.0672
  585MPD2    H1 8729   3.708   4.238   0.860  1.3612  1.2723  0.3319
  585MPD2    H2 8730   3.561   4.623   0.938 -1.2703 -1.1264  1.7597
  585MPD2    H3 8731   3.676   4.421   1.003  1.9602 -1.6307  0.1887
  585MPD2     N 8732   3.612   4.229   0.598  0.0759 -0.4327  1.0587
  585MPD2    H5 8733   3.654   4.145   0.635 -0.3216  0.1569  2.8276
  585MPD2    N1 8734   3.459   4.680   0.706 -1.1579  0.4690  0.3183
  585MPD2    H7 8735   3.460   0.024   0.766  0.7528 -0.0272  0.9514
  586TMC3    C1 8736   3.589   4.105   0.397 -0.3144 -0.1683 -0.3182
  586TMC3    C2 8737   3.694   4.075   0.313  0.1277  0.1851  0.1835
  586TMC3    C3 8738   3.755   3.955   0.338 -0.5308 -0.4361 -0.7772
  586TMC3    C4 8739   3.537   4.014   0.484 -0.1493 -0.2465 -0.4224
  586TMC3    C5 8740   3.597   3.889   0.490 -0.0396  0.3208 -0.0723
  586TMC3    C6 8741   3.716   3.870   0.434 -0.2867 -0.1399 -0.4063
  586TMC3     C 8742   3.594   4.235   0.459  0.1306  0.4236  0.3633
  586TMC3     O 8743   3.585   4.327   0.379 -0.1365 -0.6410  0.2792
  586TMC3     H 8744   3.729   4.152   0.245 -0.8436  0.8493  0.4285
  586TMC3    H1 8745   3.443   4.035   0.535  0.3165  0.6963  0.0649
  586TMC3    H2 8746   3.779   3.785   0.456  0.0658  0.4120  0.7248
  586TMC3    C7 8747   3.503   3.785   0.458 -0.2158  0.2630 -0.0206
  586TMC3    C8 8748   3.816   3.878   0.227  0.2557  0.6409 -0.3428
  586TMC3    O1 8749   3.384   3.801   0.482 -0.6406 -0.2658  0.0050
  586TMC3    O2 8750   3.843   3.760   0.247 -0.4507 -0.6749 -0.5218
  587TMC3    C1 8751   1.254   2.627  16.271 -0.0820  0.6779  0.0006
  587TMC3    C2 8752   1.195   2.752  16.236  0.2989 -0.1820  0.4101
  587TMC3    C3 8753   1.250   2.865  16.285  0.1443 -0.7937  1.2581
  587TMC3    C4 8754   1.359   2.630  16.358  0.2920 -0.0604  0.1357
  587TMC3    C5 8755   1.409   2.753  16.398 -1.0309 -0.7801 -0.0930
  587TMC3    C6 8756   1.349   2.872  16.383  0.2362 -0.5351 -0.2375
  587TMC3     C 8757   1.166   2.517  16.290 -0.1407  0.0397  0.0772
  587TMC3     O 8758   1.216   2.405  16.275  0.1568 -0.2102  0.7526
  587TMC3     H 8759   1.111   2.758  16.168  1.5743 -0.5750 -1.2145
  587TMC3    H1 8760   1.402   2.537  16.392  2.0955  0.8924  0.4449
  587TMC3    H2 8761   1.390   2.963  16.426 -0.6077 -1.5750  2.7467
  587TMC3    C7 8762   1.504   2.741  16.512  0.2427  0.1203 -0.4112
  587TMC3    C8 8763   1.202   2.989  16.229  0.3288 -0.6015  0.3467
  587TMC3    O1 8764   1.572   2.638  16.514  0.0456 -0.3381  0.0742
  587TMC3    O2 8765   1.171   2.981  16.108  0.0186  0.2948  0.1732
  588TMC3    C1 8766   3.129   0.416  10.198  0.1182  0.7372 -0.2204
  588TMC3    C2 8767   3.087   0.299  10.139 -0.1484  0.3074  0.7042
  588TMC3    C3 8768   3.161   0.185  10.175 -0.1370 -0.1415  0.1450
  588TMC3    C4 8769   3.248   0.428  10.271  0.5235 -0.7667 -0.1379
  588TMC3    C5 8770   3.318   0.312  10.296  0.5554  0.3444  0.0180
  588TMC3    C6 8771   3.275   0.181  10.258 -0.5929 -0.0933 -0.1093
  588TMC3     C 8772   3.063   0.544  10.169  0.0039  0.0837  0.0569
  588TMC3     O 8773   3.043   0.586  10.057  0.3294 -0.4574 -0.5913
  588TMC3     H 8774   3.001   0.299  10.074  2.5165 -0.2175 -2.8373
  588TMC3    H1 8775   3.294   0.526  10.281  0.6173 -0.6261 -1.8390
  588TMC3    H2 8776   3.322   0.090  10.292 -0.2981  0.3789  0.7386
  588TMC3    C7 8777   3.423   0.328  10.397 -0.0165  0.0912 -0.3308
  588TMC3    C8 8778   3.114   0.061  10.115 -0.4165  0.3535 -0.4768
  588TMC3    O1 8779   3.506   0.238  10.409  0.9699  0.0782  0.1225
  588TMC3    O2 8780   3.045   0.073  10.015  0.6299 -0.1034 -0.2363
  589TMC3    C1 8781   3.542   3.321   1.938 -0.0934  0.2331  0.1873
  589TMC3    C2 8782   3.662   3.317   2.007  0.5925  0.1996  0.0898
  589TMC3    C3 8783   3.773   3.304   1.928  0.5412  0.7409  0.1321
  589TMC3    C4 8784   3.533   3.300   1.806 -0.0379  0.0824  0.1995
  589TMC3    C5 8785   3.649   3.259   1.742 -0.0502  0.4345 -0.4389
  589TMC3    C6 8786   3.769   3.273   1.794  0.5908 -0.1871 -0.6727
  589TMC3     C 8787   3.421   3.370   2.005  0.2262  0.2982 -0.0867
  589TMC3     O 8788   3.315   3.322   1.984  0.8919  0.2144  0.8750
  589TMC3     H 8789   3.662   3.333   2.114  1.1079  2.0284 -0.1905
  589TMC3    H1 8790   3.435   3.313   1.761  0.3967 -1.0533 -1.0897
  589TMC3    H2 8791   3.853   3.215   1.758  1.0794 -0.2189  0.5209
  589TMC3    C7 8792   3.619   3.179   1.618 -0.6673 -0.0472  0.5550
  589TMC3    C8 8793   3.899   3.350   1.993 -0.6495  0.2715 -0.3211
  589TMC3    O1 8794   3.505   3.129   1.601  0.2387  0.2010 -0.1298
  589TMC3    O2 8795   3.893   3.372   2.112  0.6504 -0.2089 -0.3774
  590MPD2     C 8796   1.829   0.973  16.895  0.1313 -0.1421 -0.3369
  590MPD2    C1 8797   1.793   1.029  16.770  1.3345  0.8566  0.2021
  590MPD2    C2 8798   1.891   1.093  16.685  0.8319  0.5800  0.0008
  590MPD2    C3 8799   2.016   1.107  16.737  0.1115  0.1102  0.1763
  590MPD2    C4 8800   2.045   1.060  16.863  0.0122 -0.4355 -0.2376
  590MPD2    C5 8801   1.952   0.995  16.943 -0.0281 -0.1493  0.0558
  590MPD2     H 8802   1.873   1.121  16.582 -3.7375  2.0207  1.1679
  590MPD2    H1 8803   2.141   1.077  16.910 -1.0722  0.6469  1.6278
  590MPD2    H2 8804   1.766   0.903  16.950  3.5864 -1.6226  1.7251
  590MPD2    H3 8805   1.982   0.942  17.033  0.3445 -0.4951 -0.2710
  590MPD2     N 8806   2.114   1.163  16.649 -0.4366 -0.3065  0.1342
  590MPD2    H5 8807   2.077   1.218  16.571 -1.5903 -0.3122  0.6760
  590MPD2    N1 8808   1.661   1.017  16.719 -0.1313  0.0668 -0.7368
  590MPD2    H7 8809   1.590   0.989  16.787  0.4485  0.5644  0.0808
  591TMC3    C1 8810   2.314   1.229  16.562  0.2622 -0.1997 -0.0487
  591TMC3    C2 8811   2.365   1.170  16.453  0.3053 -0.5212  0.5710
  591TMC3    C3 8812   2.348   1.238  16.333  0.5611 -0.4316  0.0327
  591TMC3    C4 8813   2.251   1.346  16.554 -0.8364  0.2532  0.0287
  591TMC3    C5 8814   2.251   1.416  16.436 -0.0044  0.4062  0.4534
  591TMC3    C6 8815   2.286   1.358  16.323 -0.0193  0.2104  0.4479
  591TMC3     C 8816   2.248   1.146  16.659  0.3597  0.3455 -0.0912
  591TMC3     O 8817   2.308   1.054  16.710  0.0241  0.1279  0.1919
  591TMC3     H 8818   2.405   1.069  16.455  2.1442  0.2246  1.6024
  591TMC3    H1 8819   2.218   1.405  16.639 -1.5030 -0.9780  0.6170
  591TMC3    H2 8820   2.268   1.405  16.226  0.2126  0.8943  0.7356
  591TMC3    C7 8821   2.178   1.542  16.444  0.3483  0.1134 -0.1294
  591TMC3    C8 8822   2.427   1.177  16.222 -0.3344 -0.8895 -0.7328
  591TMC3    O1 8823   2.097   1.551  16.536  0.2959  0.7070  0.3377
  591TMC3    O2 8824   2.465   1.060  16.235 -0.3425  0.0861  0.0991
  592MPD2     C 8825   2.519   2.568  11.582 -0.2821  0.1941  0.1124
  592MPD2    C1 8826   2.455   2.630  11.687 -0.3112  0.4273  0.3268
  592MPD2    C2 8827   2.394   2.555  11.791  0.0206  0.6006  0.0962
  592MPD2    C3 8828   2.408   2.416  11.799  0.0916 -0.0359  0.5579
  592MPD2    C4 8829   2.475   2.357  11.696 -1.2545 -0.1762  0.3007
  592MPD2    C5 8830   2.527   2.432  11.594 -0.4940  0.4474  0.0083
  592MPD2     H 8831   2.333   2.604  11.866  0.0618 -0.1225  0.6049
  592MPD2    H1 8832   2.513   2.256  11.691 -0.6748  0.0350  0.4299
  592MPD2    H2 8833   2.575   2.627  11.510 -1.0012  1.2927  0.4576
  592MPD2    H3 8834   2.594   2.389  11.520 -0.5312  0.2392  0.0978
  592MPD2     N 8835   2.343   2.342  11.905 -0.1218  0.1309 -0.0683
  592MPD2    H5 8836   2.302   2.400  11.978 -0.4628  2.8377 -2.4201
  592MPD2    N1 8837   2.465   2.775  11.687  0.2449 -0.1690  0.4128
  592MPD2    H7 8838   2.522   2.815  11.613  1.6518 -4.3838 -0.7938
  593TMC3    C1 8839   2.439   3.000  11.751 -0.3475 -0.0026  1.1456
  593TMC3    C2 8840   2.436   3.087  11.848  0.2572 -0.3277 -0.1426
  593TMC3    C3 8841   2.483   3.213  11.828  0.3290  0.4044 -0.2005
  593TMC3    C4 8842   2.473   3.039  11.623  0.0846  0.3445  0.2839
  593TMC3    C5 8843   2.521   3.164  11.595 -0.1117 -0.2863 -0.0869
  593TMC3    C6 8844   2.526   3.255  11.702 -0.5846  0.0837 -0.1179
  593TMC3     C 8845   2.415   2.857  11.784 -0.4227  0.2334 -0.3572
  593TMC3     O 8846   2.353   2.828  11.887  0.2251  0.4469 -0.2041
  593TMC3     H 8847   2.423   3.055  11.951  1.5390  1.0880  0.4619
  593TMC3    H1 8848   2.460   2.975  11.536 -0.0251  0.0636  0.5064
  593TMC3    H2 8849   2.547   3.357  11.672  0.0248 -0.4374 -1.4595
  593TMC3    C7 8850   2.554   3.207  11.455 -0.3363  0.5275  0.2528
  593TMC3    C8 8851   2.478   3.297  11.944 -0.6340 -0.0730 -0.8119
  593TMC3    O1 8852   2.596   3.320  11.437 -0.7020 -0.0831 -0.0267
  593TMC3    O2 8853   2.398   3.263  12.036  0.3741  0.3356 -0.1813
  594MPD2     C 8854   1.136   1.671  14.684 -0.0981  0.2791 -0.0543
  594MPD2    C1 8855   1.096   1.774  14.605  0.4901 -0.0160  0.4976
  594MPD2    C2 8856   1.191   1.866  14.565  0.4784 -0.0033  0.5431
  594MPD2    C3 8857   1.323   1.858  14.610  0.1596 -0.1063  0.3104
  594MPD2    C4 8858   1.358   1.760  14.699 -0.0024  1.1336 -0.5829
  594MPD2    C5 8859   1.264   1.672  14.740  0.0004  0.4827  0.2630
  594MPD2     H 8860   1.155   1.951  14.508 -0.3741  0.4658  1.7889
  594MPD2    H1 8861   1.457   1.756  14.742 -0.0135 -0.8568 -0.7416
  594MPD2    H2 8862   1.072   1.594  14.727 -1.0633 -0.0743 -2.0833
  594MPD2    H3 8863   1.290   1.596  14.813 -0.2033  0.0259 -0.1342
  594MPD2     N 8864   1.406   1.958  14.570  0.6134  0.2548  0.3962
  594MPD2    H5 8865   1.364   2.031  14.513 -0.5667 -1.8124 -1.4129
  594MPD2    N1 8866   0.958   1.781  14.569  0.5804 -0.0762 -0.0172
  594MPD2    H7 8867   0.896   1.709  14.605  0.8938 -0.5568 -0.4302
  595TMC3    C1 8868   1.794   2.186  14.428 -0.7242 -0.2162  0.3739
  595TMC3    C2 8869   1.741   2.066  14.474 -0.5654  0.0221 -0.2596
  595TMC3    C3 8870   1.608   2.067  14.511  0.0949  0.1225  0.2078
  595TMC3    C4 8871   1.718   2.297  14.421 -0.2045  0.2021  0.2106
  595TMC3    C5 8872   1.590   2.296  14.469  0.6929  0.5375  0.3476
  595TMC3    C6 8873   1.534   2.180  14.516  0.6860  0.4540 -0.2703
  595TMC3     C 8874   1.935   2.208  14.456  0.7697 -0.2916  0.4410
  595TMC3     O 8875   1.971   2.319  14.490  0.1057  0.4367  0.7107
  595TMC3     H 8876   1.788   1.969  14.461  0.8309  0.7698 -0.8635
  595TMC3    H1 8877   1.771   2.382  14.380 -0.1157  0.3653  0.6658
  595TMC3    H2 8878   1.431   2.193  14.548  0.5019  0.8407 -1.0374
  595TMC3    C7 8879   1.558   2.409  14.561 -0.6002  0.0507 -0.3930
  595TMC3    C8 8880   1.544   1.962  14.591  0.2932  0.1986 -0.1017
  595TMC3    O1 8881   1.472   2.393  14.646  0.3302 -0.0294  0.0670
  595TMC3    O2 8882   1.622   1.884  14.643  0.2375 -0.0882 -0.1921
  596MPD2     C 8883   0.346   4.636  16.710 -0.6905 -0.0255  0.1071
  596MPD2    C1 8884   0.322   0.011  16.634 -0.2977  0.5653 -0.0138
  596MPD2    C2 8885   0.361   0.015  16.505  0.5416 -0.3243 -0.1923
  596MPD2    C3 8886   0.405   4.642  16.444  0.0765 -0.2577 -0.4278
  596MPD2    C4 8887   0.422   4.531  16.513 -0.4548 -0.3591  0.0064
  596MPD2    C5 8888   0.400   4.525  16.642  0.0053  0.2805 -0.1133
  596MPD2     H 8889   0.349   0.104  16.444  0.9494  0.2030  0.5047
  596MPD2    H1 8890   0.457   4.434  16.480 -0.1767 -0.0321 -0.6660
  596MPD2    H2 8891   0.322   4.626  16.815  0.4411  0.3537  0.4074
  596MPD2    H3 8892   0.422   4.437  16.701 -3.6773  0.0404  0.8411
  596MPD2     N 8893   0.417   4.621  16.307 -0.0853  0.6999  0.0857
  596MPD2    H5 8894   0.449   4.528  16.281 -1.1709  0.4212 -0.2410
  596MPD2    N1 8895   0.279   0.133  16.692  0.2321  0.4323 -0.1157
  596MPD2    H7 8896   0.284   0.206  16.621  0.0035 -1.3779 -2.0182
  597TMC3    C1 8897   0.205   0.293  16.837 -0.1245 -0.5417 -0.4656
  597TMC3    C2 8898   0.264   0.385  16.755  0.1573 -0.1341  0.2505
  597TMC3    C3 8899   0.229   0.520  16.766 -0.5976 -0.1884  0.3691
  597TMC3    C4 8900   0.126   0.331  16.935 -0.3152 -0.1640 -1.0241
  597TMC3    C5 8901   0.093   0.462  16.951  0.5222  0.2798 -0.6168
  597TMC3    C6 8902   0.143   0.559  16.868  0.2893 -0.1187  0.0367
  597TMC3     C 8903   0.236   0.151  16.818  0.1173  0.3457  0.2459
  597TMC3     O 8904   0.240   0.075  16.911 -0.9401  0.3367  0.8574
  597TMC3     H 8905   0.344   0.358  16.686  0.7538  0.0613  0.8614
  597TMC3    H1 8906   0.080   0.255  16.997  0.0212  0.3850 -0.1086
  597TMC3    H2 8907   0.129   0.665  16.887  0.1147  0.1917 -1.8160
  597TMC3    C7 8908   4.718   0.495  17.040  0.1042  0.4523  0.1779
  597TMC3    C8 8909   0.302   0.607  16.679 -0.0039  0.2681  0.2188
  597TMC3    O1 8910   4.688   0.407  17.119  0.0207 -0.0921  0.0731
  597TMC3    O2 8911   0.335   0.557  16.567 -0.2045 -0.3441  0.3317
  598TMC3    C1 8912   3.096   1.121  15.239 -0.5841  0.4585  0.2824
  598TMC3    C2 8913   2.979   1.166  15.292  0.5798 -0.4295  0.3605
  598TMC3    C3 8914   2.938   1.288  15.232 -0.2322 -0.0212  0.7511
  598TMC3    C4 8915   3.171   1.178  15.143 -0.4651  0.1310  0.7750
  598TMC3    C5 8916   3.134   1.304  15.098  0.1080  0.4616 -0.1340
  598TMC3    C6 8917   3.019   1.356  15.141  0.0577  0.2251  0.1197
  598TMC3     C 8918   3.163   1.008  15.297  0.3409  0.0562  0.1209
  598TMC3     O 8919   3.243   0.948  15.230 -0.2525  0.5507 -0.3077
  598TMC3     H 8920   2.918   1.116  15.366  1.1614 -1.1700  0.3372
  598TMC3    H1 8921   3.255   1.125  15.101 -0.5243 -0.5889  1.5896
  598TMC3    H2 8922   2.988   1.454  15.108  1.6272  0.2172 -1.3990
  598TMC3    C7 8923   3.223   1.368  15.013 -0.4127 -0.0961  0.3350
  598TMC3    C8 8924   2.802   1.299  15.190  0.3571 -0.5598 -0.2841
  598TMC3    O1 8925   3.294   1.292  14.950  0.3739 -0.2475 -0.3839
  598TMC3    O2 8926   2.779   1.384  15.108 -0.3065 -0.2364  0.1205
  599MPD2     C 8927   3.345   3.788  16.046 -0.5731 -0.0413 -0.2567
  599MPD2    C1 8928   3.301   3.656  16.037 -0.5635  0.1387  1.1828
  599MPD2    C2 8929   3.194   3.616  16.110 -0.1155 -0.2662 -0.4041
  599MPD2    C3 8930   3.127   3.704  16.195  0.1721 -0.4686  0.2921
  599MPD2    C4 8931   3.172   3.833  16.198  0.0437 -0.0742 -0.2490
  599MPD2    C5 8932   3.278   3.880  16.121 -0.5342 -0.9957  0.1241
  599MPD2     H 8933   3.156   3.515  16.099 -1.7757  0.2022  1.0467
  599MPD2    H1 8934   3.110   3.899  16.258 -3.0277 -2.7574 -0.4987
  599MPD2    H2 8935   3.434   3.820  15.993  0.2660 -0.0602  1.1208
  599MPD2    H3 8936   3.318   3.980  16.127  0.0489 -1.2378  0.2178
  599MPD2     N 8937   3.015   3.670  16.280  0.4488  0.0864 -0.5351
  599MPD2    H5 8938   2.991   3.747  16.342 -1.4786 -0.1432 -0.9809
  599MPD2    N1 8939   3.373   3.568  15.955  0.8674 -0.2034 -0.2361
  599MPD2    H7 8940   3.439   3.626  15.905  1.7997  0.3837  1.6838
  600TMC3    C1 8941   2.887   3.546  16.426  0.3201 -0.4704  1.1594
  600TMC3    C2 8942   2.781   3.463  16.434  0.1943 -0.0834  0.6348
  600TMC3    C3 8943   2.727   3.443  16.557 -0.1373  0.8160 -0.3590
  600TMC3    C4 8944   2.941   3.606  16.536 -0.3412 -0.6249 -0.0126
  600TMC3    C5 8945   2.888   3.574  16.658  0.2081  0.7212 -0.0327
  600TMC3    C6 8946   2.776   3.496  16.675 -0.1017  0.0599  0.3404
  600TMC3     C 8947   2.952   3.548  16.297 -0.3108 -0.2788  1.3332
  600TMC3     O 8948   2.951   3.442  16.241  0.6033  0.3960  0.1215
  600TMC3     H 8949   2.745   3.415  16.344 -1.0658 -0.2405  1.2174
  600TMC3    H1 8950   3.032   3.665  16.528  0.0870 -1.0281  1.9598
  600TMC3    H2 8951   2.729   3.476  16.771 -1.6833 -0.5407 -0.5507
  600TMC3    C7 8952   2.925   3.671  16.759 -0.3748 -0.3266 -0.7030
  600TMC3    C8 8953   2.610   3.356  16.563 -0.0505  0.1306  0.3233
  600TMC3    O1 8954   2.961   3.781  16.716 -0.2847  0.4498  0.7649
  600TMC3    O2 8955   2.582   3.294  16.664  0.6800 -0.0959  0.0296
  601MPD2     C 8956   0.440   2.766   0.275  0.4546 -0.1992  0.1545
  601MPD2    C1 8957   0.337   2.854   0.238  0.0214 -0.0333 -0.6073
  601MPD2    C2 8958   0.259   2.908   0.340  0.8168  0.2468 -0.6604
  601MPD2    C3 8959   0.289   2.884   0.474 -0.2247  0.1193 -0.4104
  601MPD2    C4 8960   0.395   2.804   0.502  0.1599  0.7790  0.2668
  601MPD2    C5 8961   0.467   2.736   0.405  0.7253  1.0397 -0.6706
  601MPD2     H 8962   0.180   2.974   0.307  1.0790  0.5673 -0.6501
  601MPD2    H1 8963   0.424   2.787   0.605  1.5654  0.0814 -0.2447
  601MPD2    H2 8964   0.508   2.719   0.204 -1.0757  0.4079 -1.7363
  601MPD2    H3 8965   0.543   2.665   0.435  0.3459  0.8962 -0.0394
  601MPD2     N 8966   0.210   2.929   0.579 -0.3723  0.3948 -0.5844
  601MPD2    H5 8967   0.236   2.910   0.675 -1.0063 -0.0213 -0.4968
  601MPD2    N1 8968   0.312   2.900   0.100  0.0829 -0.2563 -0.2512
  601MPD2    H7 8969   0.246   2.975   0.089 -0.2669 -0.6995 -1.1713
  602TMC3    C1 8970   0.314   2.886  17.607 -0.6702 -0.1601  0.4408
  602TMC3    C2 8971   0.391   2.890  17.500  0.0230 -0.7834 -1.0317
  602TMC3    C3 8972   0.349   2.960  17.388  0.1970 -0.9718 -0.0314
  602TMC3    C4 8973   0.178   2.930  17.602  0.7670 -0.1082  0.2696
  602TMC3    C5 8974   0.133   2.990  17.486  0.0160 -0.6571  0.4576
  602TMC3    C6 8975   0.220   3.013  17.381  0.1618  1.2295  0.1699
  602TMC3     C 8976   0.379   2.850  17.738  0.9651 -0.8373 -0.1243
  602TMC3     O 8977   0.465   2.764  17.727  0.2510 -0.0236  0.5479
  602TMC3     H 8978   0.493   2.853  17.504 -0.1328 -1.2295 -1.2669
  602TMC3    H1 8979   0.113   2.909  17.686 -0.4196  2.3128 -0.0700
  602TMC3    H2 8980   0.193   3.087  17.307  0.1070 -0.7067 -1.7616
  602TMC3    C7 8981   4.733   3.011  17.463  0.0796 -0.0779 -0.5415
  602TMC3    C8 8982   0.420   2.950  17.264  0.6198  0.5492 -0.4988
  602TMC3    O1 8983   4.663   3.049  17.554 -0.0529 -0.4750  0.3524
  602TMC3    O2 8984   0.543   2.957  17.275 -0.2549 -0.5225  0.8212
  603TMC3    C1 8985   2.963   2.539  11.568  1.0285  0.1605  0.0356
  603TMC3    C2 8986   2.985   2.533  11.701  0.0621 -0.1273  0.4007
  603TMC3    C3 8987   3.056   2.635  11.756 -0.8855 -0.1816  0.2442
  603TMC3    C4 8988   3.015   2.637  11.489  0.5034  0.3142 -0.2820
  603TMC3    C5 8989   3.082   2.739  11.547  0.2473  0.0861  0.0889
  603TMC3    C6 8990   3.095   2.746  11.685  0.1897 -1.1097 -0.3998
  603TMC3     C 8991   2.910   2.423  11.505 -0.3183  0.4536 -0.7981
  603TMC3     O 8992   2.932   2.414  11.390  0.3819 -0.0636  0.4646
  603TMC3     H 8993   2.955   2.451  11.765  0.0989  1.3158  2.2518
  603TMC3    H1 8994   2.977   2.659  11.390  1.1264 -4.5151 -1.6227
  603TMC3    H2 8995   3.166   2.808  11.738  0.3738 -1.2106 -0.5277
  603TMC3    C7 8996   3.141   2.844  11.463  0.2600  0.0246  0.5197
  603TMC3    C8 8997   3.107   2.610  11.892 -0.3607  0.4211  0.3330
  603TMC3    O1 8998   3.186   2.943  11.520  0.2301 -1.0022 -0.0724
  603TMC3    O2 8999   3.089   2.494  11.928  1.2878 -0.2261 -0.3239
  604MPD2     C 9000   4.266   1.242  16.158  0.2440  0.4730  0.1127
  604MPD2    C1 9001   4.136   1.233  16.103  0.1465  0.5870  0.2679
  604MPD2    C2 9002   4.127   1.197  15.967 -0.3021 -0.4013 -0.0516
  604MPD2    C3 9003   4.246   1.180  15.893 -0.5138  0.3613 -0.3045
  604MPD2    C4 9004   4.370   1.183  15.960 -0.3282  0.0602 -0.3938
  604MPD2    C5 9005   4.382   1.216  16.089  0.3835 -0.3540  0.8182
  604MPD2     H 9006   4.027   1.187  15.927 -0.2424 -2.1120  0.2141
  604MPD2    H1 9007   4.470   1.169  15.920  0.1556 -0.8339  1.1296
  604MPD2    H2 9008   4.271   1.263  16.264 -3.0703  0.5857  0.2592
  604MPD2    H3 9009   4.481   1.220  16.134  1.5602 -0.3560 -1.7806
  604MPD2     N 9010   4.237   1.135  15.759 -0.3769  0.1038  0.8405
  604MPD2    H5 9011   4.143   1.113  15.728  0.4662 -1.5390 -0.5708
  604MPD2    N1 9012   4.030   1.243  16.201 -0.0138  0.0120 -0.1741
  604MPD2    H7 9013   4.058   1.265  16.296 -1.8707 -1.1333  0.6295
  605TMC3    C1 9014   3.819   1.241  16.290  0.2184  0.1983 -0.1678
  605TMC3    C2 9015   3.896   1.248  16.399 -0.2862 -0.2987 -0.3989
  605TMC3    C3 9016   3.881   1.357  16.481 -0.1055 -0.3563  1.2930
  605TMC3    C4 9017   3.738   1.335  16.258  0.3259  0.5788 -0.8196
  605TMC3    C5 9018   3.718   1.437  16.345  0.6455  0.2925  0.0841
  605TMC3    C6 9019   3.792   1.459  16.459 -0.5369 -0.3759 -0.2069
  605TMC3     C 9020   3.900   1.201  16.180 -0.6969 -0.0639 -0.7655
  605TMC3     O 9021   3.851   1.159  16.074  0.1854 -0.0413  0.5741
  605TMC3     H 9022   3.969   1.170  16.419 -1.0448 -0.9941 -0.3186
  605TMC3    H1 9023   3.687   1.322  16.163  0.5624 -0.4243 -0.8161
  605TMC3    H2 9024   3.792   1.556  16.507 -2.0016  0.1708 -1.3305
  605TMC3    C7 9025   3.610   1.533  16.320 -0.8536  0.3216  0.2273
  605TMC3    C8 9026   4.019   1.392  16.525 -0.1954  0.4290 -0.1846
  605TMC3    O1 9027   3.620   1.645  16.367  0.1240  0.3882  0.3066
  605TMC3    O2 9028   4.099   1.345  16.446  0.1747 -0.0880 -0.1306
  606TMC3    C1 9029   0.570   4.662   0.052 -0.2019  0.2386 -0.0426
  606TMC3    C2 9030   0.663   4.694   0.140 -0.9068  0.3512 -0.2362
  606TMC3    C3 9031   0.678   4.606   0.247 -0.4856 -0.3565 -0.3673
  606TMC3    C4 9032   0.520   4.533   0.040  0.2186 -0.5646  0.1589
  606TMC3    C5 9033   0.535   4.449   0.150 -0.3692 -0.0472 -0.3463
  606TMC3    C6 9034   0.613   4.487   0.256 -0.7968 -0.3509 -0.3943
  606TMC3     C 9035   0.564   0.016  17.697  0.5207 -0.2607  0.3678
  606TMC3     O 9036   0.579   0.137  17.714 -0.0253  0.3329 -0.3067
  606TMC3     H 9037   0.711   0.053   0.135  1.0308 -0.5948 -0.0991
  606TMC3    H1 9038   0.451   4.513  17.710 -3.1930  1.4256  2.5582
  606TMC3    H2 9039   0.643   4.413   0.330  1.0899  3.2856  2.5011
  606TMC3    C7 9040   0.485   4.311   0.157 -1.0218  0.0134 -0.6794
  606TMC3    C8 9041   0.814   4.603   0.305 -0.2407 -0.5168  0.2239
  606TMC3    O1 9042   0.496   4.249   0.264 -0.2394 -0.5792 -0.2813
  606TMC3    O2 9043   0.827   4.539   0.408 -0.3100 -0.0972 -0.0612
  607MPD2     C 9044   2.648   2.117  12.049  0.4416  0.0772  0.0241
  607MPD2    C1 9045   2.612   2.225  12.131 -0.0555 -0.0846  0.2804
  607MPD2    C2 9046   2.553   2.194  12.251 -0.8785  0.4967 -0.0366
  607MPD2    C3 9047   2.517   2.064  12.273  0.6457  0.5129  0.1349
  607MPD2    C4 9048   2.549   1.958  12.187 -0.7448  0.2098 -0.5322
  607MPD2    C5 9049   2.613   1.989  12.075  0.3313  0.4139 -0.0087
  607MPD2     H 9050   2.538   2.270  12.326 -2.2366 -0.1849  0.3878
  607MPD2    H1 9051   2.514   1.856  12.198 -1.1117  0.2141 -1.6198
  607MPD2    H2 9052   2.709   2.119  11.960  1.6409  0.1829  0.8469
  607MPD2    H3 9053   2.645   1.910  12.008 -0.0891  0.6854 -0.5272
  607MPD2     N 9054   2.451   2.035  12.400 -0.2784  0.5519  0.3993
  607MPD2    H5 9055   2.439   2.114  12.462 -1.0153  1.7438 -1.2781
  607MPD2    N1 9056   2.652   2.364  12.112 -0.5100  0.1801 -0.3270
  607MPD2    H7 9057   2.611   2.430  12.179  1.6296  0.6020  0.5688
  608TMC3    C1 9058   2.759   2.557  12.053 -0.2351  0.0951  0.5111
  608TMC3    C2 9059   2.784   2.588  12.185 -0.4827 -0.0751 -0.7887
  608TMC3    C3 9060   2.762   2.715  12.236  0.4259 -0.5559  0.3162
  608TMC3    C4 9061   2.733   2.662  11.967  0.6873 -0.8476 -0.0152
  608TMC3    C5 9062   2.726   2.794  12.014 -0.2753 -0.4484 -0.8687
  608TMC3    C6 9063   2.744   2.814  12.151  0.4581  0.5359 -0.1052
  608TMC3     C 9064   2.732   2.417  12.016  0.5946 -0.2414 -0.0431
  608TMC3     O 9065   2.758   2.380  11.902 -0.1373 -0.4675 -0.0310
  608TMC3     H 9066   2.803   2.508  12.257 -0.8938 -0.6074 -1.2732
  608TMC3    H1 9067   2.711   2.635  11.865  1.2669 -0.9767 -0.1053
  608TMC3    H2 9068   2.728   2.917  12.184  2.0284  0.3326  1.3179
  608TMC3    C7 9069   2.760   2.888  11.914  0.2358  0.6153  0.0790
  608TMC3    C8 9070   2.742   2.741  12.373 -0.1158  0.4478 -0.6774
  608TMC3    O1 9071   2.801   2.846  11.807 -0.1269  0.7006 -0.3782
  608TMC3    O2 9072   2.759   2.853  12.421  0.2177  0.0598 -0.1254
  609TMC3    C1 9073   1.250   1.657   8.733 -0.5281 -0.0005  0.6242
  609TMC3    C2 9074   1.241   1.618   8.607 -0.2684  0.4115  0.4752
  609TMC3    C3 9075   1.316   1.506   8.567  0.4879 -0.3378 -0.1129
  609TMC3    C4 9076   1.330   1.590   8.822 -0.1645  0.5705  0.4043
  609TMC3    C5 9077   1.409   1.485   8.775  0.7404  0.0061 -0.1094
  609TMC3    C6 9078   1.406   1.444   8.652 -0.4855 -0.0744 -0.6291
  609TMC3     C 9079   1.175   1.774   8.776  0.4052 -1.0101 -0.3409
  609TMC3     O 9080   1.094   1.815   8.698 -0.2225  0.9211 -1.0591
  609TMC3     H 9081   1.166   1.669   8.548 -0.7919 -0.4579  0.3873
  609TMC3    H1 9082   1.338   1.611   8.928 -2.8542  0.9011  0.5557
  609TMC3    H2 9083   1.481   1.379   8.607  0.5404  0.7538 -0.1226
  609TMC3    C7 9084   1.505   1.432   8.875 -0.6427  0.8393  0.2315
  609TMC3    C8 9085   1.296   1.472   8.426  0.4807 -0.6406 -0.3306
  609TMC3    O1 9086   1.533   1.502   8.972  0.3319 -0.0121  0.0632
  609TMC3    O2 9087   1.234   1.552   8.360  0.1608  0.3098  0.7042
  610TMC3    C1 9088   3.120   2.696  12.816  0.1637 -0.4801 -0.9378
  610TMC3    C2 9089   3.076   2.665  12.688  0.1812  0.1474 -0.1611
  610TMC3    C3 9090   3.108   2.543  12.641  0.3782 -0.6286  0.5824
  610TMC3    C4 9091   3.190   2.607  12.889 -0.4523 -0.2058 -0.3059
  610TMC3    C5 9092   3.218   2.482  12.835 -0.0292  0.0631  0.3135
  610TMC3    C6 9093   3.178   2.452  12.711 -0.0015  0.5682  0.1293
  610TMC3     C 9094   3.029   2.783  12.894 -0.3532  0.3088  0.2684
  610TMC3     O 9095   3.000   2.745  13.008 -0.2918  0.2918 -0.1784
  610TMC3     H 9096   2.999   2.723  12.638  0.0745 -1.0987 -1.4279
  610TMC3    H1 9097   3.207   2.636  12.992  0.8226  0.0870 -0.6051
  610TMC3    H2 9098   3.224   2.365  12.666 -1.8840 -0.4727  0.2075
  610TMC3    C7 9099   3.293   2.387  12.904  0.3086 -0.2703 -0.1037
  610TMC3    C8 9100   3.039   2.495  12.523  0.7811 -0.1012 -0.1343
  610TMC3    O1 9101   3.384   2.432  12.972  0.3794  0.2591  0.1272
  610TMC3    O2 9102   3.016   2.573  12.431 -0.5384  0.5026 -0.2716
  611MPD2     C 9103   2.581   2.344  10.631  0.2615 -0.0139 -0.5656
  611MPD2    C1 9104   2.598   2.407  10.507  0.8215  1.3293 -0.3858
  611MPD2    C2 9105   2.696   2.494  10.486 -0.2244  0.1713  0.0139
  611MPD2    C3 9106   2.784   2.523  10.588  0.1356  0.2112 -0.4651
  611MPD2    C4 9107   2.763   2.467  10.714 -0.4822  0.2532 -0.1833
  611MPD2    C5 9108   2.652   2.385  10.737 -0.0111 -0.6928  0.3486
  611MPD2     H 9109   2.706   2.551  10.394 -2.4853  1.5510  0.6065
  611MPD2    H1 9110   2.832   2.484  10.795  1.0812  0.8501 -1.6482
  611MPD2    H2 9111   2.490   2.289  10.653 -1.0150  2.5668  0.6548
  611MPD2    H3 9112   2.621   2.351  10.835  0.9858 -1.2960  0.4492
  611MPD2     N 9113   2.904   2.601  10.571 -0.0138 -0.0962 -0.0684
  611MPD2    H5 9114   2.953   2.630  10.655  1.8459  0.1086 -1.2174
  611MPD2    N1 9115   2.491   2.384  10.415  0.1659 -0.3133 -0.0116
  611MPD2    H7 9116   2.413   2.327  10.448 -1.5134  1.0116 -1.6702
  612TMC3    C1 9117   3.066   2.741  10.474 -0.4135 -0.1640  0.1098
  612TMC3    C2 9118   3.093   2.782  10.606  0.0652  0.0146  0.3985
  612TMC3    C3 9119   3.200   2.873  10.614 -0.4597 -0.1695 -0.3493
  612TMC3    C4 9120   3.131   2.788  10.362 -0.0198 -0.8563  0.6421
  612TMC3    C5 9121   3.223   2.883  10.377 -0.4733 -0.3428  0.7244
  612TMC3    C6 9122   3.258   2.930  10.500  0.6942 -1.0972 -1.0467
  612TMC3     C 9123   2.958   2.644  10.455 -0.9497 -0.3892  0.5541
  612TMC3     O 9124   2.928   2.601  10.346 -0.3883 -0.0037  0.1419
  612TMC3     H 9125   3.025   2.780  10.691 -0.6348  0.1498 -0.1556
  612TMC3    H1 9126   3.090   2.751  10.268  0.1367  0.8948 -0.1105
  612TMC3    H2 9127   3.331   3.009  10.513 -0.8472  0.4076 -1.4869
  612TMC3    C7 9128   3.309   2.905  10.262  0.5512  0.2226 -0.2553
  612TMC3    C8 9129   3.225   2.951  10.734 -0.1813 -0.0735  0.3350
  612TMC3    O1 9130   3.296   2.829  10.167  0.1765  0.3188 -0.1648
  612TMC3    O2 9131   3.295   3.050  10.725 -0.1506 -0.3782  0.3798
  613MPD2     C 9132   1.657   0.878  16.215 -0.0604 -0.4164  0.1626
  613MPD2    C1 9133   1.569   0.798  16.144 -0.2313 -0.4222 -0.5862
  613MPD2    C2 9134   1.597   0.660  16.127 -0.1592  0.3821 -0.0895
  613MPD2    C3 9135   1.712   0.606  16.181  0.3588  0.1897 -0.8578
  613MPD2    C4 9136   1.794   0.681  16.253  0.1204  0.6396  0.1426
  613MPD2    C5 9137   1.769   0.821  16.269  0.0770  0.0833 -0.5044
  613MPD2     H 9138   1.531   0.590  16.078 -2.5794  1.2014  1.9390
  613MPD2    H1 9139   1.881   0.633  16.297 -0.7904  1.1929  2.5379
  613MPD2    H2 9140   1.645   0.983  16.240 -5.5144 -1.3656  1.5992
  613MPD2    H3 9141   1.822   0.873  16.348 -0.4913 -0.1464  0.0302
  613MPD2     N 9142   1.763   0.477  16.159 -0.0096 -0.9796  0.0287
  613MPD2    H5 9143   1.857   0.455  16.192  0.6523  2.5693  0.4494
  613MPD2    N1 9144   1.464   0.861  16.083  0.3871 -0.2255 -0.2227
  613MPD2    H7 9145   1.468   0.962  16.074  0.3421 -0.0182  2.1777
  614TMC3    C1 9146   1.333   0.851  15.889  0.6226 -0.2757 -0.7976
  614TMC3    C2 9147   1.439   0.882  15.812 -0.1802  0.5879  0.0081
  614TMC3    C3 9148   1.450   0.840  15.681  0.8056  0.2303  0.0296
  614TMC3    C4 9149   1.235   0.781  15.829  0.4732 -0.7889  0.4537
  614TMC3    C5 9150   1.240   0.742  15.697 -0.1016  0.4407 -0.2843
  614TMC3    C6 9151   1.354   0.757  15.627 -0.6814  0.1805 -0.8459
  614TMC3     C 9152   1.371   0.793  16.016  0.5690 -0.9941  0.4803
  614TMC3     O 9153   1.319   0.688  16.049  0.1581 -0.2759 -0.5112
  614TMC3     H 9154   1.516   0.950  15.847 -1.4298  2.9082 -1.7365
  614TMC3    H1 9155   1.141   0.766  15.881  0.0221  0.1754 -0.0692
  614TMC3    H2 9156   1.356   0.726  15.523  0.4796  1.3872 -1.1745
  614TMC3    C7 9157   1.121   0.690  15.637 -1.1692  0.3847  0.5416
  614TMC3    C8 9158   1.589   0.829  15.640  0.1780 -0.1196  0.1965
  614TMC3    O1 9159   1.015   0.733  15.675  0.6039  0.1489 -0.2374
  614TMC3    O2 9160   1.668   0.815  15.730 -0.9853  0.5984  0.2298
  615MPD2     C 9161   1.441   1.584  16.512 -0.4529 -0.2117  1.0951
  615MPD2    C1 9162   1.313   1.637  16.497  0.4728  0.3845  0.0205
  615MPD2    C2 9163   1.227   1.587  16.404  0.0272  0.2257  0.2963
  615MPD2    C3 9164   1.277   1.492  16.317 -0.4732  0.3403 -0.8697
  615MPD2    C4 9165   1.399   1.429  16.338 -0.5530  0.5567 -0.0133
  615MPD2    C5 9166   1.479   1.480  16.433 -0.8999 -0.4250 -0.7316
  615MPD2     H 9167   1.124   1.619  16.394  0.4491  1.0654 -1.4765
  615MPD2    H1 9168   1.430   1.340  16.286 -3.8787 -0.1789 -0.7769
  615MPD2    H2 9169   1.511   1.619  16.587  0.3664 -0.5906  0.5108
  615MPD2    H3 9170   1.575   1.439  16.462 -0.6767 -1.7412 -3.3661
  615MPD2     N 9171   1.203   1.450  16.206  0.1586  0.2177  0.0905
  615MPD2    H5 9172   1.260   1.393  16.144 -1.3002  1.1719 -2.1438
  615MPD2    N1 9173   1.280   1.758  16.561 -0.0739  0.5057  0.2126
  615MPD2    H7 9174   1.188   1.796  16.543  1.0390  3.1655  0.1904
  616TMC3    C1 9175   1.309   1.943  16.707 -0.5003 -0.0037  0.0892
  616TMC3    C2 9176   1.395   2.035  16.763 -0.0927  0.2027  0.6588
  616TMC3    C3 9177   1.340   2.150  16.818 -0.6262 -0.1789 -0.5277
  616TMC3    C4 9178   1.174   1.958  16.705 -0.0854 -0.5173 -0.2009
  616TMC3    C5 9179   1.128   2.073  16.769  0.2665  0.3798 -0.4844
  616TMC3    C6 9180   1.206   2.171  16.815 -0.3984  1.0339 -0.4391
  616TMC3     C 9181   1.372   1.840  16.631  0.7147  0.7351  0.7916
  616TMC3     O 9182   1.494   1.835  16.628 -0.5709 -0.0210  0.0192
  616TMC3     H 9183   1.501   2.020  16.750 -0.3298  2.2432 -3.4855
  616TMC3    H1 9184   1.115   1.869  16.684 -0.5856 -0.2125 -0.0753
  616TMC3    H2 9185   1.162   2.260  16.857  1.1665  1.1282  0.9907
  616TMC3    C7 9186   0.986   2.075  16.789  0.1712 -0.3859 -0.0605
  616TMC3    C8 9187   1.419   2.234  16.913 -0.0727 -0.5603 -0.5364
  616TMC3    O1 9188   0.926   1.982  16.734  0.1181  0.1279  0.0527
  616TMC3    O2 9189   1.357   2.325  16.967  0.0127 -0.0917 -0.0510
  617MPD2     C 9190   3.804   4.442  13.756 -0.0187 -0.2538 -0.2455
  617MPD2    C1 9191   3.864   4.326  13.756  0.1521  0.2296 -1.2965
  617MPD2    C2 9192   3.796   4.219  13.812  0.0155  0.0533 -0.4253
  617MPD2    C3 9193   3.672   4.232  13.866 -0.5838  0.3301 -0.2567
  617MPD2    C4 9194   3.607   4.353  13.844  0.3274 -0.0040 -0.9396
  617MPD2    C5 9195   3.684   4.457  13.803 -0.4540 -0.4074 -0.0646
  617MPD2     H 9196   3.852   4.130  13.835  1.6880  1.3769  0.6337
  617MPD2    H1 9197   3.503   4.374  13.865  1.0916  1.0218  1.8722
  617MPD2    H2 9198   3.848   4.533  13.716 -1.5199  0.5638 -0.0530
  617MPD2    H3 9199   3.648   4.560  13.806  0.0379 -0.2107 -0.8417
  617MPD2     N 9200   3.600   4.128  13.929 -0.0920 -0.6038  0.1783
  617MPD2    H5 9201   3.505   4.149  13.960 -0.1434  0.5897 -0.7621
  617MPD2    N1 9202   4.001   4.321  13.698  0.6006  0.2683 -0.0898
  617MPD2    H7 9203   4.035   4.413  13.670  0.6688  0.5033  0.7603
  618TMC3    C1 9204   4.209   4.225  13.635 -0.4331 -0.5938 -0.5181
  618TMC3    C2 9205   4.301   4.180  13.721 -0.1005  0.0429  0.3407
  618TMC3    C3 9206   4.429   4.211  13.692  0.3771  0.1166 -0.8372
  618TMC3    C4 9207   4.236   4.309  13.527  0.8061  0.8773  0.1438
  618TMC3    C5 9208   4.365   4.319  13.486 -0.7033 -0.1108 -0.2524
  618TMC3    C6 9209   4.465   4.270  13.566 -0.0849  0.1253  0.7989
  618TMC3     C 9210   4.072   4.205  13.687 -0.5135 -0.0145 -0.1650
  618TMC3     O 9211   4.050   4.093  13.729  0.6497 -0.2065  0.4197
  618TMC3     H 9212   4.268   4.127  13.809 -2.0599  1.0201  0.1861
  618TMC3    H1 9213   4.160   4.339  13.456  0.2516  0.1003  0.4050
  618TMC3    H2 9214   4.571   4.283  13.544 -0.1658  0.5913  0.6888
  618TMC3    C7 9215   4.381   4.326  13.340 -0.4911  0.3701 -0.0105
  618TMC3    C8 9216   4.522   4.195  13.803  0.6891 -0.0264  0.4167
  618TMC3    O1 9217   4.281   4.322  13.266 -0.0223 -0.2306 -0.4797
  618TMC3    O2 9218   4.471   4.197  13.917  0.1697 -0.4131  0.2035
  619MPD2     C 9219   0.606   0.624  13.412  0.0648  0.1354 -0.3927
  619MPD2    C1 9220   0.534   0.738  13.446 -0.4551  0.3424  0.2356
  619MPD2    C2 9221   0.439   0.742  13.540  0.7173  0.1257 -1.3529
  619MPD2    C3 9222   0.410   0.627  13.614  0.7697 -0.6023 -0.9235
  619MPD2    C4 9223   0.496   0.517  13.599  0.6673 -0.2025 -0.1830
  619MPD2    C5 9224   0.594   0.517  13.497 -0.4243 -0.0034 -0.3248
  619MPD2     H 9225   0.394   0.838  13.563 -0.3794 -0.5219 -0.8107
  619MPD2    H1 9226   0.480   0.430  13.661 -2.8526  0.4507 -0.1438
  619MPD2    H2 9227   0.679   0.626  13.332  0.2354  0.6835 -0.2208
  619MPD2    H3 9228   0.658   0.430  13.487 -1.8137 -1.1538  0.8402
  619MPD2     N 9229   0.318   0.627  13.728 -0.1856  0.4500  0.4670
  619MPD2    H5 9230   0.314   0.543  13.785  0.3950 -0.1609 -0.3701
  619MPD2    N1 9231   0.557   0.857  13.375 -0.2437 -0.8123 -0.1699
  619MPD2    H7 9232   0.515   0.936  13.422  0.3595 -0.8084  0.3711
  620TMC3    C1 9233   0.614   1.002  13.197 -0.1940 -0.3587 -0.0505
  620TMC3    C2 9234   0.616   1.032  13.070  0.4705  0.2707  0.1225
  620TMC3    C3 9235   0.593   1.158  13.029 -0.1037 -0.2244  1.0127
  620TMC3    C4 9236   0.603   1.096  13.293  0.1493 -0.4774  0.0172
  620TMC3    C5 9237   0.598   1.226  13.253 -0.0377 -0.4249  0.0580
  620TMC3    C6 9238   0.590   1.259  13.124 -0.1250  0.0468  0.1906
  620TMC3     C 9239   0.613   0.865  13.248  0.3830  0.3940 -0.4863
  620TMC3     O 9240   0.627   0.778  13.165  0.5019  0.2309 -0.4039
  620TMC3     H 9241   0.611   0.950  13.000  1.7050 -0.5519  0.9969
  620TMC3    H1 9242   0.637   1.075  13.394  1.4638  0.8059 -0.1654
  620TMC3    H2 9243   0.574   1.360  13.089  1.3940  0.6951  1.3654
  620TMC3    C7 9244   0.592   1.337  13.346  0.0018 -0.0254  0.3471
  620TMC3    C8 9245   0.551   1.182  12.893  0.6970  0.5802 -0.1473
  620TMC3    O1 9246   0.539   1.441  13.307  0.0809  0.4322  0.2935
  620TMC3    O2 9247   0.610   1.113  12.811  0.4639  0.0598  0.4949
  621MPD2     C 9248   0.257   1.526   9.924 -0.3943  0.0917 -0.1633
  621MPD2    C1 9249   0.331   1.620   9.991  0.2303 -0.5769  0.3968
  621MPD2    C2 9250   0.439   1.687   9.930  0.4731 -0.2597  0.0677
  621MPD2    C3 9251   0.463   1.664   9.794  0.1702 -0.1792  0.5832
  621MPD2    C4 9252   0.386   1.562   9.734 -0.3513 -0.7644  0.2965
  621MPD2    C5 9253   0.279   1.501   9.794 -0.1521  0.3569 -0.5211
  621MPD2     H 9254   0.503   1.750   9.990 -1.7893  2.3182 -0.1872
  621MPD2    H1 9255   0.394   1.546   9.627 -1.8855 -1.6740  0.3214
  621MPD2    H2 9256   0.182   1.470   9.978 -0.5595  1.1893  0.7379
  621MPD2    H3 9257   0.210   1.432   9.746  0.4640 -0.2705 -0.5079
  621MPD2     N 9258   0.587   1.717   9.742 -0.3013  1.1729  0.2415
  621MPD2    H5 9259   0.650   1.760   9.809  1.2928  1.8046 -1.6549
  621MPD2    N1 9260   0.302   1.649  10.125  0.4793  0.0749  0.2816
  621MPD2    H7 9261   0.359   1.718  10.173  2.6883 -1.5190 -0.0546
  622TMC3    C1 9262   0.221   1.626  10.345  0.4175  0.0955  0.1144
  622TMC3    C2 9263   0.207   1.761  10.358 -0.3225 -0.4765 -1.5229
  622TMC3    C3 9264   0.206   1.802  10.496 -0.3411 -0.1111 -0.6111
  622TMC3    C4 9265   0.239   1.536  10.450 -0.3166 -0.6821 -0.0575
  622TMC3    C5 9266   0.218   1.583  10.578  0.4575  0.6352 -0.4657
  622TMC3    C6 9267   0.210   1.718  10.603 -0.5355 -0.4035 -0.1896
  622TMC3     C 9268   0.227   1.569  10.208 -0.3424  0.2656  0.1268
  622TMC3     O 9269   0.205   1.449  10.200 -0.3348 -0.5145  0.0274
  622TMC3     H 9270   0.200   1.836  10.280  0.0700 -0.7488 -1.8214
  622TMC3    H1 9271   0.265   1.434  10.425  0.9293 -0.7593  1.5358
  622TMC3    H2 9272   0.192   1.768  10.698  1.1518  0.6189 -0.4154
  622TMC3    C7 9273   0.220   1.501  10.703 -0.6856 -0.0228 -0.5456
  622TMC3    C8 9274   0.227   1.947  10.520  0.0110  0.1359 -0.0061
  622TMC3    O1 9275   0.187   1.564  10.804 -0.0028  0.1773 -0.6857
  622TMC3    O2 9276   0.286   1.970  10.624  0.4243 -0.0430  0.2777
  623MPD2     C 9277   4.359   1.475  15.713 -0.7968  0.5788  0.0974
  623MPD2    C1 9278   4.299   1.509  15.834  0.3076 -0.6838 -0.0404
  623MPD2    C2 9279   4.382   1.532  15.943 -0.5146  0.3726  0.1464
  623MPD2    C3 9280   4.519   1.526  15.932 -0.2875 -0.6906  0.1594
  623MPD2    C4 9281   4.575   1.489  15.815  0.2462  0.3088  0.2247
  623MPD2    C5 9282   4.497   1.463  15.705  0.5982  0.4182  0.1095
  623MPD2     H 9283   4.343   1.568  16.037  2.9681  0.6184  1.4710
  623MPD2    H1 9284   4.682   1.474  15.815  0.3681  1.2333 -0.7979
  623MPD2    H2 9285   4.307   1.439  15.625  0.3015 -0.4944 -0.1176
  623MPD2    H3 9286   4.542   1.432  15.612 -0.9933 -1.8358  0.0980
  623MPD2     N 9287   4.592   1.547  16.059  0.1148 -0.0769 -0.6039
  623MPD2    H5 9288   4.543   1.595  16.133  0.6326 -1.5089  0.6519
  623MPD2    N1 9289   4.158   1.528  15.850  0.3166 -0.2470  0.1150
  623MPD2    H7 9290   4.122   1.554  15.942  1.3714  0.6393  0.2805
  624TMC3    C1 9291   0.108   1.612  16.415 -0.3124 -0.2782  0.3280
  624TMC3    C2 9292   0.017   1.551  16.497  0.1047 -0.6101 -0.2504
  624TMC3    C3 9293   4.677   1.459  16.441  0.2568 -0.1277  0.2327
  624TMC3    C4 9294   0.101   1.615  16.277  0.3841  0.5251 -0.6030
  624TMC3    C5 9295   0.012   1.525  16.227 -0.0323 -0.4896  0.2453
  624TMC3    C6 9296   4.669   1.454  16.303 -0.2940  0.0270  0.4182
  624TMC3     C 9297   0.225   1.658  16.480 -0.0434  0.3240 -0.1485
  624TMC3     O 9298   0.245   1.620  16.593 -0.9895 -0.6537  0.0930
  624TMC3     H 9299   0.030   1.546  16.604 -0.8063 -0.6385 -0.1418
  624TMC3    H1 9300   0.164   1.678  16.216 -2.6972  3.1551 -1.1169
  624TMC3    H2 9301   4.589   1.405  16.249  0.8369 -0.3305 -0.9273
  624TMC3    C7 9302   4.724   1.516  16.083 -0.1923  0.1639 -0.3353
  624TMC3    C8 9303   4.548   1.437  16.502  0.1164  0.0169  0.7205
  624TMC3    O1 9304   0.079   1.517  16.009 -0.3170 -0.7078  0.4914
  624TMC3    O2 9305   4.479   1.351  16.443 -0.0292 -0.3546 -0.1547
  625MPD2     C 9306   0.652   3.518   0.872  0.3646  0.1673 -0.4355
  625MPD2    C1 9307   0.671   3.653   0.860 -0.9651  0.4400 -0.2783
  625MPD2    C2 9308   0.783   3.711   0.922  0.2585 -0.4055 -0.5058
  625MPD2    C3 9309   0.872   3.638   0.995 -0.0826  0.2198  0.2410
  625MPD2    C4 9310   0.852   3.501   0.997 -0.6476 -0.7148  0.3836
  625MPD2    C5 9311   0.746   3.441   0.938  0.2822 -0.3997 -0.4625
  625MPD2     H 9312   0.792   3.819   0.915 -2.0313 -0.0396  2.1210
  625MPD2    H1 9313   0.917   3.435   1.053 -0.2374 -1.5060 -1.0475
  625MPD2    H2 9314   0.565   3.464   0.836 -0.7316 -0.0967  2.5592
  625MPD2    H3 9315   0.723   3.338   0.960  0.4061  0.1781  2.4188
  625MPD2     N 9316   0.977   3.710   1.049 -0.2463 -0.2638  0.2257
  625MPD2    H5 9317   0.986   3.807   1.020 -2.4761  0.0592  0.6544
  625MPD2    N1 9318   0.582   3.738   0.791 -0.4852  0.0685  0.4439
  625MPD2    H7 9319   0.607   3.836   0.786 -0.5362  0.0753  0.3230
  626TMC3    C1 9320   0.401   3.799   0.657  0.1638 -0.8998  0.1867
  626TMC3    C2 9321   0.326   3.774   0.545  0.6544 -0.0138  0.0497
  626TMC3    C3 9322   0.233   3.869   0.507  0.6495  0.1608 -1.1551
  626TMC3    C4 9323   0.386   3.906   0.736 -0.6588 -0.4346  0.1075
  626TMC3    C5 9324   0.286   3.999   0.698 -0.2423 -0.8107  0.4293
  626TMC3    C6 9325   0.208   3.986   0.584 -0.2935  0.4893 -0.3248
  626TMC3     C 9326   0.480   3.695   0.716  0.2268  0.0663 -0.3719
  626TMC3     O 9327   0.424   3.585   0.698  0.2056 -0.1047 -0.2794
  626TMC3     H 9328   0.350   3.686   0.486  0.7559 -0.8743  1.3654
  626TMC3    H1 9329   0.442   3.933   0.825  0.1698 -1.1718 -0.1912
  626TMC3    H2 9330   0.117   4.043   0.572 -0.9242 -0.3263  0.6770
  626TMC3    C7 9331   0.219   4.061   0.816  0.0165 -0.2075 -0.3096
  626TMC3    C8 9332   0.148   3.838   0.391 -0.1112  0.3775 -0.4478
  626TMC3    O1 9333   0.289   4.086   0.914  0.2628 -0.1140  0.3807
  626TMC3    O2 9334   0.139   3.722   0.354  0.0552 -1.0818  0.1907
  627MPD2     C 9335   3.590   2.947  14.188 -0.2616  0.2957  0.1798
  627MPD2    C1 9336   3.589   2.940  14.324  0.1326 -0.2993 -0.5600
  627MPD2    C2 9337   3.467   2.906  14.390 -0.2933 -0.9948  0.7895
  627MPD2    C3 9338   3.356   2.866  14.318 -0.0568 -0.5366  0.1980
  627MPD2    C4 9339   3.365   2.862  14.178  0.2439  0.0150  0.5400
  627MPD2    C5 9340   3.481   2.904  14.119  0.6875  0.2137 -1.1969
  627MPD2     H 9341   3.469   2.883  14.496  0.5335 -1.1082  0.7476
  627MPD2    H1 9342   3.276   2.835  14.122  1.0939  1.2060 -1.3555
  627MPD2    H2 9343   3.681   2.968  14.132  0.2714  1.5823  1.5272
  627MPD2    H3 9344   3.487   2.900  14.010  0.3518 -1.4677 -1.1478
  627MPD2     N 9345   3.243   2.815  14.389  0.5896 -0.3014  0.0789
  627MPD2    H5 9346   3.251   2.814  14.490  0.3542  2.8412  0.1093
  627MPD2    N1 9347   3.706   2.972  14.397  0.1976  0.4196  0.3254
  627MPD2    H7 9348   3.690   2.996  14.494 -3.9291  0.0167 -0.2480
  628TMC3    C1 9349   3.926   2.994  14.452  0.0132  0.0100 -0.4212
  628TMC3    C2 9350   4.057   2.947  14.433 -0.8085  0.2943 -0.4541
  628TMC3    C3 9351   4.155   2.992  14.515  0.2247 -0.0688 -0.6508
  628TMC3    C4 9352   3.894   3.083  14.551 -0.1440 -0.0312  0.0979
  628TMC3    C5 9353   4.000   3.129  14.629  0.7637 -0.7053  0.5291
  628TMC3    C6 9354   4.127   3.076  14.626 -0.4310 -0.1101  0.2084
  628TMC3     C 9355   3.828   2.944  14.354  1.2401 -0.3716  0.2916
  628TMC3     O 9356   3.867   2.869  14.269 -0.2352  0.1117 -0.2150
  628TMC3     H 9357   4.087   2.890  14.346 -1.4782 -1.6044  0.5744
  628TMC3    H1 9358   3.795   3.127  14.555  0.3518  1.0788  0.3518
  628TMC3    H2 9359   4.209   3.123  14.679  1.4201 -0.0875 -2.6773
  628TMC3    C7 9360   3.990   3.265  14.676 -0.0887 -0.1120  0.5401
  628TMC3    C8 9361   4.284   2.922  14.533 -0.7796  0.3577  0.6324
  628TMC3    O1 9362   4.057   3.293  14.778  0.2474 -0.3787 -0.0755
  628TMC3    O2 9363   4.354   2.918  14.433  0.1760 -0.3396 -0.4755
  629MPD2     C 9364   1.841   2.395  17.152  0.2277  0.5395 -0.6516
  629MPD2    C1 9365   1.875   2.324  17.040  0.6415  0.0471  0.1910
  629MPD2    C2 9366   1.781   2.262  16.958 -0.1105 -0.4504 -0.4209
  629MPD2    C3 9367   1.652   2.265  16.993  0.4091 -0.5335 -0.2192
  629MPD2    C4 9368   1.615   2.324  17.105  0.7502 -0.3379 -0.0903
  629MPD2    C5 9369   1.707   2.401  17.174 -0.2594  0.0417  0.0326
  629MPD2     H 9370   1.804   2.216  16.862  0.2549  1.0076 -1.0329
  629MPD2    H1 9371   1.509   2.324  17.127  0.1832 -1.0744 -2.7180
  629MPD2    H2 9372   1.905   2.440  17.227 -2.3187 -0.1674  1.9455
  629MPD2    H3 9373   1.669   2.459  17.258  1.9378 -0.9197  1.6800
  629MPD2     N 9374   1.555   2.209  16.906  0.5767 -0.3468 -0.5534
  629MPD2    H5 9375   1.579   2.152  16.825 -0.1902 -1.3401 -0.0909
  629MPD2    N1 9376   2.015   2.305  17.013  0.2162 -0.2346  0.8646
  629MPD2    H7 9377   2.073   2.353  17.081  0.2691 -0.3130  0.8755
  630TMC3    C1 9378   2.210   2.265  16.895  0.0915  0.3040 -0.0186
  630TMC3    C2 9379   2.237   2.333  16.778 -0.9269  0.2579 -0.0359
  630TMC3    C3 9380   2.372   2.361  16.752 -0.1523 -0.0036  0.3047
  630TMC3    C4 9381   2.309   2.208  16.970  0.4242 -0.3214  0.4385
  630TMC3    C5 9382   2.434   2.250  16.948  0.0842  0.5122 -0.0518
  630TMC3    C6 9383   2.474   2.329  16.839  0.3912 -0.1606  0.4806
  630TMC3     C 9384   2.070   2.236  16.909 -0.1600  0.2785 -0.1482
  630TMC3     O 9385   2.021   2.179  16.814 -0.0070 -0.0414 -0.5931
  630TMC3     H 9386   2.165   2.390  16.721 -1.5128 -0.8291 -0.3712
  630TMC3    H1 9387   2.292   2.171  17.070  1.0946 -1.8647 -0.0237
  630TMC3    H2 9388   2.577   2.349  16.811  0.8599  0.0296  2.3673
  630TMC3    C7 9389   2.537   2.204  17.048 -1.0461 -0.1678  0.4424
  630TMC3    C8 9390   2.408   2.425  16.632  0.8593 -0.6196 -0.0577
  630TMC3    O1 9391   2.509   2.117  17.129  0.0576  0.1997  0.4115
  630TMC3    O2 9392   2.513   2.488  16.628  0.6448  0.3466 -0.2969
  631MPD2     C 9393   0.233   1.457  15.733  0.5453 -0.2984  0.1891
  631MPD2    C1 9394   0.315   1.547  15.677  0.3903  0.5106  0.1483
  631MPD2    C2 9395   0.446   1.540  15.702 -1.0002  0.7178 -0.1367
  631MPD2    C3 9396   0.494   1.447  15.799 -0.1390 -0.1528 -0.5668
  631MPD2    C4 9397   0.404   1.359  15.856 -0.6944 -0.6823 -0.6751
  631MPD2    C5 9398   0.278   1.362  15.818  0.0914 -0.0715  0.4414
  631MPD2     H 9399   0.511   1.607  15.646  0.4322  0.2051  0.9089
  631MPD2    H1 9400   0.432   1.274  15.917 -1.9210  0.8879  2.0793
  631MPD2    H2 9401   0.129   1.464  15.704  0.7546  3.8347  0.4296
  631MPD2    H3 9402   0.211   1.287  15.858  0.2243 -1.2256 -1.4980
  631MPD2     N 9403   0.635   1.441  15.818  0.5591 -0.6262  0.0619
  631MPD2    H5 9404   0.689   1.482  15.742 -2.0195 -0.9280 -1.9546
  631MPD2    N1 9405   0.255   1.641  15.592  0.4152  1.0835 -0.2864
  631MPD2    H7 9406   0.157   1.631  15.571  0.6180  0.1706 -0.7908
  632TMC3    C1 9407   0.212   1.852  15.483  0.1572 -0.6947 -0.3055
  632TMC3    C2 9408   0.133   1.900  15.582  1.7368  0.0167  0.0224
  632TMC3    C3 9409   0.118   2.037  15.592 -0.2488 -0.3901  0.2246
  632TMC3    C4 9410   0.267   1.933  15.390  0.2116  0.3034 -0.3494
  632TMC3    C5 9411   0.232   2.069  15.394  0.6274 -0.2450 -0.2339
  632TMC3    C6 9412   0.168   2.121  15.500  0.0438 -0.5810 -0.6424
  632TMC3     C 9413   0.312   1.756  15.540 -0.6110  0.3325  0.1957
  632TMC3     O 9414   0.432   1.798  15.556 -0.2243  0.6599 -0.1841
  632TMC3     H 9415   0.076   1.842  15.654 -0.7647  0.0334 -1.9414
  632TMC3    H1 9416   0.328   1.889  15.312 -0.3465  0.7671 -1.0397
  632TMC3    H2 9417   0.133   2.223  15.504 -0.1708 -0.8006  2.6388
  632TMC3    C7 9418   0.276   2.162  15.292 -0.0459 -0.2329 -0.0062
  632TMC3    C8 9419   0.059   2.091  15.711  0.1228 -0.1102 -0.0750
  632TMC3    O1 9420   0.285   2.277  15.325 -0.0262 -0.0288 -0.8807
  632TMC3    O2 9421   4.721   2.020  15.772  0.1327  0.3292 -0.2744
  633MPD2     C 9422   4.487   4.700  17.411  0.4615 -0.1069 -0.8211
  633MPD2    C1 9423   4.469   4.628  17.299  0.5808  0.5149 -0.1433
  633MPD2    C2 9424   4.448   4.491  17.321 -0.0035 -0.5516 -0.2309
  633MPD2    C3 9425   4.454   4.436  17.453  0.6298  0.9513  0.2897
  633MPD2    C4 9426   4.495   4.511  17.556  0.1794 -0.0233  0.7933
  633MPD2    C5 9427   4.507   4.646  17.538  0.3440  0.0517  0.5434
  633MPD2     H 9428   4.425   4.434  17.232  0.2335 -1.6433  0.4080
  633MPD2    H1 9429   4.502   4.469  17.656 -0.1498  0.1239  0.8800
  633MPD2    H2 9430   4.496   0.070  17.407  0.5439 -0.2037 -3.3520
  633MPD2    H3 9431   4.527   4.704  17.628  1.7101  2.6219 -1.4155
  633MPD2     N 9432   4.469   4.303  17.473 -0.2094 -0.0272  0.9774
  633MPD2    H5 9433   4.490   4.273  17.568  1.5568 -1.4802  0.1234
  633MPD2    N1 9434   4.457   4.683  17.172 -0.0147  0.0111  0.1130
  633MPD2    H7 9435   4.438   4.621  17.093 -0.1785  0.3009 -0.0772
  634TMC3    C1 9436   4.531   0.098  17.010  0.1227  0.6156  0.5596
  634TMC3    C2 9437   4.577   4.725  16.947 -0.8108  0.4840 -0.2346
  634TMC3    C3 9438   4.618   0.008  16.821  0.6762 -0.0802  0.2478
  634TMC3    C4 9439   4.512   0.218  16.949  0.0584  0.8540 -0.1985
  634TMC3    C5 9440   4.553   0.231  16.826  0.2370 -0.0716  0.3288
  634TMC3    C6 9441   4.603   0.125  16.752 -0.4607  0.6883 -0.0864
  634TMC3     C 9442   4.464   0.080  17.139 -0.7029  0.0798  0.4326
  634TMC3     O 9443   4.443   0.182  17.205 -0.1208  0.0499 -0.0596
  634TMC3     H 9444   4.594   4.625  16.986 -0.1775 -0.1460 -2.0828
  634TMC3    H1 9445   4.474   0.299  17.010  0.9851  1.5803 -0.5792
  634TMC3    H2 9446   4.651   0.146  16.658  2.0424  0.4681  1.1526
  634TMC3    C7 9447   4.510   0.348  16.749 -0.0541  0.4436 -0.1153
  634TMC3    C8 9448   4.657   4.626  16.745 -0.1304 -0.0134  0.3653
  634TMC3    O1 9449   4.565   0.361  16.642  0.2895 -0.5220 -0.3596
  634TMC3    O2 9450   4.701   4.529  16.805  0.7644 -0.6694 -0.4104
  635TMC3    C1 9451   0.462   3.611   1.340 -0.5248  0.1207 -0.1816
  635TMC3    C2 9452   0.423   3.663   1.455 -0.1476 -0.2519  0.1481
  635TMC3    C3 9453   0.473   3.788   1.486  0.3645 -0.1838  0.4106
  635TMC3    C4 9454   0.553   3.674   1.263  0.1657  0.5892 -0.2891
  635TMC3    C5 9455   0.607   3.787   1.299  0.3170  0.7482 -0.0755
  635TMC3    C6 9456   0.565   3.854   1.406  0.5059 -0.1466  0.0298
  635TMC3     C 9457   0.415   3.476   1.305 -0.4807  0.5620 -0.4047
  635TMC3     O 9458   0.432   3.448   1.187  0.5021  0.4730  0.5116
  635TMC3     H 9459   0.352   3.617   1.524  0.0544  0.1557  0.6293
  635TMC3    H1 9460   0.573   3.635   1.164 -1.4620  0.3682 -0.5309
  635TMC3    H2 9461   0.619   3.940   1.445  1.0100 -0.7169  0.5841
  635TMC3    C7 9462   0.696   3.847   1.207 -0.9300  1.2475 -0.4184
  635TMC3    C8 9463   0.432   3.861   1.600 -0.2317  0.3466  0.3915
  635TMC3    O1 9464   0.653   3.894   1.104  0.1376  0.4553  0.5155
  635TMC3    O2 9465   0.489   3.967   1.632  0.0798  0.8723  0.5483
  636MPD2     C 9466   1.128   0.283  15.717  0.1289 -0.2951 -0.6317
  636MPD2    C1 9467   1.190   0.356  15.816 -0.1918 -0.6902  0.0764
  636MPD2    C2 9468   1.324   0.328  15.845  1.2305  0.5845 -0.3161
  636MPD2    C3 9469   1.394   0.225  15.782 -0.1605 -0.2606  0.4710
  636MPD2    C4 9470   1.327   0.153  15.685 -0.6262 -0.2079 -0.1066
  636MPD2    C5 9471   1.202   0.190  15.650 -0.0481  0.1206 -0.9662
  636MPD2     H 9472   1.375   0.382  15.923 -0.2501 -0.7058  1.5557
  636MPD2    H1 9473   1.378   0.072  15.634  1.0912  0.7012  0.1719
  636MPD2    H2 9474   1.026   0.298  15.685 -0.9221  1.4026  3.4767
  636MPD2    H3 9475   1.151   0.134  15.572  0.4285 -0.7389 -0.6529
  636MPD2     N 9476   1.519   0.191  15.833 -0.2395 -0.0681  0.0158
  636MPD2    H5 9477   1.550   0.251  15.908  0.0821 -0.1572 -0.0471
  636MPD2    N1 9478   1.127   0.457  15.891 -0.0287  0.0473  0.0093
  636MPD2    H7 9479   1.189   0.514  15.948 -1.2798 -0.1948  1.6028
  637TMC3    C1 9480   1.742   0.132  15.837 -0.1198  0.0098  0.2163
  637TMC3    C2 9481   1.718   0.180  15.962 -0.3779 -0.5633  0.1117
  637TMC3    C3 9482   1.788   0.282  16.026  0.1566 -0.7378 -0.1154
  637TMC3    C4 9483   1.835   0.208  15.767  0.0947  0.4016  0.3834
  637TMC3    C5 9484   1.917   0.302  15.825 -0.2017  0.6097 -0.1253
  637TMC3    C6 9485   1.897   0.342  15.959  0.0033 -0.7105  0.5861
  637TMC3     C 9486   1.613   0.116  15.770 -0.2509  0.1239 -0.0055
  637TMC3     O 9487   1.602   0.031  15.684  0.6236 -0.3622  0.2803
  637TMC3     H 9488   1.638   0.142  16.023 -1.4645  1.5597  0.0107
  637TMC3    H1 9489   1.835   0.186  15.661  0.2400 -2.0646  0.8894
  637TMC3    H2 9490   1.944   0.432  15.997 -2.6621  0.5989  0.7302
  637TMC3    C7 9491   1.928   0.424  15.746  0.1093 -0.1964 -0.5960
  637TMC3    C8 9492   1.700   0.380  16.086 -0.0403 -0.1237  0.1376
  637TMC3    O1 9493   1.926   0.531  15.806 -0.0460  0.1228 -0.2403
  637TMC3    O2 9494   1.585   0.385  16.043  0.1767 -0.1417  0.1544
  638MPD2     C 9495   1.111   3.878  14.928 -0.4875  0.1475 -0.2282
  638MPD2    C1 9496   1.190   3.772  14.916  0.5929  0.4812 -0.3600
  638MPD2    C2 9497   1.153   3.653  14.978 -0.0506 -0.1502 -0.2531
  638MPD2    C3 9498   1.036   3.646  15.053  0.5653 -0.3413 -0.1109
  638MPD2    C4 9499   0.960   3.757  15.059  0.0084 -0.8013  0.8553
  638MPD2    C5 9500   0.996   3.873  15.003 -0.1317  0.9676  0.2904
  638MPD2     H 9501   1.222   3.571  14.996 -0.9655 -0.5251  1.5494
  638MPD2    H1 9502   0.869   3.753  15.117  1.1636  2.4915  2.8901
  638MPD2    H2 9503   1.143   3.972  14.885  0.3463  0.3733  0.8617
  638MPD2    H3 9504   0.920   3.946  14.982 -0.0447  1.5927  2.2355
  638MPD2     N 9505   1.008   3.518  15.109  0.0881 -0.0726  0.2629
  638MPD2    H5 9506   1.080   3.447  15.097 -0.5664 -0.4609 -1.4005
  638MPD2    N1 9507   1.302   3.783  14.831  0.0477 -0.1823  0.3341
  638MPD2    H7 9508   1.325   3.874  14.791 -1.6551  1.3237  2.8079
  639TMC3    C1 9509   0.866   3.357  15.224 -0.0256  0.5574 -0.2498
  639TMC3    C2 9510   0.736   3.309  15.227 -0.1445  0.5890  0.3457
  639TMC3    C3 9511   0.706   3.182  15.264 -0.0086 -0.0370  0.5381
  639TMC3    C4 9512   0.967   3.278  15.244 -0.0761 -0.5359 -0.8211
  639TMC3    C5 9513   0.939   3.147  15.280  0.0102  0.1730 -0.5904
  639TMC3    C6 9514   0.813   3.102  15.291 -0.0570 -0.5910 -0.5042
  639TMC3     C 9515   0.887   3.494  15.186 -0.3243  1.4395  0.3049
  639TMC3     O 9516   0.786   3.564  15.192  0.4670  0.2784  0.5003
  639TMC3     H 9517   0.669   3.373  15.172 -0.3510  0.5982  0.6080
  639TMC3    H1 9518   1.065   3.319  15.267 -0.0456 -0.9193 -0.2701
  639TMC3    H2 9519   0.787   3.003  15.325 -1.6821  0.5951  1.6806
  639TMC3    C7 9520   1.035   3.043  15.276  0.6964 -0.1103  0.2249
  639TMC3    C8 9521   0.650   3.123  15.153 -0.9455  0.1068  0.0676
  639TMC3    O1 9522   1.008   2.940  15.331 -0.3508  0.1055 -0.5586
  639TMC3    O2 9523   0.713   3.148  15.049 -0.4957  0.1926  0.1491
  640MPD2     C 9524   1.576   2.852   9.627  0.3212  0.0164 -0.3809
  640MPD2    C1 9525   1.532   2.743   9.694  0.3148 -0.7219 -0.4382
  640MPD2    C2 9526   1.469   2.765   9.820  0.1418 -0.2292 -0.2742
  640MPD2    C3 9527   1.439   2.895   9.864 -0.3587 -0.2069  0.5479
  640MPD2    C4 9528   1.490   2.996   9.786  0.4112 -0.1585 -0.0902
  640MPD2    C5 9529   1.556   2.979   9.668 -0.8467 -0.3760  0.4197
  640MPD2     H 9530   1.428   2.689   9.885  0.8788 -0.4260 -0.0493
  640MPD2    H1 9531   1.477   3.100   9.813  1.4767  0.6534 -2.6415
  640MPD2    H2 9532   1.616   2.846   9.526  0.9470 -2.3821  0.0024
  640MPD2    H3 9533   1.590   3.065   9.612  0.2112 -1.7035 -1.0044
  640MPD2     N 9534   1.372   2.932   9.986 -0.2224 -0.2107  0.1313
  640MPD2    H5 9535   1.379   3.030  10.011  3.6983 -0.8152  1.3921
  640MPD2    N1 9536   1.570   2.614   9.639 -0.1923 -0.5144  0.7488
  640MPD2    H7 9537   1.621   2.615   9.551 -0.1691  0.7818  0.7732
  641TMC3    C1 9538   1.561   2.383   9.616  0.9413 -0.0741  0.0332
  641TMC3    C2 9539   1.612   2.264   9.659 -0.3507  0.4318  0.1394
  641TMC3    C3 9540   1.645   2.175   9.560  0.0459 -0.5336 -0.2775
  641TMC3    C4 9541   1.523   2.398   9.494 -0.3664 -0.2147 -1.3859
  641TMC3    C5 9542   1.533   2.297   9.404 -0.5514 -0.0633 -0.3193
  641TMC3    C6 9543   1.612   2.194   9.427 -0.0011  0.0256 -0.0605
  641TMC3     C 9544   1.549   2.494   9.706  0.3077  0.0209 -0.0927
  641TMC3     O 9545   1.512   2.466   9.823 -0.0661  0.5249 -0.0708
  641TMC3     H 9546   1.654   2.256   9.759  0.6347 -3.7690 -0.5780
  641TMC3    H1 9547   1.475   2.487   9.455 -0.1197  1.3270  1.8394
  641TMC3    H2 9548   1.640   2.124   9.349 -0.2099  1.0378 -1.0514
  641TMC3    C7 9549   1.501   2.325   9.270 -0.0761 -0.3653  0.6115
  641TMC3    C8 9550   1.744   2.068   9.586  0.0035  0.4832 -0.4378
  641TMC3    O1 9551   1.577   2.271   9.192 -0.5239  0.0665  0.2490
  641TMC3    O2 9552   1.735   1.978   9.503 -0.4083  0.0227  0.3814
  642TMC3    C1 9553   2.305   3.244  12.461 -0.5262 -0.4075 -0.1140
  642TMC3    C2 9554   2.431   3.278  12.414  0.0409  0.5063 -0.3253
  642TMC3    C3 9555   2.494   3.193  12.327  0.6897  0.0189  0.2181
  642TMC3    C4 9556   2.253   3.123  12.442 -0.3727  0.5597  0.5523
  642TMC3    C5 9557   2.309   3.045  12.343 -0.2341  0.0902  1.2080
  642TMC3    C6 9558   2.432   3.078  12.292 -0.9755 -0.1070 -0.2516
  642TMC3     C 9559   2.226   3.342  12.531  0.4923  0.2923  0.8377
  642TMC3     O 9560   2.109   3.307  12.550  0.0343 -0.3133 -0.5769
  642TMC3     H 9561   2.476   3.373  12.437 -1.8659  1.0946  0.9740
  642TMC3    H1 9562   2.154   3.095  12.475 -0.2139  2.0689  2.3439
  642TMC3    H2 9563   2.482   3.010  12.223  0.3230 -0.7499  1.3368
  642TMC3    C7 9564   2.272   2.909  12.337  0.2461 -0.5320 -0.4044
  642TMC3    C8 9565   2.635   3.210  12.292  0.3005 -0.4383 -0.1743
  642TMC3    O1 9566   2.264   2.855  12.228 -0.2095  0.1678  0.1458
  642TMC3    O2 9567   2.679   3.129  12.215 -0.5034 -0.4166  0.6817
  643TMC3    C1 9568   1.940   3.108   0.777  0.0296 -0.0516  0.0670
  643TMC3    C2 9569   1.812   3.099   0.737 -0.5307 -0.7608 -0.0564
  643TMC3    C3 9570   1.771   2.993   0.665 -0.1709  0.9681 -0.1322
  643TMC3    C4 9571   2.035   3.011   0.752 -0.4887  0.7121  0.2428
  643TMC3    C5 9572   1.994   2.908   0.666 -0.2025 -0.5269  0.0550
  643TMC3    C6 9573   1.862   2.896   0.641 -0.0098 -0.0338  0.4133
  643TMC3     C 9574   1.986   3.237   0.808 -0.3341 -0.5067  0.5207
  643TMC3     O 9575   1.907   3.328   0.780  0.1039  0.4820  0.4421
  643TMC3     H 9576   1.736   3.171   0.763  1.7255  2.0927 -1.3345
  643TMC3    H1 9577   2.141   3.021   0.770  0.1939 -1.5505 -2.4975
  643TMC3    H2 9578   1.831   2.816   0.574  1.1998  0.1840 -0.4095
  643TMC3    C7 9579   2.078   2.900   0.548  0.1226 -0.1830  0.0863
  643TMC3    C8 9580   1.679   3.016   0.559  0.0734  0.2645 -0.2116
  643TMC3    O1 9581   2.099   3.015   0.504  0.0224  0.8867  0.1168
  643TMC3    O2 9582   1.641   2.917   0.492  0.0627  0.4870 -0.4905
  644MPD2     C 9583   1.240   2.921   8.913 -0.2475  0.4176  0.3802
  644MPD2    C1 9584   1.301   2.916   9.040 -0.6025  0.4566 -0.2570
  644MPD2    C2 9585   1.227   2.949   9.149 -0.2757  0.5424 -0.6740
  644MPD2    C3 9586   1.095   2.976   9.141  0.5791  0.3537 -0.0227
  644MPD2    C4 9587   1.030   2.979   9.017 -0.3199  0.7701  0.3334
  644MPD2    C5 9588   1.111   2.971   8.902  0.4608  0.0272 -0.2283
  644MPD2     H 9589   1.258   2.950   9.253 -2.0305 -0.4624 -0.1391
  644MPD2    H1 9590   0.927   3.007   9.001 -0.8087 -1.6999 -0.7096
  644MPD2    H2 9591   1.294   2.897   8.822 -0.8608 -0.3371  0.2155
  644MPD2    H3 9592   1.070   2.988   8.803 -0.1977 -0.0988  0.0229
  644MPD2     N 9593   1.018   2.996   9.259  0.7435  0.4739 -0.0360
  644MPD2    H5 9594   1.070   2.999   9.346  2.2890 -0.4780 -0.9245
  644MPD2    N1 9595   1.435   2.867   9.048 -0.2452 -0.6373  0.0208
  644MPD2    H7 9596   1.475   2.841   8.959  3.4468  0.6678  1.2913
  645TMC3    C1 9597   0.838   3.051   9.395 -0.7156  0.3932  0.5167
  645TMC3    C2 9598   0.924   3.137   9.468 -0.4052  0.2907  0.2881
  645TMC3    C3 9599   0.862   3.197   9.577  0.4185 -0.0573 -0.6957
  645TMC3    C4 9600   0.710   3.034   9.423 -0.0542 -0.2587  0.0971
  645TMC3    C5 9601   0.655   3.085   9.535  0.0404 -0.7452 -0.5628
  645TMC3    C6 9602   0.737   3.154   9.615 -0.5635  0.4372 -0.1519
  645TMC3     C 9603   0.890   2.999   9.273 -0.5952  0.8378  0.5081
  645TMC3     O 9604   0.798   2.978   9.198 -0.0523  0.2682 -1.0622
  645TMC3     H 9605   1.024   3.163   9.435  0.2681  0.5964  2.6049
  645TMC3    H1 9606   0.655   2.968   9.356 -0.5452  1.6706 -1.4072
  645TMC3    H2 9607   0.699   3.200   9.705 -2.8636  1.6592 -1.7403
  645TMC3    C7 9608   0.525   3.040   9.571 -0.6132  0.4905 -0.2595
  645TMC3    C8 9609   0.920   3.317   9.642 -0.2815  0.1448 -0.0137
  645TMC3    O1 9610   0.468   2.959   9.496 -0.2414  0.4751  0.7745
  645TMC3    O2 9611   0.847   3.374   9.724 -0.6833  0.3741 -0.2374
  646MPD2     C 9612   1.257   2.628  14.524  0.2232  0.2231  0.0618
  646MPD2    C1 9613   1.159   2.550  14.579  0.2386 -0.6335  0.5055
  646MPD2    C2 9614   1.029   2.589  14.569 -0.3056  0.3679  0.0468
  646MPD2    C3 9615   0.995   2.700  14.489 -0.5580  0.4379 -0.2183
  646MPD2    C4 9616   1.091   2.779  14.438 -0.1227  0.1001  0.5673
  646MPD2    C5 9617   1.220   2.737  14.445 -0.2970  1.0725  0.5211
  646MPD2     H 9618   0.963   2.551  14.646 -1.6650  3.2417  0.3187
  646MPD2    H1 9619   1.068   2.875  14.392 -1.6379 -0.3270  0.4325
  646MPD2    H2 9620   1.362   2.604  14.537  0.7464  2.7328  0.4816
  646MPD2    H3 9621   1.300   2.797  14.405 -0.2147 -0.2679 -1.3088
  646MPD2     N 9622   0.864   2.742  14.477 -0.1977  0.6862 -0.1936
  646MPD2    H5 9623   0.797   2.679  14.520 -0.1760  0.4071 -0.5674
  646MPD2    N1 9624   1.198   2.437  14.659 -0.6439 -0.2383  0.1752
  646MPD2    H7 9625   1.297   2.415  14.654 -0.6776 -0.3108 -0.1831
  647TMC3    C1 9626   1.179   2.237  14.779  0.0283  0.2856  0.4746
  647TMC3    C2 9627   1.102   2.130  14.801  0.7718  0.1121  0.0222
  647TMC3    C3 9628   1.152   2.032  14.879 -0.8368  0.0522  0.1317
  647TMC3    C4 9629   1.295   2.258  14.849 -0.4815  0.2179 -0.2295
  647TMC3    C5 9630   1.346   2.149  14.924  0.1459 -0.1965 -0.0261
  647TMC3    C6 9631   1.278   2.029  14.932  0.1193 -0.0655  0.4362
  647TMC3     C 9632   1.114   2.347  14.712  0.0718  0.4113 -0.5026
  647TMC3     O 9633   0.996   2.336  14.690  0.2202  0.0331  0.8161
  647TMC3     H 9634   1.004   2.134  14.754  1.6951 -3.8145 -2.2203
  647TMC3    H1 9635   1.344   2.354  14.856 -2.0506  0.9032  1.4680
  647TMC3    H2 9636   1.324   1.952  14.993  2.2779  0.0179 -1.1088
  647TMC3    C7 9637   1.484   2.144  14.959 -0.0102  0.7730 -0.9552
  647TMC3    C8 9638   1.060   1.936  14.917  0.7932 -0.2664 -0.0518
  647TMC3    O1 9639   1.499   2.068  15.051  0.1277  0.4795  0.4552
  647TMC3    O2 9640   0.944   1.968  14.898  0.3142  0.2416 -0.0823
  648TMC3    C1 9641   0.415   4.675  16.075 -0.2460  0.2341  0.6024
  648TMC3    C2 9642   0.412   4.537  16.032  0.1407  0.8886  0.2526
  648TMC3    C3 9643   0.414   4.516  15.901 -0.2812  0.5568 -0.3033
  648TMC3    C4 9644   0.397   0.041  15.983  0.7327 -0.2541  0.8074
  648TMC3    C5 9645   0.395   0.001  15.847 -0.2074 -0.1779  0.0184
  648TMC3    C6 9646   0.411   4.613  15.807  0.2001 -0.5843 -0.4852
  648TMC3     C 9647   0.378   4.710  16.213 -0.2367  0.7172  0.2294
  648TMC3     O 9648   0.311   0.071  16.226 -0.2256  0.1394 -0.0821
  648TMC3     H 9649   0.390   4.457  16.101 -1.6103  1.0655 -0.0988
  648TMC3    H1 9650   0.383   0.144  16.012 -1.8019 -0.5676  0.7458
  648TMC3    H2 9651   0.409   4.592  15.701 -0.4544  0.1539 -0.6240
  648TMC3    C7 9652   0.320   0.092  15.756 -0.1766 -0.2992  0.1077
  648TMC3    C8 9653   0.406   4.376  15.864 -1.1646 -0.1096 -0.1115
  648TMC3    O1 9654   0.347   0.083  15.637 -0.0265  0.1109  0.1606
  648TMC3    O2 9655   0.321   4.305  15.920  0.4442 -0.3845  0.0555
  649TMC3    C1 9656   4.654   0.922  12.726 -0.3803 -0.0742 -0.1647
  649TMC3    C2 9657   4.713   0.837  12.636  0.5701  0.0587  0.3220
  649TMC3    C3 9658   0.027   0.725  12.697 -0.0261  0.5560  0.7884
  649TMC3    C4 9659   4.625   0.893  12.860  0.5860 -0.1893  0.1538
  649TMC3    C5 9660   4.682   0.777  12.909 -0.5291 -0.5113  0.0163
  649TMC3    C6 9661   4.733   0.680  12.824  0.5877 -0.2411 -0.1933
  649TMC3     C 9662   4.588   1.046  12.677  0.2606 -0.6062  0.4530
  649TMC3     O 9663   4.473   1.064  12.715  0.6309  0.0495 -0.2934
  649TMC3     H 9664   4.731   0.859  12.531  0.1873  1.2724  0.5109
  649TMC3    H1 9665   4.571   0.966  12.918 -0.4088 -0.8613  0.0721
  649TMC3    H2 9666   0.019   0.581  12.861  0.6417 -0.2382 -0.2221
  649TMC3    C7 9667   4.642   0.745  13.048  0.5970  0.2650 -0.0993
  649TMC3    C8 9668   0.113   0.645  12.620  0.2166  0.3434  0.2918
  649TMC3    O1 9669   4.549   0.806  13.093 -0.0825 -0.0218 -0.1702
  649TMC3    O2 9670   0.127   0.682  12.503 -0.0623  0.4404  0.1473
  650TMC3    C1 9671   1.924   2.565  12.896 -0.5159  0.3212  0.0317
  650TMC3    C2 9672   1.836   2.637  12.970  0.4814 -0.2713 -0.2133
  650TMC3    C3 9673   1.750   2.717  12.904 -0.3521 -0.1972 -0.7705
  650TMC3    C4 9674   1.948   2.580  12.764  0.1233  0.1645  0.0913
  650TMC3    C5 9675   1.857   2.659  12.705  0.4481 -0.3134 -0.7082
  650TMC3    C6 9676   1.757   2.736  12.766 -0.5531 -0.6996  0.0025
  650TMC3     C 9677   2.026   2.498  12.971  0.9449  0.2064  0.2914
  650TMC3     O 9678   2.033   2.547  13.086 -0.4492 -0.6068  0.4831
  650TMC3     H 9679   1.827   2.623  13.077 -0.6427 -1.2576 -0.4218
  650TMC3    H1 9680   2.029   2.535  12.707 -2.0045 -2.7034 -0.7261
  650TMC3    H2 9681   1.688   2.798  12.711  0.3441  0.5155  0.2478
  650TMC3    C7 9682   1.873   2.688  12.560 -0.0908  0.1008 -0.7363
  650TMC3    C8 9683   1.673   2.805  12.981  0.0234 -0.2969 -0.1359
  650TMC3    O1 9684   1.882   2.598  12.477  0.9435  0.1851  0.2562
  650TMC3    O2 9685   1.714   2.862  13.082  0.3124 -0.3607  0.2196
  651MPD2     C 9686   0.503   4.609  11.203 -0.1024 -0.5054 -0.0319
  651MPD2    C1 9687   0.485   4.712  11.115 -0.4655  0.3287 -0.4726
  651MPD2    C2 9688   0.573   0.079  11.126 -0.2326  0.1269  0.5221
  651MPD2    C3 9689   0.665   0.086  11.224  0.2871  0.2382  0.5305
  651MPD2    C4 9690   0.666   4.719  11.320  0.6331 -0.1901 -0.1767
  651MPD2    C5 9691   0.590   4.609  11.306  0.9222 -0.3415 -0.0549
  651MPD2     H 9692   0.578   0.158  11.052 -1.6353 -1.9966 -1.8214
  651MPD2    H1 9693   0.740   4.703  11.398  1.2561 -1.4332 -1.0165
  651MPD2    H2 9694   0.445   4.520  11.181 -0.4386 -0.5808  1.1793
  651MPD2    H3 9695   0.607   4.522  11.368  0.8695  0.0063  0.4500
  651MPD2     N 9696   0.760   0.195  11.224 -0.1679  0.0489  0.0311
  651MPD2    H5 9697   0.745   0.256  11.144 -1.0120  0.1733  0.2745
  651MPD2    N1 9698   0.410   4.713  10.990  0.0866 -0.2471 -0.3502
  651MPD2    H7 9699   0.392   0.060  10.939  0.3318 -1.0985 -1.8847
  652TMC3    C1 9700   1.165   0.365  11.179 -0.1827 -0.2407 -0.5413
  652TMC3    C2 9701   1.079   0.303  11.268  0.4964  0.1996  0.1039
  652TMC3    C3 9702   0.944   0.322  11.256  0.7997  0.1083 -0.1405
  652TMC3    C4 9703   1.129   0.450  11.078  0.0722  0.4587  0.2730
  652TMC3    C5 9704   0.995   0.481  11.082 -0.0003 -0.3835  0.0512
  652TMC3    C6 9705   0.902   0.408  11.159  0.2041 -0.2602  0.1108
  652TMC3     C 9706   1.306   0.334  11.196 -0.3029 -0.1324  1.2333
  652TMC3     O 9707   1.337   0.281  11.298 -0.1758 -0.0217  0.1802
  652TMC3     H 9708   1.118   0.227  11.335 -1.2580 -1.1585 -0.4168
  652TMC3    H1 9709   1.194   0.507  11.012  1.3573  0.8140  1.8400
  652TMC3    H2 9710   0.797   0.432  11.151  0.2889 -0.4699 -1.6227
  652TMC3    C7 9711   0.932   0.567  10.977 -0.1964  0.0045  0.5265
  652TMC3    C8 9712   0.861   0.219  11.311  1.1666  0.1258  0.7802
  652TMC3    O1 9713   0.808   0.569  10.971 -0.0660 -0.1880  1.0481
  652TMC3    O2 9714   0.911   0.149  11.396  0.0188 -0.5183  0.2968
  653MPD2     C 9715   4.288   0.041   0.065  0.4212 -0.3503 -0.8425
  653MPD2    C1 9716   4.248   0.110  17.710 -0.1316 -0.2367 -0.0911
  653MPD2    C2 9717   4.190   0.050  17.602 -0.1411 -0.4650 -0.1868
  653MPD2    C3 9718   4.159   4.652  17.610  0.1806 -0.5406 -0.7112
  653MPD2    C4 9719   4.198   4.583  17.719 -0.1194 -0.2769 -0.1040
  653MPD2    C5 9720   4.262   4.646   0.071  0.7481 -0.3811 -0.2710
  653MPD2     H 9721   4.162   0.118  17.522 -0.8781  1.5274  1.7642
  653MPD2    H1 9722   4.192   4.475  17.727 -1.4187 -0.1931 -0.0795
  653MPD2    H2 9723   4.352   0.072   0.147 -2.4328  1.6801  0.6193
  653MPD2    H3 9724   4.293   4.578   0.150  1.0320  2.3352  1.9408
  653MPD2     N 9725   4.102   4.595  17.497  1.0932 -0.1372 -0.8729
  653MPD2    H5 9726   4.085   4.656  17.417 -1.1579 -0.6151 -0.7507
  653MPD2    N1 9727   4.253   0.253  17.709 -0.4281 -0.1573  0.0603
  653MPD2    H7 9728   4.243   0.292  17.615  2.1860  0.0463 -0.1380
  654TMC3    C1 9729   4.058   4.448  17.330 -0.3844 -0.1786 -0.6921
  654TMC3    C2 9730   4.015   4.551  17.247 -0.7162 -0.3498  0.5395
  654TMC3    C3 9731   3.964   4.522  17.126 -0.4008 -0.2293  0.6483
  654TMC3    C4 9732   4.056   4.315  17.287  0.0095 -0.1469 -0.3253
  654TMC3    C5 9733   4.018   4.294  17.153 -0.0510  0.1452 -0.1493
  654TMC3    C6 9734   3.976   4.395  17.074 -0.1017 -0.0354  0.0593
  654TMC3     C 9735   4.094   4.464  17.466  0.2182  0.2207 -0.2057
  654TMC3     O 9736   4.079   4.370  17.543 -0.4051  0.1874  0.8093
  654TMC3     H 9737   4.022   4.655  17.275 -2.2850  0.3227 -1.5925
  654TMC3    H1 9738   4.087   4.246  17.364  2.5030  1.0505 -0.2735
  654TMC3    H2 9739   3.939   4.376  16.974  1.5141 -3.0337  0.0079
  654TMC3    C7 9740   4.001   4.164  17.098  0.1639  0.4300 -0.1977
  654TMC3    C8 9741   3.902   4.626  17.041 -0.4462  0.8951 -0.5603
  654TMC3    O1 9742   3.932   4.143  17.001  0.5002  0.2534 -0.7522
  654TMC3    O2 9743   3.841   4.714  17.094  0.1935  0.0960  0.1629
  655MPD2     C 9744   0.854   0.079  15.679  0.2993  0.6253 -1.0351
  655MPD2    C1 9745   0.744   0.130  15.622  0.4124  0.0027  0.4584
  655MPD2    C2 9746   0.710   0.079  15.499  0.4422 -0.9175 -0.1894
  655MPD2    C3 9747   0.796   4.737  15.419  0.6040 -0.9559 -0.5195
  655MPD2    C4 9748   0.914   4.700  15.478  0.3922 -0.6770 -0.2656
  655MPD2    C5 9749   0.941   4.738  15.611  0.1836 -0.4205  1.1062
  655MPD2     H 9750   0.616   0.118  15.461  0.8498 -0.8818 -1.1688
  655MPD2    H1 9751   0.990   4.639  15.431  0.5004 -0.1340 -0.8072
  655MPD2    H2 9752   0.882   0.109  15.779 -0.1499 -1.4659 -0.2771
  655MPD2    H3 9753   1.027   4.692  15.659 -0.9542 -3.4247  0.2441
  655MPD2     N 9754   0.763   4.662  15.303 -0.2677 -0.5870  0.3271
  655MPD2    H5 9755   0.821   4.582  15.279  0.7775 -0.2341  1.7188
  655MPD2    N1 9756   0.654   0.219  15.673 -0.1649 -0.0817  0.1088
  655MPD2    H7 9757   0.596   0.269  15.606 -0.5578  3.1507  2.8190
  656TMC3    C1 9758   0.547   0.371  15.825  0.2789  0.8264 -0.5958
  656TMC3    C2 9759   0.495   0.397  15.948  0.1954 -0.6169  0.7050
  656TMC3    C3 9760   0.398   0.497  15.955  0.0724 -0.7513  0.2599
  656TMC3    C4 9761   0.522   0.456  15.722  0.0810 -0.0388 -0.0432
  656TMC3    C5 9762   0.426   0.561  15.736 -0.2425 -0.7481  0.7205
  656TMC3    C6 9763   0.357   0.579  15.853  0.3354 -0.0997  0.7483
  656TMC3     C 9764   0.650   0.263  15.803  0.7344 -0.5765  0.0852
  656TMC3     O 9765   0.701   0.212  15.900  0.1957  0.0614  0.9163
  656TMC3     H 9766   0.515   0.329  16.030  1.6859  0.3497  1.1202
  656TMC3    H1 9767   0.587   0.451  15.635 -0.7493  0.8356 -0.7249
  656TMC3    H2 9768   0.279   0.653  15.867  1.6606  1.2351  1.0498
  656TMC3    C7 9769   0.394   0.631  15.612  0.0033  0.1989  0.6864
  656TMC3    C8 9770   0.302   0.478  16.062 -0.2013 -0.9862  0.2954
  656TMC3    O1 9771   0.474   0.616  15.523 -0.1331 -0.5855  0.4765
  656TMC3    O2 9772   0.284   0.365  16.104 -0.2134  0.2764  0.4044
  657TMC3    C1 9773   4.307   4.185  15.164 -0.2248  0.1132 -0.1230
  657TMC3    C2 9774   4.376   4.243  15.268 -0.1975 -0.1292  0.5469
  657TMC3    C3 9775   4.325   4.353  15.327 -0.9847  0.0067  0.5146
  657TMC3    C4 9776   4.189   4.243  15.121 -0.6017 -0.1200 -0.0974
  657TMC3    C5 9777   4.146   4.358  15.184 -0.0629 -0.0292 -0.8013
  657TMC3    C6 9778   4.213   4.417  15.288  0.0345 -0.2939 -0.0629
  657TMC3     C 9779   4.361   4.074  15.090 -0.7548 -0.1822 -0.2303
  657TMC3     O 9780   4.290   4.039  14.999  0.6503 -0.1825  0.4951
  657TMC3     H 9781   4.463   4.188  15.302 -0.6457 -0.0909  1.7783
  657TMC3    H1 9782   4.128   4.211  15.036  1.3494 -2.2389 -0.7049
  657TMC3    H2 9783   4.174   4.501  15.345  0.4600 -0.1391  0.0023
  657TMC3    C7 9784   4.069   4.442  15.100  0.3126  0.2493  0.8363
  657TMC3    C8 9785   4.405   4.427  15.432 -0.1263 -0.1487 -0.1607
  657TMC3    O1 9786   3.977   4.391  15.042 -0.0617 -0.1642  0.0048
  657TMC3    O2 9787   4.361   4.537  15.457 -0.0801  0.3822  0.0747
  658MPD2     C 9788   1.137   4.343  14.862  0.8667  0.0466  0.0216
  658MPD2    C1 9789   1.020   4.408  14.817  0.4570  0.3391  0.5559
  658MPD2    C2 9790   1.036   4.500  14.716 -0.2962 -0.8754  0.3450
  658MPD2    C3 9791   1.158   4.538  14.662 -0.4801 -0.3460  0.8989
  658MPD2    C4 9792   1.273   4.469  14.693  0.1319  0.4157 -0.1852
  658MPD2    C5 9793   1.254   4.367  14.789 -0.4777  0.1715  0.2543
  658MPD2     H 9794   0.946   4.559  14.700  0.6871  0.9023  1.3225
  658MPD2    H1 9795   1.368   4.485  14.642  0.3939 -1.2808 -0.2243
  658MPD2    H2 9796   1.141   4.280  14.950  0.3731  0.1611  0.1259
  658MPD2    H3 9797   1.341   4.307  14.815 -2.0933 -1.7683  1.1654
  658MPD2     N 9798   1.160   4.638  14.566  0.5195  0.0723 -0.2003
  658MPD2    H5 9799   1.076   4.695  14.556  1.7508  2.0776  0.7132
  658MPD2    N1 9800   0.894   4.381  14.871  0.0343 -0.6152 -0.5216
  658MPD2    H7 9801   0.895   4.327  14.957 -3.4288  1.8328  1.0559
  659TMC3    C1 9802   0.670   4.455  14.931  0.5226  0.3722  0.5298
  659TMC3    C2 9803   0.708   4.517  15.054  0.3553  0.1955 -0.1239
  659TMC3    C3 9804   0.616   4.566  15.140  0.1348  0.3482  0.5596
  659TMC3    C4 9805   0.540   4.439  14.898  0.3696  0.2031  1.3802
  659TMC3    C5 9806   0.451   4.496  14.989 -0.2301 -0.3831 -0.1342
  659TMC3    C6 9807   0.484   4.560  15.106  0.2417 -0.6818  0.1527
  659TMC3     C 9808   0.773   4.433  14.830 -0.7846  0.0511  0.4248
  659TMC3     O 9809   0.739   4.452  14.715  0.0218 -0.2904  0.2073
  659TMC3     H 9810   0.810   4.548  15.076 -0.1611  1.9982 -0.2828
  659TMC3    H1 9811   0.527   4.384  14.805  0.1664  0.8752  1.0074
  659TMC3    H2 9812   0.408   4.592  15.176  1.8318  1.2713  0.9722
  659TMC3    C7 9813   0.308   4.483  14.968 -0.1747 -0.2116  0.0509
  659TMC3    C8 9814   0.644   4.668  15.243  0.1910  0.2327  0.0759
  659TMC3    O1 9815   0.236   4.567  15.016 -0.3913  1.1201  0.1915
  659TMC3    O2 9816   0.556   0.010  15.259  0.3298 -0.2108 -0.1280
  660MPD2     C 9817   3.593   3.641  12.560  0.5360  0.1514  0.5524
  660MPD2    C1 9818   3.453   3.646  12.558 -0.3749  0.7434  0.2432
  660MPD2    C2 9819   3.386   3.564  12.641 -0.0965 -0.7224 -0.2273
  660MPD2    C3 9820   3.455   3.466  12.724 -0.6540  0.8565  0.0633
  660MPD2    C4 9821   3.588   3.463  12.713 -0.5967  0.5857 -0.7487
  660MPD2    C5 9822   3.660   3.560  12.644  0.2386 -0.3167 -0.5577
  660MPD2     H 9823   3.278   3.568  12.636 -0.1869 -1.5064  1.0580
  660MPD2    H1 9824   3.653   3.396  12.768  1.1134  1.4576 -1.7011
  660MPD2    H2 9825   3.654   3.699  12.491  1.1721 -0.9169  0.2103
  660MPD2    H3 9826   3.768   3.568  12.649  0.1402 -0.2814  1.8222
  660MPD2     N 9827   3.386   3.372  12.814  0.0041  0.1199 -0.2163
  660MPD2    H5 9828   3.285   3.370  12.806  0.0081  0.0508 -0.2416
  660MPD2    N1 9829   3.394   3.736  12.458  0.1861  0.8992  0.1797
  660MPD2    H7 9830   3.454   3.762  12.380  1.3013  1.0486  1.0835
  661TMC3    C1 9831   3.219   3.815  12.314 -0.6084  0.1476  0.7159
  661TMC3    C2 9832   3.315   3.870  12.232 -0.0031 -0.1896 -0.3346
  661TMC3    C3 9833   3.272   3.898  12.108 -0.3594 -0.3832  0.4379
  661TMC3    C4 9834   3.091   3.782  12.282 -0.3864 -0.6990 -0.0151
  661TMC3    C5 9835   3.065   3.797  12.149  0.1456 -0.0869  0.1804
  661TMC3    C6 9836   3.151   3.859  12.064 -0.2526 -0.4869  0.1707
  661TMC3     C 9837   3.258   3.759  12.442  0.3621  0.1823 -0.0114
  661TMC3     O 9838   3.169   3.740  12.524  0.6500  0.2156 -0.3793
  661TMC3     H 9839   3.406   3.912  12.275  1.3345 -2.4244 -0.9747
  661TMC3    H1 9840   3.030   3.721  12.348 -1.9588  1.0666  0.1692
  661TMC3    H2 9841   3.112   3.873  11.964  0.4472 -0.6430 -0.1179
  661TMC3    C7 9842   2.935   3.749  12.099  0.1930  0.5678  0.4328
  661TMC3    C8 9843   3.359   3.972  12.021  0.3808 -0.2786 -0.7095
  661TMC3    O1 9844   2.926   3.727  11.980 -0.2694 -0.1401  0.1734
  661TMC3    O2 9845   3.473   3.994  12.061  0.1630 -0.0362  0.1309
  662MPD2     C 9846   3.856   3.837  17.468 -0.3965  0.6073 -0.1899
  662MPD2    C1 9847   3.853   3.743  17.569 -0.3334 -1.0272 -0.7904
  662MPD2    C2 9848   3.858   3.785  17.699  0.5301 -0.1461 -0.2524
  662MPD2    C3 9849   3.839   3.914  17.731 -0.2179 -0.9130 -0.2679
  662MPD2    C4 9850   3.845   4.014  17.639 -0.6611  0.6032 -0.3007
  662MPD2    C5 9851   3.857   3.969  17.509  0.9322 -0.0116  0.4165
  662MPD2     H 9852   3.856   3.713   0.030  1.4223 -1.8139 -1.6932
  662MPD2    H1 9853   3.837   4.120  17.659 -1.8338  0.9465 -2.5414
  662MPD2    H2 9854   3.852   3.823  17.360 -0.3124  0.6239 -0.1950
  662MPD2    H3 9855   3.855   4.043  17.430 -1.8539 -1.3302 -0.7511
  662MPD2     N 9856   3.820   3.959   0.115 -0.6414  0.0247  0.3696
  662MPD2    H5 9857   3.791   4.057   0.115 -2.1968 -0.4393 -0.9014
  662MPD2    N1 9858   3.864   3.603  17.544 -0.2702 -0.4447  0.2668
  662MPD2    H7 9859   3.891   3.542  17.620 -0.8849  0.3870  1.1458
  663TMC3    C1 9860   3.851   3.407  17.413  0.0294 -0.5383 -0.9280
  663TMC3    C2 9861   3.852   3.339  17.526  0.0824 -0.0018  0.1087
  663TMC3    C3 9862   3.904   3.213  17.532  0.0010 -0.6879 -0.0974
  663TMC3    C4 9863   3.882   3.345  17.296  0.0798 -0.2022  0.3463
  663TMC3    C5 9864   3.924   3.218  17.304 -0.2111  0.3251  0.3022
  663TMC3    C6 9865   3.929   3.149  17.417  0.2635 -1.2032 -0.4637
  663TMC3     C 9866   3.825   3.547  17.425 -0.0195 -0.2291  1.2273
  663TMC3     O 9867   3.796   3.598  17.319 -0.1221 -0.0933 -0.0827
  663TMC3     H 9868   3.791   3.380  17.606 -1.9282 -1.6095 -0.6162
  663TMC3    H1 9869   3.905   3.395  17.202 -3.5418 -0.7325 -0.8233
  663TMC3    H2 9870   3.983   3.055  17.422  1.0726 -0.7452 -0.6461
  663TMC3    C7 9871   3.963   3.147  17.183 -0.3028 -0.1144  0.1599
  663TMC3    C8 9872   3.841   3.127  17.626 -0.2106  0.5471 -0.4945
  663TMC3    O1 9873   3.990   3.206  17.080 -0.2057  0.3785 -0.0568
  663TMC3    O2 9874   3.806   3.016  17.592  0.2900  0.0420  0.3473
  664MPD2     C 9875   2.428   1.743   0.301  0.2168 -0.0010 -0.9119
  664MPD2    C1 9876   2.524   1.842   0.289  0.1988 -0.8822  0.4473
  664MPD2    C2 9877   2.540   1.909   0.412  0.4317 -0.2246  0.8027
  664MPD2    C3 9878   2.478   1.880   0.534  0.8604  0.3030  0.1682
  664MPD2    C4 9879   2.377   1.786   0.536  0.1675  0.0660  0.3891
  664MPD2    C5 9880   2.360   1.717   0.420  0.2020 -0.0824  0.3544
  664MPD2     H 9881   2.615   1.987   0.419  0.1745  0.2095 -1.1180
  664MPD2    H1 9882   2.318   1.753   0.621  0.2416 -0.0684  0.3872
  664MPD2    H2 9883   2.401   1.682   0.215 -2.6389 -1.8520  1.2657
  664MPD2    H3 9884   2.287   1.638   0.435  0.4222 -0.0194  1.8049
  664MPD2     N 9885   2.516   1.960   0.642  0.2155 -0.1549 -0.3783
  664MPD2    H5 9886   2.589   2.030   0.628 -0.2460 -0.1783 -2.8853
  664MPD2    N1 9887   2.598   1.883   0.176 -0.2173 -0.0919  0.1378
  664MPD2    H7 9888   2.664   1.959   0.190 -0.5843  0.4494 -1.0051
  665TMC3    C1 9889   2.536   2.023   0.873 -0.3148 -0.8012  0.9492
  665TMC3    C2 9890   2.454   2.046   0.977 -0.7275  0.4909 -0.4318
  665TMC3    C3 9891   2.508   2.116   1.082 -0.1533  0.6532 -0.2421
  665TMC3    C4 9892   2.647   2.089   0.850 -0.1460  0.1595 -0.0833
  665TMC3    C5 9893   2.696   2.171   0.945  0.4062  0.3647 -0.2980
  665TMC3    C6 9894   2.630   2.181   1.068  0.1940 -0.9779 -0.1857
  665TMC3     C 9895   2.490   1.927   0.774  0.1281  0.3551  0.1754
  665TMC3     O 9896   2.424   1.833   0.811 -0.1792  0.4112 -0.7235
  665TMC3     H 9897   2.360   1.993   0.973 -1.4855  1.9348 -2.1171
  665TMC3    H1 9898   2.707   2.066   0.763  0.1825 -0.5449  0.3255
  665TMC3    H2 9899   2.666   2.247   1.146  0.9633 -0.3134 -1.1058
  665TMC3    C7 9900   2.783   2.282   0.899 -0.0517  0.1237 -0.7407
  665TMC3    C8 9901   2.425   2.181   1.182  0.2231  0.6822 -0.5633
  665TMC3    O1 9902   2.816   2.278   0.779 -0.0495  0.3618  0.1619
  665TMC3    O2 9903   2.472   2.238   1.277  0.4786  0.3140  0.4922
  666TMC3    C1 9904   0.770   1.719   9.600  0.4652 -0.5125 -0.0698
  666TMC3    C2 9905   0.848   1.627   9.531  0.1627 -0.1307  0.1483
  666TMC3    C3 9906   0.988   1.619   9.558  0.0967  0.3676  0.5612
  666TMC3    C4 9907   0.828   1.798   9.697  0.3081 -0.6113  0.0807
  666TMC3    C5 9908   0.963   1.799   9.704  0.0525 -0.9817 -0.1133
  666TMC3    C6 9909   1.049   1.714   9.635  1.1683 -0.1717  0.2093
  666TMC3     C 9910   0.630   1.692   9.614  0.0298  0.2936  0.7507
  666TMC3     O 9911   0.561   1.658   9.521  0.0029  0.2142  0.6317
  666TMC3     H 9912   0.790   1.555   9.473 -0.5539 -0.3341  1.1280
  666TMC3    H1 9913   0.769   1.876   9.743  0.1707 -0.6664 -0.0011
  666TMC3    H2 9914   1.151   1.693   9.664  1.6099  0.3698 -0.9222
  666TMC3    C7 9915   1.023   1.884   9.803  0.1014 -0.1460 -0.2351
  666TMC3    C8 9916   1.040   1.482   9.548 -0.6040 -0.2287  0.1303
  666TMC3    O1 9917   0.944   1.936   9.880  0.0958  0.9224 -0.1658
  666TMC3    O2 9918   1.015   1.400   9.462  0.1544 -0.2700 -0.4573
  667MPD2     C 9919   3.034   1.404  14.731 -0.7591 -0.0614 -0.3592
  667MPD2    C1 9920   2.919   1.444  14.794 -0.2206 -0.7835 -0.0590
  667MPD2    C2 9921   2.805   1.364  14.790  0.0178 -0.1387  0.1671
  667MPD2    C3 9922   2.811   1.243  14.720 -0.0747  0.4413  0.1156
  667MPD2    C4 9923   2.921   1.210  14.646  0.4417  0.2208  0.0183
  667MPD2    C5 9924   3.031   1.293  14.653 -0.2604 -0.3650  0.4784
  667MPD2     H 9925   2.714   1.410  14.827 -0.5768  0.8839 -2.5946
  667MPD2    H1 9926   2.930   1.117  14.589 -0.9733 -1.1343  2.0106
  667MPD2    H2 9927   3.122   1.461  14.759  0.0289  0.1410 -3.3099
  667MPD2    H3 9928   3.115   1.254  14.598  0.8058 -1.8271  3.1150
  667MPD2     N 9929   2.710   1.149  14.711  0.5600  0.0205  0.5551
  667MPD2    H5 9930   2.728   1.062  14.661  0.9766 -0.3912  1.4066
  667MPD2    N1 9931   2.914   1.564  14.869  0.1909  0.4985 -0.0415
  667MPD2    H7 9932   2.848   1.571  14.945 -0.1821 -0.5870 -0.2674
  668TMC3    C1 9933   2.967   1.770  14.959 -0.2267 -0.0089 -0.0542
  668TMC3    C2 9934   3.018   1.898  14.941 -0.1370  0.2201 -0.0985
  668TMC3    C3 9935   3.018   1.984  15.052 -0.1309  0.7705  0.1291
  668TMC3    C4 9936   2.907   1.734  15.078 -0.1360 -0.7427  1.0269
  668TMC3    C5 9937   2.895   1.824  15.184 -0.1127  0.2687  0.2656
  668TMC3    C6 9938   2.958   1.950  15.171 -0.6191 -0.1609 -0.2067
  668TMC3     C 9939   2.990   1.675  14.852  0.4396  0.6729 -0.3483
  668TMC3     O 9940   3.077   1.695  14.767  0.3080  0.3992  0.1196
  668TMC3     H 9941   3.044   1.932  14.842 -1.7954  0.1624 -0.5562
  668TMC3    H1 9942   2.868   1.634  15.088 -0.1889 -0.4110  4.1826
  668TMC3    H2 9943   2.943   2.021  15.250  0.9533  0.3357 -0.3651
  668TMC3    C7 9944   2.809   1.796  15.299  0.4239  0.8835 -0.4010
  668TMC3    C8 9945   3.053   2.121  15.033  0.2748 -0.0268  0.3846
  668TMC3    O1 9946   2.834   1.865  15.393  0.2771 -0.1456  0.4412
  668TMC3    O2 9947   3.024   2.194  15.127 -0.2089  0.3528 -0.2675
  669TMC3    C1 9948   0.566   1.787  14.615  0.5327 -0.2660 -0.1169
  669TMC3    C2 9949   0.495   1.755  14.508 -0.2854  0.2291  0.2165
  669TMC3    C3 9950   0.550   1.781  14.383 -0.9359 -0.5288 -0.5712
  669TMC3    C4 9951   0.687   1.860  14.612  1.0871 -0.6819 -0.0169
  669TMC3    C5 9952   0.745   1.864  14.495  0.4751 -0.4352  0.8376
  669TMC3    C6 9953   0.682   1.826  14.373 -0.2395 -0.3574 -0.0325
  669TMC3     C 9954   0.536   1.715  14.738 -0.6025 -0.8897  0.5590
  669TMC3     O 9955   0.481   1.606  14.730 -0.3234 -0.6368  0.2209
  669TMC3     H 9956   0.407   1.693  14.510 -0.1595  0.0246 -1.0550
  669TMC3    H1 9957   0.747   1.870  14.701  0.5074  1.4430  0.1394
  669TMC3    H2 9958   0.741   1.838  14.283 -0.0584 -1.8180 -0.1049
  669TMC3    C7 9959   0.893   1.871  14.484 -0.0289  0.6159  0.6196
  669TMC3    C8 9960   0.498   1.728  14.258  0.5950  0.1377  0.3252
  669TMC3    O1 9961   0.932   1.974  14.438 -0.5691 -0.3225  0.2566
  669TMC3    O2 9962   0.582   1.676  14.184 -0.4818  0.0505 -0.6094
  670MPD2     C 9963   3.719   3.532  13.159 -0.6616  0.2326 -0.1736
  670MPD2    C1 9964   3.827   3.582  13.229  0.0064  0.2201  0.3661
  670MPD2    C2 9965   3.805   3.621  13.363  0.5232  0.6935  0.5940
  670MPD2    C3 9966   3.674   3.617  13.413 -0.4092  0.8709  0.5115
  670MPD2    C4 9967   3.564   3.561  13.333 -0.7160 -0.6899  0.2010
  670MPD2    C5 9968   3.587   3.523  13.206 -0.4484 -0.0848  0.2251
  670MPD2     H 9969   3.886   3.670  13.417  2.1440 -1.5350  0.2034
  670MPD2    H1 9970   3.464   3.551  13.371 -1.0927  1.8553 -0.1484
  670MPD2    H2 9971   3.733   3.494  13.059 -0.7029 -1.3941  0.4296
  670MPD2    H3 9972   3.508   3.480  13.146  1.4082 -1.6555 -1.1189
  670MPD2     N 9973   3.639   3.656  13.544 -0.6198 -0.6956  0.1425
  670MPD2    H5 9974   3.542   3.660  13.572 -0.4717 -0.4393  0.6085
  670MPD2    N1 9975   3.959   3.595  13.175 -0.2315  0.0151  0.5018
  670MPD2    H7 9976   4.022   3.645  13.237 -2.0491  2.1874  0.6096
  671TMC3    C1 9977   3.657   3.632  13.773  0.2054  0.4512  0.1884
  671TMC3    C2 9978   3.720   3.658  13.886  0.3992 -0.4687  0.2057
  671TMC3    C3 9979   3.693   3.583  13.998  0.3873  0.2629  0.0416
  671TMC3    C4 9980   3.550   3.548  13.775  0.0943  0.3624 -0.2171
  671TMC3    C5 9981   3.520   3.479  13.889  0.0962  0.8288 -0.1778
  671TMC3    C6 9982   3.593   3.490  13.999  0.3187 -1.1640 -0.1277
  671TMC3     C 9983   3.720   3.659  13.655  0.5823 -0.0306 -0.0071
  671TMC3     O 9984   3.841   3.657  13.664  0.2599 -0.9162  0.4493
  671TMC3     H 9985   3.803   3.727  13.884 -0.2658  0.3563  1.6895
  671TMC3    H1 9986   3.493   3.539  13.683 -1.1288  0.0585  0.5762
  671TMC3    H2 9987   3.580   3.429  14.088 -1.3682 -2.2448 -1.1033
  671TMC3    C7 9988   3.441   3.360  13.872  0.2729  0.5182 -0.3252
  671TMC3    C8 9989   3.801   3.555  14.084 -0.2946 -0.1655  0.0234
  671TMC3    O1 9990   3.416   3.329  13.761  0.7844  0.9467 -0.3070
  671TMC3    O2 9991   3.870   3.647  14.129  0.0002  0.7288 -0.7204
  672MPD2     C 9992   4.100   4.573   1.387 -0.2263  0.5021  0.1018
  672MPD2    C1 9993   4.090   4.639   1.267  0.1347  0.5775 -0.1562
  672MPD2    C2 9994   4.101   0.038   1.268  0.0944 -0.2867 -0.0590
  672MPD2    C3 9995   4.134   0.102   1.387  0.2718 -0.0739  0.1623
  672MPD2    C4 9996   4.131   0.041   1.511  0.2050 -0.2635 -0.0608
  672MPD2    C5 9997   4.115   4.639   1.508  0.6674 -0.1210 -0.1537
  672MPD2     H 9998   4.096   0.094   1.175  2.5141 -0.1674 -0.1243
  672MPD2    H1 9999   4.142   0.095   1.604 -0.6703  0.5824 -0.4496
  672MPD2    H210000   4.101   4.465   1.388  1.6091  0.5237 -0.3248
  672MPD2    H310001   4.122   4.596   1.607  3.6247 -1.0707 -0.7830
  672MPD2     N10002   4.154   0.239   1.374  0.0697 -0.5118 -0.6411
  672MPD2    H510003   4.156   0.283   1.283  0.3628 -2.1922 -1.4399
  672MPD2    N110004   4.073   4.574   1.134  0.1188  0.0249  0.0737
  672MPD2    H710005   4.043   4.636   1.060 -2.8828 -2.1196 -0.5156
  673TMC3    C110006   4.076   4.392   0.980 -0.3266  0.3894  0.6413
  673TMC3    C210007   4.176   4.319   0.926 -0.2625  0.1129  0.6496
  673TMC3    C310008   4.182   4.297   0.792  0.0609  0.3236 -0.1793
  673TMC3    C410009   3.984   4.449   0.900  0.2622  0.0287 -0.5529
  673TMC3    C510010   3.984   4.415   0.768  0.2273 -0.0123 -0.5130
  673TMC3    C610011   4.081   4.335   0.714 -0.5488 -0.2920  0.9442
  673TMC3     C10012   4.097   4.439   1.114  0.4017  0.7982  0.3872
  673TMC3     O10013   4.149   4.355   1.184 -0.2448  0.0678  0.1155
  673TMC3     H10014   4.255   4.280   0.988  1.7938  1.8380 -0.8901
  673TMC3    H110015   3.899   4.499   0.944 -1.5063 -2.1527 -1.4294
  673TMC3    H210016   4.092   4.307   0.610  0.6393  1.8540  0.4910
  673TMC3    C710017   3.898   4.471   0.671  0.3412 -0.0174 -0.4696
  673TMC3    C810018   4.300   4.257   0.722 -0.1153 -0.1080 -0.0505
  673TMC3    O110019   3.898   4.396   0.576 -0.4233 -0.1546 -0.6747
  673TMC3    O210020   4.300   4.205   0.614  0.1274 -0.1329 -0.0597
  674MPD2     C10021   3.653   0.261  17.638  0.3800  0.1038 -0.3005
  674MPD2    C110022   3.652   0.151  17.717 -0.1440  0.5385  0.6546
  674MPD2    C210023   3.550   0.138   0.056  0.0439 -0.3903  0.0393
  674MPD2    C310024   3.468   0.243   0.087 -0.9591 -0.7128 -0.3097
  674MPD2    C410025   3.489   0.358   0.021 -0.2389 -0.1454  0.3336
  674MPD2    C510026   3.572   0.367  17.669 -0.5179  0.1511 -0.3066
  674MPD2     H10027   3.539   0.049   0.117  0.6543 -1.6078 -1.6336
  674MPD2    H110028   3.431   0.444   0.052  0.6497  0.5780 -0.0194
  674MPD2    H210029   3.725   0.278  17.558  2.4886 -0.8602  1.4045
  674MPD2    H310030   3.584   0.459  17.613  0.2359  1.0779  1.3457
  674MPD2     N10031   3.397   0.232   0.215  0.2131  0.0154 -0.4785
  674MPD2    H510032   3.386   0.137   0.249 -1.0129  1.0966  2.2107
  674MPD2    N110033   3.760   0.069  17.714  0.4965  0.1156 -0.1476
  674MPD2    H710034   3.849   0.113  17.699  0.9376 -1.3994 -2.0287
  675TMC3    C110035   3.892   4.640   0.071  0.4838 -0.1996  0.2624
  675TMC3    C210036   3.901   4.503   0.080 -0.6805  0.7921 -0.5679
  675TMC3    C310037   3.966   4.452   0.189  0.8915  0.5644 -0.3090
  675TMC3    C410038   3.956   4.717   0.162 -0.0772 -0.6464  0.0130
  675TMC3    C510039   4.014   4.656   0.269 -0.5180  0.7539  0.8348
  675TMC3    C610040   4.024   4.520   0.287 -0.3337 -0.0461 -0.2670
  675TMC3     C10041   3.762   4.683   0.023  0.1111 -0.0668 -0.0049
  675TMC3     O10042   3.669   4.602   0.049  0.5023  0.3198  0.4894
  675TMC3     H10043   3.853   4.426   0.020 -1.4478  0.6442  0.2509
  675TMC3    H110044   3.950   0.086   0.147  2.9269 -0.4687  0.1445
  675TMC3    H210045   4.074   4.477   0.373 -1.4788 -1.0206 -0.0939
  675TMC3    C710046   4.063   4.736   0.380 -0.4751  0.1917  1.0257
  675TMC3    C810047   3.974   4.308   0.198 -0.1465  0.1534  0.7423
  675TMC3    O110048   4.118   4.669   0.467 -0.8260  0.1256  0.4678
  675TMC3    O210049   3.967   4.239   0.103 -0.2849  0.3443 -1.0023
  676MPD2     C10050   1.994   2.449  10.976  0.4827  0.5219 -0.5606
  676MPD2    C110051   1.955   2.355  11.073  0.3160 -0.3986 -0.0571
  676MPD2    C210052   1.881   2.244  11.032 -0.3072  0.3089  0.2403
  676MPD2    C310053   1.858   2.220  10.898  0.9946 -0.2914 -0.2831
  676MPD2    C410054   1.894   2.314  10.803  0.3024  0.2395  0.2815
  676MPD2    C510055   1.953   2.430  10.846  0.4630 -0.2451  0.0229
  676MPD2     H10056   1.848   2.172  11.106 -1.6533 -0.5032 -1.1419
  676MPD2    H110057   1.864   2.303  10.699  0.4607 -1.5690  0.4200
  676MPD2    H210058   2.040   2.543  11.004  4.0650 -1.0874 -1.1480
  676MPD2    H310059   1.966   2.507  10.771 -1.5047 -1.0154 -1.0995
  676MPD2     N10060   1.793   2.101  10.856  0.1513 -0.4131  0.1488
  676MPD2    H510061   1.802   2.083  10.757  1.9848  1.1067  0.0246
  676MPD2    N110062   1.975   2.372  11.214 -0.0913  0.3966  0.3333
  676MPD2    H710063   1.927   2.305  11.274 -2.1877  1.1556 -0.4845
  677TMC3    C110064   2.060   2.471  11.419  0.3039 -0.6084 -0.0238
  677TMC3    C210065   2.050   2.352  11.483  0.2187  0.0342  0.6956
  677TMC3    C310066   2.053   2.357  11.628  0.1421  0.3761 -0.3443
  677TMC3    C410067   2.078   2.585  11.495 -0.5825  0.1545 -0.3231
  677TMC3    C510068   2.091   2.585  11.629 -0.0996 -0.3286  0.1086
  677TMC3    C610069   2.080   2.470  11.701  0.0528 -0.6375 -0.4927
  677TMC3     C10070   2.045   2.478  11.273  0.1379 -0.4266 -0.0164
  677TMC3     O10071   2.094   2.575  11.216 -0.9864 -0.1412 -0.0867
  677TMC3     H10072   2.041   2.258  11.430 -0.1440  0.1319  0.5882
  677TMC3    H110073   2.077   2.677  11.438  0.2729  0.0447 -0.5135
  677TMC3    H210074   2.100   2.463  11.807  0.4217  0.2389 -0.5015
  677TMC3    C710075   2.066   2.702  11.707 -0.7304  0.1726 -0.0927
  677TMC3    C810076   2.051   2.234  11.705  0.1918  0.3776  0.4049
  677TMC3    O110077   2.064   2.690  11.828 -0.2500 -0.0187 -0.1429
  677TMC3    O210078   2.050   2.252  11.828 -0.0563  0.8505 -0.3452
  678MPD2     C10079   4.326   3.632   1.981  0.1204 -0.3439 -0.5237
  678MPD2    C110080   4.279   3.607   1.851 -0.0046 -0.2474 -0.5120
  678MPD2    C210081   4.161   3.542   1.821 -0.5766 -0.8454  0.1220
  678MPD2    C310082   4.092   3.489   1.933  0.3733  0.2656 -0.3552
  678MPD2    C410083   4.147   3.509   2.056  0.2048  0.4377 -0.4432
  678MPD2    C510084   4.261   3.576   2.086  0.1215 -0.1262 -0.4016
  678MPD2     H10085   4.123   3.513   1.724 -1.6110  1.6050 -0.2099
  678MPD2    H110086   4.095   3.464   2.140  2.1621 -2.4796 -0.7893
  678MPD2    H210087   4.424   3.673   2.004 -0.1243 -0.5281  0.8333
  678MPD2    H310088   4.298   3.577   2.188  1.8936  1.6141 -1.0543
  678MPD2     N10089   3.981   3.404   1.903 -0.5937 -0.4713  0.6371
  678MPD2    H510090   3.962   3.392   1.804 -2.5311  2.6642  0.6263
  678MPD2    N110091   4.351   3.638   1.737  0.1260  0.0200 -0.0752
  678MPD2    H710092   4.300   3.624   1.650 -0.6914  1.2054  0.2104
  679TMC3    C110093   4.652   3.869   1.461  0.7355 -0.8189 -0.7478
  679TMC3    C210094   4.617   3.832   1.583 -0.0216 -0.2136 -0.5527
  679TMC3    C310095   4.503   3.755   1.600 -0.3574 -0.1117 -0.0790
  679TMC3    C410096   4.570   3.846   1.353  0.2075  0.1740  0.3410
  679TMC3    C510097   4.464   3.763   1.370 -0.3729  0.7171 -0.0875
  679TMC3    C610098   4.426   3.712   1.492  0.3201 -0.5953 -0.4564
  679TMC3     C10099   0.018   3.966   1.444 -0.6700 -0.0403 -0.5249
  679TMC3     O10100   0.010   4.064   1.518 -0.6850 -0.3288 -0.0609
  679TMC3     H10101   4.676   3.860   1.670 -0.6853 -1.6323  0.3611
  679TMC3    H110102   4.587   3.897   1.259 -0.2796 -1.8282 -0.8245
  679TMC3    H210103   4.349   3.636   1.493 -1.7709  1.5398 -0.5102
  679TMC3    C710104   4.407   3.710   1.256 -0.3091 -0.3978 -0.3892
  679TMC3    C810105   4.468   3.709   1.734 -0.7460  0.2933  0.2754
  679TMC3    O110106   4.291   3.670   1.265  0.4264 -0.0312 -0.0896
  679TMC3    O210107   4.528   3.752   1.831 -0.1737 -0.7731  0.1434
  680MPD2     C10108   3.867   0.962  13.582 -0.0244 -1.4037  0.0747
  680MPD2    C110109   3.902   0.971  13.709  0.4726 -0.3324 -0.9198
  680MPD2    C210110   3.823   1.048  13.798  0.1182  0.1001  0.0756
  680MPD2    C310111   3.715   1.120  13.757  0.0885 -0.1518  0.3879
  680MPD2    C410112   3.696   1.124  13.620  0.6784 -0.0188  0.4348
  680MPD2    C510113   3.768   1.042  13.536  0.0868 -0.3628  0.2569
  680MPD2     H10114   3.860   1.049  13.900 -3.5989  0.3793  1.4195
  680MPD2    H110115   3.613   1.174  13.571  0.4619 -0.3735  0.4418
  680MPD2    H210116   3.919   0.899  13.512 -0.5174 -1.7130 -0.0120
  680MPD2    H310117   3.746   1.041  13.429  1.9417 -2.3247 -0.0887
  680MPD2     N10118   3.628   1.187  13.844  0.4737 -0.4177 -0.1633
  680MPD2    H510119   3.590   1.274  13.808  0.6129  0.6732  2.3434
  680MPD2    N110120   4.026   0.911  13.747  0.1857  0.3183  0.3737
  680MPD2    H710121   4.044   0.906  13.847 -0.8781  0.9237  0.5969
  681TMC3    C110122   4.208   0.758  13.742  0.6380 -0.9560 -0.5340
  681TMC3    C210123   4.164   0.680  13.848  0.1595 -0.3584 -0.0856
  681TMC3    C310124   4.243   0.580  13.899 -0.5399 -0.0589 -0.2444
  681TMC3    C410125   4.327   0.721  13.685 -0.4018  0.0020  0.0217
  681TMC3    C510126   4.403   0.621  13.742 -0.0436  0.0046  0.1866
  681TMC3    C610127   4.364   0.540  13.843  0.1988 -0.1741  0.1416
  681TMC3     C10128   4.117   0.853  13.665  0.4948  0.8216  0.1056
  681TMC3     O10129   4.130   0.846  13.546  0.0231  0.1277  0.3339
  681TMC3     H10130   4.062   0.697  13.881  1.2443  1.9329  2.1237
  681TMC3    H110131   4.363   0.783  13.603 -1.1313  0.1961 -0.1500
  681TMC3    H210132   4.421   0.459  13.886  2.4667  0.7561 -1.1433
  681TMC3    C710133   4.528   0.582  13.675 -0.9386 -0.2628  0.7531
  681TMC3    C810134   4.193   0.505  14.007 -0.4954 -0.8355  0.5873
  681TMC3    O110135   4.600   0.513  13.740  0.1394 -0.5160  0.5101
  681TMC3    O210136   4.225   0.385  14.013  0.2860 -0.0503  0.5294
  682MPD2     C10137   0.857   2.553  10.655 -0.4867  0.0264 -0.2554
  682MPD2    C110138   0.882   2.468  10.757  0.1577 -0.3011  0.5700
  682MPD2    C210139   0.834   2.486  10.884 -0.4221 -1.1343 -0.0126
  682MPD2    C310140   0.759   2.595  10.912 -0.2825  0.0701 -0.6956
  682MPD2    C410141   0.727   2.684  10.809  0.5566  0.1095  0.1579
  682MPD2    C510142   0.774   2.659  10.681  0.0214 -0.0325  0.1588
  682MPD2     H10143   0.846   2.414  10.964 -1.1738 -1.4364 -0.1681
  682MPD2    H110144   0.675   2.776  10.832  1.8795  0.9488 -0.1341
  682MPD2    H210145   0.901   2.558  10.555 -0.9524  0.3073 -0.4448
  682MPD2    H310146   0.763   2.744  10.614 -0.2011 -0.5837 -0.4915
  682MPD2     N10147   0.706   2.628  11.043  0.0806 -0.3932 -0.3471
  682MPD2    H510148   0.649   2.711  11.052 -1.3133 -1.4216  0.4198
  682MPD2    N110149   0.972   2.359  10.733 -0.6051 -0.2499  0.3898
  682MPD2    H710150   0.991   2.295  10.810 -0.6679 -1.1154 -0.3241
  683TMC3    C110151   0.628   2.656  11.506 -0.4392 -0.6490  0.2404
  683TMC3    C210152   0.507   2.714  11.490 -0.2138  0.0333 -0.3404
  683TMC3    C310153   0.463   2.718  11.359  0.5674  0.2296  0.9107
  683TMC3    C410154   0.712   2.629  11.403 -0.5956  0.1473 -0.1425
  683TMC3    C510155   0.659   2.639  11.272  0.2372 -0.3576 -0.3850
  683TMC3    C610156   0.533   2.689  11.245 -0.1628 -0.4336  0.2499
  683TMC3     C10157   0.701   2.670  11.636  0.5569  0.8951  0.6920
  683TMC3     O10158   0.678   2.773  11.707  0.0144 -0.0251 -0.1938
  683TMC3     H10159   0.444   2.729  11.577 -0.8027 -1.5979 -0.4904
  683TMC3    H110160   0.815   2.599  11.413 -0.0016  2.1411 -0.1951
  683TMC3    H210161   0.491   2.682  11.146 -3.3958 -1.6402  1.7053
  683TMC3    C710162   0.726   2.563  11.165  0.4961 -0.3182  0.1465
  683TMC3    C810163   0.317   2.741  11.339 -0.4892 -0.7311  0.1727
  683TMC3    O110164   0.808   2.476  11.191 -0.0500 -0.0131 -0.4350
  683TMC3    O210165   0.288   2.798  11.237  0.2994  0.8420  0.0682
  684MPD2     C10166   3.940   1.776  16.390 -0.3629 -0.3343 -0.4657
  684MPD2    C110167   3.875   1.829  16.282  0.1660 -0.0822 -0.0776
  684MPD2    C210168   3.828   1.957  16.300 -0.3109 -0.0284  0.0137
  684MPD2    C310169   3.845   2.034  16.412  0.4829  0.7094  0.0205
  684MPD2    C410170   3.934   1.984  16.510 -0.2483 -0.0946  0.2193
  684MPD2    C510171   3.973   1.855  16.493  0.6103  0.2459  0.0230
  684MPD2     H10172   3.764   1.996  16.222 -0.4463  2.3016  1.2735
  684MPD2    H110173   3.965   2.033  16.601  1.7457 -0.1362 -0.4531
  684MPD2    H210174   3.981   1.676  16.391 -0.2717 -0.2837  1.6731
  684MPD2    H310175   4.033   1.810  16.572  2.0774  0.2355 -1.0924
  684MPD2     N10176   3.792   2.166  16.439 -0.0642  0.4809 -0.1360
  684MPD2    H510177   3.836   2.223  16.511 -0.1945  1.1325 -0.5728
  684MPD2    N110178   3.844   1.762  16.164 -0.0071  0.2247  0.0166
  684MPD2    H710179   3.788   1.809  16.093 -1.2745 -2.8302 -1.0248
  685TMC3    C110180   3.836   1.597  15.994 -0.1388  0.3054  0.0447
  685TMC3    C210181   3.749   1.686  15.923  0.4528 -0.3607  0.2009
  685TMC3    C310182   3.771   1.695  15.786 -0.5317  0.3503 -0.0239
  685TMC3    C410183   3.922   1.509  15.932  0.1221 -0.1541 -0.0141
  685TMC3    C510184   3.940   1.521  15.792  1.0018 -0.3631 -0.4947
  685TMC3    C610185   3.870   1.622  15.724 -0.0891  0.5180  0.5597
  685TMC3     C10186   3.884   1.633  16.129  0.4568 -0.4253 -0.6306
  685TMC3     O10187   3.979   1.573  16.178 -0.1582  0.1304  0.7186
  685TMC3     H10188   3.663   1.722  15.978  1.0631  1.2379  0.0811
  685TMC3    H110189   3.983   1.439  15.988 -2.4039 -1.1137  1.5351
  685TMC3    H210190   3.884   1.628  15.616 -0.3827  0.7693  0.5382
  685TMC3    C710191   4.076   1.506  15.742 -0.0879  0.5128  0.2234
  685TMC3    C810192   3.711   1.791  15.698  0.1985 -0.1861 -0.1772
  685TMC3    O110193   4.099   1.480  15.627 -0.3596  0.0354 -0.5461
  685TMC3    O210194   3.763   1.818  15.593 -0.3279 -0.0687 -0.7614
  686MPD2     C10195   0.780   1.783  15.525 -0.2193 -0.4204 -0.2322
  686MPD2    C110196   0.803   1.749  15.658 -0.2994  0.2330 -0.6515
  686MPD2    C210197   0.918   1.674  15.684 -0.2783  0.6008  0.4932
  686MPD2    C310198   0.995   1.621  15.582  0.9178 -0.2708  0.3484
  686MPD2    C410199   0.977   1.677  15.458  0.2443 -0.1990 -0.3849
  686MPD2    C510200   0.872   1.754  15.430  0.4589  0.1253  0.1049
  686MPD2     H10201   0.944   1.658  15.788  1.9542 -0.2947 -0.2005
  686MPD2    H110202   1.037   1.649  15.372 -2.6073 -0.0932 -2.4080
  686MPD2    H210203   0.694   1.848  15.509  1.8812  1.9594 -1.9100
  686MPD2    H310204   0.856   1.795  15.331  2.1856  0.6904  0.0561
  686MPD2     N10205   1.103   1.530  15.606  0.1523  0.2427  0.5516
  686MPD2    H510206   1.164   1.521  15.526 -2.8883 -3.0124 -1.4039
  686MPD2    N110207   0.724   1.797  15.763 -0.2575  0.7070  0.1496
  686MPD2    H710208   0.640   1.846  15.735 -0.5844  0.4130  0.6117
  687TMC3    C110209   1.041   1.432  15.824 -0.2180 -0.4549  0.0046
  687TMC3    C210210   0.907   1.405  15.809 -0.1495  0.3659 -0.1210
  687TMC3    C310211   0.836   1.386  15.920  0.7561  0.5043 -0.7461
  687TMC3    C410212   1.096   1.430  15.952 -0.3205  0.6246  0.1862
  687TMC3    C510213   1.019   1.410  16.065  0.6766  0.1873  0.4750
  687TMC3    C610214   0.887   1.399  16.049  0.6712 -0.2044  0.2991
  687TMC3     C10215   1.134   1.465  15.720 -0.8115 -0.1216 -0.1217
  687TMC3     O10216   1.239   1.401  15.727  0.3708  0.5636 -0.1518
  687TMC3     H10217   0.864   1.387  15.712 -0.9878  2.5196 -0.1640
  687TMC3    H110218   1.202   1.449  15.958 -0.2132 -0.3490  1.3339
  687TMC3    H210219   0.819   1.407  16.132 -0.4280  0.1526 -0.6372
  687TMC3    C710220   1.069   1.479  16.179 -0.2373  0.3861  0.3818
  687TMC3    C810221   0.692   1.370  15.917 -0.2789 -0.3304 -0.0652
  687TMC3    O110222   0.985   1.554  16.233  0.4855  0.9880  0.6690
  687TMC3    O210223   0.640   1.321  16.018 -0.2598 -0.1220  0.8800
  688MPD2     C10224   4.333   0.793  17.204  0.0907 -0.0555 -0.4293
  688MPD2    C110225   4.388   0.683  17.262  0.6769  0.4811  0.5432
  688MPD2    C210226   4.488   0.613  17.196 -0.0183 -0.3771 -0.4541
  688MPD2    C310227   4.540   0.669  17.080 -0.5793 -0.5408 -0.0642
  688MPD2    C410228   4.484   0.783  17.027  0.6828  0.2192 -0.8749
  688MPD2    C510229   4.386   0.847  17.089  0.2699  0.2817 -0.1119
  688MPD2     H10230   4.531   0.527  17.248 -1.5159 -2.3019 -2.3896
  688MPD2    H110231   4.511   0.836  16.937  1.8593 -1.6186 -1.5797
  688MPD2    H210232   4.267   0.867  17.246 -0.9318 -2.0260  1.4201
  688MPD2    H310233   4.344   0.940  17.052 -1.1088 -0.3758 -0.2114
  688MPD2     N10234   4.656   0.618  17.011 -0.1816 -0.2890 -0.0275
  688MPD2    H510235   4.691   0.675  16.934  0.0202 -0.8726 -0.3662
  688MPD2    N110236   4.355   0.639  17.398 -0.3470 -0.0052  0.3055
  688MPD2    H710237   4.413   0.571  17.447 -0.3426  0.0204  0.3362
  689TMC3    C110238   4.245   0.634  17.609 -0.0691 -0.3949 -0.6247
  689TMC3    C210239   4.177   0.735  17.687 -0.0097 -0.7070 -0.6610
  689TMC3    C310240   4.161   0.689   0.067  0.3878 -0.5454  0.1691
  689TMC3    C410241   4.275   0.505  17.640 -0.3114  0.1620  0.3477
  689TMC3    C510242   4.256   0.474   0.019 -0.3222 -0.8795  0.1067
  689TMC3    C610243   4.184   0.557   0.100 -0.4027 -0.6577  0.3157
  689TMC3     C10244   4.246   0.678  17.471  0.1442 -0.2642  0.1371
  689TMC3     O10245   4.159   0.757  17.436 -0.4212  0.7090 -0.1062
  689TMC3     H10246   4.171   0.836  17.648 -2.1231 -0.5161  0.1285
  689TMC3    H110247   4.320   0.450  17.558 -0.0775 -1.2966  1.4660
  689TMC3    H210248   4.160   0.530   0.202 -2.6663 -0.1541 -0.0860
  689TMC3    C710249   4.270   0.339   0.064  0.2462 -0.6356  0.5319
  689TMC3    C810250   4.069   0.754   0.158  0.2556  0.0417  0.4672
  689TMC3    O110251   4.284   0.312   0.181  0.0217  0.2910 -0.0865
  689TMC3    O210252   4.073   0.730   0.276  0.2798 -0.3246  0.1141
  690MPD2     C10253   1.909   2.435  16.095  0.3887 -0.8530  0.1543
  690MPD2    C110254   1.900   2.381  15.968  0.1657  0.2898 -0.4464
  690MPD2    C210255   1.979   2.424  15.865  0.6048  1.0179  0.0448
  690MPD2    C310256   2.063   2.530  15.883 -0.1967 -0.6817  0.5018
  690MPD2    C410257   2.082   2.573  16.010  0.4174 -0.3117  0.2780
  690MPD2    C510258   2.007   2.527  16.117  0.2082  0.6776  0.0611
  690MPD2     H10259   1.951   2.399  15.764  1.6756  0.5618 -0.1395
  690MPD2    H110260   2.162   2.641  16.038  0.2072  0.1977 -0.3654
  690MPD2    H210261   1.851   2.405  16.182  0.5294 -0.4632  0.3792
  690MPD2    H310262   2.031   2.567  16.215 -0.7060 -0.9822  0.9561
  690MPD2     N10263   2.144   2.557  15.771  0.7226  0.8222 -0.1904
  690MPD2    H510264   2.117   2.502  15.690  0.5232 -0.4035  0.7260
  690MPD2    N110265   1.798   2.288  15.938  0.2550  0.4079  0.1674
  690MPD2    H710266   1.781   2.271  15.840  0.1882  1.2701  0.0235
  691TMC3    C110267   1.648   2.114  15.958  0.7613 -0.1031 -0.1551
  691TMC3    C210268   1.559   2.167  15.869  1.2518 -0.3086  0.1997
  691TMC3    C310269   1.498   2.085  15.779  0.2423  0.0195  0.7312
  691TMC3    C410270   1.706   1.990  15.934 -0.0913  0.1765  0.3931
  691TMC3    C510271   1.660   1.917  15.833  0.6755  0.1384  0.3833
  691TMC3    C610272   1.554   1.965  15.753 -1.0721 -0.0698 -0.4204
  691TMC3     C10273   1.729   2.211  16.028 -0.8372  0.2887  0.0913
  691TMC3     O10274   1.751   2.188  16.147 -0.2027 -0.7670 -0.4413
  691TMC3     H10275   1.522   2.269  15.882 -2.0561 -1.6724  1.4179
  691TMC3    H110276   1.766   1.943  16.012  2.6589  1.0793 -1.1926
  691TMC3    H210277   1.521   1.912  15.664  0.4152 -1.6381 -0.0202
  691TMC3    C710278   1.713   1.785  15.827  0.0395  0.4741 -0.4312
  691TMC3    C810279   1.393   2.136  15.680 -0.3513 -0.1456 -0.0520
  691TMC3    O110280   1.805   1.752  15.900  0.1106  0.1667  0.1463
  691TMC3    O210281   1.372   2.068  15.582  0.2689  0.1336 -0.3660
  692TMC3    C110282   3.414   3.382  15.808 -0.7681  0.8531 -0.5922
  692TMC3    C210283   3.515   3.449  15.748 -0.0796 -0.2840 -0.4091
  692TMC3    C310284   3.588   3.392  15.648  0.5856  0.4148 -0.0655
  692TMC3    C410285   3.389   3.252  15.787 -0.2485 -0.1623  0.0268
  692TMC3    C510286   3.459   3.187  15.690  0.2541 -0.1599  0.0043
  692TMC3    C610287   3.559   3.256  15.621 -0.3404  0.3421 -0.5770
  692TMC3     C10288   3.349   3.434  15.930  0.1798 -0.4716 -0.3946
  692TMC3     O10289   3.281   3.349  15.991 -0.2880 -0.1342 -0.3373
  692TMC3     H10290   3.511   3.557  15.744 -0.1472 -0.3573 -1.9717
  692TMC3    H110291   3.307   3.191  15.824 -1.3373  0.8622 -0.7106
  692TMC3    H210292   3.611   3.212  15.537  2.3680  0.1925  1.1662
  692TMC3    C710293   3.453   3.037  15.670  0.6426 -0.6361  0.0052
  692TMC3    C810294   3.725   3.389  15.683 -0.0657 -0.1059 -0.3909
  692TMC3    O110295   3.505   2.999  15.566 -0.0612  0.0753  0.1510
  692TMC3    O210296   3.794   3.288  15.663 -0.4211 -0.5453  0.3794
  693MPD2     C10297   3.127   1.466  11.676 -0.4977 -0.6324 -0.0437
  693MPD2    C110298   3.051   1.393  11.583 -0.6611 -0.0714  0.3152
  693MPD2    C210299   3.096   1.275  11.533 -0.5910 -0.0853  0.5783
  693MPD2    C310300   3.221   1.228  11.588  0.0943  0.2504  0.4810
  693MPD2    C410301   3.296   1.297  11.679 -0.3408 -0.4666 -1.3575
  693MPD2    C510302   3.248   1.419  11.719  0.7878 -0.5942  0.5194
  693MPD2     H10303   3.049   1.218  11.454 -1.6788  0.9442  0.4829
  693MPD2    H110304   3.395   1.272  11.716 -1.5446 -0.9837  1.5534
  693MPD2    H210305   3.100   1.567  11.704 -0.4091 -0.6632  0.1504
  693MPD2    H310306   3.307   1.473  11.793  0.8207  0.3644 -0.2048
  693MPD2     N10307   3.277   1.110  11.544 -0.0657  0.5100  0.8295
  693MPD2    H510308   3.374   1.095  11.567  0.3946 -0.2900 -1.5898
  693MPD2    N110309   2.931   1.451  11.528  0.3197 -0.0213 -0.4187
  693MPD2    H710310   2.887   1.536  11.561 -0.3256  0.1193 -1.6689
  694TMC3    C110311   2.721   1.477  11.414  0.2292 -0.2655  0.2679
  694TMC3    C210312   2.637   1.438  11.316  0.1677 -0.1993 -1.3290
  694TMC3    C310313   2.507   1.488  11.318 -0.0362 -0.2841 -0.1852
  694TMC3    C410314   2.682   1.556  11.518  0.2455 -0.1736 -0.4059
  694TMC3    C510315   2.548   1.597  11.517  0.2747  0.6616  0.5105
  694TMC3    C610316   2.462   1.570  11.412 -0.6414 -0.1955  0.1542
  694TMC3     C10317   2.844   1.398  11.431  0.7064 -0.7876 -0.7633
  694TMC3     O10318   2.866   1.310  11.351  0.7107 -0.2238 -0.0774
  694TMC3     H10319   2.677   1.369  11.243  1.1864 -2.7717  1.6707
  694TMC3    H110320   2.746   1.572  11.604  0.2452  0.0088 -0.4388
  694TMC3    H210321   2.356   1.593  11.422 -0.5283  0.8803 -1.1306
  694TMC3    C710322   2.491   1.637  11.639 -0.2311 -0.8022 -0.3312
  694TMC3    C810323   2.409   1.423  11.238  0.3131  0.1668  0.8124
  694TMC3    O110324   2.486   1.752  11.677  0.2777  0.2447 -0.1810
  694TMC3    O210325   2.291   1.423  11.271 -0.5434  0.0881 -0.1911
  695MPD2     C10326   4.042   3.090  13.388 -0.1436  0.1395 -0.1907
  695MPD2    C110327   3.980   3.042  13.503  0.5243 -0.1615 -0.0107
  695MPD2    C210328   3.842   3.041  13.517  0.0192 -0.0848 -0.1866
  695MPD2    C310329   3.766   3.090  13.419  0.3925  1.0448  0.1907
  695MPD2    C410330   3.825   3.144  13.300 -0.4127  0.1925  0.3172
  695MPD2    C510331   3.963   3.147  13.291 -0.5011 -0.7064 -0.3566
  695MPD2     H10332   3.796   3.003  13.608 -1.1895 -0.7159 -1.0673
  695MPD2    H110333   3.764   3.179  13.217 -1.1636 -1.0486  0.3436
  695MPD2    H210334   4.147   3.095  13.365 -0.4286  0.0400 -1.4984
  695MPD2    H310335   4.007   3.179  13.198 -1.7069  1.2423 -0.2636
  695MPD2     N10336   3.629   3.079  13.442 -0.0323 -0.0980 -0.1018
  695MPD2    H510337   3.598   3.042  13.531 -0.8217  4.5797  1.5644
  695MPD2    N110338   4.051   2.992  13.613  0.0246 -0.9601 -0.3153
  695MPD2    H710339   3.993   2.963  13.692 -0.0978 -0.3665 -0.1845
  696TMC3    C110340   3.394   3.115  13.417  0.1525  0.6977  0.2367
  696TMC3    C210341   3.386   3.026  13.521  0.8213 -0.2399 -0.0270
  696TMC3    C310342   3.280   3.041  13.604 -0.3551  0.3883  0.2968
  696TMC3    C410343   3.306   3.221  13.402 -0.3991 -0.3478 -0.1229
  696TMC3    C510344   3.211   3.232  13.498 -1.0303 -0.2799 -0.3670
  696TMC3    C610345   3.189   3.143  13.596 -0.2834  0.3668 -0.1918
  696TMC3     C10346   3.525   3.128  13.364  0.6316  0.0822 -0.3886
  696TMC3     O10347   3.522   3.204  13.270  0.5125 -0.0019 -0.5558
  696TMC3     H10348   3.446   2.937  13.537  1.2046 -0.6341 -3.7472
  696TMC3    H110349   3.308   3.290  13.318 -0.4848  1.7913  1.6295
  696TMC3    H210350   3.105   3.153  13.664  0.2351 -0.3592  0.5671
  696TMC3    C710351   3.152   3.372  13.504  0.0683  0.1756  0.5733
  696TMC3    C810352   3.229   2.918  13.667  0.0193 -0.4904 -0.0131
  696TMC3    O110353   3.150   3.434  13.398  0.7381 -0.7617 -0.4845
  696TMC3    O210354   3.236   2.819  13.597 -0.0232  0.1595 -0.1647
  697MPD2     C10355   3.224   0.110  15.487 -0.2285  0.1188  0.1762
  697MPD2    C110356   3.273   0.035  15.385  0.1043 -0.1296  0.5516
  697MPD2    C210357   3.309   0.095  15.265  0.3613  0.8392 -0.2690
  697MPD2    C310358   3.298   0.233  15.248 -0.4580  0.2871 -0.1360
  697MPD2    C410359   3.252   0.310  15.352 -0.4919  0.2260  0.4834
  697MPD2    C510360   3.218   0.246  15.464  0.2165 -0.1828 -0.4263
  697MPD2     H10361   3.355   0.040  15.184  2.7123  2.2273  0.1191
  697MPD2    H110362   3.236   0.417  15.345  1.7797  0.4523 -1.5122
  697MPD2    H210363   3.190   0.075  15.584  1.4855 -0.4551  0.5627
  697MPD2    H310364   3.183   0.305  15.548  2.9934 -1.0385  1.3158
  697MPD2     N10365   3.340   0.278  15.121  0.4179  0.8496 -0.3146
  697MPD2    H510366   3.378   0.205  15.060 -1.5992  1.0569 -1.8163
  697MPD2    N110367   3.286   4.630  15.393 -0.3305 -0.3361  0.1132
  697MPD2    H710368   3.315   4.593  15.303 -3.4620 -0.4180 -0.8901
  698TMC3    C110369   3.429   0.428  14.973 -0.0623  0.3199  0.3398
  698TMC3    C210370   3.549   0.493  14.999 -0.2959  0.7658 -0.4528
  698TMC3    C310371   3.648   0.468  14.901 -0.3232  0.2255 -0.6608
  698TMC3    C410372   3.413   0.339  14.869  0.2743 -0.0863  0.0056
  698TMC3    C510373   3.505   0.332  14.771 -0.1678  0.1496 -0.4638
  698TMC3    C610374   3.622   0.401  14.781  0.1464  0.2745 -0.5175
  698TMC3     C10375   3.354   0.412  15.088 -0.4758  0.1319  0.3677
  698TMC3     O10376   3.353   0.500  15.169 -0.5505  0.6511 -0.9471
  698TMC3     H10377   3.570   0.547  15.091  2.0295  1.9284 -1.6767
  698TMC3    H110378   3.320   0.288  14.850 -0.8610  2.4604 -1.2976
  698TMC3    H210379   3.695   0.402  14.701  1.5050 -0.6386  0.7052
  698TMC3    C710380   3.436   0.342  14.646  0.0962 -0.3422 -0.4174
  698TMC3    C810381   3.776   0.527  14.909  0.2917 -0.3854  0.0433
  698TMC3    O110382   3.313   0.350  14.654  1.0611 -0.1108 -0.0985
  698TMC3    O210383   3.861   0.451  14.867 -0.7691 -0.5531 -0.3087
  699TMC3    C110384   3.345   3.199  12.978  0.9511  0.5747  0.8593
  699TMC3    C210385   3.369   3.072  13.006 -0.6409 -0.3531  0.3284
  699TMC3    C310386   3.269   2.995  13.064  0.1468  0.2988 -0.0561
  699TMC3    C410387   3.230   3.263  13.015 -0.1810 -0.2620 -0.2044
  699TMC3    C510388   3.135   3.185  13.070  0.0202 -0.3570  0.2123
  699TMC3    C610389   3.147   3.057  13.086 -0.0046  0.5609 -0.0937
  699TMC3     C10390   3.438   3.271  12.889  0.2064 -0.5462  0.1085
  699TMC3     O10391   3.554   3.241  12.908  0.3293 -0.1925  0.1171
  699TMC3     H10392   3.459   3.018  12.979  0.8798  0.9631  2.8374
  699TMC3    H110393   3.227   3.371  13.010  2.3364 -0.1097  1.5316
  699TMC3    H210394   3.067   3.000  13.132  2.6448 -1.1300  2.4424
  699TMC3    C710395   3.026   3.258  13.144 -0.0099  0.1844  0.5954
  699TMC3    C810396   3.295   2.885  13.158 -1.0619  0.6359  0.3701
  699TMC3    O110397   3.001   3.223  13.258  0.5324 -0.0888 -0.3448
  699TMC3    O210398   3.197   2.843  13.217  0.8752  0.2221  0.6798
  700TMC3    C110399   2.552   1.056  17.481  0.2500  0.0163  0.0035
  700TMC3    C210400   2.620   0.939  17.457 -0.5194 -0.1832  0.5952
  700TMC3    C310401   2.736   0.916  17.525 -0.2786 -0.2284 -0.2247
  700TMC3    C410402   2.599   1.152  17.568 -0.4546  0.2829 -0.1785
  700TMC3    C510403   2.708   1.121  17.644  0.5302  0.2184  0.3843
  700TMC3    C610404   2.777   1.007  17.617 -0.6637 -0.0490  0.3497
  700TMC3     C10405   2.479   1.103  17.369  0.0396 -0.8011 -0.0007
  700TMC3     O10406   2.394   1.026  17.323  0.3665  0.2404  0.4622
  700TMC3     H10407   2.591   0.864  17.383  0.8130  0.2112 -0.3189
  700TMC3    H110408   2.538   1.238  17.593 -0.3192  0.6311 -1.0398
  700TMC3    H210409   2.879   1.003  17.653  0.6443 -1.2536 -3.5414
  700TMC3    C710410   2.751   1.204   0.001 -0.3355 -0.5500  0.2342
  700TMC3    C810411   2.828   0.818  17.481  0.7173  0.5668 -0.0717
  700TMC3    O110412   2.869   1.228   0.006 -0.2416 -0.0134  0.6445
  700TMC3    O210413   2.945   0.849  17.478  0.3233 -0.2740 -0.0423
  701TMC3    C110414   2.864   4.272  15.816  0.9976  0.2006 -0.2477
  701TMC3    C210415   2.868   4.228  15.684  0.0761  0.5709  0.6314
  701TMC3    C310416   2.921   4.312  15.583  0.0721 -0.1681 -0.1789
  701TMC3    C410417   2.926   4.390  15.845  0.1334  0.8427 -0.7151
  701TMC3    C510418   2.972   4.475  15.748 -0.4455 -0.8779 -0.7408
  701TMC3    C610419   2.969   4.439  15.617 -0.1845  0.0044  0.9599
  701TMC3     C10420   2.752   4.248  15.903 -0.3171 -0.2548  0.5042
  701TMC3     O10421   2.737   4.315  16.003 -0.3440  0.0472 -0.1098
  701TMC3     H10422   2.827   4.133  15.653  0.7631  0.4926 -0.0465
  701TMC3    H110423   2.893   4.439  15.936  1.0965 -0.4721  0.3369
  701TMC3    H210424   3.017   4.501  15.542 -0.2103  0.2749  1.1675
  701TMC3    C710425   2.955   4.621  15.777  0.6525 -0.6413  0.2295
  701TMC3    C810426   2.944   4.265  15.449  1.0024 -0.2718  0.0038
  701TMC3    O110427   2.926   4.694  15.681 -0.3592  0.0514 -0.1631
  701TMC3    O210428   3.037   4.317  15.387  0.9172 -0.8429  0.0667
  702MPD2     C10429   2.053   1.642  10.441 -0.3827 -0.6818  0.3373
  702MPD2    C110430   1.982   1.763  10.436 -0.5505  0.1598  0.1016
  702MPD2    C210431   2.052   1.869  10.390 -0.5067 -0.1825 -0.9881
  702MPD2    C310432   2.173   1.860  10.323 -0.1998  0.1719 -0.2619
  702MPD2    C410433   2.237   1.739  10.320 -0.6695  0.1777 -0.4449
  702MPD2    C510434   2.173   1.631  10.378  0.2517  1.0856 -0.1647
  702MPD2     H10435   1.998   1.962  10.405 -0.4263 -0.3621  0.3885
  702MPD2    H110436   2.332   1.728  10.268 -1.2259 -0.2820 -1.3611
  702MPD2    H210437   2.016   1.553  10.491  1.3033 -1.8212 -0.4766
  702MPD2    H310438   2.220   1.535  10.360 -0.5054  0.5850  0.5103
  702MPD2     N10439   2.224   1.980  10.265 -0.3502  0.2287 -0.4184
  702MPD2    H510440   2.322   1.980  10.236  0.9240 -0.6745  3.9226
  702MPD2    N110441   1.859   1.788  10.510 -0.3105  0.0584 -0.6396
  702MPD2    H710442   1.835   1.885  10.525 -0.7885 -0.1992  0.2974
  703TMC3    C110443   2.218   2.199  10.166 -0.1334 -0.0188 -0.8092
  703TMC3    C210444   2.137   2.277  10.092  0.2056  0.3987  0.3074
  703TMC3    C310445   2.176   2.412  10.084 -0.0420 -0.1166 -0.1169
  703TMC3    C410446   2.330   2.251  10.235  0.5441  0.9806 -0.0085
  703TMC3    C510447   2.360   2.385  10.224 -0.1192 -0.0726  0.0808
  703TMC3    C610448   2.289   2.463  10.143  0.3320 -0.0000  0.7149
  703TMC3     C10449   2.145   2.089  10.228  0.0486  0.3696  0.1662
  703TMC3     O10450   2.024   2.107  10.237 -0.3223  0.1524 -0.7219
  703TMC3     H10451   2.042   2.238  10.057  0.9847 -1.4841  0.3321
  703TMC3    H110452   2.376   2.181  10.303  1.3637  0.4281 -1.1401
  703TMC3    H210453   2.303   2.570  10.149  0.6509  0.0138 -0.2398
  703TMC3    C710454   2.474   2.432  10.286  0.2833 -0.2842 -0.6608
  703TMC3    C810455   2.067   2.506  10.055  0.0180  0.4252  0.3263
  703TMC3    O110456   2.540   2.514  10.226  0.2385 -0.2888  0.0120
  703TMC3    O210457   2.065   2.588   9.968 -0.0166 -0.2502 -0.2022
  704TMC3    C110458   4.611   4.600  12.752 -0.1714  0.3254  0.0183
  704TMC3    C210459   4.698   4.616  12.648 -0.6410  0.5775 -0.0579
  704TMC3    C310460   0.039   4.514  12.623 -0.2185 -0.6031 -0.0546
  704TMC3    C410461   4.588   4.483  12.816  0.3124 -0.5022  0.5152
  704TMC3    C510462   4.657   4.376  12.773  0.2436 -0.2305  0.2235
  704TMC3    C610463   0.024   4.392  12.686 -0.0865  0.2531  0.0303
  704TMC3     C10464   4.511   4.699  12.768  0.5483  0.4517  0.1589
  704TMC3     O10465   4.482   4.724  12.885  0.3421 -0.4674 -0.0478
  704TMC3     H10466   4.733   4.718  12.634  0.2964  0.1838 -0.5842
  704TMC3    H110467   4.509   4.472  12.890  0.7662  0.3532  1.1322
  704TMC3    H210468   0.100   4.315  12.688  0.7809  1.1002  0.1586
  704TMC3    C710469   4.582   4.266  12.728  0.4831 -0.4099 -0.1988
  704TMC3    C810470   0.126   4.505  12.502  0.7421 -0.4288 -0.1176
  704TMC3    O110471   4.648   4.191  12.656 -0.2897  0.0276  0.8116
  704TMC3    O210472   0.201   4.412  12.485  0.5317 -0.2610  0.3581
  705MPD2     C10473   3.937   2.996  16.682  0.2657 -0.2582 -0.4080
  705MPD2    C110474   3.919   3.116  16.625  0.1236  0.1793  0.3093
  705MPD2    C210475   3.829   3.203  16.681 -0.0740  0.2655 -0.0289
  705MPD2    C310476   3.756   3.163  16.791 -0.0095  0.0282 -0.1632
  705MPD2    C410477   3.773   3.038  16.843 -0.3032 -0.1885 -0.6414
  705MPD2    C510478   3.859   2.950  16.781 -0.0201  0.3805  0.4110
  705MPD2     H10479   3.823   3.304  16.641  2.2107  1.3359  2.3323
  705MPD2    H110480   3.705   3.008  16.921 -1.3291 -0.8470 -1.7828
  705MPD2    H210481   4.016   2.928  16.650 -0.0777 -0.9017  0.1116
  705MPD2    H310482   3.872   2.851  16.823 -1.0993  0.6795  1.4639
  705MPD2     N10483   3.650   3.245  16.848  0.2357  0.1226  0.2742
  705MPD2    H510484   3.607   3.215  16.936  2.8426  0.3460  1.6100
  705MPD2    N110485   4.014   3.171  16.540 -0.2918 -0.2541  0.0129
  705MPD2    H710486   3.995   3.268  16.517  0.2302 -0.3264 -0.7013
  706TMC3    C110487   4.337   3.183  16.198 -0.7803  0.1609  0.0173
  706TMC3    C210488   4.354   3.317  16.203 -0.5695 -0.2746  0.4186
  706TMC3    C310489   4.292   3.381  16.311  0.8824 -0.4942 -0.3594
  706TMC3    C410490   4.263   3.114  16.287  0.3561 -0.2909  0.3312
  706TMC3    C510491   4.182   3.182  16.382 -0.5611 -0.3954 -0.2966
  706TMC3    C610492   4.212   3.318  16.403  0.1398 -0.5696  0.2291
  706TMC3     C10493   4.447   3.115  16.140  0.2782  0.2681  0.4284
  706TMC3     O10494   4.559   3.172  16.129  0.0696  0.4810  0.5901
  706TMC3     H10495   4.399   3.370  16.120 -2.0345 -0.0925 -0.2525
  706TMC3    H110496   4.251   3.008  16.269 -0.7819  0.3950 -2.8119
  706TMC3    H210497   4.176   3.372  16.490 -3.6508  0.1220 -1.7403
  706TMC3    C710498   4.117   3.100  16.477 -0.4287 -0.3181 -0.2609
  706TMC3    C810499   4.263   3.522  16.278 -0.5718  0.0740  0.2507
  706TMC3    O110500   4.177   2.997  16.508  0.3979 -0.3146  0.2892
  706TMC3    O210501   4.295   3.557  16.163  0.0815  0.4220  0.3207
  707TMC3    C110502   2.346   3.563   1.916  0.7596 -0.6399 -0.7202
  707TMC3    C210503   2.234   3.496   1.881  0.4196 -0.1479  0.0065
  707TMC3    C310504   2.167   3.537   1.770  0.3737 -0.6579 -0.8375
  707TMC3    C410505   2.394   3.671   1.849  0.1258  0.3581 -0.3310
  707TMC3    C510506   2.315   3.722   1.751 -0.3271 -0.6034 -1.2780
  707TMC3    C610507   2.201   3.655   1.704  0.3472  0.0966  0.7714
  707TMC3     C10508   2.442   3.468   1.945  0.4529 -0.3671 -0.8564
  707TMC3     O10509   2.413   3.352   1.906 -0.0664  0.2694  0.1560
  707TMC3     H10510   2.207   3.406   1.934  1.2884 -1.7214 -2.2225
  707TMC3    H110511   2.486   3.720   1.877  0.4466 -0.8309  0.6954
  707TMC3    H210512   2.141   3.691   1.621  2.3644 -2.5955 -1.8482
  707TMC3    C710513   2.340   3.867   1.715  0.1831 -1.2323  0.4685
  707TMC3    C810514   2.097   3.441   1.688 -0.2050 -0.4548  0.9475
  707TMC3    O110515   2.404   3.936   1.788  0.1086 -0.0153 -0.1331
  707TMC3    O210516   2.031   3.483   1.592  0.3274 -0.1697  0.2132
  708MPD2     C10517   1.936   0.989  14.375 -0.5273  0.6423  0.4113
  708MPD2    C110518   2.012   1.095  14.325 -0.3315 -0.2073 -1.6965
  708MPD2    C210519   2.056   1.194  14.418 -0.7699 -0.1020 -0.0271
  708MPD2    C310520   2.022   1.191  14.554  1.1473 -0.6819  0.7198
  708MPD2    C410521   1.926   1.100  14.591  0.2104 -0.8265 -0.2670
  708MPD2    C510522   1.876   1.003  14.503 -0.1395  0.1081  0.2372
  708MPD2     H10523   2.129   1.261  14.375 -3.7758  2.7428 -0.6461
  708MPD2    H110524   1.893   1.084  14.693 -0.4516 -0.8613 -0.4877
  708MPD2    H210525   1.900   0.909  14.312  0.0682  1.4872 -0.9954
  708MPD2    H310526   1.801   0.928  14.522  0.5905 -0.2821  1.5589
  708MPD2     N10527   2.060   1.287  14.655 -0.1565  0.0235 -0.4157
  708MPD2    H510528   1.997   1.301  14.734  0.5811  0.5076  0.0910
  708MPD2    N110529   2.055   1.104  14.195 -0.3377 -0.1901  0.7445
  708MPD2    H710530   2.088   1.196  14.168 -1.1833 -0.1127 -0.0372
  709TMC3    C110531   2.000   1.093  13.966 -0.6218  0.4356 -0.9933
  709TMC3    C210532   2.109   1.113  13.890 -0.4194  0.4861  0.3809
  709TMC3    C310533   2.143   1.237  13.851 -0.0522 -0.4141  0.2264
  709TMC3    C410534   1.922   1.197  13.996  0.5299 -0.8243 -0.6810
  709TMC3    C510535   1.958   1.322  13.958 -0.3062  0.2527 -0.4598
  709TMC3    C610536   2.072   1.348  13.888 -0.9701  0.0919  0.3774
  709TMC3     C10537   2.038   1.021  14.086 -0.2096  0.0210  0.0644
  709TMC3     O10538   2.018   0.902  14.084 -0.6019  0.1009 -0.5478
  709TMC3     H10539   2.177   1.036  13.855  0.8618  0.6877  2.4085
  709TMC3    H110540   1.840   1.180  14.065  1.4321  1.3893  0.9331
  709TMC3    H210541   2.099   1.448  13.855 -1.4699 -0.5306 -1.9734
  709TMC3    C710542   1.931   1.435  14.045 -0.2236  0.2374 -0.1119
  709TMC3    C810543   2.263   1.251  13.773 -0.2392 -0.2431 -0.4171
  709TMC3    O110544   2.022   1.513  14.081 -0.0284 -0.0994 -0.1822
  709TMC3    O210545   2.374   1.216  13.816 -0.0330  0.2910  0.3056
  710TMC3    C110546   3.714   3.555   0.782 -0.6223  0.3239 -0.6284
  710TMC3    C210547   3.716   3.507   0.653 -0.5991 -0.7366  0.8401
  710TMC3    C310548   3.833   3.475   0.596  0.4359 -0.3229 -0.6719
  710TMC3    C410549   3.826   3.586   0.856 -0.6089  0.3453  0.7104
  710TMC3    C510550   3.942   3.561   0.785 -0.1978 -0.2296  0.1840
  710TMC3    C610551   3.949   3.504   0.657  0.6447  0.8673 -0.0775
  710TMC3     C10552   3.572   3.566   0.841 -0.0354 -0.6120  0.2615
  710TMC3     O10553   3.485   3.512   0.777 -0.7773 -0.8568 -0.3820
  710TMC3     H10554   3.623   3.492   0.600 -1.7708  2.3497  2.0496
  710TMC3    H110555   3.819   3.613   0.960 -0.8628 -1.6476  1.2208
  710TMC3    H210556   4.040   3.512   0.599  1.1946 -1.1525  0.4972
  710TMC3    C710557   4.061   3.591   0.862 -0.1585 -0.4314 -0.1560
  710TMC3    C810558   3.836   3.408   0.473  0.3701  0.4331  0.2252
  710TMC3    O110559   4.049   3.621   0.980  0.3964 -0.5147 -0.3636
  710TMC3    O210560   3.939   3.424   0.406  0.1466 -0.2871  0.3476
  711TMC3    C110561   3.041   3.635  14.883  0.0609 -0.4319  0.2379
  711TMC3    C210562   3.027   3.652  15.017  0.0564 -0.5767 -0.2018
  711TMC3    C310563   3.121   3.723  15.081 -0.5644 -0.3987  0.9602
  711TMC3    C410564   3.137   3.697  14.813 -0.0956 -0.1480  1.3983
  711TMC3    C510565   3.223   3.773  14.882 -0.2461  0.6826 -0.5100
  711TMC3    C610566   3.212   3.796  15.015 -0.1597  0.1576 -0.7560
  711TMC3     C10567   2.992   3.517  14.821 -0.0300 -0.0322  0.9314
  711TMC3     O10568   2.879   3.486  14.849  0.3921  0.0424 -0.5229
  711TMC3     H10569   2.951   3.594  15.068 -1.6501  0.7254 -1.2710
  711TMC3    H110570   3.134   3.695  14.705 -0.3563 -0.6898  1.4172
  711TMC3    H210571   3.280   3.868  15.059 -0.1108 -0.5669  0.3248
  711TMC3    C710572   3.363   3.726  14.859 -0.1617 -0.1734 -0.7438
  711TMC3    C810573   3.132   3.717  15.223  0.4551 -0.7955  0.4183
  711TMC3    O110574   3.436   3.736  14.957  0.1500 -0.3508 -0.2690
  711TMC3    O210575   3.036   3.649  15.267 -0.0381  0.2403  0.4181
  712MPD2     C10576   4.696   4.699  13.848 -0.3277  0.0533  0.2614
  712MPD2    C110577   4.660   0.017  13.973 -0.0863  0.6785 -0.0506
  712MPD2    C210578   4.692   0.146  14.009  0.3654 -0.0571 -0.4580
  712MPD2    C310579   0.011   0.224  13.908  0.2160  0.0907  0.1338
  712MPD2    C410580   0.038   0.173  13.785  0.1089  0.6082  0.5372
  712MPD2    C510581   0.029   0.038  13.759 -0.5081 -1.2147 -0.7284
  712MPD2     H10582   4.670   0.185  14.107  0.3633 -0.4619 -0.2976
  712MPD2    H110583   0.075   0.239  13.708 -0.8649 -0.1017 -0.5447
  712MPD2    H210584   4.676   4.597  13.816  2.3819 -1.5833  3.7710
  712MPD2    H310585   0.060   4.729  13.667 -2.2318 -1.6650 -1.0876
  712MPD2     N10586   0.035   0.363  13.932 -0.2144  0.1411 -0.3588
  712MPD2    H510587   0.105   0.400  13.869 -0.8480  2.0280  0.0558
  712MPD2    N110588   4.569   4.694  14.059 -0.5384 -0.0468 -0.1244
  712MPD2    H710589   4.548   0.006  14.144 -2.0285 -2.4652  0.9134
  713TMC3    C110590   0.032   0.573  14.031  0.0056 -0.0265  0.2267
  713TMC3    C210591   0.132   0.602  13.945  0.5108  0.0716  0.3441
  713TMC3    C310592   0.130   0.720  13.872  0.1264  1.0527  0.2471
  713TMC3    C410593   4.673   0.669  14.047 -0.1120  0.1050  0.0157
  713TMC3    C510594   4.678   0.780  13.971 -0.0957  0.0561 -0.0554
  713TMC3    C610595   0.034   0.816  13.878  0.2018 -0.1951 -0.5346
  713TMC3     C10596   4.724   0.432  14.037 -0.1252  0.1421  0.7104
  713TMC3     O10597   4.633   0.409  14.113 -0.3216  0.3057  0.3470
  713TMC3     H10598   0.213   0.531  13.939 -0.5898 -1.0845 -0.7944
  713TMC3    H110599   4.583   0.640  14.101  1.0321 -1.9019  0.8068
  713TMC3    H210600   0.029   0.899  13.809  1.8272 -0.1591 -0.6029
  713TMC3    C710601   4.572   0.872  13.999 -0.4751  0.7692  0.5309
  713TMC3    C810602   0.218   0.726  13.753  0.4094 -0.0623  0.2844
  713TMC3    O110603   4.516   0.856  14.105  0.3483  0.7235 -0.7122
  713TMC3    O210604   0.207   0.834  13.696  0.3854  0.0376  0.2246
  714MPD2     C10605   2.499   0.192   1.303 -1.0974 -0.1503 -0.0078
  714MPD2    C110606   2.511   0.067   1.252  0.1632 -0.0614 -0.4248
  714MPD2    C210607   2.472   0.047   1.119 -0.2238  0.9145  0.8384
  714MPD2    C310608   2.415   0.145   1.043 -0.4845 -0.0187  0.9691
  714MPD2    C410609   2.404   0.268   1.100  0.0299 -0.4723 -0.2250
  714MPD2    C510610   2.442   0.293   1.230 -0.8809  0.4227 -0.2669
  714MPD2     H10611   2.469   4.692   1.065  0.6677  0.6647  1.2254
  714MPD2    H110612   2.341   0.343   1.053  1.0332  0.0541 -0.7470
  714MPD2    H210613   2.535   0.206   1.404  1.6672 -0.1862 -0.9955
  714MPD2    H310614   2.424   0.395   1.260  0.6457  0.2925  1.1264
  714MPD2     N10615   2.360   0.108   0.920 -0.1799 -0.2876 -0.7837
  714MPD2    H510616   2.352   0.008   0.902 -2.6137 -0.3049  0.4657
  714MPD2    N110617   2.566   4.709   1.340  0.2906 -0.3095 -0.0788
  714MPD2    H710618   2.587   0.004   1.433 -2.7446  0.1220  0.4604
  715TMC3    C110619   2.655   4.496   1.415  0.3614 -0.2099 -0.2243
  715TMC3    C210620   2.649   4.361   1.393  0.1624  0.8858  0.2898
  715TMC3    C310621   2.721   4.286   1.484 -0.0966 -0.0808  0.6826
  715TMC3    C410622   2.738   4.559   1.510  0.2625 -0.3293 -0.0421
  715TMC3    C510623   2.803   4.478   1.599  0.5709  0.1166 -0.1995
  715TMC3    C610624   2.800   4.342   1.589  0.0136 -0.7555  0.2796
  715TMC3     C10625   2.590   4.578   1.309  0.4438  0.6183  0.0365
  715TMC3     O10626   2.552   4.520   1.207  0.0523  0.4171  0.3782
  715TMC3     H10627   2.571   4.319   1.332 -0.6249 -0.2430  2.0831
  715TMC3    H110628   2.748   4.666   1.515 -0.6720 -0.1462 -1.8698
  715TMC3    H210629   2.863   4.288   1.659  0.0064 -1.9722 -0.6378
  715TMC3    C710630   2.885   4.535   1.706 -0.6929 -0.3779 -0.7920
  715TMC3    C810631   2.731   4.144   1.449 -0.5148 -0.4297 -0.2736
  715TMC3    O110632   2.952   4.456   1.768  0.0216  0.0364  0.0049
  715TMC3    O210633   2.709   4.096   1.341  0.2079  0.3250  0.5835
  716MPD2     C10634   1.897   1.955   9.910  0.4793 -1.0616 -0.1295
  716MPD2    C110635   1.852   1.948   9.776  0.0170 -0.2579  0.3699
  716MPD2    C210636   1.857   1.823   9.720  0.3475 -0.0665 -1.2427
  716MPD2    C310637   1.900   1.709   9.783 -0.0323  0.4704  0.3412
  716MPD2    C410638   1.965   1.722   9.906 -1.0159  0.0319  0.0329
  716MPD2    C510639   1.964   1.850   9.963 -0.7378 -0.2396 -0.3509
  716MPD2     H10640   1.809   1.810   9.624  1.2872 -1.2941 -1.5490
  716MPD2    H110641   1.994   1.633   9.962  4.7124  1.6309 -0.4071
  716MPD2    H210642   1.901   2.043   9.973 -1.0472  0.2741 -1.9169
  716MPD2    H310643   2.003   1.872  10.062  2.1596 -2.2154 -1.0680
  716MPD2     N10644   1.886   1.587   9.713  0.1794  0.3471 -0.1885
  716MPD2    H510645   1.843   1.581   9.621 -1.4256 -1.5801  0.6819
  716MPD2    N110646   1.794   2.059   9.717  1.1129 -0.1226  0.4222
  716MPD2    H710647   1.791   2.139   9.779 -0.2951  0.0410  0.1672
  717TMC3    C110648   1.884   1.351   9.678 -0.0593 -0.2361  0.1976
  717TMC3    C210649   1.839   1.368   9.548 -0.0725  0.1888 -0.3551
  717TMC3    C310650   1.815   1.258   9.480  0.2504 -0.1005  0.3570
  717TMC3    C410651   1.896   1.225   9.739  0.0555 -0.3834 -0.2150
  717TMC3    C510652   1.870   1.119   9.663  0.5986 -0.0583  0.0536
  717TMC3    C610653   1.832   1.133   9.532  0.0870 -0.3560 -0.2778
  717TMC3     C10654   1.915   1.465   9.763  0.3234 -0.4395 -0.0392
  717TMC3     O10655   1.958   1.438   9.875 -0.0377  0.8348 -0.1982
  717TMC3     H10656   1.856   1.461   9.495 -0.3575 -0.3464 -1.3998
  717TMC3    H110657   1.917   1.218   9.845  0.1057 -1.3585 -0.2893
  717TMC3    H210658   1.811   1.042   9.478 -0.6507 -1.4948  1.9318
  717TMC3    C710659   1.899   0.978   9.706 -0.6126 -0.1714 -0.2363
  717TMC3    C810660   1.749   1.275   9.349 -1.2151  0.4609  0.0352
  717TMC3    O110661   1.853   0.892   9.632 -0.0223  0.1948  0.5135
  717TMC3    O210662   1.742   1.387   9.300 -0.5371 -0.5586  0.2862
  718MPD2     C10663   1.741   4.692  12.996  0.9657  0.1119  0.2228
  718MPD2    C110664   1.670   0.002  12.891  0.3518 -0.1522  0.8561
  718MPD2    C210665   1.529   0.000  12.897  0.5591  0.6674  0.5688
  718MPD2    C310666   1.462   4.674  12.994  0.6792 -0.6583 -0.9335
  718MPD2    C410667   1.534   4.629  13.099  0.8558 -0.4648 -0.6447
  718MPD2    C510668   1.669   4.642  13.098 -0.6557 -0.2107  0.5450
  718MPD2     H10669   1.467   0.041  12.818  1.6048 -1.3898 -1.3216
  718MPD2    H110670   1.484   4.589  13.187 -0.2287  0.1223 -0.9933
  718MPD2    H210671   1.849   4.702  13.000  0.9262  0.2230  0.9827
  718MPD2    H310672   1.718   4.606  13.187  2.2250  0.8771 -0.5794
  718MPD2     N10673   1.322   4.670  12.992  0.5641  0.5161  0.1413
  718MPD2    H510674   1.286   4.712  12.907 -0.1505  1.4765  0.9186
  718MPD2    N110675   1.737   0.064  12.778  0.9171 -0.3299  0.1548
  718MPD2    H710676   1.836   0.087  12.784  1.0832 -0.6970 -1.2150
  719TMC3    C110677   1.738   0.173  12.563  0.0302 -0.0186 -0.0232
  719TMC3    C210678   1.646   0.206  12.466 -0.3828  0.4401  0.0895
  719TMC3    C310679   1.601   0.333  12.450  0.4756  0.5623  0.1920
  719TMC3    C410680   1.808   0.279  12.624 -0.4507 -0.9204  0.1751
  719TMC3    C510681   1.774   0.409  12.589  0.2162 -1.1430 -0.1145
  719TMC3    C610682   1.673   0.438  12.501 -0.4669 -0.1802 -0.6676
  719TMC3     C10683   1.677   0.076  12.656 -0.4415  0.7611  0.5807
  719TMC3     O10684   1.561   0.056  12.629 -0.6186  0.3784 -0.0753
  719TMC3     H10685   1.579   0.128  12.432 -0.4162  1.0456 -1.2342
  719TMC3    H110686   1.882   0.256  12.699  1.7347  1.4828 -1.2693
  719TMC3    H210687   1.645   0.539  12.474  1.0217  0.6890  1.0692
  719TMC3    C710688   1.857   0.526  12.623  1.0136  0.0553  0.0363
  719TMC3    C810689   1.463   0.353  12.448 -0.3471 -0.5536  0.0375
  719TMC3    O110690   1.851   0.616  12.542 -0.1205  0.6112  0.4812
  719TMC3    O210691   1.399   0.255  12.412  0.6163 -0.4668 -0.8850
  720MPD2     C10692   4.398   2.008  14.049  0.4244 -0.4952 -0.0068
  720MPD2    C110693   4.458   2.114  13.993 -0.2341 -0.1133 -0.2607
  720MPD2    C210694   4.578   2.165  14.043 -1.0000 -0.4256  0.3988
  720MPD2    C310695   4.628   2.114  14.159  0.6724 -0.5157 -0.2664
  720MPD2    C410696   4.565   2.013  14.227 -0.5640 -0.1998 -0.0225
  720MPD2    C510697   4.456   1.956  14.166  0.0991 -0.7213  0.2012
  720MPD2     H10698   4.634   2.247  13.998  0.7790 -2.1027 -0.4301
  720MPD2    H110699   4.601   1.967  14.319  0.4064 -0.8836 -0.7466
  720MPD2    H210700   4.309   1.961  14.007  0.2933 -0.0859 -0.1842
  720MPD2    H310701   4.404   1.866  14.196  2.0766 -1.8486  0.2485
  720MPD2     N10702   0.012   2.164  14.203  0.2263  0.6905 -0.1222
  720MPD2    H510703   0.056   2.229  14.138 -0.7864  2.0590  0.5587
  720MPD2    N110704   4.403   2.189  13.883 -0.0208  0.1253  0.9464
  720MPD2    H710705   4.454   2.260  13.833  1.5307 -2.4991 -1.2215
  721TMC3    C110706   0.212   2.177  14.333 -0.0765 -0.0996  0.0885
  721TMC3    C210707   0.262   2.187  14.459 -0.1055 -0.2299  0.4186
  721TMC3    C310708   0.399   2.178  14.471  0.1182 -0.3695 -0.6476
  721TMC3    C410709   0.289   2.177  14.220  0.8001 -0.2770  0.0534
  721TMC3    C510710   0.419   2.184  14.230  0.4965 -0.2311  0.1300
  721TMC3    C610711   0.478   2.179  14.358  0.0768  0.7208 -0.2253
  721TMC3     C10712   0.070   2.136  14.326  0.0106  0.2862 -0.2744
  721TMC3     O10713   0.020   2.093  14.429 -0.7753  0.1231 -0.4512
  721TMC3     H10714   0.189   2.203  14.537 -0.4587 -0.8395  0.2155
  721TMC3    H110715   0.237   2.162  14.126  0.7326  1.1478 -0.1289
  721TMC3    H210716   0.586   2.178  14.367 -0.0633  0.2747  1.4183
  721TMC3    C710717   0.510   2.183  14.116  0.4080 -0.6745 -0.6313
  721TMC3    C810718   0.452   2.226  14.599  0.5081  0.4723  0.4871
  721TMC3    O110719   0.617   2.133  14.141  0.0471  0.5997  0.1061
  721TMC3    O210720   0.563   2.278  14.588  0.0599 -0.6480  0.1068
  722MPD2     C10721   3.887   0.845  13.010 -0.0204  0.1115 -0.2648
  722MPD2    C110722   3.814   0.953  13.056 -0.8928  0.0437 -0.4061
  722MPD2    C210723   3.683   0.967  13.014  0.1121  0.6924 -0.0038
  722MPD2    C310724   3.628   0.864  12.929  0.3425 -0.1918 -0.3675
  722MPD2    C410725   3.703   0.757  12.885 -0.1955 -0.0486 -0.0570
  722MPD2    C510726   3.833   0.745  12.926  0.1291 -0.0031 -0.5273
  722MPD2     H10727   3.625   1.052  13.047  0.6329  1.2353 -0.4866
  722MPD2    H110728   3.663   0.680  12.820  0.3130 -0.4201  0.0671
  722MPD2    H210729   3.988   0.829  13.046 -0.4334 -1.1369  0.3557
  722MPD2    H310730   3.896   0.661  12.900  1.0973  0.6199 -0.2123
  722MPD2     N10731   3.490   0.883  12.900  0.4201 -0.0597 -0.3031
  722MPD2    H510732   3.446   0.965  12.940 -0.1395 -1.1707  1.3432
  722MPD2    N110733   3.872   1.053  13.142  0.4354 -0.7836  0.4665
  722MPD2    H710734   3.820   1.134  13.173  0.2511 -0.7803  0.1567
  723TMC3    C110735   3.288   0.853  12.779  0.0846 -0.0583 -0.1687
  723TMC3    C210736   3.185   0.773  12.808 -0.1454  0.3939 -0.3946
  723TMC3    C310737   3.058   0.820  12.830  0.6045  0.6930  0.2454
  723TMC3    C410738   3.261   0.987  12.783 -0.3312  0.5506 -0.0099
  723TMC3    C510739   3.132   1.034  12.809 -0.1652 -0.1599 -0.0490
  723TMC3    C610740   3.029   0.952  12.833  0.4808 -0.0775 -0.4143
  723TMC3     C10741   3.419   0.804  12.813  0.4212 -0.1593 -0.5348
  723TMC3     O10742   3.438   0.686  12.786  0.0792 -0.4582  0.0925
  723TMC3     H10743   3.202   0.670  12.835  0.9773  0.4998 -0.7044
  723TMC3    H110744   3.344   1.053  12.761  0.0185  0.1940  0.2307
  723TMC3    H210745   2.928   0.984  12.854  0.4751 -0.5782  0.3535
  723TMC3    C710746   3.118   1.175  12.823  0.9436 -0.1848 -0.2812
  723TMC3    C810747   2.969   0.738  12.911  0.2195  0.0405 -0.1459
  723TMC3    O110748   3.194   1.241  12.754  0.4443 -0.0789 -0.7205
  723TMC3    O210749   2.910   0.803  12.996  0.0616 -0.0386  0.1863
  724TMC3    C110750   3.822   4.567  10.050 -0.1547  0.6353 -0.4881
  724TMC3    C210751   3.766   4.596   9.923  0.8292  0.2975 -0.5884
  724TMC3    C310752   3.805   4.716   9.866 -0.0615  0.6093 -0.0904
  724TMC3    C410753   3.923   4.646  10.108  0.0578  0.2684 -0.2110
  724TMC3    C510754   3.959   0.023  10.039  1.1102 -0.3364  0.4387
  724TMC3    C610755   3.903   0.064   9.918 -1.1704  0.9360 -0.3202
  724TMC3     C10756   3.824   4.425  10.085 -0.0007  0.5852 -0.4682
  724TMC3     O10757   3.751   4.353  10.019 -0.4285  0.2647 -0.8024
  724TMC3     H10758   3.681   4.536   9.890 -1.8379  2.8371  1.7151
  724TMC3    H110759   3.966   4.620  10.205 -0.9530 -0.8797 -0.0685
  724TMC3    H210760   3.943   0.149   9.864  3.1440 -1.0173 -0.1621
  724TMC3    C710761   4.093   0.075  10.067 -0.3533 -0.1432  0.5451
  724TMC3    C810762   3.735   0.022   9.751  0.4974 -0.5394 -0.1161
  724TMC3    O110763   4.166   0.005  10.133  0.5587  0.3207 -0.1710
  724TMC3    O210764   3.669   4.674   9.696  0.2419  0.1560 -0.3483
  725TMC3    C110765   0.735   2.369  13.270 -0.4199  0.2556  0.3715
  725TMC3    C210766   0.617   2.412  13.223  0.0383 -0.1972  0.4590
  725TMC3    C310767   0.571   2.356  13.110 -0.7045  0.5726  0.7290
  725TMC3    C410768   0.810   2.272  13.200 -1.1384 -0.0505  0.4064
  725TMC3    C510769   0.756   2.226  13.087  0.4039  0.5356  0.7818
  725TMC3    C610770   0.633   2.262  13.035 -0.3047  0.0443  0.1179
  725TMC3     C10771   0.819   2.480  13.321  0.6351  1.1627  0.0990
  725TMC3     O10772   0.774   2.597  13.312 -0.4116  0.0487 -0.5585
  725TMC3     H10773   0.566   2.494  13.272 -4.3427 -2.0120 -1.0894
  725TMC3    H110774   0.909   2.239  13.230 -1.5025  0.5528  2.2543
  725TMC3    H210775   0.587   2.198  12.961  0.6009 -0.2573 -0.1790
  725TMC3    C710776   0.807   2.095  13.051  0.8137  0.1003  0.2133
  725TMC3    C810777   0.483   2.430  13.025 -0.5903 -0.7668  0.2813
  725TMC3    O110778   0.856   2.032  13.139  0.4215  0.3978  0.4177
  725TMC3    O210779   0.419   2.515  13.081 -0.3888 -0.0556  0.0628
  726MPD2     C10780   2.829   4.453  10.386 -0.6422  0.2063 -0.5292
  726MPD2    C110781   2.728   4.436  10.293 -0.2017 -0.0115  0.8042
  726MPD2    C210782   2.663   4.315  10.289 -0.4349  0.7873 -0.3171
  726MPD2    C310783   2.686   4.220  10.388  0.6320 -0.1606  0.6494
  726MPD2    C410784   2.781   4.244  10.487  0.0528  0.4397 -0.2712
  726MPD2    C510785   2.856   4.365  10.487 -0.7301  0.1398  0.6714
  726MPD2     H10786   2.583   4.299  10.218 -0.5253  0.6075 -0.1749
  726MPD2    H110787   2.799   4.172  10.566 -0.6668 -0.2075 -0.6961
  726MPD2    H210788   2.891   4.543  10.385 -0.8553  0.3652  1.2718
  726MPD2    H310789   2.934   4.386  10.559 -1.7064 -0.4914  1.9255
  726MPD2     N10790   2.609   4.098  10.401  0.2321  0.0932  0.5588
  726MPD2    H510791   2.626   4.040  10.483 -1.8209 -0.0207  0.9081
  726MPD2    N110792   2.709   4.540  10.204 -0.4568  0.1603  0.5525
  726MPD2    H710793   2.758   4.628  10.219 -0.8342  0.9151 -2.6637
  727TMC3    C110794   2.658   4.655  10.011 -0.2772  0.4435  0.4663
  727TMC3    C210795   2.757   4.730  10.066  0.1842  0.4967 -0.2330
  727TMC3    C310796   2.728   0.120  10.103 -0.2549 -0.3539  1.2607
  727TMC3    C410797   2.540   4.707   9.970  0.2710 -1.0669  0.3462
  727TMC3    C510798   2.512   0.094  10.012  0.2829 -0.1491  0.3340
  727TMC3    C610799   2.602   0.170  10.085 -0.3601  0.0206  0.6825
  727TMC3     C10800   2.633   4.534  10.086  0.0167  0.1504  0.6871
  727TMC3     O10801   2.547   4.453  10.048 -0.1588 -0.3754  0.2810
  727TMC3     H10802   2.854   4.689  10.092 -0.3587  0.4224  1.6889
  727TMC3    H110803   2.466   4.645   9.921  0.0990  0.7721 -1.7299
  727TMC3    H210804   2.568   0.269  10.112  1.1174  0.3748  1.2397
  727TMC3    C710805   2.377   0.133  10.017  0.6770  0.4794  0.5195
  727TMC3    C810806   2.789   0.148  10.233 -0.4272  0.2988  0.1301
  727TMC3    O110807   2.345   0.190  10.121  0.1612 -0.5824  0.1593
  727TMC3    O210808   2.848   0.056  10.285 -0.4578 -0.0515  0.0555
  728TMC3    C110809   2.315   2.638  15.637  0.2668 -1.3405  0.0380
  728TMC3    C210810   2.447   2.631  15.623  0.1694  0.3619  0.0414
  728TMC3    C310811   2.501   2.646  15.500  0.4333 -0.3416  0.0009
  728TMC3    C410812   2.233   2.666  15.530 -0.4523 -0.1812  1.2185
  728TMC3    C510813   2.292   2.690  15.407  0.0577  0.3127  0.3442
  728TMC3    C610814   2.427   2.682  15.391 -0.8215  0.7304  0.1673
  728TMC3     C10815   2.258   2.634  15.769 -0.6772  0.3509  0.5013
  728TMC3     O10816   2.315   2.705  15.858  0.3601  0.0075 -0.1720
  728TMC3     H10817   2.503   2.610  15.714  1.1953  2.3304 -0.1158
  728TMC3    H110818   2.128   2.684  15.548  0.1349  2.7061  1.6720
  728TMC3    H210819   2.476   2.693  15.295 -1.4119  1.3283 -0.0646
  728TMC3    C710820   2.203   2.703  15.294 -0.2318 -0.6185 -0.4040
  728TMC3    C810821   2.645   2.661  15.501 -0.1321 -0.2792  0.0598
  728TMC3    O110822   2.084   2.703  15.322 -0.2116 -0.8821  0.3332
  728TMC3    O210823   2.702   2.673  15.607  0.1790  0.0702 -0.7724
  729MPD2     C10824   4.457   3.948  16.660  0.6452  0.3161 -0.2650
  729MPD2    C110825   4.565   3.890  16.720  0.5476  0.0960  0.4201
  729MPD2    C210826   4.559   3.851  16.853  0.3679 -0.1227 -0.0485
  729MPD2    C310827   4.440   3.873  16.929 -0.2445  0.0006  0.4529
  729MPD2    C410828   4.331   3.923  16.861 -0.1913 -0.7502 -0.1237
  729MPD2    C510829   4.339   3.968  16.730  0.3210  0.0663  0.1289
  729MPD2     H10830   4.642   3.796  16.895  1.7895  1.3985 -0.8817
  729MPD2    H110831   4.245   3.940  16.925 -0.3092  0.3238 -0.5652
  729MPD2    H210832   4.465   3.981  16.557  2.2265  0.3007 -0.1380
  729MPD2    H310833   4.256   4.014  16.678  0.4819  1.4326  1.0630
  729MPD2     N10834   4.428   3.837  17.065 -0.8276  0.1385  0.9167
  729MPD2    H510835   4.334   3.845  17.102 -1.0358 -1.7626  0.7940
  729MPD2    N110836   4.680   3.899  16.641 -0.2075 -0.1439 -0.0995
  729MPD2    H710837   4.665   3.922  16.544 -1.1909 -1.2935 -0.2209
  730TMC3    C110838   4.502   3.864  17.287 -0.4851 -0.6840 -0.4377
  730TMC3    C210839   4.588   3.829  17.385 -0.3341 -0.2811  0.3071
  730TMC3    C310840   4.622   3.918  17.482 -0.2434  0.2060 -0.0389
  730TMC3    C410841   4.426   3.979  17.301  0.3485  0.1282 -0.1155
  730TMC3    C510842   4.459   4.061  17.406 -0.4118 -0.4362 -0.1030
  730TMC3    C610843   4.559   4.038  17.500  0.5673  0.1561  0.6550
  730TMC3     C10844   4.530   3.804  17.151  0.0204  0.3426  0.3313
  730TMC3     O10845   4.640   3.753  17.128 -0.1527  0.2232  0.4619
  730TMC3     H10846   4.647   3.741  17.366 -0.8951 -0.8222  1.0745
  730TMC3    H110847   4.350   4.001  17.227  1.6872 -0.2802 -1.6181
  730TMC3    H210848   4.591   4.110  17.574 -0.0096  1.5563 -0.4464
  730TMC3    C710849   4.413   4.202  17.390  0.0318 -1.0398 -0.5786
  730TMC3    C810850   0.017   3.890  17.554 -0.0376 -0.2277  0.5174
  730TMC3    O110851   4.338   4.224  17.296  0.1733  0.2958  0.7888
  730TMC3    O210852   0.048   3.772  17.568 -0.2337  0.1607 -0.1152
  731MPD2     C10853   4.232   2.491  12.468  0.2672 -0.2186  0.4402
  731MPD2    C110854   4.365   2.477  12.469 -0.0323 -0.8020  0.0391
  731MPD2    C210855   4.424   2.395  12.559 -0.1315  0.1196 -0.2005
  731MPD2    C310856   4.351   2.325  12.650  0.2345 -0.3729 -0.0713
  731MPD2    C410857   4.217   2.354  12.661 -0.5236  1.0250  0.1844
  731MPD2    C510858   4.156   2.434  12.565  0.1102 -0.1887  0.0230
  731MPD2     H10859   4.530   2.373  12.554  0.0142  0.7390  0.2248
  731MPD2    H110860   4.156   2.306  12.736 -2.5647  2.5265 -0.5414
  731MPD2    H210861   4.185   2.566  12.406  0.4033 -1.5347 -1.2550
  731MPD2    H310862   4.050   2.455  12.575 -0.2604 -1.7484 -0.5931
  731MPD2     N10863   4.428   2.231  12.724  0.0804 -0.0282  0.4416
  731MPD2    H510864   4.529   2.228  12.710  0.0527  0.2588  0.1826
  731MPD2    N110865   4.428   2.559  12.369 -0.0154 -0.7250 -0.2700
  731MPD2    H710866   4.369   2.631  12.330 -0.6685  0.0232  2.0670
  732TMC3    C110867   4.588   2.611  12.210 -0.7032  0.3288  0.4398
  732TMC3    C210868   4.490   2.639  12.117 -0.5789 -0.3362 -0.5296
  732TMC3    C310869   4.506   2.658  11.984  0.2741 -0.1542  0.1841
  732TMC3    C410870   4.720   2.597  12.171 -0.1899  0.0054 -1.0542
  732TMC3    C510871   0.001   2.611  12.031 -0.5817 -0.6660 -0.1137
  732TMC3    C610872   4.639   2.645  11.940 -0.0276  0.4511  0.1273
  732TMC3     C10873   4.558   2.543  12.329  0.3863 -0.6190 -0.0875
  732TMC3     O10874   4.636   2.461  12.381 -0.6024 -0.0944 -0.7462
  732TMC3     H10875   4.386   2.628  12.144 -0.1179 -1.9168  0.6184
  732TMC3    H110876   0.060   2.559  12.236 -2.7641 -0.6930  1.6301
  732TMC3    H210877   4.643   2.673  11.836  0.1561 -1.3441 -0.3567
  732TMC3    C710878   0.126   2.588  11.960  0.2311 -0.1250  0.8545
  732TMC3    C810879   4.406   2.601  11.894  0.1002 -0.7922 -0.1237
  732TMC3    O110880   0.150   2.657  11.862 -0.3480 -0.1102  0.0945
  732TMC3    O210881   4.383   2.648  11.783  0.1093  0.2398  0.3743
  733TMC3    C110882   0.884   4.714  13.084 -0.1770  0.3628 -0.5844
  733TMC3    C210883   1.000   4.643  13.108  0.0825 -0.0479 -0.2340
  733TMC3    C310884   1.105   4.698  13.060 -0.2435 -0.7922 -0.4672
  733TMC3    C410885   0.866   0.082  12.997 -0.5615 -0.3683  0.5773
  733TMC3    C510886   0.988   0.137  12.961  0.1877  0.2229 -0.2933
  733TMC3    C610887   1.108   0.080  12.997  0.2584 -0.1404 -0.0441
  733TMC3     C10888   0.762   4.651  13.122 -0.5310  0.1870 -0.3497
  733TMC3     O10889   0.661   4.691  13.062 -0.0661  0.0244  0.1573
  733TMC3     H10890   0.999   4.541  13.147 -1.3612 -0.1506 -0.5607
  733TMC3    H110891   0.770   0.131  12.989  0.0469  0.8541  0.9110
  733TMC3    H210892   1.197   0.137  12.975  0.4260  0.2172  1.5492
  733TMC3    C710893   0.994   0.266  12.903 -0.5534 -1.1486  0.3432
  733TMC3    C810894   1.230   4.640  13.097  0.0878 -0.4168 -0.0674
  733TMC3    O110895   0.922   0.360  12.931  0.0654  0.0915 -0.2140
  733TMC3    O210896   1.243   4.605  13.210 -0.2062  0.5706  0.1003
  734MPD2     C10897   2.660   2.545  12.837 -0.3073 -0.2125  0.2476
  734MPD2    C110898   2.631   2.448  12.742 -0.6106 -0.0404 -0.3788
  734MPD2    C210899   2.649   2.483  12.609  0.5198 -0.3608  0.5237
  734MPD2    C310900   2.687   2.608  12.567 -0.1766 -0.1213 -0.4416
  734MPD2    C410901   2.702   2.708  12.663 -0.2371 -0.4496 -0.0083
  734MPD2    C510902   2.688   2.671  12.795 -0.3048  0.7176 -0.2450
  734MPD2     H10903   2.643   2.404  12.534  1.6988 -1.6382  1.7610
  734MPD2    H110904   2.706   2.814  12.641 -0.1320 -0.5680 -0.5566
  734MPD2    H210905   2.649   2.523  12.943  1.1660  1.2204  0.7014
  734MPD2    H310906   2.707   2.744  12.872  0.0347  0.0413  0.3148
  734MPD2     N10907   2.685   2.638  12.432  0.6322 -0.3044 -0.7902
  734MPD2    H510908   2.658   2.563  12.369  1.3566  0.6354 -2.2170
  734MPD2    N110909   2.565   2.331  12.785 -0.1346  0.2189  0.6312
  734MPD2    H710910   2.546   2.317  12.884  0.8675 -3.1861  0.3484
  735TMC3    C110911   2.476   2.114  12.742  0.2578  0.2518  0.0999
  735TMC3    C210912   2.393   2.055  12.648  0.2815 -0.3468 -0.3622
  735TMC3    C310913   2.422   1.929  12.599  0.6260 -0.3197 -0.9964
  735TMC3    C410914   2.585   2.059  12.790  0.7574  0.4915  0.8442
  735TMC3    C510915   2.608   1.931  12.748  0.3693  0.4450  0.4445
  735TMC3    C610916   2.523   1.867  12.660  0.0938  0.4924  0.3254
  735TMC3     C10917   2.510   2.241  12.692 -0.3164  0.4053 -0.3149
  735TMC3     O10918   2.498   2.251  12.569  0.2023  0.2169 -0.1271
  735TMC3     H10919   2.313   2.115  12.605 -1.3952 -2.0066  0.4100
  735TMC3    H110920   2.662   2.114  12.843  2.1041  0.8574 -1.5156
  735TMC3    H210921   2.550   1.771  12.617  0.2104  0.0498  1.3869
  735TMC3    C710922   2.751   1.897  12.746 -0.2640 -0.0245  0.4370
  735TMC3    C810923   2.416   1.912  12.456 -0.1061 -0.8377 -0.5373
  735TMC3    O110924   2.830   1.989  12.754 -1.1443  0.0289 -0.1829
  735TMC3    O210925   2.410   1.799  12.412 -0.5206  0.0623 -0.0110
  736MPD2     C10926   2.917   1.585  12.626  0.5534 -0.0730  0.7594
  736MPD2    C110927   2.895   1.720  12.644 -0.3803  0.2962  0.3905
  736MPD2    C210928   3.002   1.796  12.613  0.6486  0.6282 -0.0177
  736MPD2    C310929   3.127   1.752  12.558  0.7730  0.1799  0.0586
  736MPD2    C410930   3.138   1.616  12.525 -0.8804  0.7281  0.0099
  736MPD2    C510931   3.030   1.533  12.557  0.3307  0.0493 -0.1188
  736MPD2     H10932   2.989   1.901  12.634  0.7909  0.6675 -0.1311
  736MPD2    H110933   3.224   1.575  12.474  0.0880 -0.3670  2.5390
  736MPD2    H210934   2.837   1.516  12.649 -0.0458  0.3917  0.0807
  736MPD2    H310935   3.030   1.426  12.539 -2.2626  0.3824 -2.1278
  736MPD2     N10936   3.226   1.842  12.516 -0.2369 -0.4102 -0.3534
  736MPD2    H510937   3.288   1.821  12.439  0.0005 -1.3221  0.0881
  736MPD2    N110938   2.776   1.767  12.704 -0.1782 -0.8094 -0.5545
  736MPD2    H710939   2.698   1.706  12.726  0.9057 -1.4980  1.3666
  737TMC3    C110940   3.316   2.051  12.459  0.3057 -0.0842  0.1196
  737TMC3    C210941   3.342   2.176  12.491 -0.0963 -0.0644  0.1118
  737TMC3    C310942   3.426   2.250  12.408  0.1178 -0.5067  0.3887
  737TMC3    C410943   3.346   1.999  12.335 -0.0360  0.5676 -0.1595
  737TMC3    C510944   3.424   2.079  12.251 -0.7109  0.5996  1.1084
  737TMC3    C610945   3.467   2.204  12.284 -0.0805  0.2873  0.6155
  737TMC3     C10946   3.234   1.976  12.548 -0.5101  0.5617  1.4025
  737TMC3     O10947   3.167   2.040  12.627  0.2655  0.1491 -0.5978
  737TMC3     H10948   3.310   2.212  12.588 -1.1231 -1.0475  0.1284
  737TMC3    H110949   3.317   1.898  12.312 -0.1981  0.1111  2.0374
  737TMC3    H210950   3.532   2.265  12.222  0.9709 -1.6243 -0.1734
  737TMC3    C710951   3.489   2.013  12.140  1.3140  0.2334 -0.1922
  737TMC3    C810952   3.404   2.393  12.409 -0.3509 -0.2444  0.4135
  737TMC3    O110953   3.484   1.887  12.139 -0.8739 -0.8349 -0.0601
  737TMC3    O210954   3.418   2.448  12.516  0.6023 -0.3191  0.6221
  738MPD2     C10955   3.999   0.650  15.037  0.1497  0.1078  0.1230
  738MPD2    C110956   3.887   0.716  15.011 -0.6500  0.2241  0.3916
  738MPD2    C210957   3.875   0.855  15.031  0.3257  0.4879 -0.1002
  738MPD2    C310958   3.997   0.921  15.050 -0.4697 -0.1614 -0.8000
  738MPD2    C410959   4.114   0.852  15.063  0.5006 -0.5087  0.1381
  738MPD2    C510960   4.117   0.720  15.060 -0.4200 -0.3869  0.5412
  738MPD2     H10961   3.779   0.905  15.027 -0.6910 -1.3862  0.7816
  738MPD2    H110962   4.211   0.896  15.080  0.0899  0.1100  0.9335
  738MPD2    H210963   4.000   0.542  15.034 -2.3455  0.1113 -1.3968
  738MPD2    H310964   4.203   0.659  15.089 -2.5455 -2.9380  1.4723
  738MPD2     N10965   3.993   1.064  15.059 -0.2676  0.1815 -0.2583
  738MPD2    H510966   3.915   1.111  15.013  0.7706  1.0802 -1.1221
  738MPD2    N110967   3.775   0.651  14.971 -0.7336  0.0040  0.0004
  738MPD2    H710968   3.684   0.696  14.967 -0.7213  0.0667  0.4574
  739TMC3    C110969   4.096   1.275  15.063  0.1116 -0.3050  0.1534
  739TMC3    C210970   4.058   1.298  14.934  0.1683 -0.4987 -0.5054
  739TMC3    C310971   4.085   1.415  14.879  0.2222  0.4468 -1.3987
  739TMC3    C410972   4.155   1.374  15.141  0.1300  0.2462 -0.1938
  739TMC3    C510973   4.162   1.499  15.083 -0.9261 -0.3167 -0.1842
  739TMC3    C610974   4.119   1.528  14.956 -0.4916  0.7713 -0.3770
  739TMC3     C10975   4.100   1.142  15.112  0.0005 -0.4425 -0.0616
  739TMC3     O10976   4.162   1.113  15.209 -0.2809 -0.4713 -0.0449
  739TMC3     H10977   4.041   1.217  14.864 -0.0280  0.2963 -1.3862
  739TMC3    H110978   4.190   1.346  15.240 -0.0665 -0.0211 -0.2025
  739TMC3    H210979   4.143   1.626  14.917  0.0922  0.9082  0.3344
  739TMC3    C710980   4.243   1.600  15.154  0.5227 -0.1118 -0.1611
  739TMC3    C810981   4.041   1.436  14.745  0.9373  0.1869  0.4911
  739TMC3    O110982   4.238   1.596  15.276 -0.6481 -0.3873 -0.4793
  739TMC3    O210983   3.956   1.364  14.701  0.6719  0.3222  0.0326
  740TMC3    C110984   4.320   2.555  14.452  0.3879  0.3632 -0.4519
  740TMC3    C210985   4.398   2.508  14.552  0.2786  0.4764  0.2702
  740TMC3    C310986   4.525   2.478  14.511  0.2160  0.2856  0.0027
  740TMC3    C410987   4.358   2.567  14.320  0.2502 -0.6259 -0.4861
  740TMC3    C510988   4.490   2.535  14.290 -0.0900 -0.5413 -0.4183
  740TMC3    C610989   4.581   2.503  14.387  0.5163 -0.0010 -0.3187
  740TMC3     C10990   4.187   2.602  14.475  0.1432  0.1035 -0.2338
  740TMC3     O10991   4.139   2.661  14.379  0.1348 -0.0675  0.7506
  740TMC3     H10992   4.354   2.478  14.647 -1.0482  0.7177 -0.2648
  740TMC3    H110993   4.292   2.612  14.246 -2.9974 -1.6729  1.7895
  740TMC3    H210994   4.672   2.456  14.351 -0.3534 -3.0451  1.4168
  740TMC3    C710995   4.518   2.532  14.148 -0.2237  0.1209  0.1258
  740TMC3    C810996   4.618   2.432  14.614  0.2804 -0.0012 -0.7100
  740TMC3    O110997   4.635   2.538  14.107  0.1347 -0.8165  0.2586
  740TMC3    O210998   4.737   2.435  14.580 -0.4241 -0.2619  0.7283
  741TMC3    C110999   3.792   1.932  14.334 -0.6868 -0.5701  0.0254
  741TMC3    C211000   3.679   1.860  14.326  0.0064  0.9331  0.5483
  741TMC3    C311001   3.641   1.776  14.422  0.3116  0.1183  0.0629
  741TMC3    C411002   3.873   1.913  14.445 -0.1387  0.3202 -0.3283
  741TMC3    C511003   3.841   1.819  14.538  0.0994  0.2115 -0.7543
  741TMC3    C611004   3.717   1.756  14.536 -0.7725 -0.0683 -0.5171
  741TMC3     C11005   3.854   1.991  14.216  0.4800 -0.8089  0.0759
  741TMC3     O11006   3.973   1.986  14.211 -0.5088  0.7425  0.2162
  741TMC3     H11007   3.620   1.865  14.235 -0.2444  0.5830  0.6963
  741TMC3    H111008   3.959   1.977  14.463  1.6877 -1.8736 -1.2801
  741TMC3    H211009   3.677   1.698  14.619  2.4407 -2.1666 -0.4686
  741TMC3    C711010   3.879   1.845  14.677 -0.0187  0.7578 -0.9195
  741TMC3    C811011   3.521   1.705  14.400 -0.2588  0.5593  0.3527
  741TMC3    O111012   3.801   1.810  14.763 -0.1396  0.2715  0.1155
  741TMC3    O211013   3.436   1.749  14.320  0.2404 -0.0172 -0.0082
  742TMC3    C111014   3.697   0.372  15.410  0.1502  0.0384 -0.0372
  742TMC3    C211015   3.640   0.267  15.340  0.8372  0.3668  0.5662
  742TMC3    C311016   3.713   0.213  15.230  0.8280 -0.0984 -0.5566
  742TMC3    C411017   3.820   0.417  15.365 -0.2591 -0.1152 -0.3106
  742TMC3    C511018   3.880   0.361  15.259 -0.5205  0.4217 -0.6617
  742TMC3    C611019   3.824   0.262  15.189  0.7745  0.8312  0.8116
  742TMC3     C11020   3.648   0.409  15.538 -0.3733  0.6119 -0.2819
  742TMC3     O11021   3.683   0.521  15.578  0.1016 -0.2718  0.1114
  742TMC3     H11022   3.532   0.266  15.327  1.2443  1.5405 -2.9761
  742TMC3    H111023   3.868   0.506  15.406 -0.5830  0.3810 -1.0156
  742TMC3    H211024   3.881   0.212  15.112 -3.7491 -1.0227 -1.3300
  742TMC3    C711025   4.022   0.328  15.275  0.6847  0.2980 -0.6545
  742TMC3    C811026   3.643   0.115  15.147 -0.0905  0.8980 -1.0179
  742TMC3    O111027   4.041   0.212  15.301  0.9518  0.5294  0.2653
  742TMC3    O211028   3.603   0.130  15.031  0.3097 -0.3047 -0.4024
  743MPD2     C11029   2.506   2.520   2.392  0.6444  0.2105  0.6496
  743MPD2    C111030   2.527   2.480   2.258  0.1309 -0.1338  0.1853
  743MPD2    C211031   2.644   2.422   2.226 -0.1702 -0.0944 -0.4739
  743MPD2    C311032   2.751   2.407   2.316 -0.7306  0.7391 -0.3841
  743MPD2    C411033   2.733   2.459   2.445 -0.2251  1.0157  0.9570
  743MPD2    C511034   2.607   2.506   2.484 -0.1505  0.8780 -0.0037
  743MPD2     H11035   2.663   2.398   2.122  1.3785 -0.8344 -0.0205
  743MPD2    H111036   2.816   2.453   2.514 -1.6705  2.3077  2.8190
  743MPD2    H211037   2.410   2.565   2.414 -0.8875 -2.2606 -1.0448
  743MPD2    H311038   2.587   2.537   2.586 -1.0946  0.9726 -0.2214
  743MPD2     N11039   2.873   2.350   2.269 -0.7169  0.0441  0.3353
  743MPD2    H511040   2.877   2.311   2.176 -2.4874  0.9951 -0.1564
  743MPD2    N111041   2.428   2.510   2.158 -0.0122 -0.4830 -0.1756
  743MPD2    H711042   2.343   2.562   2.182  0.1516  0.1555 -0.9529
  744TMC3    C111043   2.319   2.492   1.959  0.3883  0.4031 -0.1590
  744TMC3    C211044   2.278   2.628   1.956  0.8778 -0.0166 -0.4505
  744TMC3    C311045   2.214   2.674   1.843 -0.0051  0.1855 -0.1339
  744TMC3    C411046   2.308   2.418   1.847 -0.3634  0.0531 -0.7537
  744TMC3    C511047   2.233   2.470   1.745 -0.0802 -0.0967  0.5143
  744TMC3    C611048   2.193   2.597   1.729  0.8026 -0.2290 -0.5122
  744TMC3     C11049   2.432   2.459   2.037  0.1844  0.1308 -0.4767
  744TMC3     O11050   2.514   2.387   1.976  0.5228  0.1424 -0.4561
  744TMC3     H11051   2.306   2.700   2.032  0.8555 -0.7212  0.2244
  744TMC3    H111052   2.350   2.320   1.829 -0.8534 -0.8481  2.9643
  744TMC3    H211053   2.147   2.632   1.637 -0.3057 -0.4092 -0.0269
  744TMC3    C711054   2.224   2.391   1.625 -0.0968 -0.0353  0.0480
  744TMC3    C811055   2.168   2.809   1.841 -0.2938  0.3991 -0.4264
  744TMC3    O111056   2.316   2.315   1.607  0.0921  0.8112  0.0977
  744TMC3    O211057   2.210   2.885   1.930 -0.0159 -0.7051  0.1552
  745TMC3    C111058   4.412   4.521  14.118 -0.4127  0.1980 -0.0253
  745TMC3    C211059   4.367   4.615  14.211  0.4369 -0.4094  0.7787
  745TMC3    C311060   4.229   4.627  14.228 -0.0083  0.3437  0.0846
  745TMC3    C411061   4.326   4.459  14.031 -0.1785  0.1064 -0.1598
  745TMC3    C511062   4.194   4.504  14.029 -0.0529  0.0833 -0.2257
  745TMC3    C611063   4.152   4.588  14.125 -0.8389  0.8126 -0.5929
  745TMC3     C11064   4.523   4.562  14.038  0.5719  0.4536  0.3258
  745TMC3     O11065   4.525   4.492  13.943  0.4836  0.2300  1.2681
  745TMC3     H11066   4.434   4.651  14.288  1.8223 -1.5265  0.0848
  745TMC3    H111067   4.343   4.363  13.984  2.2875  1.8502 -2.8253
  745TMC3    H211068   4.055   4.636  14.129 -0.9673  0.5165 -0.1420
  745TMC3    C711069   4.161   4.537  13.895 -0.0095  0.3751 -1.4504
  745TMC3    C811070   4.172   4.705  14.331 -0.1257 -0.9371 -0.2451
  745TMC3    O111071   4.056   4.595  13.890 -0.1348 -0.7902  0.1891
  745TMC3    O211072   4.057   4.684  14.369 -0.0134  0.2666  0.1355
  746TMC3    C111073   1.689   1.891  10.855  0.3034 -1.0799 -0.2688
  746TMC3    C211074   1.733   1.862  10.731  0.1994  0.8362  0.6858
  746TMC3    C311075   1.709   1.734  10.680 -0.8130  0.3497  0.4760
  746TMC3    C411076   1.615   1.803  10.925  0.8916 -0.0202  1.6324
  746TMC3    C511077   1.588   1.681  10.873  1.1958 -0.1182 -0.4720
  746TMC3    C611078   1.626   1.648  10.743 -0.7155  0.2125 -0.3203
  746TMC3     C11079   1.744   2.004  10.937 -0.1126 -0.1614 -0.4124
  746TMC3     O11080   1.732   1.997  11.057 -0.0990  0.3273  0.1308
  746TMC3     H11081   1.806   1.931  10.690 -2.1512  1.3600 -2.5509
  746TMC3    H111082   1.585   1.845  11.021 -2.0126 -1.2805  1.2692
  746TMC3    H211083   1.615   1.543  10.716 -0.3269  0.0478  0.1573
  746TMC3    C711084   1.511   1.590  10.954  0.1890  0.0070  0.4237
  746TMC3    C811085   1.791   1.688  10.575 -0.4339 -0.0722  0.0595
  746TMC3    O111086   1.416   1.536  10.893 -0.2735  0.4251  0.3403
  746TMC3    O211087   1.801   1.564  10.557 -0.4323  0.2632 -0.3185
  747TMC3    C111088   3.790   2.459  11.196  0.2590  0.3897 -0.7789
  747TMC3    C211089   3.734   2.360  11.284  0.6701 -0.2015  0.8188
  747TMC3    C311090   3.730   2.383  11.421  0.7770 -0.3703  0.1680
  747TMC3    C411091   3.851   2.564  11.248 -0.0192  0.7205  0.5374
  747TMC3    C511092   3.852   2.580  11.383  0.0469  0.1054 -0.0120
  747TMC3    C611093   3.787   2.495  11.474 -0.3231  0.3833  0.6715
  747TMC3     C11094   3.790   2.436  11.056  0.0208  0.0563  0.0775
  747TMC3     O11095   3.829   2.524  10.973  0.6239 -0.1540 -0.5382
  747TMC3     H11096   3.679   2.278  11.240  0.4757 -1.1795  2.9099
  747TMC3    H111097   3.905   2.635  11.187  0.2269  0.0569 -0.0133
  747TMC3    H211098   3.807   2.505  11.580 -1.0370 -2.4949  1.0703
  747TMC3    C711099   3.968   2.651  11.443 -0.0278 -0.1936 -0.8153
  747TMC3    C811100   3.733   2.261  11.502  0.6652  0.2240 -0.5275
  747TMC3    O111101   3.977   2.653  11.564  1.0689  0.3604 -0.3477
  747TMC3    O211102   3.727   2.163  11.426  0.3195 -0.1957 -0.7022
  748MPD2     C11103   1.482   2.935   1.076  0.6700 -0.7907 -0.0161
  748MPD2    C111104   1.438   3.055   1.135 -0.2344 -0.1067  0.0921
  748MPD2    C211105   1.535   3.155   1.164  0.6962  0.1535  0.3208
  748MPD2    C311106   1.665   3.129   1.140  0.4694  1.0253 -0.3057
  748MPD2    C411107   1.709   3.005   1.094 -0.0559  0.2307 -0.2323
  748MPD2    C511108   1.618   2.910   1.060 -0.0307 -0.1888 -1.1264
  748MPD2     H11109   1.499   3.250   1.202 -0.4880 -0.8781  1.7750
  748MPD2    H111110   1.811   2.972   1.081 -0.1383  0.0333 -0.3822
  748MPD2    H211111   1.411   2.858   1.047 -0.6269 -0.1726  1.5368
  748MPD2    H311112   1.653   2.814   1.022 -0.8217 -0.5577 -0.9194
  748MPD2     N11113   1.756   3.237   1.159  0.2287  0.2540  0.0695
  748MPD2    H511114   1.707   3.319   1.193  0.8545 -0.2275  2.1348
  748MPD2    N111115   1.293   3.069   1.158  0.3862 -0.7413  0.2021
  748MPD2    H711116   1.236   2.987   1.140  0.2936 -0.4897 -0.6602
  749TMC3    C111117   1.950   3.361   1.176 -0.3277  0.0336 -0.1637
  749TMC3    C211118   2.064   3.378   1.256 -0.2435 -0.3842  0.0810
  749TMC3    C311119   2.104   3.506   1.275 -0.1294 -0.0139  0.2760
  749TMC3    C411120   1.891   3.465   1.106  0.5862  0.1775  0.0238
  749TMC3    C511121   1.940   3.591   1.119  0.0881 -0.2261  0.0009
  749TMC3    C611122   2.043   3.610   1.210 -0.1903 -0.3709  0.0060
  749TMC3     C11123   1.899   3.229   1.159  0.6040  0.0347  0.1680
  749TMC3     O11124   1.980   3.136   1.160  0.1802 -0.6729 -0.3985
  749TMC3     H11125   2.108   3.296   1.312 -4.6161 -1.9168  1.2291
  749TMC3    H111126   1.799   3.443   1.054 -0.6315  2.6697  1.0677
  749TMC3    H211127   2.072   3.713   1.225 -1.6192 -0.3672  2.7119
  749TMC3    C711128   1.904   3.703   1.034  0.5547  0.0915 -0.0209
  749TMC3    C811129   2.226   3.538   1.345  0.8521 -0.7259 -0.3893
  749TMC3    O111130   1.969   3.809   1.042  0.2426 -0.0239 -0.1807
  749TMC3    O211131   2.259   3.651   1.376  0.3717  0.1733  0.1985
  750MPD2     C11132   1.930   3.741  11.349  0.5259  0.6171 -0.3246
  750MPD2    C111133   1.836   3.692  11.438 -0.1094 -0.9085  0.2458
  750MPD2    C211134   1.801   3.561  11.435  0.0663  0.0663 -0.4252
  750MPD2    C311135   1.879   3.473  11.355  0.6593 -1.5349 -0.6512
  750MPD2    C411136   1.978   3.523  11.272 -0.2339 -0.6564  0.0319
  750MPD2    C511137   1.994   3.660  11.267  0.3147  0.4852  0.2742
  750MPD2     H11138   1.726   3.518  11.501  1.9534 -1.7027  0.5709
  750MPD2    H111139   2.036   3.458  11.209 -1.9000 -1.1814 -0.9612
  750MPD2    H211140   1.955   3.846  11.343 -0.2410  0.7789 -0.6796
  750MPD2    H311141   2.064   3.709  11.200  1.9494  0.3852  1.9029
  750MPD2     N11142   1.864   3.331  11.351 -0.2196 -0.4677 -0.0330
  750MPD2    H511143   1.910   3.281  11.276  0.7210 -1.4033  1.1681
  750MPD2    N111144   1.747   3.791  11.497 -1.1110 -0.1482 -0.2830
  750MPD2    H711145   1.767   3.888  11.474  2.3717 -1.0835 -1.1524
  751TMC3    C111146   1.768   3.128  11.392 -0.1025 -0.1655  0.0266
  751TMC3    C211147   1.646   3.063  11.408 -0.1244  0.3515 -0.1684
  751TMC3    C311148   1.635   2.935  11.365  0.3948 -0.1534 -0.6300
  751TMC3    C411149   1.880   3.061  11.356  0.2216 -0.0730 -0.2050
  751TMC3    C511150   1.862   2.934  11.311 -0.3906 -1.0997  0.2539
  751TMC3    C611151   1.741   2.871  11.317  0.9195  0.2821  0.2093
  751TMC3     C11152   1.764   3.262  11.413 -0.2554  0.4913  0.6820
  751TMC3     O11153   1.678   3.296  11.491  0.1951  0.0430  0.7650
  751TMC3     H11154   1.558   3.121  11.432  0.0283  1.2695 -1.8122
  751TMC3    H111155   1.977   3.106  11.337  1.3766 -2.7085 -0.6062
  751TMC3    H211156   1.741   2.766  11.287  0.2966  0.2406  0.3533
  751TMC3    C711157   1.947   2.905  11.196  0.2918 -0.2271  0.7693
  751TMC3    C811158   1.531   2.910  11.279  1.0153 -0.2199 -0.4600
  751TMC3    O111159   2.063   2.944  11.184 -0.3560 -0.0715  0.4513
  751TMC3    O211160   1.569   2.902  11.161 -0.2418  0.0197  0.1099
  752TMC3    C111161   1.129   3.402  16.734  0.6199 -0.3439 -0.3407
  752TMC3    C211162   1.180   3.277  16.701 -0.7796 -0.1274  0.3221
  752TMC3    C311163   1.165   3.174  16.796  1.0630 -0.1650  0.6867
  752TMC3    C411164   1.084   3.429  16.856 -0.2197 -0.2443 -0.1721
  752TMC3    C511165   1.078   3.332  16.951 -0.4477 -1.2235 -0.3016
  752TMC3    C611166   1.119   3.207  16.920  0.0153  0.6053  0.0408
  752TMC3     C11167   1.121   3.506  16.634  0.1909 -0.0382  0.0677
  752TMC3     O11168   1.197   3.489  16.539 -0.0508 -0.2239 -0.2046
  752TMC3     H11169   1.209   3.259  16.598  0.7634  1.4914  0.4640
  752TMC3    H111170   1.060   3.531  16.885 -1.9731 -0.6595 -0.2112
  752TMC3    H211171   1.118   3.131  16.997  2.1929  1.9778  1.4274
  752TMC3    C711172   1.043   3.358  17.086 -0.9122  0.0347  0.4071
  752TMC3    C811173   1.165   3.041  16.740  0.1143 -0.5842 -0.4037
  752TMC3    O111174   1.070   3.473  17.130  0.4327 -0.1933  0.1607
  752TMC3    O211175   1.218   3.027  16.629  0.2870  0.2964 -0.0313
  753TMC3    C111176   2.882   4.530  13.256 -0.1746  1.0338  0.2654
  753TMC3    C211177   2.870   4.623  13.360  0.3885  0.5902  0.5745
  753TMC3    C311178   2.760   4.620  13.433 -1.2424  0.1016 -0.4905
  753TMC3    C411179   2.778   4.441  13.227 -0.6515  0.0022  0.4528
  753TMC3    C511180   2.669   4.441  13.316 -0.0813 -0.6752 -0.1638
  753TMC3    C611181   2.665   4.526  13.417  0.5775  0.1741 -0.3140
  753TMC3     C11182   2.971   4.564  13.155 -0.3391  0.5129 -0.5001
  753TMC3     O11183   2.990   4.482  13.070 -0.2139 -0.6652 -0.4824
  753TMC3     H11184   2.944   4.696  13.392  0.6591  0.4867  0.1921
  753TMC3    H111185   2.795   4.369  13.148  1.9764  1.8058 -0.6124
  753TMC3    H211186   2.575   4.540  13.477  1.9180  3.4546  0.9621
  753TMC3    C711187   2.552   4.384  13.261  0.6327 -0.0687 -0.8594
  753TMC3    C811188   2.753   4.695  13.558  0.0682 -0.6223  0.7811
  753TMC3    O111189   2.544   4.393  13.143  0.2238 -0.4803  0.0333
  753TMC3    O211190   2.792   0.073  13.554 -0.3167  0.0870 -0.2803
  754MPD2     C11191   2.021   3.287  13.553 -0.5078  0.7014 -0.4699
  754MPD2    C111192   1.957   3.167  13.568 -0.2813  0.3964 -0.4913
  754MPD2    C211193   1.837   3.162  13.498 -0.3716  0.1661  0.2592
  754MPD2    C311194   1.775   3.269  13.435  0.3309  0.7071 -0.6343
  754MPD2    C411195   1.838   3.389  13.437  0.0716 -0.7903 -0.0249
  754MPD2    C511196   1.964   3.398  13.491 -0.1715 -0.0083 -0.3673
  754MPD2     H11197   1.791   3.064  13.501 -0.7028  0.3261  0.4104
  754MPD2    H111198   1.780   3.475  13.405 -0.8119 -1.7046 -0.8991
  754MPD2    H211199   2.118   3.306  13.598 -0.2504  2.0231 -1.5663
  754MPD2    H311200   2.023   3.489  13.495  0.0226 -0.1347 -0.3437
  754MPD2     N11201   1.649   3.261  13.375 -0.0034  0.1363 -0.0137
  754MPD2    H511202   1.608   3.352  13.357  0.5334  0.5978  1.1276
  754MPD2    N111203   2.022   3.059  13.639 -0.2568  0.7960 -0.1350
  754MPD2    H711204   2.112   3.096  13.667  0.8446 -3.0542  1.3816
  755MPD2     C11205   0.969   3.859  13.236  0.8830  0.2793 -0.1747
  755MPD2    C111206   0.949   3.792  13.352 -0.0946  0.0970 -0.5418
  755MPD2    C211207   1.025   3.676  13.365 -0.1129  0.1909 -0.2846
  755MPD2    C311208   1.115   3.630  13.264  0.9405  0.5992  0.1465
  755MPD2    C411209   1.133   3.707  13.152 -0.9192 -0.2529 -0.0683
  755MPD2    C511210   1.059   3.823  13.140 -0.3790  0.4070  0.2771
  755MPD2     H11211   1.018   3.615  13.454  3.0283  0.6823  0.3187
  755MPD2    H111212   1.189   3.675  13.066 -1.1570  1.9471 -1.0485
  755MPD2    H211213   0.917   3.952  13.218  3.0764  1.4947 -0.2617
  755MPD2    H311214   1.072   3.895  13.061 -1.6791  2.1523  1.6400
  755MPD2     N11215   1.191   3.509  13.274  0.1798 -0.5790 -0.1922
  755MPD2    H511216   1.259   3.481  13.203 -0.9180 -2.0682 -0.6568
  755MPD2    N111217   0.853   3.820  13.455 -0.1101  0.7469 -0.6620
  755MPD2    H711218   0.845   3.750  13.528  0.5902 -1.4232 -2.6709
  756MPD2     C11219   0.975   0.086   9.925  0.1262  0.1242 -0.5362
  756MPD2    C111220   0.949   4.704   9.983 -0.5351 -0.2400 -0.3410
  756MPD2    C211221   0.847   4.630   9.936  0.0292 -0.6116  0.0351
  756MPD2    C311222   0.777   4.668   9.828 -0.3664  0.4416  1.0655
  756MPD2    C411223   0.801   0.051   9.767  0.0957  0.3507 -0.1569
  756MPD2    C511224   0.900   0.131   9.821  0.3579  0.3846 -0.0314
  756MPD2     H11225   0.830   4.530   9.973  1.1515 -0.4649  0.9247
  756MPD2    H111226   0.742   0.101   9.691 -0.5778 -1.0051 -0.5275
  756MPD2    H211227   1.052   0.148   9.970  0.4976  0.5757 -1.7945
  756MPD2    H311228   0.922   0.230   9.783  1.8023  0.4800  1.0818
  756MPD2     N11229   0.684   4.574   9.785  0.4595  0.6502  0.1375
  756MPD2    H511230   0.679   4.489   9.841  1.1652  0.7782  0.3902
  756MPD2    N111231   1.034   4.645  10.083 -0.5602  0.2605  0.3308
  756MPD2    H711232   1.014   4.556  10.127 -2.7319  1.1952  1.2665
  757MPD2     C11233   0.584   3.703   9.912 -0.2377  0.1473 -0.3173
  757MPD2    C111234   0.687   3.791   9.918  0.6014  0.1912  0.2114
  757MPD2    C211235   0.669   3.926   9.891  1.4260  0.4353  0.1056
  757MPD2    C311236   0.547   3.983   9.864 -0.0637 -0.1402  0.8422
  757MPD2    C411237   0.443   3.896   9.844  0.8243  0.2115  0.2954
  757MPD2    C511238   0.470   3.761   9.865 -0.1825  0.2200 -0.5114
  757MPD2     H11239   0.752   3.993   9.909 -0.6624  2.2034  3.2075
  757MPD2    H111240   0.342   3.926   9.817  0.2206  0.7579  3.2270
  757MPD2    H211241   0.590   3.596   9.927  2.0001 -0.0202 -2.4788
  757MPD2    H311242   0.385   3.699   9.839  0.4367 -1.2939  1.0861
  757MPD2     N11243   0.525   4.120   9.856  0.2460  0.2410 -0.1000
  757MPD2    H511244   0.596   4.181   9.896 -0.7704  1.6231 -0.4156
  757MPD2    N111245   0.810   3.734   9.964  0.3024  0.3295  0.2667
  757MPD2    H711246   0.799   3.636   9.987  0.0144  0.3238  0.1073
  758MPD2     C11247   1.488   3.201  16.077 -0.7459  0.4684  0.0225
  758MPD2    C111248   1.582   3.146  16.160 -0.3681 -0.5528 -0.3649
  758MPD2    C211249   1.582   3.172  16.300  0.3406  0.0590  0.5130
  758MPD2    C311250   1.480   3.243  16.361 -0.2136 -0.4563 -0.1647
  758MPD2    C411251   1.397   3.306  16.276  0.5496  0.9147  0.5047
  758MPD2    C511252   1.404   3.287  16.141  0.0233  0.1505  0.3823
  758MPD2     H11253   1.660   3.131  16.363  0.5072 -0.1340  0.1857
  758MPD2    H111254   1.323   3.376  16.314 -0.6195 -0.5402  0.9358
  758MPD2    H211255   1.502   3.192  15.970 -3.0445 -0.0958 -0.2260
  758MPD2    H311256   1.346   3.348  16.072  0.4515  0.5507  0.3786
  758MPD2     N11257   1.474   3.273  16.500 -0.1342  0.2401 -0.7111
  758MPD2    H511258   1.420   3.354  16.527  3.2193  1.5330  2.1821
  758MPD2    N111259   1.666   3.052  16.103  0.1463 -0.3508  1.0643
  758MPD2    H711260   1.670   3.041  16.002 -0.8244 -0.2824  1.0239
  759MPD2     C11261   0.462   2.429   9.660  0.1712  0.1064 -0.6132
  759MPD2    C111262   0.356   2.360   9.615  0.4548  0.0383 -0.7970
  759MPD2    C211263   0.330   2.344   9.479  0.0024 -0.1501 -0.1655
  759MPD2    C311264   0.428   2.387   9.393 -0.0372 -0.2831  0.2398
  759MPD2    C411265   0.543   2.446   9.440  0.1133  0.3805 -0.4734
  759MPD2    C511266   0.555   2.474   9.574  0.3301 -0.4239  0.1678
  759MPD2     H11267   0.247   2.285   9.441 -1.1269 -0.5580  2.9397
  759MPD2    H111268   0.635   2.458   9.384 -0.0637 -0.1686 -0.8729
  759MPD2    H211269   0.485   2.449   9.764  0.1654 -1.2310 -0.3547
  759MPD2    H311270   0.630   2.537   9.619  0.7537 -0.4601 -0.4926
  759MPD2     N11271   0.426   2.370   9.252  0.2909 -0.0132 -0.6426
  759MPD2    H511272   0.515   2.388   9.208  1.2513 -0.7275  0.9998
  759MPD2    N111273   0.263   2.296   9.705  0.9122 -0.4192 -0.0601
  759MPD2    H711274   0.200   2.229   9.664  1.8625 -1.3042 -0.0760
  760MPD2     C11275   0.098   3.149  11.653  0.4389 -0.4881  0.3872
  760MPD2    C111276   0.187   3.201  11.746 -0.2343  0.4748  0.3746
  760MPD2    C211277   0.261   3.109  11.824  0.1147 -0.0589 -0.3309
  760MPD2    C311278   0.251   2.969  11.808  0.0670  0.2126  0.0129
  760MPD2    C411279   0.173   2.919  11.704  0.5717  0.4683 -0.0421
  760MPD2    C511280   0.087   3.008  11.641  0.3635  0.4484  0.7622
  760MPD2     H11281   0.324   3.157  11.898  0.9268  1.2213 -1.8672
  760MPD2    H111282   0.149   2.815  11.685  0.0862  0.2811  1.5618
  760MPD2    H211283   0.033   3.217  11.599  0.1142 -1.2276 -0.1346
  760MPD2    H311284   0.021   2.965  11.567  0.3535 -0.7764  1.4822
  760MPD2     N11285   0.318   2.882  11.893  0.3248  0.7036 -0.6141
  760MPD2    H511286   0.286   2.786  11.900  0.0705  0.9322  1.3417
  760MPD2    N111287   0.191   3.339  11.778  0.0021  0.6944  0.9173
  760MPD2    H711288   0.253   3.371  11.852  2.1986  0.5467 -0.8706
  761MPD2     C11289   1.097   2.676  11.135  0.1430 -0.0126 -0.4194
  761MPD2    C111290   1.222   2.679  11.077 -0.2353  0.5560 -0.1761
  761MPD2    C211291   1.322   2.745  11.140  0.3658 -0.0043  1.0929
  761MPD2    C311292   1.307   2.812  11.265  0.5775  0.7221 -0.3197
  761MPD2    C411293   1.186   2.811  11.330  0.2371  0.2513 -0.2421
  761MPD2    C511294   1.088   2.742  11.262 -0.1240  0.5762 -0.8461
  761MPD2     H11295   1.422   2.751  11.099 -0.8019  0.0576 -1.7382
  761MPD2    H111296   1.166   2.859  11.425 -0.0390 -0.7239  0.1942
  761MPD2    H211297   1.012   2.642  11.077  1.0400  0.5163 -2.0669
  761MPD2    H311298   0.992   2.745  11.312  0.6553  1.9668  0.5732
  761MPD2     N11299   1.415   2.881  11.336  0.1522 -0.3886 -0.0776
  761MPD2    H511300   1.400   2.897  11.435 -2.3317  3.1529 -1.0356
  761MPD2    N111301   1.236   2.602  10.954  0.2312  0.1965 -0.5002
  761MPD2    H711302   1.161   2.539  10.927  0.5722 -0.0432 -0.8963
  762MPD2     C11303   1.591   2.641  10.216  0.0703 -0.0055 -0.1113
  762MPD2    C111304   1.643   2.565  10.313  0.6153 -0.1586  0.8848
  762MPD2    C211305   1.769   2.516  10.289  0.7147  0.1556  0.0379
  762MPD2    C311306   1.842   2.550  10.169  0.3261  0.0575 -0.2867
  762MPD2    C411307   1.783   2.635  10.071  0.2237  0.2903  0.2420
  762MPD2    C511308   1.662   2.675  10.097  0.1335  0.6013 -0.0057
  762MPD2     H11309   1.815   2.448  10.360 -1.0316 -1.0653  0.0131
  762MPD2    H111310   1.839   2.678   9.989  0.1942  0.5851  0.3747
  762MPD2    H211311   1.489   2.680  10.220  0.1344  0.1894 -0.4028
  762MPD2    H311312   1.622   2.743  10.023 -0.6181  0.1729  0.0012
  762MPD2     N11313   1.972   2.489  10.155  0.1595 -0.5117 -0.0562
  762MPD2    H511314   2.000   2.433  10.235 -0.7040  0.1774  0.7297
  762MPD2    N111315   1.579   2.540  10.433  0.5469 -0.4415 -0.0368
  762MPD2    H711316   1.489   2.588  10.437  2.0035  2.2382  0.3488
  763MPD2     C11317   3.418   2.911  16.430  0.0343  0.4337 -0.2384
  763MPD2    C111318   3.335   2.997  16.371 -0.5010 -0.6138  0.8051
  763MPD2    C211319   3.329   3.135  16.407  0.0954 -0.2453  0.3701
  763MPD2    C311320   3.424   3.184  16.492 -0.5023  0.2202 -0.1270
  763MPD2    C411321   3.508   3.097  16.555  0.2706  0.3506  0.3105
  763MPD2    C511322   3.497   2.961  16.529 -0.6200  0.1839  0.4600
  763MPD2     H11323   3.267   3.198  16.343 -0.6568  0.1286  1.4754
  763MPD2    H111324   3.589   3.135  16.616  1.3932  0.5597 -1.3289
  763MPD2    H211325   3.434   2.810  16.393  0.4885  0.3941  0.0580
  763MPD2    H311326   3.570   2.894  16.572 -0.0287 -0.3760 -1.4340
  763MPD2     N11327   3.450   3.319  16.508 -0.0354  0.3274  0.2263
  763MPD2    H511328   3.536   3.337  16.559  0.0420 -0.6220  0.4319
  763MPD2    N111329   3.253   2.953  16.259  0.5152  0.1116 -0.2457
  763MPD2    H711330   3.222   3.025  16.194  0.8355 -0.7436 -1.3378
  764MPD2     C11331   1.642   0.535  16.936  0.3205 -0.2844  0.6276
  764MPD2    C111332   1.631   0.402  16.920 -0.2835 -0.1241  0.2215
  764MPD2    C211333   1.603   0.328  17.032  0.1081 -0.5296  0.3534
  764MPD2    C311334   1.583   0.390  17.152 -0.1837  0.3913  0.3042
  764MPD2    C411335   1.589   0.527  17.161 -0.1152 -0.1880 -0.3280
  764MPD2    C511336   1.623   0.601  17.049  0.0514  0.4948  0.7120
  764MPD2     H11337   1.610   0.220  17.028  0.8242 -0.3303 -3.6047
  764MPD2    H111338   1.586   0.577  17.256 -1.9819 -1.7038  0.4221
  764MPD2    H211339   1.674   0.596  16.851 -0.8967 -2.0849 -1.1218
  764MPD2    H311340   1.623   0.710  17.049  0.4464  0.4953 -0.6246
  764MPD2     N11341   1.558   0.308  17.264  0.3153 -0.2359  0.0345
  764MPD2    H511342   1.557   0.207  17.250  0.7602 -0.1118 -0.9378
  764MPD2    N111343   1.644   0.335  16.795 -0.1933  0.3223 -0.4081
  764MPD2    H711344   1.643   0.234  16.804  2.5451  0.3342 -0.1552
  765MPD2     C11345   0.985   2.424  15.583  0.2114  0.9111 -0.0856
  765MPD2    C111346   1.025   2.459  15.707 -0.0503 -0.6040 -0.3286
  765MPD2    C211347   1.145   2.401  15.753 -0.4661  0.3959  0.7660
  765MPD2    C311348   1.220   2.313  15.674  0.4623 -0.3485  0.6558
  765MPD2    C411349   1.177   2.279  15.547 -0.1439  0.4333 -0.6650
  765MPD2    C511350   1.056   2.332  15.505 -0.7640  0.8902  0.0677
  765MPD2     H11351   1.173   2.417  15.856 -1.8056  0.1177  1.1731
  765MPD2    H111352   1.222   2.203  15.483  0.8757  0.0901  0.4731
  765MPD2    H211353   0.903   2.473  15.532  1.4078  1.7671 -1.1923
  765MPD2    H311354   1.010   2.308  15.410  2.1511  0.4348 -1.2281
  765MPD2     N11355   1.329   2.244  15.736 -0.6587 -0.1900  0.3318
  765MPD2    H511356   1.342   2.282  15.830 -2.4418  2.3450 -0.4520
  765MPD2    N111357   0.961   2.568  15.768 -0.7002  0.1815  0.7125
  765MPD2    H711358   0.876   2.605  15.726 -0.0065  1.0693  0.1139
  766MPD2     C11359   0.498   2.700  15.422 -0.0801  0.0609  0.1654
  766MPD2    C111360   0.633   2.733  15.442 -0.3862 -0.3554  0.2325
  766MPD2    C211361   0.724   2.723  15.339  1.0408  0.2139  0.0081
  766MPD2    C311362   0.678   2.697  15.213 -0.2058  0.0534  0.3712
  766MPD2    C411363   0.543   2.674  15.188 -1.0733 -0.4268  0.2778
  766MPD2    C511364   0.458   2.678  15.297 -0.8340 -0.1893 -0.7832
  766MPD2     H11365   0.827   2.753  15.355  1.1930 -0.1673 -0.2774
  766MPD2    H111366   0.500   2.644  15.094  0.2986  1.9704 -1.1042
  766MPD2    H211367   0.429   2.699  15.506 -2.7726 -1.7052 -2.0879
  766MPD2    H311368   0.353   2.659  15.280 -1.3182  1.1976  0.6864
  766MPD2     N11369   0.765   2.689  15.095 -0.8448  0.4824  0.6756
  766MPD2    H511370   0.725   2.696  15.002  1.3895  1.7403 -0.1836
  766MPD2    N111371   0.681   2.773  15.567  0.3011  0.1169 -0.0177
  766MPD2    H711372   0.782   2.782  15.578  0.0784  1.8762  0.5269
  767MPD2     C11373   0.338   2.952  15.107  0.5702 -0.0899 -0.5354
  767MPD2    C111374   0.470   2.982  15.073  0.2101  0.4683 -0.0134
  767MPD2    C211375   0.503   2.964  14.939  0.3173  0.1532  0.0389
  767MPD2    C311376   0.416   2.916  14.846  0.1363  0.1641 -0.7597
  767MPD2    C411377   0.293   2.865  14.892 -0.6036  0.1409  0.3121
  767MPD2    C511378   0.258   2.880  15.020  0.5952 -0.6486  0.1431
  767MPD2     H11379   0.598   3.002  14.903  1.6902 -0.6465  2.7619
  767MPD2    H111380   0.231   2.804  14.827 -1.5479  3.0298 -1.4898
  767MPD2    H211381   0.303   2.962  15.209  1.7612  0.5032 -0.1859
  767MPD2    H311382   0.163   2.848  15.062 -1.3719  0.5606 -3.3287
  767MPD2     N11383   0.461   2.895  14.711 -0.2281  0.5755  0.3367
  767MPD2    H511384   0.555   2.919  14.681 -1.1800  2.0240 -1.5034
  767MPD2    N111385   0.544   3.045  15.178  0.3629  0.5617 -0.0437
  767MPD2    H711386   0.509   3.038  15.272  2.5605 -1.5627  0.6341
  768MPD2     C11387   1.531   1.165  10.978 -0.3587  0.1574  0.0634
  768MPD2    C111388   1.484   1.113  11.095 -0.4026  0.4389 -0.0981
  768MPD2    C211389   1.552   1.124  11.216 -0.2281  0.1669 -0.5862
  768MPD2    C311390   1.686   1.168  11.213  0.4115  0.7329  0.9107
  768MPD2    C411391   1.729   1.223  11.095  0.4305  0.1474  0.0361
  768MPD2    C511392   1.652   1.225  10.982 -0.2505 -0.7132 -0.7735
  768MPD2     H11393   1.515   1.079  11.308 -1.2680  0.9982 -0.5972
  768MPD2    H111394   1.829   1.264  11.088  0.2822  0.3645 -0.8286
  768MPD2    H211395   1.471   1.156  10.888  0.7592 -0.1055 -0.6631
  768MPD2    H311396   1.687   1.267  10.888  0.1799 -2.0964 -1.2203
  768MPD2     N11397   1.773   1.186  11.329 -0.1072  0.2447 -0.4523
  768MPD2    H511398   1.865   1.225  11.311 -0.0698  0.5095  0.3130
  768MPD2    N111399   1.353   1.060  11.105 -0.9130  0.1626 -0.1687
  768MPD2    H711400   1.322   1.046  11.201  2.1309  1.1423  0.9587
  769MPD2     C11401   2.856   3.966  15.054  0.7415  0.3046  0.1954
  769MPD2    C111402   2.732   3.987  15.112  0.1141 -0.0988  0.6943
  769MPD2    C211403   2.727   4.062  15.232 -0.7505 -0.1337 -0.9048
  769MPD2    C311404   2.847   4.110  15.284 -0.3617  0.0465  0.2408
  769MPD2    C411405   2.971   4.092  15.220 -0.8190  0.0688  0.0211
  769MPD2    C511406   2.974   4.023  15.102  0.6428  0.5354  0.2348
  769MPD2     H11407   2.636   4.092  15.282  0.4905  1.8321  0.1945
  769MPD2    H111408   3.061   4.127  15.270 -0.1505 -0.2987 -0.9192
  769MPD2    H211409   2.870   3.925  14.954  0.4065  2.2421 -0.6380
  769MPD2    H311410   3.067   4.027  15.046  0.7527  0.6944  0.4262
  769MPD2     N11411   2.840   4.182  15.405  0.5688  0.1688 -0.0697
  769MPD2    H511412   2.747   4.181  15.445  0.4245 -1.5121 -0.4068
  769MPD2    N111413   2.620   3.955  15.028  0.6463 -0.1434 -0.7183
  769MPD2    H711414   2.640   3.882  14.960 -0.1273 -2.4759  1.5426
  770MPD2     C11415   1.681   3.661  14.964  0.5546 -0.7657  0.1946
  770MPD2    C111416   1.796   3.602  14.929  0.3506 -0.8063  0.3531
  770MPD2    C211417   1.895   3.683  14.869  0.2834 -0.1975  0.2955
  770MPD2    C311418   1.899   3.817  14.886  0.0419  0.7155  0.1482
  770MPD2    C411419   1.789   3.873  14.945 -0.1381  0.4648 -0.0138
  770MPD2    C511420   1.682   3.800  14.974 -0.3767  0.7366 -0.7986
  770MPD2     H11421   1.986   3.643  14.824 -0.4180 -0.1360 -1.1948
  770MPD2    H111422   1.788   3.980  14.963 -1.3545  0.8052 -2.0772
  770MPD2    H211423   1.591   3.605  14.990  0.0339  0.4132  0.9218
  770MPD2    H311424   1.595   3.849  15.017  0.1098 -0.8191  1.9708
  770MPD2     N11425   2.025   3.875  14.861  0.2578  0.1887  0.0641
  770MPD2    H511426   2.095   3.810  14.828 -1.0865 -1.2868  0.1328
  770MPD2    N111427   1.818   3.461  14.948  0.5272  0.3487 -0.7781
  770MPD2    H711428   1.740   3.406  14.981  0.1432  0.7292 -1.0531
  771MPD2     C11429   3.061   1.931  14.000  0.1295  0.2222  0.0052
  771MPD2    C111430   2.953   2.010  13.964 -0.1459  0.7336  0.5017
  771MPD2    C211431   2.840   1.955  13.904 -0.4781 -0.3148 -0.2430
  771MPD2    C311432   2.834   1.821  13.885  0.1381 -0.0830 -0.1956
  771MPD2    C411433   2.933   1.736  13.940 -0.3983 -0.0850 -0.2372
  771MPD2    C511434   3.036   1.794  14.002 -0.0461  0.0392  0.1366
  771MPD2     H11435   2.769   2.022  13.856  0.0034  0.0323 -0.4781
  771MPD2    H111436   2.925   1.628  13.931  2.1761 -0.1003 -2.1846
  771MPD2    H211437   3.156   1.963  14.042  0.0882  0.2709  0.0617
  771MPD2    H311438   3.110   1.726  14.042 -1.0106 -0.6812  0.6750
  771MPD2     N11439   2.727   1.766  13.805  0.3591  0.1945 -0.3965
  771MPD2    H511440   2.664   1.839  13.771 -1.3463 -0.7278  0.8007
  771MPD2    N111441   2.964   2.152  13.956 -0.2058  1.6694  0.3398
  771MPD2    H711442   2.880   2.197  13.921 -0.5881  1.2932  0.7892
  772MPD2     C11443   2.647   2.801  13.799  0.5209 -0.4057  0.0547
  772MPD2    C111444   2.646   2.663  13.821  0.6659 -0.0682 -0.6413
  772MPD2    C211445   2.519   2.600  13.825 -0.1033 -0.4205  0.2278
  772MPD2    C311446   2.406   2.671  13.808  0.3758  0.5060  0.4664
  772MPD2    C411447   2.417   2.807  13.776  0.0022 -0.5675  0.0659
  772MPD2    C511448   2.533   2.876  13.787  0.6258 -1.0999  0.0912
  772MPD2     H11449   2.523   2.499  13.865 -1.6605 -0.9174 -0.8671
  772MPD2    H111450   2.324   2.860  13.762  0.6125  0.9069  1.4648
  772MPD2    H211451   2.746   2.845  13.794  0.1638  0.3330 -0.5420
  772MPD2    H311452   2.532   2.984  13.778 -2.1766 -1.0901  0.6377
  772MPD2     N11453   2.274   2.628  13.833  0.1369  0.0045  0.4590
  772MPD2    H511454   2.200   2.694  13.810  1.6284  1.1651 -1.0387
  772MPD2    N111455   2.769   2.583  13.823 -0.3899  0.5338 -1.1152
  772MPD2    H711456   2.762   2.482  13.831 -1.2346  0.7631  1.0787
  773MPD2     C11457   2.294   3.778   0.608 -0.9411 -0.0047  0.0565
  773MPD2    C111458   2.237   3.699   0.501  0.1094  0.5397  0.4183
  773MPD2    C211459   2.270   3.570   0.492 -0.4667  0.2762 -0.0343
  773MPD2    C311460   2.367   3.524   0.573  1.1872  1.0994  0.4810
  773MPD2    C411461   2.441   3.598   0.658  0.3638 -0.2020  1.4857
  773MPD2    C511462   2.400   3.729   0.685  0.1391  0.0083 -0.2584
  773MPD2     H11463   2.214   3.500   0.429 -1.4545  0.3612  0.7549
  773MPD2    H111464   2.528   3.559   0.708  0.0015  0.0376  2.3025
  773MPD2    H211465   2.262   3.881   0.619 -0.2960  0.2736 -0.6981
  773MPD2    H311466   2.450   3.789   0.761  0.1703  2.1669 -1.9691
  773MPD2     N11467   2.372   3.383   0.563 -0.1495  0.1624 -0.1075
  773MPD2    H511468   2.313   3.334   0.497  2.3738 -1.1361 -1.4037
  773MPD2    N111469   2.129   3.729   0.420 -0.3473  0.1097  0.6339
  773MPD2    H711470   2.095   3.656   0.358 -0.8096  1.1999 -0.4118
  774MPD2     C11471   1.710   2.049  13.738  0.1437  0.3529  0.1510
  774MPD2    C111472   1.612   2.103  13.658  0.2863  0.0971 -0.6770
  774MPD2    C211473   1.625   2.230  13.608  0.0453  0.2336  0.1687
  774MPD2    C311474   1.735   2.305  13.643 -0.4834  0.3833  0.8152
  774MPD2    C411475   1.837   2.249  13.714 -1.2800 -0.6697 -0.1257
  774MPD2    C511476   1.825   2.126  13.760  0.3267  0.5361  0.0607
  774MPD2     H11477   1.550   2.276  13.544  0.4058  0.0069 -0.4164
  774MPD2    H111478   1.931   2.295  13.745 -1.2774 -0.7865  0.0401
  774MPD2    H211479   1.700   1.950  13.781  0.0737 -0.1234 -0.9693
  774MPD2    H311480   1.897   2.079  13.826 -0.8098 -1.7878 -0.3264
  774MPD2     N11481   1.740   2.437  13.597  0.0839 -0.1730  0.8869
  774MPD2    H511482   1.656   2.472  13.551 -0.4982 -0.6510  1.5808
  774MPD2    N111483   1.492   2.030  13.656  0.1378 -0.2231  0.3049
  774MPD2    H711484   1.497   1.944  13.710  3.3821 -1.1018 -1.4040
  775MPD2     C11485   2.835   3.815  15.698  1.2852 -0.0130  0.3968
  775MPD2    C111486   2.908   3.872  15.802 -0.3003 -0.6988 -0.3198
  775MPD2    C211487   3.024   3.934  15.766 -0.2268 -0.1885 -0.5641
  775MPD2    C311488   3.060   3.954  15.633  0.0411  0.0673 -0.2471
  775MPD2    C411489   2.986   3.896  15.534 -0.2355 -0.3799  0.1912
  775MPD2    C511490   2.867   3.833  15.566  0.5969  0.5191 -0.4680
  775MPD2     H11491   3.088   3.968  15.846 -0.0212  1.2011 -1.3180
  775MPD2    H111492   3.013   3.900  15.429  1.0801 -2.2542  0.4629
  775MPD2    H211493   2.740   3.766  15.715  1.1369  0.0544 -0.2176
  775MPD2    H311494   2.801   3.799  15.487 -0.2928  1.7327 -0.2598
  775MPD2     N11495   3.167   4.036  15.586  0.0558  0.7068 -0.5405
  775MPD2    H511496   3.191   4.036  15.488 -0.9217 -1.3241 -0.7752
  775MPD2    N111497   2.859   3.855  15.937 -0.3529  0.7256 -0.6173
  775MPD2    H711498   2.778   3.794  15.947 -0.9195  1.4759 -0.6442
  776MPD2     C11499   2.019   4.236  11.855 -0.4540  0.1279 -0.7959
  776MPD2    C111500   1.886   4.273  11.821  0.5748 -0.1556  0.4945
  776MPD2    C211501   1.856   4.413  11.819 -0.1175 -0.2037  0.0568
  776MPD2    C311502   1.954   4.505  11.854  0.1193 -0.3107  0.1647
  776MPD2    C411503   2.080   4.466  11.892 -0.4458 -0.1401  0.4710
  776MPD2    C511504   2.108   4.333  11.899 -0.1900 -0.8087  0.1848
  776MPD2     H11505   1.755   4.440  11.789 -0.1354  0.1775  0.4535
  776MPD2    H111506   2.162   4.530  11.926 -1.2100  0.8658  0.4266
  776MPD2    H211507   2.052   4.135  11.836  2.0635  0.7643  0.1967
  776MPD2    H311508   2.208   4.299  11.924  0.2496  1.5418  1.5631
  776MPD2     N11509   1.936   4.644  11.847  0.2720 -0.5079  0.0726
  776MPD2    H511510   2.008   4.709  11.877  0.9692 -1.4622  0.4403
  776MPD2    N111511   1.790   4.176  11.779  0.3530  0.2115  0.3796
  776MPD2    H711512   1.831   4.085  11.765 -1.2984 -0.6951  1.3925
  777MPD2     C11513   3.047   2.731   0.936 -0.1267  0.5480  0.3606
  777MPD2    C111514   3.021   2.686   1.067  0.2081  0.2996  0.3110
  777MPD2    C211515   2.949   2.570   1.082 -1.2109  0.2307  0.0197
  777MPD2    C311516   2.912   2.489   0.971 -0.3127 -0.2420  0.0912
  777MPD2    C411517   2.938   2.537   0.846 -0.9127  0.2221 -0.1207
  777MPD2    C511518   3.015   2.651   0.831 -0.8510  0.3783 -0.1321
  777MPD2     H11519   2.928   2.524   1.178  1.3690 -0.5371  0.2330
  777MPD2    H111520   2.915   2.484   0.754 -1.6717  0.3527 -0.0045
  777MPD2    H211521   3.096   2.827   0.921  0.6899 -0.4687 -3.6580
  777MPD2    H311522   3.037   2.685   0.731  0.0035 -1.1576 -0.4646
  777MPD2     N11523   2.833   2.371   0.996 -0.1524 -0.1805  0.0635
  777MPD2    H511524   2.801   2.360   1.092  1.4024 -0.5944  0.5443
  777MPD2    N111525   3.048   2.773   1.176  0.4690  0.4700 -0.3476
  777MPD2    H711526   3.074   2.867   1.148 -0.9893  1.2848  1.0318
  778MPD2     C11527   3.180   2.389  14.975 -0.3344  0.5707  0.5118
  778MPD2    C111528   3.191   2.267  14.899 -0.8376  0.1664  0.2992
  778MPD2    C211529   3.256   2.284  14.780  0.2005 -0.8720  0.3102
  778MPD2    C311530   3.311   2.396  14.746 -0.9041  0.5175 -0.8183
  778MPD2    C411531   3.316   2.510  14.828  0.5983  0.1504  0.0165
  778MPD2    C511532   3.247   2.506  14.944  0.2735 -0.0022 -0.7138
  778MPD2     H11533   3.252   2.203  14.708 -0.2604  0.7463 -1.4859
  778MPD2    H111534   3.367   2.600  14.798  0.3434 -0.0603 -1.0577
  778MPD2    H211535   3.133   2.391  15.073  1.2460  1.1693  1.2521
  778MPD2    H311536   3.241   2.587  15.016  1.0466  0.1630 -0.8348
  778MPD2     N11537   3.380   2.400  14.621  0.3067  0.1138  0.0704
  778MPD2    H511538   3.383   2.314  14.567 -0.9451  0.4710 -0.5929
  778MPD2    N111539   3.126   2.139  14.920  0.3475  0.2958  0.2622
  778MPD2    H711540   3.153   2.065  14.856  1.4275 -0.4105  1.5244
  779MPD2     C11541   2.440   0.856  14.349  0.0481  0.2683 -0.3326
  779MPD2    C111542   2.574   0.865  14.329 -0.9237 -0.3917  0.0576
  779MPD2    C211543   2.634   0.997  14.324 -0.7163 -0.7753 -0.4910
  779MPD2    C311544   2.564   1.115  14.346  0.1519 -0.3771 -0.4000
  779MPD2    C411545   2.427   1.098  14.353 -0.7172  0.0791 -0.0664
  779MPD2    C511546   2.367   0.974  14.359 -0.6753  1.0226  0.6599
  779MPD2     H11547   2.739   1.001  14.294 -0.7533  0.8171 -0.4442
  779MPD2    H111548   2.363   1.185  14.367  2.7830  3.0366 -2.6942
  779MPD2    H211549   2.385   0.763  14.340 -0.3912  0.3505  1.5578
  779MPD2    H311550   2.260   0.975  14.380 -1.4269  0.4108 -2.9763
  779MPD2     N11551   2.637   1.241  14.347  0.0958  0.0396  0.3270
  779MPD2    H511552   2.738   1.242  14.356  0.0830 -2.8511  0.8616
  779MPD2    N111553   2.663   0.753  14.301  0.3138  0.3473  0.1944
  779MPD2    H711554   2.758   0.778  14.277  0.8137 -1.0038  0.7645
  780MPD2     C11555   2.799   1.710   0.697  0.1653 -0.1544  0.5924
  780MPD2    C111556   2.834   1.579   0.720  0.0122 -0.4108  0.6368
  780MPD2    C211557   2.951   1.537   0.664 -0.1993  0.0906  0.0839
  780MPD2    C311558   3.036   1.618   0.596 -0.4836 -0.7515  0.5822
  780MPD2    C411559   2.998   1.751   0.574  0.4287 -0.1537 -0.0944
  780MPD2    C511560   2.877   1.790   0.621  0.0092 -0.3904  0.3732
  780MPD2     H11561   2.964   1.429   0.662 -1.0100 -0.0277  1.5960
  780MPD2    H111562   3.063   1.816   0.518 -1.1240  1.9599  0.5570
  780MPD2    H211563   2.712   1.750   0.749  0.9075  2.0655  0.0983
  780MPD2    H311564   2.838   1.891   0.611  2.2052  0.4835  0.5322
  780MPD2     N11565   3.151   1.565   0.529  0.1539  0.4286 -0.1825
  780MPD2    H511566   3.156   1.465   0.545  1.1665  0.5253  0.1054
  780MPD2    N111567   2.738   1.493   0.784 -0.0219  0.6844  0.2283
  780MPD2    H711568   2.645   1.529   0.799  1.3256  4.1010  0.2433
  781MPD2     C11569   3.708   3.023  12.190 -0.0303  0.2854 -0.1421
  781MPD2    C111570   3.821   2.990  12.250 -0.3764 -0.7804 -0.2884
  781MPD2    C211571   3.947   3.018  12.189  0.2703  0.0937 -0.7189
  781MPD2    C311572   3.947   3.087  12.074  0.5865 -0.0495 -0.0212
  781MPD2    C411573   3.825   3.130  12.018 -0.1557 -0.0052  0.3054
  781MPD2    C511574   3.708   3.093  12.077 -0.8270 -0.1326 -0.1509
  781MPD2     H11575   4.040   2.994  12.239 -1.3013 -3.2494  0.6109
  781MPD2    H111576   3.814   3.179  11.923  0.2469 -1.5152 -0.5217
  781MPD2    H211577   3.607   3.002  12.225 -0.2512  0.8900 -0.4188
  781MPD2    H311578   3.616   3.116  12.024 -2.0580 -2.6783  0.8701
  781MPD2     N11579   4.067   3.105  11.995  0.5598 -0.2270 -0.6247
  781MPD2    H511580   4.066   3.164  11.912 -0.1752  0.5892 -0.0368
  781MPD2    N111581   3.805   2.916  12.368  0.3679 -0.7949 -0.3996
  781MPD2    H711582   3.713   2.906  12.411 -0.0652 -0.0781 -1.1446
  782MPD2     C11583   2.221   3.160  10.067  0.2759 -0.4216  0.7315
  782MPD2    C111584   2.290   3.162  10.187 -0.1095  0.2379 -0.1173
  782MPD2    C211585   2.315   3.289  10.236  0.1235 -0.0751 -0.2061
  782MPD2    C311586   2.284   3.407  10.177 -0.7385  0.4758  0.7849
  782MPD2    C411587   2.216   3.399  10.056  0.1201  0.1500  0.3303
  782MPD2    C511588   2.180   3.277  10.002 -0.0907  0.2256 -0.3005
  782MPD2     H11589   2.356   3.294  10.337  2.3344  2.5387 -1.2599
  782MPD2    H111590   2.187   3.486  10.000  0.7414  0.8039  1.0138
  782MPD2    H211591   2.193   3.068  10.017  0.3770  0.4889 -0.9839
  782MPD2    H311592   2.130   3.272   9.906 -2.3982  0.8301  0.8811
  782MPD2     N11593   2.318   3.513  10.249  0.3009 -0.0081  0.4707
  782MPD2    H511594   2.376   3.486  10.327 -0.7210  0.8089  1.5193
  782MPD2    N111595   2.329   3.046  10.265 -0.9210  0.3577 -0.1293
  782MPD2    H711596   2.368   3.066  10.357  0.4897 -0.1070 -0.6297
  783MPD2     C11597   1.759   2.792  10.900 -0.5631 -0.3872 -0.6280
  783MPD2    C111598   1.870   2.838  10.969  0.1961 -0.0546  0.1083
  783MPD2    C211599   1.993   2.830  10.909 -0.2050 -0.5308 -0.0106
  783MPD2    C311600   2.002   2.790  10.771  0.6263 -0.5835 -0.3604
  783MPD2    C411601   1.883   2.756  10.707  0.5776 -0.4237 -0.1318
  783MPD2    C511602   1.767   2.749  10.768  0.6561 -0.5285  0.0509
  783MPD2     H11603   2.089   2.849  10.956 -1.4515  1.7673  1.6035
  783MPD2    H111604   1.867   2.712  10.609 -0.8471 -0.6626  0.2090
  783MPD2    H211605   1.660   2.789  10.945  0.3744 -2.8528  1.3161
  783MPD2    H311606   1.682   2.711  10.712 -0.9781 -0.5849  2.5692
  783MPD2     N11607   2.129   2.772  10.714 -0.0446  0.0137  0.6469
  783MPD2    H511608   2.212   2.825  10.742 -1.7759  1.9078  2.1513
  783MPD2    N111609   1.850   2.867  11.105  0.2140  0.6165 -0.5757
  783MPD2    H711610   1.753   2.881  11.129  0.6485  0.7678  1.0489
  784MPD2     C11611   0.062   4.351   0.669 -0.0715  0.1492 -0.3530
  784MPD2    C111612   0.023   4.395   0.790 -0.0638 -1.2927  0.4386
  784MPD2    C211613   4.635   4.364   0.829  0.1002  0.9211 -0.6230
  784MPD2    C311614   4.535   4.322   0.740 -0.4743 -0.3892 -0.2167
  784MPD2    C411615   4.577   4.294   0.607  0.3332 -0.2855  0.1382
  784MPD2    C511616   4.708   4.301   0.576  0.2664 -0.2906  0.4910
  784MPD2     H11617   4.599   4.389   0.928  1.0125  1.2578 -0.3724
  784MPD2    H111618   4.503   4.270   0.532 -0.4622 -1.9960  1.4770
  784MPD2    H211619   0.160   4.367   0.626  0.2289  0.1636  0.3353
  784MPD2    H311620   0.001   4.270   0.477  0.7887  1.6740  0.0369
  784MPD2     N11621   4.406   4.311   0.795 -0.5550 -0.2960 -0.1852
  784MPD2    H511622   4.379   4.353   0.883 -1.5690  1.0554 -1.1250
  784MPD2    N111623   0.098   4.471   0.883  0.0198 -0.2439 -0.1481
  784MPD2    H711624   0.049   4.499   0.967 -0.6741  0.8146 -0.9034
  785MPD2     C11625   4.526   2.066  10.566  0.1070 -1.1267 -0.1388
  785MPD2    C111626   4.472   2.186  10.542 -0.1598  0.5383  0.0809
  785MPD2    C211627   4.385   2.194  10.436 -0.3940  0.1750 -0.0006
  785MPD2    C311628   4.332   2.096  10.359  0.0324  0.1665 -0.1325
  785MPD2    C411629   4.399   1.979  10.378  0.7064 -0.2907  0.5891
  785MPD2    C511630   4.491   1.967  10.479  0.6235  0.4458 -0.7110
  785MPD2     H11631   4.353   2.294  10.407  1.2408  0.6157 -0.3094
  785MPD2    H111632   4.377   1.892  10.318  0.3451  0.0716  0.1959
  785MPD2    H211633   4.590   2.045  10.651 -0.0482 -2.7445 -0.4185
  785MPD2    H311634   4.545   1.873  10.486 -0.4018 -0.0673  0.3108
  785MPD2     N11635   4.246   2.127  10.250 -0.2153  0.6070 -0.4448
  785MPD2    H511636   4.212   2.223  10.251  1.6742  1.2829 -0.5599
  785MPD2    N111637   4.499   2.310  10.617 -0.2636  0.4837 -0.0515
  785MPD2    H711638   4.458   2.395  10.580 -0.6476  0.1393 -0.4178
  786MPD2     C11639   3.628   4.337  15.121  0.2500  0.1906  0.1135
  786MPD2    C111640   3.606   4.428  15.026  0.6591  0.5562  0.0497
  786MPD2    C211641   3.600   4.558  15.054  0.4358 -0.9884  0.1613
  786MPD2    C311642   3.626   4.598  15.185  0.4387  0.5535  0.0105
  786MPD2    C411643   3.661   4.505  15.286  0.1243  0.1635 -0.0179
  786MPD2    C511644   3.664   4.375  15.251  0.4436  0.0680  0.4741
  786MPD2     H11645   3.578   4.621  14.969 -0.8206  0.9974  1.9447
  786MPD2    H111646   3.677   4.534  15.389  1.1402 -0.9502  0.1460
  786MPD2    H211647   3.629   4.228  15.115 -2.5803  0.2492 -1.6705
  786MPD2    H311648   3.684   4.298  15.325  0.8667 -0.1223  0.1603
  786MPD2     N11649   3.633   4.735  15.222 -0.1954  0.1132  0.5651
  786MPD2    H511650   3.649   0.011  15.321  0.6316  0.4022  0.3882
  786MPD2    N111651   3.613   4.380  14.894 -0.2653  0.1458 -0.6695
  786MPD2    H711652   3.654   4.287  14.888  0.1503  0.2055  1.5951
  787MPD2     C11653   4.137   4.050  14.700  0.2415 -0.1510 -0.5428
  787MPD2    C111654   4.047   4.047  14.592 -1.0684  0.2128  0.2938
  787MPD2    C211655   4.073   3.962  14.487 -0.0572  0.0921 -0.4338
  787MPD2    C311656   4.181   3.877  14.487 -0.1481 -0.5741  0.1230
  787MPD2    C411657   4.279   3.884  14.585 -0.4277 -0.1376 -0.4209
  787MPD2    C511658   4.253   3.971  14.688  0.1863  0.7269 -0.1972
  787MPD2     H11659   4.016   3.960  14.395 -1.2824 -0.0657  0.3267
  787MPD2    H111660   4.366   3.821  14.596  0.3272  1.0543  0.4825
  787MPD2    H211661   4.118   4.113  14.786 -0.8591 -1.6633  0.3379
  787MPD2    H311662   4.331   3.967  14.764  0.8993  0.6449 -0.9329
  787MPD2     N11663   4.198   3.788  14.379  0.1817 -0.4077  0.2119
  787MPD2    H511664   4.126   3.801  14.308  0.0465  3.8695  1.1371
  787MPD2    N111665   3.931   4.129  14.601  0.0959  0.3975 -0.4100
  787MPD2    H711666   3.927   4.197  14.676  0.3980 -0.8571  0.7304
  788MPD2     C11667   1.607   4.234   0.890 -0.0309 -0.8087 -0.5378
  788MPD2    C111668   1.510   4.150   0.842  0.1353 -0.0627 -0.2717
  788MPD2    C211669   1.459   4.163   0.714  0.2255  0.4256 -0.5443
  788MPD2    C311670   1.502   4.261   0.627  0.1121  0.1707  0.3456
  788MPD2    C411671   1.609   4.337   0.675 -0.3552  0.0304  0.3149
  788MPD2    C511672   1.662   4.320   0.805  0.1912  0.0548  0.2190
  788MPD2     H11673   1.381   4.095   0.682  0.1703  1.2613 -2.1845
  788MPD2    H111674   1.661   4.413   0.617 -1.4718 -1.0424 -2.1113
  788MPD2    H211675   1.656   4.214   0.985  1.5060 -2.5038 -1.7057
  788MPD2    H311676   1.745   4.383   0.832 -0.0404  0.2410  0.4949
  788MPD2     N11677   1.443   4.292   0.500 -0.0369  0.7807  0.1194
  788MPD2    H511678   1.498   4.360   0.448  0.1170 -0.2492 -1.0658
  788MPD2    N111679   1.472   4.042   0.931  0.2048  0.6314 -0.3807
  788MPD2    H711680   1.524   4.018   1.015 -0.8771  1.1285  0.4266
  789MPD2     C11681   1.039   3.241  16.212  0.1437  0.0153  0.3962
  789MPD2    C111682   1.053   3.166  16.322 -0.0214  0.6029  1.1517
  789MPD2    C211683   0.971   3.192  16.435  0.9543 -0.3952  0.1046
  789MPD2    C311684   0.885   3.299  16.438  0.2431 -0.5163  0.5325
  789MPD2    C411685   0.869   3.373  16.329 -0.6894  0.4213 -0.5764
  789MPD2    C511686   0.948   3.343  16.219 -0.1111  0.5690  0.2051
  789MPD2     H11687   0.991   3.131  16.522  0.5806  2.4652  2.2144
  789MPD2    H111688   0.803   3.459  16.330 -0.2799  0.7290 -0.1214
  789MPD2    H211689   1.097   3.224  16.122 -0.0003  0.7417  0.1656
  789MPD2    H311690   0.945   3.407  16.131 -1.5708 -0.6140 -0.6175
  789MPD2     N11691   0.791   3.314  16.544  0.5156 -0.1432  0.5602
  789MPD2    H511692   0.720   3.386  16.534 -1.0055 -1.5802  0.9806
  789MPD2    N111693   1.151   3.063  16.335  0.4692 -0.3175  0.2933
  789MPD2    H711694   1.166   3.029  16.429  0.4485  1.5123  0.9501
  790MPD2     C11695   1.530   4.501  13.725  0.1262  0.4754  0.4691
  790MPD2    C111696   1.622   4.405  13.707 -0.3332  0.3284  0.1937
  790MPD2    C211697   1.658   4.362  13.577 -0.2698 -0.3486 -0.4478
  790MPD2    C311698   1.585   4.415  13.467  0.3145 -0.2304 -0.0081
  790MPD2    C411699   1.488   4.513  13.488 -0.3496  0.1971  0.0454
  790MPD2    C511700   1.460   4.550  13.617  0.2781  0.2231 -0.8331
  790MPD2     H11701   1.744   4.299  13.557 -2.0206 -2.2210 -2.0861
  790MPD2    H111702   1.432   4.565  13.411 -1.5345 -1.0896  0.0372
  790MPD2    H211703   1.499   4.538  13.822 -3.0692 -2.8309  0.7416
  790MPD2    H311704   1.385   4.628  13.630  0.0841 -0.3798  1.6572
  790MPD2     N11705   1.608   4.376  13.333  0.1218 -0.2540  0.1038
  790MPD2    H511706   1.555   4.426  13.263 -1.5430 -0.6125  1.0974
  790MPD2    N111707   1.670   4.352  13.826  0.3285 -0.2596  0.1387
  790MPD2    H711708   1.636   4.395  13.911 -2.8570 -0.9684 -0.7853
  791MPD2     C11709   1.231   4.448  12.678 -0.0897  0.1157 -0.0318
  791MPD2    C111710   1.260   4.339  12.759 -1.0094 -0.7825 -0.5397
  791MPD2    C211711   1.168   4.234  12.761 -0.3187 -0.3621  0.4918
  791MPD2    C311712   1.044   4.249  12.704  0.4452 -0.0300 -0.6325
  791MPD2    C411713   1.019   4.352  12.613  0.1597 -0.4482  0.0271
  791MPD2    C511714   1.118   4.443  12.596  0.4115  0.6183  0.6732
  791MPD2     H11715   1.194   4.143  12.813  1.2054 -0.6924 -0.8162
  791MPD2    H111716   0.929   4.374  12.558 -0.0907 -0.4354  0.4464
  791MPD2    H211717   1.310   4.521  12.664  1.0066 -1.0284  0.2477
  791MPD2    H311718   1.099   4.529  12.533 -1.4302 -0.7099 -0.6029
  791MPD2     N11719   0.948   4.145  12.732  0.2275 -0.0891 -0.0910
  791MPD2    H511720   0.985   4.070  12.790  0.4160 -0.3319 -0.5307
  791MPD2    N111721   1.388   4.343  12.817 -0.1787 -0.2961 -0.5174
  791MPD2    H711722   1.438   4.431  12.802 -1.4327  0.8723  1.9818
  792MPD2     C11723   1.520   4.498  11.527  0.0154  0.4862 -0.6606
  792MPD2    C111724   1.631   4.437  11.468 -0.4254 -0.0030 -0.6414
  792MPD2    C211725   1.617   4.306  11.417  0.1628 -0.2312  0.4038
  792MPD2    C311726   1.494   4.248  11.409  0.4010 -0.3547  0.1748
  792MPD2    C411727   1.386   4.311  11.464 -0.0206  0.0993  0.3747
  792MPD2    C511728   1.401   4.427  11.537 -0.7419 -0.3163 -0.2629
  792MPD2     H11729   1.702   4.269  11.361  0.2106  0.1065  0.2506
  792MPD2    H111730   1.290   4.261  11.465 -0.5480  1.0878 -1.0036
  792MPD2    H211731   1.521   4.594  11.578  0.9390 -1.8619  3.7209
  792MPD2    H311732   1.317   4.467  11.592  2.1134  1.8578  2.5221
  792MPD2     N11733   1.469   4.124  11.344  0.2928  0.4558 -0.2151
  792MPD2    H511734   1.372   4.094  11.346  0.5013 -0.2767 -0.7563
  792MPD2    N111735   1.746   4.516  11.471 -0.0917  0.9238 -0.7621
  792MPD2    H711736   1.725   4.610  11.504  2.3958  1.5408 -0.9493
  793MPD2     C11737   0.978   4.129  10.617 -0.0682  0.3447  0.0250
  793MPD2    C111738   1.107   4.173  10.639 -0.8468  0.3396  0.1171
  793MPD2    C211739   1.176   4.122  10.747 -0.0454  0.3832  0.0667
  793MPD2    C311740   1.127   4.018  10.825 -0.1882  0.1332  0.0727
  793MPD2    C411741   0.994   3.984  10.807 -0.0202  0.2838  0.4245
  793MPD2    C511742   0.922   4.035  10.700 -0.0329  1.0711  1.1495
  793MPD2     H11743   1.273   4.170  10.761  1.1973 -1.3461 -2.5139
  793MPD2    H111744   0.950   3.899  10.857 -1.3615 -0.9654 -2.9023
  793MPD2    H211745   0.909   4.153  10.536 -0.3339 -0.1461  0.1059
  793MPD2    H311746   0.818   4.007  10.698  0.1869  0.1304  2.6702
  793MPD2     N11747   1.210   3.969  10.931 -0.2524 -0.2086  0.2672
  793MPD2    H511748   1.301   4.014  10.924  0.2846 -0.8781  2.9066
  793MPD2    N111749   1.167   4.273  10.552 -0.1635 -0.5503  0.4005
  793MPD2    H711750   1.264   4.300  10.564 -0.5963  1.6925 -1.1428
  794MPD2     C11751   1.820   4.286  17.610  0.2773 -0.1074 -0.3452
  794MPD2    C111752   1.814   4.148  17.591  0.3616  0.5876  0.6933
  794MPD2    C211753   1.813   4.101  17.460  0.0444 -0.3982 -0.7816
  794MPD2    C311754   1.816   4.173  17.346  0.0582 -0.1430 -0.2835
  794MPD2    C411755   1.850   4.304  17.368  0.6560 -0.2018  0.0657
  794MPD2    C511756   1.849   4.356  17.501  0.0484 -0.4139  0.0969
  794MPD2     H11757   1.801   3.993  17.449 -1.8052 -0.0901 -1.7540
  794MPD2    H111758   1.867   4.367  17.282  2.1546 -0.6337  0.0539
  794MPD2    H211759   1.818   4.330  17.710  1.7589 -0.1123 -0.3267
  794MPD2    H311760   1.861   4.461  17.526  1.4944 -0.9176  1.5336
  794MPD2     N11761   1.806   4.120  17.211 -0.0440  0.1655 -0.2670
  794MPD2    H511762   1.834   4.177  17.131  0.2330 -1.3475 -1.2519
  794MPD2    N111763   1.808   4.059  17.698 -0.4788 -0.0360 -0.5324
  794MPD2    H711764   1.807   3.962  17.668 -0.0492 -1.1868  3.2000
  795MPD2     C11765   4.192   1.192  13.890  0.2258 -0.4997 -0.2747
  795MPD2    C111766   4.256   1.157  13.772 -0.8187  0.4098  0.6382
  795MPD2    C211767   4.377   1.082  13.779  0.0478  0.6877  0.7308
  795MPD2    C311768   4.430   1.043  13.898  0.6078 -0.1091 -0.0002
  795MPD2    C411769   4.359   1.084  14.010 -0.9546 -0.4375  0.1573
  795MPD2    C511770   4.240   1.153  14.012  0.3065 -0.4701  0.3066
  795MPD2     H11771   4.437   1.049  13.695 -0.0585  1.5392  0.3148
  795MPD2    H111772   4.407   1.060  14.104  1.5541 -3.3848 -1.8508
  795MPD2    H211773   4.111   1.264  13.886 -2.0029 -2.9842  1.0784
  795MPD2    H311774   4.206   1.205  14.101 -0.1640  2.0055 -1.3278
  795MPD2     N11775   4.540   0.959  13.894 -0.2907  0.4818 -0.1313
  795MPD2    H511776   4.586   0.939  13.805 -0.5183 -0.1068 -0.1229
  795MPD2    N111777   4.203   1.185  13.647 -0.3227 -0.6248  0.2514
  795MPD2    H711778   4.253   1.146  13.567  0.6289 -0.4312  0.7469
  796MPD2     C11779   3.475   2.575  15.872 -0.2858 -0.2553  0.1878
  796MPD2    C111780   3.476   2.659  15.983  0.3498  0.3946  0.3030
  796MPD2    C211781   3.471   2.797  15.959  0.4126 -0.1974  0.0639
  796MPD2    C311782   3.458   2.846  15.825 -0.3727  0.4657 -0.6756
  796MPD2    C411783   3.439   2.758  15.724  0.5042  0.1653  0.5400
  796MPD2    C511784   3.451   2.625  15.748  0.4528  0.2196  0.0424
  796MPD2     H11785   3.477   2.873  16.035 -2.2981  1.8578 -1.7373
  796MPD2    H111786   3.426   2.793  15.622  0.9554 -0.4062  0.2901
  796MPD2    H211787   3.504   2.472  15.883  1.0245  0.3426  2.3174
  796MPD2    H311788   3.440   2.554  15.667 -4.3061  0.7534  0.2308
  796MPD2     N11789   3.452   2.981  15.798  0.1174 -0.2223  0.4321
  796MPD2    H511790   3.451   3.039  15.881  0.9022 -0.8672  0.8940
  796MPD2    N111791   3.505   2.599  16.107  0.0157 -0.7403 -0.3933
  796MPD2    H711792   3.507   2.498  16.114  1.1555 -0.5465  1.8053
  797MPD2     C11793   4.470   3.066  17.335 -0.0963  0.2549  0.4229
  797MPD2    C111794   4.578   3.009  17.268 -0.3699  1.0595 -0.0566
  797MPD2    C211795   4.574   2.989  17.127  0.5139 -0.0111 -0.2062
  797MPD2    C311796   4.472   3.048  17.055 -0.0167 -0.2616  0.8376
  797MPD2    C411797   4.365   3.096  17.124 -0.3318  0.1438  0.0343
  797MPD2    C511798   4.359   3.099  17.263 -0.5244  0.0093 -0.2055
  797MPD2     H11799   4.656   2.950  17.066 -0.4072 -1.6605 -0.3750
  797MPD2    H111800   4.284   3.144  17.069  0.6420  0.2808 -1.2713
  797MPD2    H211801   4.469   3.079  17.443 -0.1157  0.5786  0.3851
  797MPD2    H311802   4.273   3.140  17.315  2.2255  3.5965  1.5367
  797MPD2     N11803   4.492   3.080  16.918  0.1485  0.1404  0.3598
  797MPD2    H511804   4.586   3.078  16.880  0.0677 -2.2477  0.2908
  797MPD2    N111805   4.700   2.982  17.331  0.5852  0.5381 -0.2421
  797MPD2    H711806   0.027   2.935  17.269 -2.4457 -0.4693 -2.6159
  798MPD2     C11807   0.404   2.990  16.751 -0.6667 -0.2279 -0.8475
  798MPD2    C111808   0.279   3.020  16.799 -0.0981  0.3097  0.0840
  798MPD2    C211809   0.259   3.005  16.937 -0.2730 -0.4245  0.4971
  798MPD2    C311810   0.364   2.983  17.022  0.1101  0.6154  0.6782
  798MPD2    C411811   0.493   2.965  16.970  0.4211  0.0283 -0.6342
  798MPD2    C511812   0.512   2.958  16.835  0.6208 -0.0941 -0.0405
  798MPD2     H11813   0.157   3.013  16.974 -0.4967  2.3905 -0.7416
  798MPD2    H111814   0.576   2.947  17.037  1.2401 -1.0473 -1.9293
  798MPD2    H211815   0.415   2.999  16.644 -0.7370  0.2168 -0.8182
  798MPD2    H311816   0.609   2.938  16.791 -0.1908 -4.4867  0.2146
  798MPD2     N11817   0.333   2.966  17.159  0.2456 -0.2112 -0.0120
  798MPD2    H511818   0.233   2.967  17.179  0.5481  2.0746  1.4043
  798MPD2    N111819   0.178   3.052  16.710  0.0519 -0.1907 -0.5190
  798MPD2    H711820   0.190   3.053  16.609 -0.3062 -0.9568 -0.5648
  799MPD2     C11821   3.930   3.553  14.725  0.2576 -0.1793 -0.4925
  799MPD2    C111822   3.886   3.483  14.614 -0.2185 -0.1971 -0.7123
  799MPD2    C211823   3.808   3.545  14.517 -0.3093  0.5072  0.1730
  799MPD2    C311824   3.785   3.682  14.528 -0.1909 -0.3377 -0.0199
  799MPD2    C411825   3.842   3.750  14.631  0.2017  0.2033 -0.0414
  799MPD2    C511826   3.911   3.694  14.731  0.4143 -0.0378 -0.0861
  799MPD2     H11827   3.770   3.483  14.436  0.9299 -1.6722  1.2523
  799MPD2    H111828   3.815   3.853  14.650  1.7545  0.8744 -1.4442
  799MPD2    H211829   3.975   3.505  14.811 -0.0446 -0.7560 -0.6617
  799MPD2    H311830   3.960   3.748  14.811 -0.7447  0.6628  0.1334
  799MPD2     N11831   3.719   3.768  14.435 -0.0046 -0.4263 -0.2690
  799MPD2    H511832   3.737   3.868  14.442 -0.1338 -0.4351  0.2007
  799MPD2    N111833   3.918   3.343  14.595  0.1883 -0.2926  0.1276
  799MPD2    H711834   3.871   3.300  14.515  0.2435 -0.0511 -0.0341
  800MPD2     C11835   4.178   0.424  14.603  0.0005 -0.4358 -0.3434
  800MPD2    C111836   4.299   0.402  14.539 -0.7146  0.0797  0.9792
  800MPD2    C211837   4.314   0.291  14.455 -0.7364 -0.5039 -0.2431
  800MPD2    C311838   4.221   0.191  14.451  0.2755  0.7579 -0.5543
  800MPD2    C411839   4.101   0.208  14.522 -0.8128 -0.3985 -0.1612
  800MPD2    C511840   4.077   0.332  14.583 -0.4025  0.0218 -0.1444
  800MPD2     H11841   4.403   0.289  14.394  0.0741 -0.4190  0.9436
  800MPD2    H111842   4.021   0.135  14.530 -0.7070 -0.8010 -2.9140
  800MPD2    H211843   4.153   0.506  14.669  1.1032  0.2594 -0.7862
  800MPD2    H311844   3.988   0.340  14.644  0.2878  1.6730  0.6425
  800MPD2     N11845   4.253   0.081  14.367 -0.7378 -0.8783  0.1646
  800MPD2    H511846   4.340   0.095  14.315 -0.7198 -1.8587 -0.0658
  800MPD2    N111847   4.401   0.491  14.574 -0.3132  0.2336 -1.1813
  800MPD2    H711848   4.379   0.569  14.634 -0.3875 -1.3113  0.8073
  801MPD2     C11849   4.413   1.173  14.340  0.5396 -0.1672 -0.5590
  801MPD2    C111850   4.353   1.051  14.363  0.1814 -0.5726 -0.2079
  801MPD2    C211851   4.215   1.049  14.359 -0.5100  0.1614  0.3427
  801MPD2    C311852   4.142   1.168  14.362 -0.2536  0.1299 -0.5324
  801MPD2    C411853   4.208   1.288  14.361 -0.2292 -0.2220  0.3474
  801MPD2    C511854   4.342   1.290  14.333  0.1554  0.1698 -0.5752
  801MPD2     H11855   4.173   0.950  14.375 -0.5388  0.4949  2.3294
  801MPD2    H111856   4.156   1.383  14.371  2.1643  1.0999  0.3498
  801MPD2    H211857   4.521   1.179  14.348  0.4292  2.7306 -1.2536
  801MPD2    H311858   4.398   1.384  14.330 -0.6101  0.5904 -1.4801
  801MPD2     N11859   3.999   1.173  14.386  0.5249  0.5454  0.1243
  801MPD2    H511860   3.961   1.263  14.414 -1.1581 -0.1955  0.2355
  801MPD2    N111861   4.432   0.940  14.406 -0.2249  0.0163  0.1954
  801MPD2    H711862   4.392   0.847  14.398  1.0718 -0.5679  0.5911
  802MPD2     C11863   3.165   1.681  17.381 -0.0008 -0.1286  0.1619
  802MPD2    C111864   3.298   1.683  17.387 -0.9302  0.4410 -0.1065
  802MPD2    C211865   3.366   1.568  17.389 -0.0466  0.2013 -0.3491
  802MPD2    C311866   3.295   1.447  17.371 -0.1472 -0.3449  0.5326
  802MPD2    C411867   3.165   1.452  17.340  0.4676 -0.3056  0.0671
  802MPD2    C511868   3.095   1.571  17.350 -0.2776 -0.3631 -0.3565
  802MPD2     H11869   3.474   1.560  17.402  0.0289  0.0154 -1.0818
  802MPD2    H111870   3.106   1.362  17.326  2.6359 -1.8012  0.4671
  802MPD2    H211871   3.114   1.777  17.379  2.9226  1.4053  0.5889
  802MPD2    H311872   2.991   1.574  17.321 -0.0147  0.6953 -1.1735
  802MPD2     N11873   3.372   1.332  17.361 -0.9552 -0.0796  0.4424
  802MPD2    H511874   3.469   1.339  17.389 -1.4025  2.8933  1.2289
  802MPD2    N111875   3.365   1.803  17.392  0.2259 -0.4323  0.8675
  802MPD2    H711876   3.466   1.796  17.381  0.4041  1.6126  1.2337
  803MPD2     C11877   4.573   3.989  11.543  0.5071  0.1115  0.7891
  803MPD2    C111878   4.507   4.056  11.642  0.7852 -0.5232  0.0724
  803MPD2    C211879   4.449   3.980  11.749 -0.5616  0.0386  0.2786
  803MPD2    C311880   4.467   3.840  11.754  0.3035 -0.5660 -0.1356
  803MPD2    C411881   4.520   3.777  11.646 -0.4205  0.3133 -0.4180
  803MPD2    C511882   4.574   3.855  11.549  0.8158  0.2580  0.0636
  803MPD2     H11883   4.387   4.035  11.819  0.3260 -0.6349  1.5833
  803MPD2    H111884   4.514   3.669  11.642 -0.2180  0.2030  2.5982
  803MPD2    H211885   4.615   4.030  11.452  0.3537 -0.8568  0.2744
  803MPD2    H311886   4.608   3.798  11.462  0.0371  0.7910 -0.5908
  803MPD2     N11887   4.438   3.762  11.870 -0.2931 -0.1916  0.1754
  803MPD2    H511888   4.466   3.664  11.869 -0.3152 -0.1846 -1.8943
  803MPD2    N111889   4.484   4.200  11.638 -0.1906 -0.0417  0.8360
  803MPD2    H711890   4.435   4.253  11.709  2.7744  2.0511  1.3287
  804MPD2     C11891   4.086   1.138  16.955 -0.0969 -0.4291  0.5379
  804MPD2    C111892   4.088   1.095  17.087  0.2739  0.4243  0.3285
  804MPD2    C211893   4.149   1.175  17.182  0.1659  0.7667  0.5058
  804MPD2    C311894   4.217   1.297  17.150 -0.8095  0.0304 -0.3617
  804MPD2    C411895   4.213   1.330  17.013 -0.1505 -0.0261 -0.2785
  804MPD2    C511896   4.140   1.258  16.921 -0.8229  0.4154  0.3603
  804MPD2     H11897   4.137   1.146  17.285  1.3771  2.1882  1.0548
  804MPD2    H111898   4.252   1.420  16.967 -1.1046 -0.3916 -1.8211
  804MPD2    H211899   4.043   1.096  16.865 -1.4733  0.1732  0.9132
  804MPD2    H311900   4.148   1.281  16.815 -1.8127  1.6620  0.5590
  804MPD2     N11901   4.304   1.365  17.244 -0.2400  0.1032 -0.3412
  804MPD2    H511902   4.310   1.335  17.341 -1.0947 -0.1605 -0.3737
  804MPD2    N111903   4.021   0.982  17.134  0.1965  0.0590  0.9866
  804MPD2    H711904   4.038   0.965  17.233  0.8354  0.7791  0.9961
  805MPD2     C11905   3.210   3.687  15.500  0.2384 -0.3253  0.2330
  805MPD2    C111906   3.285   3.750  15.411  0.7420 -0.0662  0.3937
  805MPD2    C211907   3.408   3.806  15.453  0.2084  0.2596 -0.5666
  805MPD2    C311908   3.444   3.800  15.590  0.1188  0.2364  0.1521
  805MPD2    C411909   3.354   3.750  15.676  0.2830 -0.5730 -0.1087
  805MPD2    C511910   3.242   3.688  15.632 -0.5523  1.0178 -0.0260
  805MPD2     H11911   3.486   3.827  15.381 -0.2055 -2.5138 -1.8461
  805MPD2    H111912   3.371   3.758  15.783  0.6124  0.5845 -0.2485
  805MPD2    H211913   3.118   3.635  15.475 -0.6423  1.3470 -0.0390
  805MPD2    H311914   3.179   3.638  15.705  0.2744 -1.0420 -0.7322
  805MPD2     N11915   3.568   3.849  15.627 -0.2626 -1.1345 -0.2251
  805MPD2    H511916   3.610   3.898  15.549 -2.5271  0.8169 -0.2124
  805MPD2    N111917   3.244   3.762  15.279 -0.0717 -0.3826  0.3789
  805MPD2    H711918   3.297   3.822  15.216  1.2572 -1.3626  0.5689
  806MPD2     C11919   4.121   3.895   0.449  0.7030  1.2357 -0.2836
  806MPD2    C111920   4.040   3.963   0.532  0.1235 -0.4514  0.3758
  806MPD2    C211921   3.995   4.087   0.494  0.4443 -0.3583 -0.3989
  806MPD2    C311922   4.017   4.134   0.367  0.0200 -0.4428 -0.0998
  806MPD2    C411923   4.090   4.057   0.279 -0.8097  0.3584 -0.5475
  806MPD2    C511924   4.145   3.943   0.324  0.0789  0.0008 -0.3783
  806MPD2     H11925   3.943   4.149   0.566  2.4854 -0.1687  0.9080
  806MPD2    H111926   4.103   4.079   0.174  1.4533 -0.7572 -0.5081
  806MPD2    H211927   4.173   3.803   0.474  0.0566  0.4653 -1.8133
  806MPD2    H311928   4.205   3.878   0.261  1.4028 -0.2764  1.1972
  806MPD2     N11929   3.974   4.264   0.327  1.1643  0.4439 -0.3905
  806MPD2    H511930   3.921   4.321   0.393 -0.2424 -0.1665 -0.9865
  806MPD2    N111931   4.043   3.940   0.668 -0.1879  0.2815 -0.4563
  806MPD2    H711932   4.118   3.883   0.708 -1.1046 -0.9605 -0.4933
  807MPD2     C11933   3.720   3.623   1.407  0.7031 -0.2249  0.1471
  807MPD2    C111934   3.825   3.708   1.429 -0.2592  0.1370 -1.0433
  807MPD2    C211935   3.869   3.728   1.560 -0.1872  0.2470  0.4565
  807MPD2    C311936   3.797   3.678   1.668 -0.1617  0.2670  0.0086
  807MPD2    C411937   3.688   3.602   1.646  0.0323 -0.4185  0.1960
  807MPD2    C511938   3.647   3.571   1.521 -0.1892  0.0084 -0.3921
  807MPD2     H11939   3.954   3.792   1.581 -2.5759  3.2513  1.0354
  807MPD2    H111940   3.626   3.567   1.727 -2.3183  1.2951 -0.8538
  807MPD2    H211941   3.686   3.591   1.309  0.5433 -0.4442  0.2750
  807MPD2    H311942   3.559   3.509   1.507  0.3152 -0.7354 -0.2579
  807MPD2     N11943   3.840   3.717   1.796  0.3986  0.5868 -0.2547
  807MPD2    H511944   3.923   3.774   1.789 -0.3283  1.5339 -1.0499
  807MPD2    N111945   3.899   3.781   1.326 -0.2753 -0.0263  0.4131
  807MPD2    H711946   3.978   3.836   1.358  0.2994 -1.7365  1.9670
  808MPD2     C11947   3.763   1.318   9.868 -0.0472 -0.9360  0.1179
  808MPD2    C111948   3.819   1.201   9.825  0.2581  0.5582  0.4096
  808MPD2    C211949   3.949   1.164   9.868  0.0720  0.8842  0.3679
  808MPD2    C311950   4.019   1.263   9.947  0.1645  0.0703 -0.2616
  808MPD2    C411951   3.956   1.381   9.988  0.5227  0.4464 -0.7110
  808MPD2    C511952   3.825   1.403   9.950  0.5841  0.3352 -0.2039
  808MPD2     H11953   3.994   1.076   9.822 -2.3491 -1.3197  2.2059
  808MPD2    H111954   4.007   1.452  10.053  1.2034  1.8985 -2.8368
  808MPD2    H211955   3.661   1.348   9.847  0.3895  0.2898 -0.2487
  808MPD2    H311956   3.774   1.493   9.984 -1.3934 -0.9676  0.2558
  808MPD2     N11957   4.158   1.246   9.980 -0.1018 -0.1229  0.2462
  808MPD2    H511958   4.202   1.317  10.038  1.9787 -2.3835  1.4631
  808MPD2    N111959   3.745   1.109   9.753 -0.2580 -0.1713 -0.3139
  808MPD2    H711960   3.786   1.019   9.728  1.9807  0.7982 -0.1140
  809MPD2     C11961   0.018   0.504  10.333 -0.1286 -0.0029  0.0128
  809MPD2    C111962   0.062   0.629  10.385  0.2243 -0.2262 -0.0799
  809MPD2    C211963   0.018   0.756  10.332  0.0570 -0.0862  0.6013
  809MPD2    C311964   4.681   0.758  10.217 -0.0751  0.0778  0.0432
  809MPD2    C411965   4.647   0.638  10.163 -0.3703  0.8615  0.5424
  809MPD2    C511966   4.684   0.517  10.222 -0.3577  0.0068 -0.8250
  809MPD2     H11967   0.044   0.845  10.388 -0.2486 -0.8767  1.9973
  809MPD2    H111968   4.586   0.631  10.074  1.0743 -1.6826 -0.2545
  809MPD2    H211969   0.036   0.405  10.373  1.2350 -0.4470 -1.6957
  809MPD2    H311970   4.639   0.432  10.172  2.4444 -1.4324 -0.8712
  809MPD2     N11971   4.633   0.873  10.148  0.2586  0.4065 -0.7198
  809MPD2    H511972   4.577   0.853  10.065  0.3559 -1.1254 -0.4070
  809MPD2    N111973   0.145   0.637  10.498  0.5547  0.1048 -0.4232
  809MPD2    H711974   0.154   0.723  10.550 -1.6369 -0.2417  0.5538
  810MPD2     C11975   3.820   4.303  10.666 -0.0993 -0.1304  0.6174
  810MPD2    C111976   3.686   4.319  10.646  0.2280  0.8487  0.4564
  810MPD2    C211977   3.616   4.436  10.670  0.0973  0.6240  0.1359
  810MPD2    C311978   3.686   4.541  10.722  0.1711  0.6001  0.3385
  810MPD2    C411979   3.817   4.530  10.753  0.0806  0.1856  0.1971
  810MPD2    C511980   3.886   4.412  10.726 -0.5470 -0.5202 -0.5055
  810MPD2     H11981   3.508   4.435  10.667  0.1349 -0.8278 -0.9009
  810MPD2    H111982   3.879   4.611  10.790 -1.0548  0.8434  0.6517
  810MPD2    H211983   3.880   4.218  10.635 -2.7855 -2.1310  0.9229
  810MPD2    H311984   3.993   4.412  10.747 -0.5500  1.7622 -0.5555
  810MPD2     N11985   3.620   4.665  10.744  0.2742 -0.3720  0.3229
  810MPD2    H511986   3.689   4.734  10.773 -1.2107  1.4405 -0.4644
  810MPD2    N111987   3.614   4.212  10.584 -0.4956 -0.4106  0.3323
  810MPD2    H711988   3.524   4.236  10.543 -0.6254  2.0660  2.0445
  811MPD2     C11989   3.058   4.292  10.129 -0.3082  0.2269  0.1998
  811MPD2    C111990   3.135   4.331  10.236  0.3479  0.0616 -0.2568
  811MPD2    C211991   3.160   4.467  10.257 -0.4638 -0.0366 -0.4919
  811MPD2    C311992   3.123   4.558  10.158 -0.4593  0.6985 -0.7712
  811MPD2    C411993   3.057   4.514  10.045 -0.3003  0.2184  0.6391
  811MPD2    C511994   3.025   4.385  10.039  0.4175 -0.1740  0.4938
  811MPD2     H11995   3.226   4.497  10.338 -0.8308 -1.0241  0.1676
  811MPD2    H111996   3.024   4.577   9.963 -1.8639 -0.0768  1.0245
  811MPD2    H211997   3.024   4.190  10.112  1.5772 -0.1239 -1.3896
  811MPD2    H311998   2.969   4.350   9.954 -0.7438 -0.8373  1.5246
  811MPD2     N11999   3.150   4.689  10.190 -0.3640  0.3674 -1.0410
  811MPD2    H512000   3.198   4.711  10.276 -0.1481 -1.1072 -0.7935
  811MPD2    N112001   3.184   4.228  10.319 -0.4885 -0.1806  0.2262
  811MPD2    H712002   3.142   4.136  10.310 -1.6132  0.3767 -0.3032
  812MPD2     C12003   3.022   4.334  12.331  0.9751 -0.3761 -0.2076
  812MPD2    C112004   2.912   4.383  12.395  0.2816 -0.1792 -0.5526
  812MPD2    C212005   2.835   4.294  12.460  0.4738  0.6873 -0.0734
  812MPD2    C312006   2.879   4.163  12.479  0.1731 -0.4148  0.2005
  812MPD2    C412007   2.996   4.122  12.411 -0.2532  0.5459  0.8987
  812MPD2    C512008   3.071   4.212  12.344  0.6718 -1.0592  0.0315
  812MPD2     H12009   2.741   4.323  12.506  0.7302  0.7554  0.4032
  812MPD2    H112010   3.027   4.019  12.414 -1.7079  0.1724  3.1846
  812MPD2    H212011   3.081   4.398  12.266 -0.8898  2.1523  0.5826
  812MPD2    H312012   3.164   4.178  12.299 -0.0185 -0.3398 -1.9234
  812MPD2     N12013   2.811   4.081  12.568  0.6822  0.3572 -1.1375
  812MPD2    H512014   2.751   4.139  12.626 -0.3112 -1.5113 -0.2842
  812MPD2    N112015   2.881   4.513  12.370  0.4568 -0.0993  0.7573
  812MPD2    H712016   2.944   4.551  12.300  0.9419 -1.3777  0.4873
  813MPD2     C12017   1.810   1.641  12.430  0.3846 -0.0305  0.6133
  813MPD2    C112018   1.802   1.596  12.557 -0.6255  0.1151 -0.5127
  813MPD2    C212019   1.683   1.556  12.609 -0.3795  0.8794  0.1809
  813MPD2    C312020   1.566   1.583  12.537 -0.0963 -0.3064 -0.4226
  813MPD2    C412021   1.576   1.615  12.404  0.2168  0.7287  0.0178
  813MPD2    C512022   1.699   1.651  12.354 -0.4954  0.0117 -0.7557
  813MPD2     H12023   1.679   1.521  12.712 -2.0102  2.3845  0.6310
  813MPD2    H112024   1.488   1.628  12.341 -0.0719 -1.6063 -0.0576
  813MPD2    H212025   1.898   1.690  12.389  0.2067 -0.0224  0.2394
  813MPD2    H312026   1.700   1.684  12.251 -2.0844  0.7190 -0.5338
  813MPD2     N12027   1.438   1.574  12.591  0.0472 -0.2559  0.3043
  813MPD2    H512028   1.450   1.545  12.688 -0.6130 -0.5738  0.2876
  813MPD2    N112029   1.925   1.589  12.628  0.6592 -0.6234 -0.7969
  813MPD2    H712030   2.007   1.626  12.580  1.0791 -1.8388 -1.0157
  814MPD2     C12031   2.239   2.448  12.552  0.0444 -0.0304  0.1341
  814MPD2    C112032   2.196   2.504  12.431  0.1650 -0.2108  0.4783
  814MPD2    C212033   2.206   2.636  12.402 -0.7922 -0.3609 -0.0965
  814MPD2    C312034   2.253   2.717  12.497  0.0688 -0.4616  0.3162
  814MPD2    C412035   2.290   2.669  12.622  1.1512  0.7416 -0.5944
  814MPD2    C512036   2.291   2.536  12.647  0.1316  0.0963 -0.0529
  814MPD2     H12037   2.159   2.666  12.309  0.0849 -0.2212 -0.4960
  814MPD2    H112038   2.317   2.743  12.696  1.0955  2.0173 -1.8490
  814MPD2    H212039   2.224   2.349  12.593 -0.7387 -0.2338 -0.6347
  814MPD2    H312040   2.316   2.498  12.745  0.7668 -0.3748 -0.4029
  814MPD2     N12041   2.273   2.853  12.466 -0.4401  0.0305  0.2673
  814MPD2    H512042   2.278   2.912  12.548 -1.1573  5.0312 -3.3206
  814MPD2    N112043   2.158   2.412  12.332 -0.3663 -0.2513  0.4112
  814MPD2    H712044   2.149   2.458  12.243  0.7268  0.2845  0.5886
  815MPD2     C12045   2.780   1.555  12.244  0.8686  0.5807  0.1425
  815MPD2    C112046   2.736   1.425  12.215  0.2179  0.4900  0.0886
  815MPD2    C212047   2.643   1.368  12.300 -0.0172  0.5408 -0.5566
  815MPD2    C312048   2.585   1.442  12.399  0.2505  0.5798 -0.0532
  815MPD2    C412049   2.630   1.570  12.422 -0.2462  0.1760  0.4243
  815MPD2    C512050   2.728   1.628  12.344  0.7118  0.0932  0.1077
  815MPD2     H12051   2.601   1.271  12.274 -0.9432  1.1191 -1.2489
  815MPD2    H112052   2.593   1.621  12.510  1.9265 -0.4788  1.7295
  815MPD2    H212053   2.851   1.605  12.179  0.6797  1.7153  0.7897
  815MPD2    H312054   2.767   1.729  12.357 -0.2779  0.7800 -2.2028
  815MPD2     N12055   2.485   1.380  12.475  0.1026 -0.0272  0.0524
  815MPD2    H512056   2.460   1.285  12.449  1.0453  0.5625 -2.9921
  815MPD2    N112057   2.796   1.354  12.107  0.1239  0.4030 -0.5337
  815MPD2    H712058   2.862   1.408  12.052 -0.3584  1.7034  0.1797
  816MPD2     C12059   2.753   0.465  17.430  0.4625  0.2198 -0.1684
  816MPD2    C112060   2.826   0.576  17.421  0.2971  0.9717 -0.0768
  816MPD2    C212061   2.942   0.577  17.349 -0.4564 -0.0151  0.3814
  816MPD2    C312062   2.978   0.466  17.279  0.0453 -0.5175  0.2743
  816MPD2    C412063   2.913   0.346  17.306  0.5502  0.0504 -0.3175
  816MPD2    C512064   2.805   0.345  17.386  0.0851 -0.0375  0.4453
  816MPD2     H12065   3.005   0.666  17.345 -0.7305  0.1353 -0.4733
  816MPD2    H112066   2.946   0.246  17.279 -1.4575 -0.4526 -0.9277
  816MPD2    H212067   2.658   0.465  17.482 -0.3927 -0.6655 -1.6925
  816MPD2    H312068   2.760   0.250  17.414  0.1991  0.0310  0.8586
  816MPD2     N12069   3.089   0.473  17.183  0.2297  0.2794  0.0157
  816MPD2    H512070   3.140   0.560  17.171  1.2761 -0.2225  0.7462
  816MPD2    N112071   2.768   0.696  17.472  0.2109 -0.1913  0.2324
  816MPD2    H712072   2.677   0.692  17.517  0.8885 -0.3555  1.5887
  817MPD2     C12073   2.011   2.290   9.742 -0.1139 -1.0356 -0.6611
  817MPD2    C112074   2.046   2.240   9.621 -0.3013  0.1683  0.0467
  817MPD2    C212075   2.007   2.313   9.500 -0.3747  0.0468 -0.0436
  817MPD2    C312076   1.931   2.426   9.513 -0.3230 -0.2209 -0.3098
  817MPD2    C412077   1.899   2.474   9.639 -1.0411 -0.2535 -0.5285
  817MPD2    C512078   1.937   2.400   9.748 -0.8806 -0.1142 -0.1682
  817MPD2     H12079   2.034   2.273   9.404 -0.0559 -1.8254  0.8278
  817MPD2    H112080   1.849   2.567   9.662 -1.5937 -0.3517 -1.3443
  817MPD2    H212081   2.030   2.241   9.837  3.5386 -0.3522 -1.0518
  817MPD2    H312082   1.896   2.420   9.846 -3.7358  2.1617 -1.7884
  817MPD2     N12083   1.898   2.500   9.396  0.0679 -0.4603  0.3102
  817MPD2    H512084   1.910   2.464   9.301 -0.5019  0.3342 -0.0614
  817MPD2    N112085   2.116   2.117   9.606  0.2207  0.0051 -0.3670
  817MPD2    H712086   2.117   2.071   9.516  0.9627  1.1466 -0.9431
  818MPD2     C12087   1.441   2.043  10.059 -0.0787  0.2261 -0.2140
  818MPD2    C112088   1.307   2.027  10.098  0.2418  0.3973  0.4933
  818MPD2    C212089   1.219   1.981  10.004  0.1103  0.5349 -0.4213
  818MPD2    C312090   1.248   1.945   9.879  0.3615 -0.2933  0.2771
  818MPD2    C412091   1.385   1.964   9.837 -0.0418 -0.3663  0.0230
  818MPD2    C512092   1.475   2.003   9.927 -0.2748  0.0810  0.2369
  818MPD2     H12093   1.114   1.967  10.028  0.1919 -0.2279 -0.5132
  818MPD2    H112094   1.413   1.954   9.733 -3.1907  0.4149 -0.9136
  818MPD2    H212095   1.516   2.078  10.129  0.9370 -1.8624 -0.2747
  818MPD2    H312096   1.581   2.015   9.904  0.2553 -0.2444  2.4709
  818MPD2     N12097   1.159   1.893   9.786  0.3529  0.2193  0.0046
  818MPD2    H512098   1.204   1.847   9.707 -0.5625 -1.1059  0.2568
  818MPD2    N112099   1.266   2.048  10.232  0.2415  0.2200  0.5905
  818MPD2    H712100   1.328   2.105  10.289  0.4580  2.0942 -1.5290
  819MPD2     C12101   4.016   3.730  15.573 -0.2086 -0.7609 -0.1184
  819MPD2    C112102   4.065   3.602  15.560  0.6149 -0.1667  0.7681
  819MPD2    C212103   4.187   3.568  15.608 -0.2475  0.0713 -0.8851
  819MPD2    C312104   4.262   3.654  15.682  0.6510  0.2074 -1.0935
  819MPD2    C412105   4.216   3.783  15.700  0.0675 -0.0412  0.6124
  819MPD2    C512106   4.086   3.815  15.657 -0.6110 -0.4272 -0.3224
  819MPD2     H12107   4.228   3.469  15.597 -1.0150 -0.4517  1.0958
  819MPD2    H112108   4.267   3.855  15.764  0.9156 -0.5068  0.4675
  819MPD2    H212109   3.922   3.762  15.529  0.0153 -0.8759 -0.6902
  819MPD2    H312110   4.046   3.908  15.695  0.3942  0.5436 -1.6526
  819MPD2     N12111   4.386   3.611  15.738 -0.3569 -0.0549  0.3301
  819MPD2    H512112   4.417   3.522  15.701  0.8738  0.1934  0.7617
  819MPD2    N112113   3.995   3.511  15.482 -0.0251  0.3568 -0.6258
  819MPD2    H712114   3.909   3.549  15.444 -0.1310  0.9596  0.2300
  820MPD2     C12115   3.469   3.473  14.621 -0.5167  0.5995 -0.2880
  820MPD2    C112116   3.479   3.549  14.734 -0.0436 -0.8116  0.1397
  820MPD2    C212117   3.567   3.511  14.832  0.6188 -0.3004  0.3841
  820MPD2    C312118   3.639   3.392  14.824 -0.0188  0.3680 -0.4539
  820MPD2    C412119   3.628   3.315  14.712 -0.0032 -0.8824 -0.4945
  820MPD2    C512120   3.541   3.354  14.612 -0.5752 -0.3075  0.0586
  820MPD2     H12121   3.571   3.560  14.929  2.1146 -0.9766  0.6713
  820MPD2    H112122   3.686   3.224  14.717 -0.2434 -0.9721  0.7017
  820MPD2    H212123   3.394   3.495  14.546  0.2190 -0.2661 -1.2860
  820MPD2    H312124   3.534   3.295  14.522  1.0921  2.2123 -1.7211
  820MPD2     N12125   3.717   3.349  14.935  0.5552  0.1043  0.4334
  820MPD2    H512126   3.763   3.261  14.917  0.0457 -0.0430 -0.1624
  820MPD2    N112127   3.380   3.647  14.750  0.4521  0.0312 -0.0341
  820MPD2    H712128   3.302   3.648  14.685  0.6911 -1.4848 -0.3328
  821MPD2     C12129   4.144   4.620  13.615  0.5638 -0.7479  0.7434
  821MPD2    C112130   4.256   4.590  13.680  0.7552  0.3181 -0.3973
  821MPD2    C212131   4.373   4.601  13.609  0.7591 -0.0944  0.4031
  821MPD2    C312132   4.378   4.657  13.481 -0.4997  0.4150 -0.7988
  821MPD2    C412133   4.260   4.697  13.420 -0.4698 -0.4046  1.3430
  821MPD2    C512134   4.144   4.677  13.486 -0.1584  0.2624 -0.4177
  821MPD2     H12135   4.464   4.575  13.662  1.0823 -0.4985 -0.3561
  821MPD2    H112136   4.257   4.738  13.320 -1.0879  1.1267  1.9954
  821MPD2    H212137   4.046   4.606  13.659 -0.5356 -0.9894 -1.8028
  821MPD2    H312138   4.049   4.695  13.437  0.5845  2.0176 -1.2367
  821MPD2     N12139   4.493   4.662  13.396  0.4066 -0.0554 -0.7242
  821MPD2    H512140   4.475   4.686  13.300  2.3917  1.3428 -0.7459
  821MPD2    N112141   4.263   4.539  13.811 -0.4535 -0.2068 -0.1614
  821MPD2    H712142   4.350   4.497  13.842 -0.7627 -0.1563  0.7922
  822MPD2     C12143   0.175   0.326  15.659 -0.5665  0.1043  0.0711
  822MPD2    C112144   0.152   0.270  15.781  0.0279 -0.9630 -0.3888
  822MPD2    C212145   0.071   0.329  15.875 -0.0164 -0.4866  0.4033
  822MPD2    C312146   0.018   0.454  15.839  1.2385 -0.2707 -0.1378
  822MPD2    C412147   0.024   0.507  15.710  0.8489  0.2802 -0.8348
  822MPD2    C512148   0.107   0.438  15.622 -0.5560 -1.0150  0.7846
  822MPD2     H12149   0.076   0.299  15.979 -0.5777 -2.9675 -0.2894
  822MPD2    H112150   4.717   0.596  15.667 -0.5203  0.0786  0.1841
  822MPD2    H212151   0.242   0.272  15.593 -0.1901  1.0995 -0.3614
  822MPD2    H312152   0.126   0.488  15.528 -0.5807 -2.3555  0.0695
  822MPD2     N12153   4.689   0.532  15.943 -0.3142 -0.1670  0.4232
  822MPD2    H512154   4.668   0.486  16.031  2.2976 -1.2886  0.4664
  822MPD2    N112155   0.221   0.155  15.824  0.0525 -0.2979 -0.3903
  822MPD2    H712156   0.200   0.128  15.919  0.5417 -0.2531 -0.2743
  823MPD2     C12157   4.266   0.770  16.649  0.6278 -0.5365  0.1346
  823MPD2    C112158   4.328   0.682  16.563  0.5604 -0.3067 -0.8851
  823MPD2    C212159   4.374   0.566  16.614  0.9361  0.6760  0.1335
  823MPD2    C312160   4.358   0.537  16.751 -0.1323 -0.4702  0.2704
  823MPD2    C412161   4.289   0.625  16.828 -0.4798 -0.0058  0.1993
  823MPD2    C512162   4.239   0.738  16.779 -0.3247 -0.6403 -0.1103
  823MPD2     H12163   4.427   0.502  16.544 -0.4402 -0.1585 -0.1495
  823MPD2    H112164   4.280   0.602  16.934 -2.1826  0.0679  0.0681
  823MPD2    H212165   4.226   0.867  16.622  2.2255  1.2416  4.2570
  823MPD2    H312166   4.194   0.801  16.854  0.6375  1.0770 -0.9861
  823MPD2     N12167   4.417   0.426  16.812 -0.0855 -0.0428 -0.4100
  823MPD2    H512168   4.391   0.409  16.909 -0.2058 -0.8640 -0.5905
  823MPD2    N112169   4.354   0.735  16.436 -0.7157  0.5059 -0.4445
  823MPD2    H712170   4.327   0.831  16.422  1.6699  1.1730 -0.5588
  824MPD2     C12171   0.388   4.134  15.685  0.1849 -0.4915 -0.1569
  824MPD2    C112172   0.498   4.200  15.722 -0.3164 -0.6326  0.2905
  824MPD2    C212173   0.621   4.145  15.682 -0.3410  0.4784  0.2368
  824MPD2    C312174   0.635   4.035  15.600 -0.0327 -0.0896  0.7323
  824MPD2    C412175   0.519   3.972  15.555  0.3429 -0.2462 -0.5221
  824MPD2    C512176   0.403   4.023  15.603 -0.2460 -0.4706  0.8034
  824MPD2     H12177   0.698   4.201  15.733  2.3710 -3.1756  0.1338
  824MPD2    H112178   0.525   3.888  15.487 -0.3849  0.7396 -1.8202
  824MPD2    H212179   0.289   4.164  15.718 -0.0034 -2.1644  0.8108
  824MPD2    H312180   0.312   3.965  15.595  0.3422 -1.4591  1.2347
  824MPD2     N12181   0.765   3.997  15.564 -0.3676 -0.1268 -0.0661
  824MPD2    H512182   0.838   4.065  15.582  1.1850 -1.9819  0.6818
  824MPD2    N112183   0.508   4.325  15.784  0.4260 -0.0528  0.1421
  824MPD2    H712184   0.589   4.385  15.770 -0.3238  0.9090 -0.0756
  825MPD2     C12185   1.510   4.131  15.159  0.6934  0.7919  0.8667
  825MPD2    C112186   1.384   4.161  15.192 -0.0528  0.4393 -0.0326
  825MPD2    C212187   1.330   4.283  15.161  0.1150 -0.2581  0.3760
  825MPD2    C312188   1.407   4.385  15.108 -0.1568  0.1067  0.5997
  825MPD2    C412189   1.538   4.349  15.065 -0.7339 -0.5836 -0.8130
  825MPD2    C512190   1.586   4.226  15.093  0.2440 -0.3866 -0.3178
  825MPD2     H12191   1.231   4.314  15.191 -0.5148 -0.6735 -1.2915
  825MPD2    H112192   1.606   4.425  15.029 -0.9996  0.1047  0.1458
  825MPD2    H212193   1.554   4.037  15.191  0.4834 -0.0536 -1.3383
  825MPD2    H312194   1.688   4.204  15.065 -0.6716 -2.5830 -1.9427
  825MPD2     N12195   1.357   4.518  15.081 -0.1023  0.1900  0.3031
  825MPD2    H512196   1.418   4.569  15.018 -0.4885  0.5119  0.1914
  825MPD2    N112197   1.315   4.056  15.260  0.2503  0.2623  0.0444
  825MPD2    H712198   1.376   3.979  15.286  0.0183  0.5774  1.4821
  826MPD2     C12199   1.036   3.994  14.058 -0.3065  0.1652  0.2298
  826MPD2    C112200   1.042   4.019  13.925  0.4181 -0.0523  0.1514
  826MPD2    C212201   0.975   4.124  13.863  0.5526  0.0613 -0.0165
  826MPD2    C312202   0.904   4.207  13.949 -0.1077  0.3230  0.1787
  826MPD2    C412203   0.879   4.166  14.079  0.1891  0.5413 -0.0197
  826MPD2    C512204   0.956   4.064  14.139  0.4514  0.0969  0.2975
  826MPD2     H12205   0.973   4.141  13.756 -2.0990 -1.9793 -0.2818
  826MPD2    H112206   0.812   4.217  14.148  2.4086  0.3293  2.2923
  826MPD2    H212207   1.087   3.916  14.112 -0.7352 -0.5930 -0.4681
  826MPD2    H312208   0.971   4.057  14.246  0.7670 -1.7422  0.1290
  826MPD2     N12209   0.857   4.333  13.902  0.2113 -0.6652  0.7199
  826MPD2    H512210   0.819   4.393  13.975  1.4350 -0.4294  1.1620
  826MPD2    N112211   1.130   3.931  13.853  0.0595  0.2295  0.1341
  826MPD2    H712212   1.178   3.858  13.906 -1.6987  0.4903  2.0572
  827MPD2     C12213   1.629   0.944  10.559 -0.5815 -0.0326 -0.2632
  827MPD2    C112214   1.583   0.877  10.672 -0.3530  0.8471 -0.0935
  827MPD2    C212215   1.478   0.787  10.647 -0.1830 -0.0724 -0.2688
  827MPD2    C312216   1.406   0.773  10.521  0.5731  0.1592 -0.3673
  827MPD2    C412217   1.452   0.854  10.414 -0.3441 -0.4341  0.6486
  827MPD2    C512218   1.564   0.934  10.438 -0.8669 -0.0535 -0.3744
  827MPD2     H12219   1.449   0.721  10.728  1.2151 -0.1037  0.2045
  827MPD2    H112220   1.400   0.857  10.319  0.5800  1.8142  0.2139
  827MPD2    H212221   1.721   1.000  10.559 -1.4360  1.3772  0.2914
  827MPD2    H312222   1.603   0.997  10.359  1.8619 -2.1635 -0.7202
  827MPD2     N12223   1.290   0.690  10.522  0.1485 -0.2699 -0.2276
  827MPD2    H512224   1.249   0.668  10.612  0.6911  2.0028  0.5667
  827MPD2    N112225   1.657   0.892  10.793 -0.0582  0.1347 -0.3709
  827MPD2    H712226   1.744   0.944  10.793  0.4605 -0.6978  2.8554
  828MPD2     C12227   0.283   0.056  12.635 -0.1831 -0.7144  0.2823
  828MPD2    C112228   0.202   0.145  12.573  0.2841 -0.6855 -0.4315
  828MPD2    C212229   0.221   0.172  12.445 -0.0369  0.1834 -0.2785
  828MPD2    C312230   0.323   0.109  12.370 -0.7748  0.4319  0.0883
  828MPD2    C412231   0.412   0.031  12.440  0.2864  0.2791  0.0644
  828MPD2    C512232   0.387   4.725  12.567 -0.8889 -0.2920 -0.5193
  828MPD2     H12233   0.153   0.240  12.393  1.5946  1.1825 -1.0902
  828MPD2    H112234   0.489   4.719  12.383 -1.3323 -1.2507 -0.7914
  828MPD2    H212235   0.265   0.036  12.739  0.0587 -1.4102  0.1905
  828MPD2    H312236   0.442   4.650  12.623  0.6898 -0.5688 -2.4275
  828MPD2     N12237   0.342   0.130  12.231 -0.3449  0.0190  0.1300
  828MPD2    H512238   0.422   0.083  12.190 -0.5389 -1.8290  1.8573
  828MPD2    N112239   0.090   0.208  12.634 -0.0943 -0.5762 -0.0674
  828MPD2    H712240   0.053   0.290  12.588  1.3332  0.2057  0.1794
  829MPD2     C12241   4.203   0.549  12.178  0.3151  0.2825  0.1649
  829MPD2    C112242   4.188   0.632  12.282 -0.5585  0.5998  0.1347
  829MPD2    C212243   4.276   0.622  12.386  0.5292 -0.6727  0.3235
  829MPD2    C312244   4.369   0.518  12.378  0.6027 -0.5674 -0.2178
  829MPD2    C412245   4.398   0.450  12.263 -0.2712  0.2931 -0.3670
  829MPD2    C512246   4.313   0.467  12.160  0.8021  0.3339  0.5148
  829MPD2     H12247   4.268   0.692  12.468  1.5668 -2.6352  2.0806
  829MPD2    H112248   4.473   0.373  12.254 -0.5689  0.0269 -0.5651
  829MPD2    H212249   4.138   0.552  12.091 -0.0453  0.7450  0.4540
  829MPD2    H312250   4.328   0.416  12.065 -1.0481 -1.0220  0.9643
  829MPD2     N12251   4.452   0.485  12.488  0.2772  0.2364 -0.5097
  829MPD2    H512252   4.530   0.421  12.472  1.1471  1.3712 -0.8135
  829MPD2    N112253   4.075   0.714  12.286 -0.1084 -0.1915 -0.1718
  829MPD2    H712254   4.012   0.711  12.206 -1.0344 -1.1074  0.6077
  830MPD2     C12255   0.494   3.361  15.707  0.7481  0.3425  0.2046
  830MPD2    C112256   0.383   3.431  15.661  0.4793  0.2653  0.0001
  830MPD2    C212257   0.399   3.499  15.539 -0.5884 -0.1954  0.0091
  830MPD2    C312258   0.527   3.498  15.478 -0.8133  0.2236 -0.6254
  830MPD2    C412259   0.630   3.427  15.522 -0.1617  0.4894  1.6842
  830MPD2    C512260   0.611   3.364  15.638  0.2015  0.9687  0.0622
  830MPD2     H12261   0.321   3.558  15.492  0.8662  0.6381 -1.3650
  830MPD2    H112262   0.725   3.426  15.470 -0.9581  0.8126  0.2183
  830MPD2    H212263   0.489   3.305  15.799 -1.5030  0.2056 -0.0193
  830MPD2    H312264   0.697   3.313  15.679 -1.9640  1.1462  4.8081
  830MPD2     N12265   0.550   3.567  15.355 -0.6785  0.0704 -0.8248
  830MPD2    H512266   0.648   3.586  15.335 -0.3832 -1.9005 -1.2689
  830MPD2    N112267   0.262   3.431  15.737 -0.4704  0.3316 -0.3299
  830MPD2    H712268   0.261   3.397  15.833 -2.0225  0.6138 -0.2459
  831MPD2     C12269   0.152   0.706  16.297 -0.0985 -0.8353 -0.2866
  831MPD2    C112270   0.166   0.598  16.218  0.5735 -1.2593  0.1791
  831MPD2    C212271   0.083   0.489  16.240 -0.0518  0.5759 -0.1243
  831MPD2    C312272   4.735   0.484  16.347  0.0198 -0.0322  0.1034
  831MPD2    C412273   4.732   0.587  16.441 -0.1554  0.1265 -0.4364
  831MPD2    C512274   0.076   0.699  16.410 -0.1444 -0.2231 -0.4158
  831MPD2     H12275   0.073   0.411  16.165  2.3014  1.0938 -1.0131
  831MPD2    H112276   4.678   0.582  16.535 -0.3151  0.1647 -0.5268
  831MPD2    H212277   0.195   0.802  16.271  0.6521 -1.3363 -0.8813
  831MPD2    H312278   0.073   0.777  16.484 -1.8376 -2.5065  1.9175
  831MPD2     N12279   4.643   0.376  16.368  0.0560  0.9259  0.0097
  831MPD2    H512280   4.596   0.373  16.458 -1.1337  1.1458 -0.6010
  831MPD2    N112281   0.263   0.593  16.118  1.0068 -0.8917  0.2420
  831MPD2    H712282   0.313   0.677  16.090 -0.5916  0.0755  0.3415
  832MPD2     C12283   3.555   1.713  17.094  0.1482 -0.2598 -0.5642
  832MPD2    C112284   3.511   1.849  17.076  0.4028 -0.4526 -0.2497
  832MPD2    C212285   3.383   1.874  17.049  0.7547  0.4136 -0.1137
  832MPD2    C312286   3.292   1.776  17.013 -0.7887 -0.1404  0.0406
  832MPD2    C412287   3.343   1.647  17.024  0.2210 -0.5465 -0.4392
  832MPD2    C512288   3.468   1.617  17.070 -0.1799 -0.1995  0.0392
  832MPD2     H12289   3.355   1.975  17.023 -1.8557 -0.3916 -0.4317
  832MPD2    H112290   3.269   1.570  17.003  0.0418 -0.4764 -0.0513
  832MPD2    H212291   3.655   1.685  17.124 -0.7419 -0.0090  2.6007
  832MPD2    H312292   3.491   1.518  17.107  1.2769  0.3359  0.5446
  832MPD2     N12293   3.156   1.788  16.991 -0.3220  0.7500 -0.0411
  832MPD2    H512294   3.109   1.702  16.964  0.4199  0.7369 -1.2904
  832MPD2    N112295   3.619   1.939  17.105  0.5567 -0.0685 -0.8440
  832MPD2    H712296   3.708   1.913  17.146 -1.1511 -2.3017  1.4970
  833MPD2     C12297   0.828   2.656  12.976 -0.3329 -0.1051  0.1084
  833MPD2    C112298   0.852   2.788  12.944 -0.0176 -0.5605 -0.7228
  833MPD2    C212299   0.912   2.811  12.821 -0.2076 -0.0647 -0.0074
  833MPD2    C312300   0.939   2.701  12.733 -0.7685 -0.0749  0.5115
  833MPD2    C412301   0.899   2.574  12.769  0.1875  0.4713  0.0025
  833MPD2    C512302   0.847   2.556  12.888  0.3817 -0.4915 -0.0521
  833MPD2     H12303   0.950   2.910  12.801 -2.5990  1.4064  2.8186
  833MPD2    H112304   0.889   2.498  12.693  1.5015  0.6102 -0.3163
  833MPD2    H212305   0.785   2.632  13.073 -1.5030 -0.6982 -0.5650
  833MPD2    H312306   0.823   2.456  12.923 -0.2031 -0.4765 -0.4086
  833MPD2     N12307   1.001   2.716  12.610  0.0738  0.0845 -0.1859
  833MPD2    H512308   1.021   2.636  12.552 -3.1166 -0.6823 -0.2615
  833MPD2    N112309   0.818   2.892  13.033  0.2895  0.2426  0.3626
  833MPD2    H712310   0.774   2.865  13.121  2.0602 -2.4192  0.4206
  834MPD2     C12311   0.936   2.415  11.734 -0.1956  0.1518  0.7135
  834MPD2    C112312   0.868   2.525  11.760  0.1460 -0.0625 -0.0149
  834MPD2    C212313   0.906   2.614  11.854 -0.2952  0.0879  0.2244
  834MPD2    C312314   1.003   2.586  11.944  0.1757 -0.3581 -0.0424
  834MPD2    C412315   1.070   2.464  11.929  0.1285  0.1188  0.7761
  834MPD2    C512316   1.039   2.384  11.819  0.5596  0.1880  0.5060
  834MPD2     H12317   0.852   2.707  11.863 -0.4203  0.1228 -0.8929
  834MPD2    H112318   1.153   2.437  11.993 -0.9455 -1.7917  1.3527
  834MPD2    H212319   0.905   2.345  11.658 -0.9236  0.0307  1.1256
  834MPD2    H312320   1.094   2.293  11.802  0.6180  0.4747 -0.8189
  834MPD2     N12321   1.033   2.671  12.052  0.0195 -0.0073 -0.0102
  834MPD2    H512322   1.107   2.639  12.114  1.2312  1.8884 -0.4538
  834MPD2    N112323   0.784   2.560  11.653  0.0710  0.1516  0.1787
  834MPD2    H712324   0.775   2.482  11.588 -0.8927 -1.6427  2.4736
  835MPD2     C12325   0.908   0.726  11.373  0.0851 -0.0953 -0.4680
  835MPD2    C112326   0.835   0.727  11.489  0.2598  0.3834 -0.3348
  835MPD2    C212327   0.892   0.692  11.609 -0.6849  1.1778  0.0627
  835MPD2    C312328   1.030   0.663  11.611  0.1530 -0.5840  0.2580
  835MPD2    C412329   1.104   0.678  11.489  0.2688  0.2875 -0.7017
  835MPD2    C512330   1.044   0.718  11.375  0.0722  1.0573  0.3256
  835MPD2     H12331   0.830   0.696  11.697 -2.2305  0.4482 -0.9899
  835MPD2    H112332   1.210   0.655  11.483  0.1766 -0.5777  1.0274
  835MPD2    H212333   0.864   0.742  11.275 -1.5982  2.1132  0.6465
  835MPD2    H312334   1.098   0.707  11.281 -1.5650  2.5583 -0.7895
  835MPD2     N12335   1.100   0.622  11.731  0.1221  0.5833 -0.3524
  835MPD2    H512336   1.201   0.633  11.733  0.1923 -0.2911  0.8236
  835MPD2    N112337   0.686   0.748  11.496  0.4609 -0.0082  0.2294
  835MPD2    H712338   0.654   0.767  11.591  1.8144  0.1498  0.6520
  836MPD2     C12339   1.072   0.959  12.413 -0.7790  0.7550 -0.2160
  836MPD2    C112340   1.024   0.827  12.417  0.1556 -0.3754 -0.3632
  836MPD2    C212341   0.917   0.803  12.504  0.4976  0.5445  0.3006
  836MPD2    C312342   0.852   0.909  12.569 -0.9518 -0.0607  0.3746
  836MPD2    C412343   0.888   1.040  12.538  0.0384  0.0104 -0.1991
  836MPD2    C512344   1.001   1.057  12.469 -0.1554  0.1150 -0.8107
  836MPD2     H12345   0.873   0.704  12.509 -0.1654  0.8317  0.2143
  836MPD2    H112346   0.842   1.129  12.578 -4.2330 -0.6595 -3.6223
  836MPD2    H212347   1.158   0.987  12.354  0.0038  2.4894  1.7516
  836MPD2    H312348   1.037   1.159  12.460  1.6205 -0.5177 -0.9505
  836MPD2     N12349   0.734   0.892  12.653 -0.5901 -0.0993 -0.6977
  836MPD2    H512350   0.685   0.977  12.681 -0.6933 -0.2685 -0.3609
  836MPD2    N112351   1.094   0.735  12.330 -0.3735 -0.2413 -0.5593
  836MPD2    H712352   1.157   0.780  12.266 -0.5784  1.6763  0.5818
  837MPD2     C12353   3.624   0.462  10.602 -0.4316 -0.1252 -0.6013
  837MPD2    C112354   3.499   0.500  10.562  0.2776 -0.0422 -0.3449
  837MPD2    C212355   3.450   0.614  10.623 -0.1836 -0.1538 -0.7398
  837MPD2    C312356   3.518   0.692  10.717 -0.3670 -0.2752 -0.5689
  837MPD2    C412357   3.647   0.654  10.747 -0.9909 -0.1166  0.0033
  837MPD2    C512358   3.700   0.544  10.690 -0.1303  0.0444  0.3120
  837MPD2     H12359   3.344   0.637  10.618 -0.8659 -2.9478  0.6356
  837MPD2    H112360   3.712   0.718  10.805  0.1542  0.3744 -1.8374
  837MPD2    H212361   3.682   0.381  10.559 -1.3742 -0.1564 -1.8332
  837MPD2    H312362   3.805   0.521  10.707 -0.6060 -1.6708  1.0057
  837MPD2     N12363   3.444   0.801  10.773  0.1505  0.3446 -0.0781
  837MPD2    H512364   3.350   0.807  10.736 -0.8120 -1.9016  1.9170
  837MPD2    N112365   3.409   0.440  10.468 -0.0191  0.3056 -0.4289
  837MPD2    H712366   3.326   0.492  10.441  0.4272  1.5150  0.5212
  838MPD2     C12367   2.402   3.764  11.933  0.3163 -0.4673  0.0082
  838MPD2    C112368   2.298   3.683  11.890  0.2990 -1.1581  0.3311
  838MPD2    C212369   2.199   3.648  11.983 -0.1566 -0.3057 -0.0930
  838MPD2    C312370   2.193   3.701  12.109  0.1082  0.7531 -0.3234
  838MPD2    C412371   2.287   3.796  12.145  0.0808 -0.5101  0.4481
  838MPD2    C512372   2.384   3.828  12.048  0.2716  0.1909 -0.8663
  838MPD2     H12373   2.118   3.583  11.952 -0.5947 -0.3666  1.1831
  838MPD2    H112374   2.296   3.827  12.249 -1.4610 -1.3112  0.8342
  838MPD2    H212375   2.489   3.787  11.873  0.5757 -2.6969 -0.4793
  838MPD2    H312376   2.467   3.889  12.082  0.4122 -0.1566 -0.5802
  838MPD2     N12377   2.092   3.659  12.203 -0.5955  0.2692  0.1939
  838MPD2    H512378   2.026   3.584  12.181  0.0791  0.3596 -2.1587
  838MPD2    N112379   2.284   3.643  11.760  0.1283 -0.6434  0.1905
  838MPD2    H712380   2.210   3.576  11.745 -0.2989  0.3849 -2.3167
  839MPD2     C12381   1.949   2.952  11.775  0.2109  0.4070  0.7420
  839MPD2    C112382   2.040   2.947  11.672 -0.2175  0.0304  0.5407
  839MPD2    C212383   2.075   3.054  11.600  0.4871 -0.6295 -0.1090
  839MPD2    C312384   2.034   3.182  11.642  0.7368 -0.1573 -0.1784
  839MPD2    C412385   1.962   3.184  11.762 -0.2052 -0.1107 -0.1087
  839MPD2    C512386   1.913   3.076  11.825  0.3741  0.2466  0.6823
  839MPD2     H12387   2.137   3.044  11.512  1.2983 -1.6294  0.5795
  839MPD2    H112388   1.942   3.278  11.813  1.6597  0.4973 -0.4915
  839MPD2    H212389   1.911   2.864  11.826  1.3310 -1.3445 -1.4605
  839MPD2    H312390   1.861   3.076  11.920 -1.5096 -2.4405 -0.3625
  839MPD2     N12391   2.089   3.291  11.585 -0.6595  0.2254  0.5494
  839MPD2    H512392   2.084   3.376  11.641  0.9056  0.9603 -0.4602
  839MPD2    N112393   2.078   2.818  11.630  0.2500  0.1399  0.0514
  839MPD2    H712394   2.116   2.818  11.536 -1.0350 -0.6296 -0.4778
  840MPD2     C12395   2.255   1.162  10.808  0.4707 -0.3817 -0.0135
  840MPD2    C112396   2.208   1.151  10.938  0.3009 -0.2861 -0.1419
  840MPD2    C212397   2.278   1.224  11.041 -0.7433  0.3007  0.9875
  840MPD2    C312398   2.388   1.302  11.018 -0.3256  0.3101 -0.5366
  840MPD2    C412399   2.435   1.300  10.888  0.2250  0.0099  0.4109
  840MPD2    C512400   2.372   1.234  10.784 -0.5448  0.1573 -0.0992
  840MPD2     H12401   2.244   1.224  11.144  0.2993 -1.1147  1.3303
  840MPD2    H112402   2.523   1.358  10.861 -0.4053  0.4187 -0.7142
  840MPD2    H212403   2.208   1.102  10.731 -0.0243  3.3110 -2.6138
  840MPD2    H312404   2.419   1.228  10.686 -0.6307 -0.4763 -0.0997
  840MPD2     N12405   2.455   1.390  11.111  0.0240 -0.4211  0.1796
  840MPD2    H512406   2.545   1.421  11.074  0.3192 -0.2030  1.0787
  840MPD2    N112407   2.089   1.082  10.970 -0.2480  0.3136  0.7695
  840MPD2    H712408   2.037   1.046  10.891  0.6361 -2.1806  1.3119
  841MPD2     C12409   1.753   0.726  14.963 -0.9530  0.9617  0.3556
  841MPD2    C112410   1.816   0.654  14.868 -0.6325 -0.6270  0.1913
  841MPD2    C212411   1.936   0.702  14.815 -0.8629  0.3414 -0.1851
  841MPD2    C312412   1.982   0.824  14.860  0.6209 -0.1993  0.2575
  841MPD2    C412413   1.924   0.885  14.967 -0.2223  0.2180 -0.1608
  841MPD2    C512414   1.805   0.843  15.018  0.0162  0.7141 -0.1897
  841MPD2     H12415   1.988   0.655  14.732  1.6388 -0.3649  1.7644
  841MPD2    H112416   1.969   0.972  15.013 -5.1364  1.4780  2.2217
  841MPD2    H212417   1.656   0.687  14.991 -0.3646  0.0952  1.2123
  841MPD2    H312418   1.746   0.901  15.088 -0.7478 -0.7698  0.3913
  841MPD2     N12419   2.109   0.866  14.820 -0.5387  0.7002 -0.1280
  841MPD2    H512420   2.170   0.803  14.768  0.3643  0.2911  1.4226
  841MPD2    N112421   1.761   0.530  14.826  0.6066 -0.6174 -0.3165
  841MPD2    H712422   1.691   0.478  14.878  0.1703  0.8653  0.5704
  842MPD2     C12423   2.891   2.303  17.055  0.3504 -0.3806 -0.3541
  842MPD2    C112424   2.777   2.223  17.079 -0.2401  0.6718  0.4637
  842MPD2    C212425   2.791   2.104  17.161  0.3642  0.1060  0.0756
  842MPD2    C312426   2.912   2.096  17.235  0.4749  0.4366 -0.4019
  842MPD2    C412427   3.013   2.183  17.214 -0.1449 -0.7930 -0.2086
  842MPD2    C512428   3.000   2.286  17.126 -0.3441  0.4917 -0.5065
  842MPD2     H12429   2.711   2.037  17.190 -2.4890  4.1893  1.5752
  842MPD2    H112430   3.106   2.164  17.266 -0.0782  0.6817  0.2048
  842MPD2    H212431   2.881   2.391  16.993  3.0204  1.3081  1.6478
  842MPD2    H312432   3.086   2.350  17.104 -0.6015  0.4599 -1.5844
  842MPD2     N12433   2.939   2.005  17.340 -0.5593 -0.6551 -0.4272
  842MPD2    H512434   3.030   2.014  17.385  0.0324 -0.8672 -1.5585
  842MPD2    N112435   2.659   2.258  17.025 -0.1012  0.5598  0.4554
  842MPD2    H712436   2.669   2.342  16.968  2.2009 -0.8420 -1.1931
  843MPD2     C12437   4.670   3.334   0.622 -0.0360  0.5676  0.0832
  843MPD2    C112438   4.711   3.286   0.502  0.0439 -1.1749  0.6239
  843MPD2    C212439   0.104   3.302   0.464 -0.0142  0.2511  0.0048
  843MPD2    C312440   0.189   3.374   0.548 -0.8950  0.1520 -0.0061
  843MPD2    C412441   0.150   3.405   0.677 -0.2207  0.3436  0.6943
  843MPD2    C512442   0.019   3.393   0.709 -1.1340  0.0699 -0.3340
  843MPD2     H12443   0.134   3.255   0.371 -2.7493  0.7394 -1.1267
  843MPD2    H112444   0.216   3.456   0.746  1.8339 -2.8097  1.0671
  843MPD2    H212445   4.571   3.307   0.657  1.1757 -1.4082  1.9300
  843MPD2    H312446   0.000   3.412   0.815  1.9181 -0.5144  0.3319
  843MPD2     N12447   0.317   3.413   0.506 -0.6094  0.1806 -0.1394
  843MPD2    H512448   0.372   3.460   0.577  1.1470 -1.7196 -0.2464
  843MPD2    N112449   4.614   3.219   0.427 -0.1811  0.4195 -0.4409
  843MPD2    H712450   4.516   3.217   0.453 -0.0392  1.2076  0.1308
  844MPD2     C12451   2.884   1.618  16.521  0.0698  0.5836  0.1335
  844MPD2    C112452   2.987   1.522  16.520  0.5450 -0.2351  0.0652
  844MPD2    C212453   3.115   1.561  16.561 -0.7668  0.2325  0.6452
  844MPD2    C312454   3.144   1.689  16.592 -0.1658 -0.2973  0.0290
  844MPD2    C412455   3.036   1.782  16.594  0.1714 -0.3021  0.1934
  844MPD2    C512456   2.915   1.747  16.547  0.0364  0.0313  0.3491
  844MPD2     H12457   3.200   1.494  16.567 -1.6630 -0.9757 -0.1554
  844MPD2    H112458   3.039   1.884  16.629 -1.9912  0.0633 -0.6800
  844MPD2    H212459   2.777   1.599  16.516 -0.5897  4.4995 -0.5211
  844MPD2    H312460   2.842   1.827  16.544 -0.0380 -0.0690 -0.4556
  844MPD2     N12461   3.283   1.725  16.619 -0.1152 -0.6163 -0.0248
  844MPD2    H512462   3.345   1.645  16.630 -0.6544 -1.1678 -0.9559
  844MPD2    N112463   2.958   1.389  16.470  0.1845  0.0329 -0.5111
  844MPD2    H712464   3.042   1.331  16.468  0.4246  0.3872 -0.8283
  845MPD2     C12465   3.595   2.670  16.894  0.9760 -0.4195  0.9821
  845MPD2    C112466   3.509   2.592  16.962  0.2065 -0.1811  0.6304
  845MPD2    C212467   3.514   2.452  16.936  0.4566  0.3817 -0.6783
  845MPD2    C312468   3.601   2.397  16.838 -0.5217 -0.0788 -0.2259
  845MPD2    C412469   3.693   2.482  16.778  0.5850  0.3112  0.3253
  845MPD2    C512470   3.681   2.615  16.804  0.0926  0.1752  0.7886
  845MPD2     H12471   3.445   2.384  16.984  0.4438  0.5299 -0.4895
  845MPD2    H112472   3.764   2.442  16.707  0.0549 -0.8514  0.4479
  845MPD2    H212473   3.609   2.775  16.916  2.2846 -0.2671 -0.5931
  845MPD2    H312474   3.742   2.682  16.745  1.0835  0.9083  2.6483
  845MPD2     N12475   3.578   2.262  16.811  0.3594  0.4943  0.1431
  845MPD2    H512476   3.500   2.225  16.866  1.4847  0.5152  1.7686
  845MPD2    N112477   3.421   2.645  17.054 -0.4285  0.1876  0.1356
  845MPD2    H712478   3.393   2.743  17.045 -1.4518 -0.0479  0.7028
  846MPD2     C12479   4.308   2.560  13.669 -0.0195  0.0002 -0.6425
  846MPD2    C112480   4.439   2.584  13.709  0.0684 -0.2084 -0.2933
  846MPD2    C212481   4.474   2.567  13.847 -0.3855  0.3246  0.0770
  846MPD2    C312482   4.378   2.532  13.939 -0.7213  0.3937  0.3527
  846MPD2    C412483   4.248   2.511  13.896  0.3102  0.3364 -0.1403
  846MPD2    C512484   4.215   2.525  13.759  0.4210  0.1706 -0.4075
  846MPD2     H12485   4.575   2.582  13.883 -0.8003 -1.0692  1.8104
  846MPD2    H112486   4.173   2.472  13.964  0.5876  2.6618  1.5126
  846MPD2    H212487   4.276   2.564  13.566 -1.6789  3.6040  0.0289
  846MPD2    H312488   4.116   2.491  13.730  0.1199  0.8431 -0.1854
  846MPD2     N12489   4.400   2.516  14.075  0.6877  0.6351 -0.6904
  846MPD2    H512490   4.318   2.494  14.131  0.2894 -0.3200 -1.6530
  846MPD2    N112491   4.526   2.635  13.614  0.9458 -0.5178 -0.2883
  846MPD2    H712492   4.614   2.661  13.657  1.7639 -2.3178 -0.8742
  847MPD2     C12493   0.157   3.444  14.207  0.4027 -0.1038 -0.0465
  847MPD2    C112494   0.193   3.542  14.295 -0.3189  0.4597  0.5924
  847MPD2    C212495   0.293   3.512  14.383 -0.3386  0.1998  0.4482
  847MPD2    C312496   0.357   3.390  14.385 -0.1293 -0.0220  0.9777
  847MPD2    C412497   0.312   3.291  14.304  0.5500 -0.1088 -0.4087
  847MPD2    C512498   0.215   3.322  14.214 -0.1209  0.5068  0.0753
  847MPD2     H12499   0.321   3.578  14.464  0.3899 -0.5982  0.8465
  847MPD2    H112500   0.359   3.194  14.315 -0.6343 -0.5717  0.5691
  847MPD2    H212501   0.082   3.463  14.131 -2.5067 -2.0860  2.3364
  847MPD2    H312502   0.182   3.245  14.144  1.4729 -1.2492  1.2841
  847MPD2     N12503   0.454   3.372  14.485 -0.4464 -0.5545  0.6682
  847MPD2    H512504   0.483   3.454  14.538  1.3991 -1.0472  0.4113
  847MPD2    N112505   0.139   3.671  14.312  0.0981 -0.0737  0.5223
  847MPD2    H712506   0.168   3.724  14.394  0.8215  0.1077  0.1454
  848MPD2     C12507   2.588   2.034  16.480 -0.1369 -0.5102  0.2605
  848MPD2    C112508   2.694   2.091  16.548 -0.0345  0.3535 -0.5693
  848MPD2    C212509   2.747   2.200  16.489  0.0397 -0.3022 -0.1569
  848MPD2    C312510   2.703   2.235  16.356  0.2161 -0.2204 -0.2153
  848MPD2    C412511   2.591   2.174  16.297 -0.6951  0.8295  0.1652
  848MPD2    C512512   2.531   2.075  16.365  0.7672  0.4483 -0.5531
  848MPD2     H12513   2.830   2.256  16.531  0.0089 -0.1319 -0.3232
  848MPD2    H112514   2.553   2.202  16.199 -0.5211 -1.1717 -0.4720
  848MPD2    H212515   2.538   1.949  16.524 -1.6953 -0.0840 -0.6846
  848MPD2    H312516   2.443   2.022  16.331  0.8347  1.0033 -1.5879
  848MPD2     N12517   2.765   2.330  16.273 -0.0110  0.8012  0.0286
  848MPD2    H512518   2.722   2.351  16.183 -4.1896  0.6584  1.9940
  848MPD2    N112519   2.735   2.054  16.678 -0.1187  0.2127 -0.4856
  848MPD2    H712520   2.820   2.095  16.716 -1.5606  2.1065  0.7160
  849MPD2     C12521   1.623   1.486  14.214 -0.0821 -0.7586  0.2925
  849MPD2    C112522   1.756   1.503  14.196 -0.2058  0.5158  0.0531
  849MPD2    C212523   1.824   1.577  14.292 -0.6655 -0.7806  0.0092
  849MPD2    C312524   1.752   1.633  14.401 -0.3731  0.7206  0.1241
  849MPD2    C412525   1.611   1.620  14.408 -0.0083 -0.3820  0.1550
  849MPD2    C512526   1.551   1.545  14.317  0.2547 -0.0619  1.1467
  849MPD2     H12527   1.932   1.585  14.296 -0.7703 -0.0811  1.6471
  849MPD2    H112528   1.549   1.657  14.489  1.3011  4.2499 -0.9760
  849MPD2    H212529   1.569   1.418  14.149  1.4903 -0.8264 -0.9644
  849MPD2    H312530   1.445   1.525  14.322  0.2228  0.3856  2.1702
  849MPD2     N12531   1.819   1.693  14.516 -0.2925  0.3296 -0.0516
  849MPD2    H512532   1.761   1.708  14.597  1.1183  3.5874  0.3391
  849MPD2    N112533   1.806   1.434  14.092 -0.6763  0.3901 -0.2747
  849MPD2    H712534   1.737   1.374  14.048  0.7530 -0.1877 -1.7084
  850MPD2     C12535   4.615   4.218  14.857  0.2886  0.5244 -0.4765
  850MPD2    C112536   4.630   4.345  14.913  0.4873  0.5019  0.6389
  850MPD2    C212537   0.022   4.401  14.916 -0.6477 -0.6480  0.3158
  850MPD2    C312538   0.134   4.328  14.883 -0.9188  0.2054 -0.1805
  850MPD2    C412539   0.117   4.195  14.843 -0.0190 -0.4184  0.7882
  850MPD2    C512540   4.728   4.149  14.824  0.2117  0.3553  0.7599
  850MPD2     H12541   0.038   4.505  14.941  2.3396 -1.0381  0.0194
  850MPD2    H112542   0.196   4.121  14.838 -0.7919 -1.1372 -0.6777
  850MPD2    H212543   4.517   4.172  14.853  0.1748  0.5973  1.7154
  850MPD2    H312544   4.726   4.046  14.790  0.1356  1.3259 -2.2086
  850MPD2     N12545   0.270   4.371  14.906  0.2293 -0.1589 -0.3000
  850MPD2    H512546   0.346   4.327  14.854  0.5193 -1.1799  0.9967
  850MPD2    N112547   4.513   4.412  14.945  0.6957  0.3188 -0.1013
  850MPD2    H712548   4.427   4.369  14.911 -0.9057  0.8375  3.3239
  851MPD2     C12549   0.454   4.471  15.471 -0.3459  1.1801 -0.6714
  851MPD2    C112550   0.344   4.422  15.401  0.4189 -0.1882  0.0090
  851MPD2    C212551   0.361   4.305  15.332  0.3874  0.2285  0.4889
  851MPD2    C312552   0.476   4.235  15.334 -0.9847  0.0786  0.6278
  851MPD2    C412553   0.593   4.293  15.400 -0.1754  0.8950 -0.3327
  851MPD2    C512554   0.577   4.408  15.463 -0.0610 -0.6319  0.3387
  851MPD2     H12555   0.280   4.265  15.272  0.1211  1.9551 -0.2916
  851MPD2    H112556   0.691   4.246  15.411 -1.0171 -0.5578  0.9754
  851MPD2    H212557   0.449   4.565  15.524  1.1855  0.5930  0.5268
  851MPD2    H312558   0.664   4.453  15.510 -0.5868 -0.6688  1.3552
  851MPD2     N12559   0.480   4.114  15.253 -0.5263  0.6447 -0.5721
  851MPD2    H512560   0.393   4.071  15.225 -0.3420  0.5262 -0.9723
  851MPD2    N112561   0.225   4.489  15.394  0.5539  0.4488  0.0661
  851MPD2    H712562   0.230   4.589  15.414  2.1749  0.2505  0.6160
  852MPD2     C12563   4.590   2.331   9.577 -0.6254 -0.4420 -0.1950
  852MPD2    C112564   4.560   2.391   9.693 -0.5565  0.0279 -0.5461
  852MPD2    C212565   4.645   2.481   9.751  0.4407 -0.4064  0.2418
  852MPD2    C312566   0.015   2.531   9.682 -0.5090 -0.5076 -0.1290
  852MPD2    C412567   0.036   2.488   9.552  0.2161  0.3332 -0.5045
  852MPD2    C512568   4.699   2.378   9.504 -0.2460  0.0467  0.7271
  852MPD2     H12569   4.631   2.504   9.856  1.0890 -1.6782  0.6110
  852MPD2    H112570   0.123   2.515   9.493  1.1761  0.5891  1.0463
  852MPD2    H212571   4.543   2.237   9.553 -1.2232 -0.4882  1.1822
  852MPD2    H312572   4.714   2.336   9.405 -1.3234  0.6093  0.3240
  852MPD2     N12573   0.096   2.619   9.758 -0.5136  0.2233 -0.4296
  852MPD2    H512574   0.074   2.643   9.854  0.4994  0.7944 -0.3471
  852MPD2    N112575   4.457   2.348   9.775 -0.4811 -0.0288 -0.6084
  852MPD2    H712576   4.449   2.403   9.860 -0.7082 -2.3721  0.8691
  853MPD2     C12577   1.745   2.174  12.369  0.8179 -0.5759  0.2364
  853MPD2    C112578   1.713   2.275  12.282 -0.5300 -0.4481 -0.1944
  853MPD2    C212579   1.681   2.239  12.152  0.2705  0.3141 -0.2819
  853MPD2    C312580   1.676   2.100  12.114  0.5875  0.1347 -0.8157
  853MPD2    C412581   1.711   2.002  12.199 -0.2418  0.0181 -0.1062
  853MPD2    C512582   1.743   2.040  12.329 -0.5779  0.0147 -0.4513
  853MPD2     H12583   1.642   2.317  12.087  0.2420  0.0916 -0.5290
  853MPD2    H112584   1.717   1.897  12.172  0.2450 -0.0063  0.1122
  853MPD2    H212585   1.780   2.205  12.467 -1.3427 -0.6919  1.0271
  853MPD2    H312586   1.771   1.971  12.407 -1.7281 -0.4685 -0.4649
  853MPD2     N12587   1.635   2.062  11.984 -0.4971  0.0687 -0.2876
  853MPD2    H512588   1.625   1.962  11.971 -2.7752  0.4128 -1.0134
  853MPD2    N112589   1.700   2.405  12.337 -0.3686  0.0549  0.3801
  853MPD2    H712590   1.714   2.408  12.438  0.9329  0.5761  0.1763
  854MPD2     C12591   3.240   2.021  12.933  0.2799  0.1874  0.5017
  854MPD2    C112592   3.298   2.144  12.956 -0.8559 -0.5395  0.0776
  854MPD2    C212593   3.416   2.151  13.030  0.1743  0.8314 -0.6757
  854MPD2    C312594   3.469   2.035  13.084 -0.6180 -0.3201  0.0059
  854MPD2    C412595   3.402   1.919  13.080 -0.8860  0.6912  0.3168
  854MPD2    C512596   3.289   1.917  13.001 -0.1987 -0.3154 -0.1747
  854MPD2     H12597   3.475   2.240  13.043  0.7543  0.0224  2.2131
  854MPD2    H112598   3.437   1.829  13.130 -0.6598 -0.6725 -2.2964
  854MPD2    H212599   3.151   2.008  12.873  0.6481  0.2000 -0.0477
  854MPD2    H312600   3.232   1.824  13.009 -0.1868 -0.2678  0.4656
  854MPD2     N12601   3.590   2.038  13.160 -0.6010 -0.6823  0.2835
  854MPD2    H512602   3.598   1.958  13.222  0.1814  0.7397  1.9802
  854MPD2    N112603   3.243   2.259  12.899 -0.2648  1.1800 -0.5938
  854MPD2    H712604   3.156   2.233  12.854  1.0685  1.1225 -3.0835
  855MPD2     C12605   3.430   1.859  13.871 -0.0421  0.4272  0.1947
  855MPD2    C112606   3.538   1.780  13.845 -0.3049 -0.2430 -0.9884
  855MPD2    C212607   3.633   1.827  13.764 -0.1619 -0.4351  0.5071
  855MPD2    C312608   3.629   1.956  13.705  0.3291  0.6371 -0.5240
  855MPD2    C412609   3.515   2.040  13.730  0.3765  1.2876 -0.1282
  855MPD2    C512610   3.418   1.985  13.813 -0.6219 -0.5989  0.4068
  855MPD2     H12611   3.706   1.755  13.730 -0.9439 -2.4240  3.0686
  855MPD2    H112612   3.502   2.137  13.681 -1.0676 -0.2623 -2.8401
  855MPD2    H212613   3.354   1.825  13.940 -1.1079  3.3519  0.4540
  855MPD2    H312614   3.323   2.031  13.836 -1.0946 -1.4318  0.1405
  855MPD2     N12615   3.719   2.000  13.608  0.1642 -0.2582 -0.1459
  855MPD2    H512616   3.704   2.092  13.567 -3.1566 -0.0183  1.6017
  855MPD2    N112617   3.555   1.650  13.897  0.2732 -0.1602  0.1665
  855MPD2    H712618   3.640   1.598  13.884 -0.5568 -1.8358  1.4344
  856MPD2     C12619   0.902   2.623  13.744 -0.5610 -0.0443 -0.7229
  856MPD2    C112620   0.964   2.723  13.819 -0.8022 -0.4662 -0.7941
  856MPD2    C212621   0.897   2.847  13.837 -0.2335  0.1664  0.2180
  856MPD2    C312622   0.764   2.865  13.797  0.8987  0.1003 -0.4118
  856MPD2    C412623   0.702   2.764  13.729  0.0003  0.1731  0.3586
  856MPD2    C512624   0.771   2.648  13.708 -0.1924 -0.0583  0.0390
  856MPD2     H12625   0.951   2.930  13.881  1.5615 -0.7314 -0.2671
  856MPD2    H112626   0.600   2.766  13.693 -0.6518  1.0491  2.2729
  856MPD2    H212627   0.956   2.534  13.712  0.4188  0.4272 -0.4051
  856MPD2    H312628   0.714   2.577  13.648  0.5758 -0.8961  0.2894
  856MPD2     N12629   0.707   2.996  13.816  0.5357  0.8099 -0.6632
  856MPD2    H512630   0.615   3.007  13.774  0.5928  2.4286 -0.3777
  856MPD2    N112631   1.087   2.722  13.887  0.2437  0.2265  0.9282
  856MPD2    H712632   1.120   2.807  13.932 -1.8206  2.0712 -1.0456
  857MPD2     C12633   2.746   0.302  13.092 -0.2826 -0.7867 -0.5353
  857MPD2    C112634   2.817   0.269  12.977  0.1910  0.1221  0.1994
  857MPD2    C212635   2.880   0.377  12.914 -1.2619  0.1592  0.0682
  857MPD2    C312636   2.882   0.513  12.954  0.0253 -0.2429 -0.2417
  857MPD2    C412637   2.816   0.535  13.075 -0.0531 -0.5975  0.5259
  857MPD2    C512638   2.748   0.432  13.141  0.2996 -0.0366  0.2676
  857MPD2     H12639   2.928   0.355  12.819  1.6719  1.2001  1.3229
  857MPD2    H112640   2.815   0.632  13.122 -2.2320  1.2800 -3.3661
  857MPD2    H212641   2.683   0.235  13.150  0.3404 -0.1424  0.8979
  857MPD2    H312642   2.697   0.455  13.234  0.4258 -1.2126  0.6321
  857MPD2     N12643   2.969   0.605  12.888  0.1818  0.1145 -0.6265
  857MPD2    H512644   3.019   0.572  12.807  0.7487 -1.3230  0.2930
  857MPD2    N112645   2.803   0.151  12.910  0.4777 -0.4713 -0.2417
  857MPD2    H712646   2.857   0.151  12.824  0.3129  1.8823 -0.3499
  858MPD2     C12647   3.231   4.173  16.545  0.2963  0.2517  0.3008
  858MPD2    C112648   3.362   4.132  16.570  0.2524  0.6319 -0.3515
  858MPD2    C212649   3.456   4.212  16.627 -0.0857  0.1880 -0.1904
  858MPD2    C312650   3.410   4.324  16.699  0.4167  0.0787 -0.0981
  858MPD2    C412651   3.281   4.359  16.684  0.4137  0.2481 -0.0769
  858MPD2    C512652   3.189   4.291  16.603  0.2117 -0.3111 -0.3062
  858MPD2     H12653   3.557   4.171  16.628 -0.7515 -1.5117 -1.6034
  858MPD2    H112654   3.247   4.447  16.735 -0.9752  0.0486 -0.6593
  858MPD2    H212655   3.149   4.117  16.503 -0.4519  1.2876  0.3592
  858MPD2    H312656   3.087   4.324  16.590 -0.6562 -1.9161  2.4524
  858MPD2     N12657   3.481   4.406  16.796  0.1650  0.5283 -0.3057
  858MPD2    H512658   3.422   4.473  16.844  0.7372 -0.8576  2.3650
  858MPD2    N112659   3.409   4.003  16.536 -0.0077  0.4710  0.5235
  858MPD2    H712660   3.508   3.983  16.532 -0.4442 -1.6333  0.3271
  859MPD2     C12661   2.078   1.660  15.822 -0.3732 -0.0235 -0.7895
  859MPD2    C112662   2.086   1.593  15.705  0.4051  0.1549 -0.3733
  859MPD2    C212663   2.104   1.457  15.705  0.3311 -0.1443 -0.4243
  859MPD2    C312664   2.130   1.388  15.828  0.4441  0.1564  0.1186
  859MPD2    C412665   2.128   1.462  15.946 -0.0301 -0.5390  0.0664
  859MPD2    C512666   2.103   1.598  15.943  0.0730  0.5769  0.4925
  859MPD2     H12667   2.098   1.406  15.609  0.1582  1.3248 -1.1997
  859MPD2    H112668   2.148   1.412  16.040  1.3506  1.0180  0.5911
  859MPD2    H212669   2.061   1.767  15.832  0.0033  0.1567 -2.0465
  859MPD2    H312670   2.108   1.644  16.041  0.0933  1.8357 -0.0910
  859MPD2     N12671   2.163   1.251  15.837 -0.0149  1.1543  0.0093
  859MPD2    H512672   2.178   1.208  15.928 -1.6024  0.6529  0.0369
  859MPD2    N112673   2.066   1.676  15.591 -0.0154 -0.1780 -0.2253
  859MPD2    H712674   2.066   1.777  15.598  3.0089 -0.2809  1.3955
  860MPD2     C12675   4.153   2.459  11.801 -0.0880  0.3330 -0.0122
  860MPD2    C112676   4.249   2.404  11.891  0.2835  0.4843  0.7397
  860MPD2    C212677   4.239   2.275  11.929  0.3980 -0.2688  0.5868
  860MPD2    C312678   4.129   2.202  11.887 -0.0458  0.4435  0.5665
  860MPD2    C412679   4.029   2.255  11.805  0.1231  0.2041  0.3013
  860MPD2    C512680   4.037   2.386  11.771  0.0490 -0.1311  0.4335
  860MPD2     H12681   4.306   2.234  12.004  0.7397 -2.2594 -0.8010
  860MPD2    H112682   3.929   2.214  11.806  0.4692 -0.6810 -1.7867
  860MPD2    H212683   4.158   2.557  11.756  0.0851  0.3165 -0.0287
  860MPD2    H312684   3.963   2.437  11.711  1.2492 -0.8803 -1.6573
  860MPD2     N12685   4.114   2.065  11.934  0.3078  0.3208  0.1691
  860MPD2    H512686   4.022   2.026  11.914  0.4865  0.6624 -1.2923
  860MPD2    N112687   4.360   2.473  11.944 -0.1494  0.2198  0.1468
  860MPD2    H712688   4.397   2.423  12.025  2.4419  0.7154 -0.7464
  861MPD2     C12689   3.150   0.050  11.172  0.3035  0.0015  0.0969
  861MPD2    C112690   3.038   0.052  11.255 -0.3490 -0.5463  0.3817
  861MPD2    C212691   2.918   0.112  11.208 -0.1488  0.9689 -0.1708
  861MPD2    C312692   2.913   0.158  11.075 -0.2103 -0.3964  0.3687
  861MPD2    C412693   3.014   0.130  10.985 -0.1164 -0.2338  0.7414
  861MPD2    C512694   3.133   0.082  11.040 -0.1971  0.0504  0.5898
  861MPD2     H12695   2.833   0.121  11.276 -0.5391 -0.4228 -0.4711
  861MPD2    H112696   3.009   0.151  10.879  0.9031 -0.5740  0.6287
  861MPD2    H212697   3.248   0.013  11.200 -0.7260 -0.5937  2.8952
  861MPD2    H312698   3.219   0.069  10.976  1.2881  2.3320  2.1453
  861MPD2     N12699   2.819   0.241  11.024 -0.1570  0.3708  0.7587
  861MPD2    H512700   2.825   0.253  10.924 -1.4090 -0.4632  0.5748
  861MPD2    N112701   3.050   0.040  11.397 -0.1995 -0.0180  0.3318
  861MPD2    H712702   2.971   0.025  11.459 -1.1450  0.6428 -0.7347
  862MPD2     C12703   2.433   0.595  10.509 -1.4453 -0.0521  0.0693
  862MPD2    C112704   2.496   0.491  10.583  0.4018  0.3006 -0.4470
  862MPD2    C212705   2.475   0.361  10.551 -0.1947 -0.4366 -0.1276
  862MPD2    C312706   2.410   0.326  10.440  0.0913 -0.0257  0.3211
  862MPD2    C412707   2.359   0.421  10.352  0.4327  0.1776  0.3802
  862MPD2    C512708   2.373   0.553  10.390 -0.3732  0.6486  0.6152
  862MPD2     H12709   2.536   0.296  10.613 -2.1943 -0.8344  1.4308
  862MPD2    H112710   2.315   0.393  10.257  0.5573 -1.6610  0.8662
  862MPD2    H212711   2.437   0.703  10.523 -1.5823 -0.0594  0.1642
  862MPD2    H312712   2.345   0.636  10.326 -2.0397 -0.6629 -0.3601
  862MPD2     N12713   2.405   0.189  10.403 -0.0210  0.4887  0.6470
  862MPD2    H512714   2.350   0.162  10.322  0.4833 -0.5254  0.6485
  862MPD2    N112715   2.557   0.505  10.705  0.0007 -0.0553 -0.1993
  862MPD2    H712716   2.599   0.425  10.752  0.1750 -0.9529 -1.8746
  863MPD2     C12717   1.914   2.889  17.030 -0.3347 -0.4594  0.1542
  863MPD2    C112718   1.887   3.019  17.060  0.3620  1.0397 -0.8257
  863MPD2    C212719   1.967   3.079  17.153  0.3762 -0.4600  0.0806
  863MPD2    C312720   2.069   3.003  17.215  0.0840 -0.7136  0.0926
  863MPD2    C412721   2.090   2.874  17.195 -0.5676 -0.0744  0.2778
  863MPD2    C512722   2.013   2.821  17.096 -0.0469  0.4795  0.1422
  863MPD2     H12723   1.944   3.183  17.174  0.1149 -0.4595 -0.2074
  863MPD2    H112724   2.161   2.820  17.257 -0.0234  2.5499  1.9245
  863MPD2    H212725   1.849   2.829  16.967  2.3177 -1.4708 -1.6331
  863MPD2    H312726   2.020   2.717  17.067  1.2807  0.9343 -1.1431
  863MPD2     N12727   2.141   3.047  17.331  0.2607  0.0412 -0.1546
  863MPD2    H512728   2.171   2.986  17.407 -0.4958 -0.2605 -0.0910
  863MPD2    N112729   1.777   3.084  16.997  0.3461  0.2166  0.4514
  863MPD2    H712730   1.711   3.023  16.949  0.3647 -0.2189  0.9794
  864MPD2     C12731   2.198   4.287  17.470 -0.6364  0.5851  0.0248
  864MPD2    C112732   2.229   4.237  17.346 -0.0658 -0.3298  0.3908
  864MPD2    C212733   2.324   4.310  17.270 -0.6099 -0.1473 -0.4531
  864MPD2    C312734   2.396   4.420  17.331 -0.0290  0.9451 -0.2523
  864MPD2    C412735   2.366   4.464  17.451  0.3225 -0.4452  0.0565
  864MPD2    C512736   2.261   4.407  17.518  0.6449 -0.4752 -0.2895
  864MPD2     H12737   2.343   4.274  17.169 -2.9419 -2.6178 -0.0223
  864MPD2    H112738   2.406   4.556  17.491 -0.4398  0.8635 -2.2087
  864MPD2    H212739   2.125   4.239  17.534  0.4684 -1.0166  0.0850
  864MPD2    H312740   2.224   4.440  17.615  0.0396  1.0266 -1.0275
  864MPD2     N12741   2.509   4.477  17.267 -0.0894  0.0311 -0.5175
  864MPD2    H512742   2.564   4.533  17.332 -0.4745  1.1433 -1.1652
  864MPD2    N112743   2.182   4.119  17.296  0.3807  0.0605 -0.0736
  864MPD2    H712744   2.133   4.067  17.369 -0.1991  3.5382  2.0241
  865MPD2     C12745   2.858   4.509  16.338  0.0550  1.3162  0.3076
  865MPD2    C112746   2.823   4.395  16.406 -0.5975 -0.0463 -0.0852
  865MPD2    C212747   2.816   4.387  16.540  0.0538 -0.0827 -0.0068
  865MPD2    C312748   2.842   4.502  16.608  0.2330  0.1903 -0.0892
  865MPD2    C412749   2.852   4.621  16.545  0.1931  0.0987  0.4934
  865MPD2    C512750   2.858   4.626  16.405 -0.0034 -0.2842  0.0673
  865MPD2     H12751   2.784   4.300  16.596  2.0040 -0.9769 -0.2717
  865MPD2    H112752   2.859   4.707  16.612 -1.7823 -0.6756  1.7100
  865MPD2    H212753   2.858   4.514  16.229 -1.2163 -1.1214  0.1920
  865MPD2    H312754   2.865   4.724  16.359  0.8184  0.2689  1.3735
  865MPD2     N12755   2.845   4.507  16.749  0.1598 -0.0923 -0.0767
  865MPD2    H512756   2.839   4.599  16.792 -0.9273  0.4443 -1.3689
  865MPD2    N112757   2.786   4.282  16.326  0.1224  0.2099 -0.5513
  865MPD2    H712758   2.827   4.283  16.233  0.1588  1.9225 -0.5225
  866MPD2     C12759   3.719   0.245  11.500 -0.0594  0.0497  0.1568
  866MPD2    C112760   3.677   0.215  11.377 -0.4644  0.0332  0.5763
  866MPD2    C212761   3.553   0.233  11.337 -0.1026 -0.2775  0.2132
  866MPD2    C312762   3.465   0.288  11.432 -0.0681  0.4225  0.2074
  866MPD2    C412763   3.495   0.292  11.566  0.1978 -0.5861  0.0957
  866MPD2    C512764   3.625   0.270  11.598 -0.3592 -0.2771 -0.3082
  866MPD2     H12765   3.528   0.210  11.234  0.1618 -0.2650  0.1471
  866MPD2    H112766   3.428   0.321  11.647  1.4313  1.3687  0.4060
  866MPD2    H212767   3.821   0.227  11.533  1.4290  3.0630 -2.7671
  866MPD2    H312768   3.640   0.286  11.704 -0.0741 -2.3930 -0.0307
  866MPD2     N12769   3.338   0.340  11.393 -0.5895  0.5829  0.3136
  866MPD2    H512770   3.287   0.379  11.472 -0.0517 -0.9496  1.4373
  866MPD2    N112771   3.777   0.155  11.298 -0.4813 -0.1710 -0.3467
  866MPD2    H712772   3.873   0.160  11.332 -0.9342 -3.3620  1.3158
  867MPD2     C12773   1.873   4.217  16.397 -1.2315  0.0367  0.4233
  867MPD2    C112774   1.822   4.262  16.510 -1.0014 -0.1575  1.1342
  867MPD2    C212775   1.790   4.392  16.518 -1.1062  0.3683 -0.4282
  867MPD2    C312776   1.801   4.477  16.408  0.3559 -0.9004 -0.9799
  867MPD2    C412777   1.851   4.421  16.292  0.3397 -0.3080  0.0525
  867MPD2    C512778   1.895   4.290  16.289  1.0348  0.6596  0.0936
  867MPD2     H12779   1.750   4.432  16.610 -1.9908  0.1099 -0.7061
  867MPD2    H112780   1.870   4.475  16.200 -1.3174  1.2792  0.6521
  867MPD2    H212781   1.908   4.114  16.398  0.2135  0.5342  1.2772
  867MPD2    H312782   1.939   4.245  16.201  0.7426  2.3443 -0.9133
  867MPD2     N12783   1.775   4.618  16.413  0.1499  1.1480  0.2584
  867MPD2    H512784   1.789   4.669  16.327 -1.6415 -2.9730 -2.4916
  867MPD2    N112785   1.817   4.177  16.615 -0.5374 -0.0618  0.2322
  867MPD2    H712786   1.851   4.082  16.605  0.8724  0.4161  0.4138
  868MPD2     C12787   2.893   3.588  13.038  0.3473 -0.5428 -0.2469
  868MPD2    C112788   2.910   3.476  13.118 -1.0800  0.2651  0.3793
  868MPD2    C212789   2.849   3.471  13.242 -0.0645 -0.1025 -0.0903
  868MPD2    C312790   2.790   3.578  13.298  0.3724 -1.0698  0.2681
  868MPD2    C412791   2.772   3.691  13.218  0.5507 -0.1327 -0.7792
  868MPD2    C512792   2.827   3.692  13.093 -0.2174  0.0073  0.2305
  868MPD2     H12793   2.855   3.385  13.308  0.4545 -1.6015 -2.1084
  868MPD2    H112794   2.743   3.786  13.261 -1.3505 -1.4752  0.8960
  868MPD2    H212795   2.940   3.589  12.941  1.7642  0.7477  0.4487
  868MPD2    H312796   2.826   3.788  13.042  1.3598  0.1042  0.3699
  868MPD2     N12797   2.743   3.566  13.429 -0.3260  0.2272  0.4167
  868MPD2    H512798   2.763   3.481  13.481 -3.0336 -0.4483  0.3852
  868MPD2    N112799   2.984   3.366  13.068  0.8557  0.4136  0.4225
  868MPD2    H712800   3.023   3.390  12.978 -1.6475 -0.9324 -1.0095
  869MPD2     C12801   4.156   3.126   1.967 -0.1558  0.0314 -0.0963
  869MPD2    C112802   4.106   3.091   1.845  0.3830  0.0307  0.4171
  869MPD2    C212803   4.176   3.130   1.733  0.3495  0.0371 -0.2382
  869MPD2    C312804   4.284   3.223   1.739  0.0736  0.5695 -0.1018
  869MPD2    C412805   4.335   3.248   1.858  0.2852 -0.5672  0.2835
  869MPD2    C512806   4.272   3.199   1.972  0.7287 -0.1313 -0.0194
  869MPD2     H12807   4.157   3.071   1.644  0.6866  0.7908 -0.8185
  869MPD2    H112808   4.417   3.314   1.882  0.8747 -1.9183  1.9267
  869MPD2    H212809   4.101   3.099   2.057  0.4159  1.7278  0.7699
  869MPD2    H312810   4.325   3.219   2.064  2.5145  0.3752 -1.1721
  869MPD2     N12811   4.354   3.267   1.626  0.6720  0.5275  0.2818
  869MPD2    H512812   4.442   3.315   1.638  1.3478 -0.9972  1.4825
  869MPD2    N112813   4.003   2.990   1.853 -0.4462  0.2880 -0.3128
  869MPD2    H712814   3.984   2.959   1.948  0.7189  1.3962  0.2709
  870MPD2     C12815   3.661   1.041   1.791  0.2551 -0.5313 -0.9196
  870MPD2    C112816   3.533   1.085   1.825  0.0787  0.1743  0.3142
  870MPD2    C212817   3.450   1.136   1.730  0.6395 -0.0612  0.3192
  870MPD2    C312818   3.489   1.134   1.599  0.5872 -0.8469  0.0915
  870MPD2    C412819   3.615   1.095   1.569  0.0441  0.0377 -0.0454
  870MPD2    C512820   3.701   1.042   1.659 -0.1938 -0.5660 -0.4868
  870MPD2     H12821   3.346   1.158   1.750 -0.1122 -3.7293  0.4437
  870MPD2    H112822   3.653   1.109   1.469  1.0449  0.4504  0.3923
  870MPD2    H212823   3.730   1.015   1.871 -0.6729  1.6171  0.5902
  870MPD2    H312824   3.799   1.000   1.640  0.9203  0.6627  2.5168
  870MPD2     N12825   3.403   1.167   1.482  0.3612  0.3478 -0.7405
  870MPD2    H512826   3.448   1.176   1.391 -0.3052  1.0904 -1.0031
  870MPD2    N112827   3.503   1.095   1.962  0.2017 -0.2357 -0.2125
  870MPD2    H712828   3.565   1.031   2.010  1.3518  1.7168  0.8572
  871MPD2     C12829   4.697   4.593  16.374  0.0237  0.1828 -0.5566
  871MPD2    C112830   4.704   4.560  16.510 -1.0025 -0.4072 -0.0702
  871MPD2    C212831   0.043   4.451  16.536 -0.0075  0.1023 -0.1887
  871MPD2    C312832   0.099   4.373  16.439  0.2019 -0.1310 -0.0916
  871MPD2    C412833   0.102   4.410  16.304 -0.0115 -0.3689  0.3941
  871MPD2    C512834   0.032   4.529  16.278  0.3571  0.9686 -0.2277
  871MPD2     H12835   0.052   4.405  16.633  0.1551 -1.2260 -0.8349
  871MPD2    H112836   0.138   4.354  16.218 -0.1095 -0.1528  0.2104
  871MPD2    H212837   4.648   4.685  16.342  1.3759  0.6806 -1.1983
  871MPD2    H312838   0.028   4.566  16.176  0.3645  4.4281  1.0146
  871MPD2     N12839   0.154   4.251  16.478 -0.2650  0.9082 -0.4591
  871MPD2    H512840   0.145   4.225  16.575 -1.1026  0.4504 -0.6611
  871MPD2    N112841   4.646   4.647  16.609 -0.5343 -0.4276  0.0038
  871MPD2    H712842   4.599   4.731  16.575  1.0713 -0.2802 -1.8671
  872MPD2     C12843   0.684   2.316  13.663 -0.1925  0.0121 -0.7296
  872MPD2    C112844   0.746   2.268  13.772 -1.2846 -0.6047 -0.0914
  872MPD2    C212845   0.678   2.262  13.892  0.0019 -0.2173 -0.2479
  872MPD2    C312846   0.541   2.276  13.889  0.5902 -0.3735  0.0332
  872MPD2    C412847   0.481   2.323  13.776  0.0986 -1.0436  0.5423
  872MPD2    C512848   0.550   2.341  13.661 -0.1914 -0.2901 -0.7842
  872MPD2     H12849   0.740   2.239  13.978 -0.1492 -2.5798 -0.7810
  872MPD2    H112850   0.373   2.325  13.780 -0.0102 -1.0725 -1.9919
  872MPD2    H212851   0.736   2.327  13.568 -0.7494  0.2041 -1.0172
  872MPD2    H312852   0.505   2.357  13.564 -1.3288  1.1517 -0.0185
  872MPD2     N12853   0.456   2.239  14.001  0.4850 -0.0311  0.0615
  872MPD2    H512854   0.356   2.250  13.993  0.2358 -1.7068  1.0535
  872MPD2    N112855   0.884   2.236  13.770  0.3576 -0.2567 -0.6017
  872MPD2    H712856   0.933   2.204  13.853  1.4191 -0.6954 -1.3977
  873MPD2     C12857   3.826   3.142   1.323 -0.1629  1.1507  0.4800
  873MPD2    C112858   3.727   3.106   1.405 -0.1429  0.2959  0.0976
  873MPD2    C212859   3.643   2.998   1.371 -0.9127  0.1762  0.4779
  873MPD2    C312860   3.657   2.925   1.255 -0.5199 -0.0104 -0.3601
  873MPD2    C412861   3.746   2.975   1.163  0.2268 -0.4443 -0.1323
  873MPD2    C512862   3.834   3.074   1.207 -0.1882  0.1520  0.7006
  873MPD2     H12863   3.573   2.964   1.447  2.5979 -1.5554  2.9316
  873MPD2    H112864   3.762   2.934   1.063 -2.2539 -0.7582 -0.3832
  873MPD2    H212865   3.902   3.214   1.350 -0.4305  1.6333 -0.0418
  873MPD2    H312866   3.917   3.108   1.145 -0.5257  1.2421  0.8446
  873MPD2     N12867   3.595   2.797   1.221  0.1110 -0.3492  0.3864
  873MPD2    H512868   3.631   2.757   1.135 -2.0359  0.3104 -0.8274
  873MPD2    N112869   3.726   3.176   1.532  0.5324  0.2897 -0.0602
  873MPD2    H712870   3.793   3.251   1.543  1.0699 -0.1362 -0.4440
  874MPD2     C12871   2.268   2.338  16.320  0.1437 -0.2172 -0.2885
  874MPD2    C112872   2.340   2.412  16.402  0.9338  0.0199 -0.2283
  874MPD2    C212873   2.431   2.504  16.350  0.0674 -0.4020  0.3253
  874MPD2    C312874   2.453   2.513  16.209 -0.2762 -0.0317  0.6182
  874MPD2    C412875   2.380   2.435  16.121 -0.2289  0.4858  0.2448
  874MPD2    C512876   2.289   2.350  16.182 -0.3394 -0.3270  0.3702
  874MPD2     H12877   2.490   2.567  16.415  2.2888 -1.6192 -0.5221
  874MPD2    H112878   2.387   2.451  16.014  2.6033  1.2747  0.5416
  874MPD2    H212879   2.194   2.271  16.361  0.5551 -0.6969 -0.3295
  874MPD2    H312880   2.228   2.307  16.104  2.3605  0.5631 -2.2416
  874MPD2     N12881   2.551   2.600  16.169  0.4862  0.7941 -0.1316
  874MPD2    H512882   2.589   2.662  16.241 -0.8733  2.5940 -0.9847
  874MPD2    N112883   2.329   2.376  16.533 -1.0744  0.1534 -0.3948
  874MPD2    H712884   2.259   2.307  16.558  0.1509 -1.0935 -0.4197
  875MPD2     C12885   3.397   0.344  14.126  1.2035 -0.6436  0.0092
  875MPD2    C112886   3.304   0.379  14.224  0.0216 -0.0240 -0.2566
  875MPD2    C212887   3.345   0.376  14.354  0.3213 -0.4914  0.6503
  875MPD2    C312888   3.467   0.323  14.398  0.2491  0.2190  0.1757
  875MPD2    C412889   3.547   0.272  14.295 -0.1457 -0.1407  0.5691
  875MPD2    C512890   3.509   0.276  14.163  0.1624  0.1031 -0.1246
  875MPD2     H12891   3.279   0.412  14.432  1.2452  2.3639  0.1054
  875MPD2    H112892   3.636   0.212  14.314  0.9526  1.2368 -0.3081
  875MPD2    H212893   3.364   0.341  14.023  1.4931 -0.5823 -0.0876
  875MPD2    H312894   3.570   0.232  14.086  2.5139 -0.5028  2.1071
  875MPD2     N12895   3.513   0.313  14.535 -0.1520  0.6651 -0.4857
  875MPD2    H512896   3.607   0.280  14.555 -0.4667  0.2785  0.3171
  875MPD2    N112897   3.179   0.424  14.176 -0.0320  0.0792 -0.2316
  875MPD2    H712898   3.160   0.417  14.076 -2.1841  3.5451 -0.0543
  876MPD2     C12899   2.031   1.981  16.199 -0.0818  0.6806  0.8347
  876MPD2    C112900   2.158   1.947  16.160  0.1238 -0.4965  0.1152
  876MPD2    C212901   2.215   1.832  16.211  0.3602 -0.7261 -0.1839
  876MPD2    C312902   2.144   1.749  16.300 -0.1247 -0.1404  0.7469
  876MPD2    C412903   2.024   1.794  16.351  0.2703  0.2404  0.3258
  876MPD2    C512904   1.978   1.910  16.301 -0.0858  0.1529  0.6924
  876MPD2     H12905   2.316   1.803  16.186  0.2583 -0.5480 -0.7984
  876MPD2    H112906   1.968   1.740  16.427  1.4564 -2.7529 -0.9234
  876MPD2    H212907   1.982   2.072  16.166 -1.0013 -0.0248  0.2600
  876MPD2    H312908   1.877   1.941  16.326  0.7060  2.5728  0.8633
  876MPD2     N12909   2.203   1.622  16.336 -0.1173  0.0831 -0.0613
  876MPD2    H512910   2.284   1.589  16.286  0.5097 -0.9779  1.6472
  876MPD2    N112911   2.227   2.040  16.079  0.0568 -0.2814 -0.0715
  876MPD2    H712912   2.189   2.131  16.057  0.1990  0.5309  3.0628
  877MPD2     C12913   2.121   2.290  15.364 -0.0342 -0.5559  0.5836
  877MPD2    C112914   2.254   2.319  15.397 -0.1211 -0.0120  0.0227
  877MPD2    C212915   2.334   2.357  15.290  0.4441  0.4962  0.5689
  877MPD2    C312916   2.285   2.379  15.163  0.2708 -0.5967 -0.7683
  877MPD2    C412917   2.150   2.352  15.135  0.4337 -0.2934 -0.0356
  877MPD2    C512918   2.072   2.297  15.234  0.5589  0.3041  0.2234
  877MPD2     H12919   2.436   2.382  15.317 -0.6786  3.5366  1.9268
  877MPD2    H112920   2.118   2.355  15.031 -2.4437  1.0675  0.8792
  877MPD2    H212921   2.059   2.250  15.443 -2.4471 -0.7933 -1.4145
  877MPD2    H312922   1.974   2.270  15.198  0.4411  2.2357 -0.9041
  877MPD2     N12923   2.364   2.428  15.057 -0.4683 -0.3501  0.6878
  877MPD2    H512924   2.332   2.425  14.960 -0.1270  0.7932  0.5343
  877MPD2    N112925   2.307   2.299  15.527 -0.2286 -0.4398  0.5757
  877MPD2    H712926   2.404   2.328  15.537  0.3481 -1.6624 -1.3550
  878MPD2     C12927   2.482   1.381  13.327  0.1032  0.0608  0.3282
  878MPD2    C112928   2.341   1.414  13.320 -0.2880  0.2657  0.3561
  878MPD2    C212929   2.268   1.385  13.431 -0.4272 -0.3928  0.3434
  878MPD2    C312930   2.325   1.340  13.548 -0.0220  0.6318  0.3005
  878MPD2    C412931   2.457   1.317  13.553  0.4707  0.7324  0.2522
  878MPD2    C512932   2.533   1.321  13.438  0.1473  0.0214  0.4703
  878MPD2     H12933   2.161   1.392  13.417 -0.4957 -0.3466  0.8929
  878MPD2    H112934   2.505   1.287  13.646 -0.4012 -0.3515  0.3426
  878MPD2    H212935   2.548   1.401  13.243 -0.6787  1.1546 -0.0216
  878MPD2    H312936   2.638   1.297  13.451  0.6995  0.9901 -2.2468
  878MPD2     N12937   2.232   1.310  13.652  0.3619  0.4164  0.2616
  878MPD2    H512938   2.133   1.325  13.637  0.2219  1.5947  2.2631
  878MPD2    N112939   2.302   1.468  13.197 -0.5557  0.2947  0.6644
  878MPD2    H712940   2.379   1.490  13.135 -1.0275 -0.9218 -0.3619
  879MPD2     C12941   2.714   3.375  17.384 -0.5033  0.0196 -0.7496
  879MPD2    C112942   2.703   3.257  17.450 -0.1968 -0.0774  0.4099
  879MPD2    C212943   2.657   3.142  17.385 -0.5059 -0.7195 -0.3129
  879MPD2    C312944   2.621   3.145  17.255  0.7497 -0.0580 -0.2999
  879MPD2    C412945   2.618   3.262  17.192  0.0021 -0.1980  0.0886
  879MPD2    C512946   2.665   3.380  17.256 -0.9604 -0.4248  0.4326
  879MPD2     H12947   2.671   3.057  17.450 -0.0116 -0.3332  0.0834
  879MPD2    H112948   2.581   3.281  17.092  2.7800 -0.0125 -0.9040
  879MPD2    H212949   2.741   3.466  17.437 -0.3429 -0.2171 -0.4219
  879MPD2    H312950   2.662   3.473  17.201 -0.5899 -0.6189  0.0804
  879MPD2     N12951   2.573   3.037  17.180  0.0017 -0.1884  0.4010
  879MPD2    H512952   2.523   3.059  17.094 -1.3417  0.8548  1.4592
  879MPD2    N112953   2.754   3.264  17.581  0.3305  0.1183  0.3921
  879MPD2    H712954   2.787   3.354  17.615 -0.1362  0.2285  0.5550
  880MPD2     C12955   3.687   0.102   0.404 -0.0970 -0.4903  0.5421
  880MPD2    C112956   3.721   0.162   0.520 -0.6832 -0.4332  0.4424
  880MPD2    C212957   3.778   0.082   0.620 -0.2237  0.3299 -0.6964
  880MPD2    C312958   3.795   4.683   0.595  1.4952 -0.3200 -0.0450
  880MPD2    C412959   3.747   4.622   0.482  0.3345  0.0442  0.1543
  880MPD2    C512960   3.694   4.704   0.386 -0.1250 -0.2561  0.7626
  880MPD2     H12961   3.813   0.126   0.712  0.9814  1.3809 -1.6489
  880MPD2    H112962   3.748   4.516   0.461 -1.7088 -0.0076  0.3233
  880MPD2    H212963   3.650   0.155   0.317 -0.0390 -0.5013  0.5106
  880MPD2    H312964   3.663   4.652   0.296  0.9787  0.7313 -0.1901
  880MPD2     N12965   3.861   4.599   0.692  0.1249  0.9312  0.0835
  880MPD2    H512966   3.887   4.632   0.785 -1.4524  0.8837  0.5413
  880MPD2    N112967   3.719   0.301   0.513 -0.1355  0.8295  0.1960
  880MPD2    H712968   3.703   0.347   0.424 -0.1958  1.8202  0.7061
  881MPD2     C12969   3.436   0.820  17.547  0.1072 -0.3540 -0.0564
  881MPD2    C112970   3.552   0.740  17.567  0.1510 -1.3430  0.3414
  881MPD2    C212971   3.585   0.701  17.694  0.2215  0.1278  0.3330
  881MPD2    C312972   3.489   0.718   0.047  0.0238 -0.1503 -0.2985
  881MPD2    C412973   3.362   0.768   0.020 -0.0236  0.5303  0.2330
  881MPD2    C512974   3.343   0.824  17.647  0.4227  0.0578  0.0523
  881MPD2     H12975   3.685   0.670  17.722 -0.4195  0.6973  3.1746
  881MPD2    H112976   3.293   0.786   0.101 -1.4671 -1.4402 -0.5778
  881MPD2    H212977   3.413   0.872  17.454 -0.2684 -0.0371  0.2120
  881MPD2    H312978   3.254   0.883  17.629  0.1133  0.1113  1.8151
  881MPD2     N12979   3.514   0.695   0.182  0.1271  0.5302 -0.1509
  881MPD2    H512980   3.445   0.721   0.251  1.6352  0.6794  1.3015
  881MPD2    N112981   3.656   0.750  17.473  0.4573 -0.4996 -0.8197
  881MPD2    H712982   3.637   0.790  17.382 -0.5027 -0.8348 -0.7626
  882MPD2     C12983   2.418   2.067  14.462 -0.0254 -0.6485  0.0468
  882MPD2    C112984   2.362   2.176  14.517  0.0742 -0.3341  0.0921
  882MPD2    C212985   2.225   2.188  14.505 -0.1450 -0.1905  0.3308
  882MPD2    C312986   2.151   2.093  14.435 -0.1831  0.1649  0.3447
  882MPD2    C412987   2.207   1.983  14.372 -0.0384 -0.4885 -0.2171
  882MPD2    C512988   2.341   1.976  14.393 -0.5357  0.1584 -0.6915
  882MPD2     H12989   2.173   2.257  14.571 -0.9311 -2.2635  1.8701
  882MPD2    H112990   2.159   1.905  14.314 -1.0218 -0.8373  1.0554
  882MPD2    H212991   2.522   2.036  14.467  0.5350  1.8424  3.3419
  882MPD2    H312992   2.399   1.892  14.358  0.2660  1.0466 -1.5004
  882MPD2     N12993   2.016   2.097  14.428  0.7499  0.0557  0.4053
  882MPD2    H512994   1.972   2.017  14.384  0.0157 -0.3817  1.9342
  882MPD2    N112995   2.447   2.265  14.585  0.5553  0.4106  0.3211
  882MPD2    H712996   2.543   2.238  14.600  0.5302 -1.0679 -2.2309
  883MPD2     C12997   4.362   2.598  16.730  0.2394 -0.4436 -0.5589
  883MPD2    C112998   4.441   2.527  16.642 -0.1855  0.1916 -0.2382
  883MPD2    C212999   4.574   2.528  16.659 -0.1484  0.6048 -0.1143
  883MPD2    C313000   4.638   2.594  16.756 -0.2241  0.2441  0.6532
  883MPD2    C413001   4.568   2.672  16.837 -0.0263  0.3156 -0.3704
  883MPD2    C513002   4.428   2.677  16.824 -0.2948  0.7740 -0.8303
  883MPD2     H13003   4.638   2.475  16.589 -1.7590  0.6912 -1.6511
  883MPD2    H113004   4.608   2.742  16.909 -2.0199  2.4136 -1.3231
  883MPD2    H213005   4.254   2.593  16.723  0.0944  0.6836  0.8334
  883MPD2    H313006   4.372   2.746  16.885 -0.7811 -1.8559  1.7309
  883MPD2     N13007   0.037   2.578  16.756  0.4427 -0.4791 -0.1841
  883MPD2    H513008   0.078   2.515  16.688  1.7583  0.4043 -0.2102
  883MPD2    N113009   4.393   2.440  16.536  0.2880 -0.5620  0.2432
  883MPD2    H713010   4.462   2.423  16.464 -3.6853  0.3784 -3.8082
  884MPD2     C13011   1.494   2.852  15.195  0.1941 -0.1778  0.1599
  884MPD2    C113012   1.491   2.976  15.134 -0.2003 -0.4901  0.5278
  884MPD2    C213013   1.375   3.048  15.146 -0.0462  0.1259 -0.2273
  884MPD2    C313014   1.265   2.992  15.210 -1.0941  0.2030 -1.0194
  884MPD2    C413015   1.271   2.865  15.266  0.4504 -0.0363  0.1121
  884MPD2    C513016   1.386   2.800  15.260  0.6968 -0.2765 -0.0854
  884MPD2     H13017   1.370   3.134  15.081 -2.1274  1.2357  1.3931
  884MPD2    H113018   1.192   2.816  15.322  0.2197  0.4671  0.2213
  884MPD2    H213019   1.582   2.792  15.218 -0.3820 -0.5540  1.3779
  884MPD2    H313020   1.398   2.703  15.306 -0.9946 -0.5032 -0.1207
  884MPD2     N13021   1.153   3.079  15.213  0.3147  0.2752 -0.0634
  884MPD2    H513022   1.157   3.165  15.159 -4.6050  0.4227 -0.2573
  884MPD2    N113023   1.603   3.040  15.074  0.9532  0.1943 -0.1486
  884MPD2    H713024   1.600   3.141  15.070  1.5079  0.3207  2.4674
  885MPD2     C13025   4.660   4.069   0.214 -0.0565  0.1768  0.0444
  885MPD2    C113026   4.713   3.947   0.249  0.1395 -0.6500  0.3979
  885MPD2    C213027   4.662   3.831   0.185  0.0015  0.1546 -0.2571
  885MPD2    C313028   4.570   3.846   0.088 -0.0811  0.7410 -0.0230
  885MPD2    C413029   4.521   3.970   0.056 -0.5430  0.3844  0.2759
  885MPD2    C513030   4.564   4.083   0.111 -0.0260  0.4295  0.0838
  885MPD2     H13031   4.690   3.729   0.205 -0.3306  0.7368  3.1708
  885MPD2    H113032   4.441   3.981  17.735 -2.1032 -2.3933  1.5828
  885MPD2    H213033   4.704   4.160   0.253 -0.5476  0.0202  0.9587
  885MPD2    H313034   4.513   4.178   0.096  1.0604  0.9196 -0.5698
  885MPD2     N13035   4.521   3.724   0.032 -0.1189 -0.1640  0.8467
  885MPD2    H513036   4.570   3.645   0.074 -0.7152  0.7012  3.1670
  885MPD2    N113037   0.082   3.949   0.348 -0.2615 -0.4079 -0.2177
  885MPD2    H713038   0.110   4.040   0.383  0.4415 -0.1701 -1.4082
  886MPD2     C13039   0.884   1.496  15.102  0.0256  0.2811  0.3602
  886MPD2    C113040   1.017   1.512  15.144 -0.1449 -0.1199 -0.5303
  886MPD2    C213041   1.080   1.626  15.101 -0.4191  0.6860 -0.7984
  886MPD2    C313042   1.023   1.725  15.027  0.2159  0.4628 -0.8235
  886MPD2    C413043   0.890   1.711  14.982 -0.3355 -0.2667 -0.1944
  886MPD2    C513044   0.831   1.592  15.019 -0.0840  0.3869 -0.2314
  886MPD2     H13045   1.185   1.641  15.124 -0.6594  0.2916  0.5514
  886MPD2    H113046   0.840   1.783  14.918 -1.0979 -0.8862 -0.2989
  886MPD2    H213047   0.828   1.405  15.121  0.3298  0.0904  0.3484
  886MPD2    H313048   0.732   1.575  14.980  0.6706  0.0320 -2.0318
  886MPD2     N13049   1.107   1.832  14.990  0.1455  0.7367 -0.6157
  886MPD2    H513050   1.204   1.815  15.013 -0.3585  1.6936  2.2008
  886MPD2    N113051   1.083   1.424  15.233  1.1121  0.2356 -0.0068
  886MPD2    H713052   1.180   1.441  15.261  0.7791 -0.6270  1.6835
  887MPD2     C13053   1.687   1.306  15.622 -0.6521  0.5444 -0.0729
  887MPD2    C113054   1.573   1.380  15.593  0.2220  0.9895  0.0099
  887MPD2    C213055   1.557   1.516  15.626  0.7609 -0.1650  0.3075
  887MPD2    C313056   1.656   1.580  15.696  0.4776  0.1169 -0.6989
  887MPD2    C413057   1.768   1.508  15.724 -0.8810 -0.4124  1.0119
  887MPD2    C513058   1.780   1.371  15.695 -0.3524 -0.2408  1.0062
  887MPD2     H13059   1.468   1.577  15.613  1.7099  1.4124  1.1803
  887MPD2    H113060   1.847   1.542  15.790 -0.6826  1.4898 -0.2365
  887MPD2    H213061   1.709   1.203  15.595 -2.2086  0.5215 -1.2783
  887MPD2    H313062   1.865   1.312  15.727  0.5754 -0.1926 -1.3460
  887MPD2     N13063   1.635   1.711  15.737  0.3129 -0.5132 -0.2880
  887MPD2    H513064   1.554   1.759  15.699  0.9216  0.0281 -0.8996
  887MPD2    N113065   1.455   1.320  15.539  0.4088 -0.0447  0.3057
  887MPD2    H713066   1.378   1.385  15.529  0.2217 -0.6138 -1.9103
  888MPD2     C13067   3.354   1.548  14.850 -0.8074  0.4045 -0.5060
  888MPD2    C113068   3.308   1.587  14.976 -0.0633  0.3031 -0.8452
  888MPD2    C213069   3.330   1.710  15.024 -0.7630 -0.0419 -1.3650
  888MPD2    C313070   3.392   1.811  14.946 -0.4152 -0.3225  0.1896
  888MPD2    C413071   3.424   1.776  14.815 -0.0854 -0.0395  0.2139
  888MPD2    C513072   3.412   1.646  14.773 -0.2384 -0.6028  0.5450
  888MPD2     H13073   3.290   1.734  15.122 -1.9178  0.7801 -2.0332
  888MPD2    H113074   3.487   1.832  14.747  0.7672 -1.5871 -0.2689
  888MPD2    H213075   3.341   1.452  14.800 -2.9190  0.7136 -0.5756
  888MPD2    H313076   3.465   1.616  14.683 -2.1505  0.6519 -0.9821
  888MPD2     N13077   3.415   1.946  14.998 -0.2280 -0.2403 -0.1224
  888MPD2    H513078   3.389   1.969  15.093  1.6178  3.2799 -0.4703
  888MPD2    N113079   3.236   1.493  15.056 -0.6083  0.8319 -0.5853
  888MPD2    H713080   3.201   1.510  15.150 -0.8746  3.2494 -1.1201
  889MPD2     C13081   3.043   1.453  12.904  0.6122  0.7999  0.6035
  889MPD2    C113082   3.008   1.346  12.979 -0.0932  0.0718  0.3073
  889MPD2    C213083   2.921   1.372  13.087 -0.0946  0.3628 -0.2538
  889MPD2    C313084   2.888   1.503  13.133 -0.1013  0.2248 -0.6229
  889MPD2    C413085   2.919   1.611  13.050 -0.0982 -0.1923  0.1356
  889MPD2    C513086   3.000   1.579  12.939  0.2739 -0.0022  0.7283
  889MPD2     H13087   2.880   1.294  13.149  1.3600  1.6597  2.3416
  889MPD2    H113088   2.898   1.717  13.064 -0.1102 -0.0896 -0.6663
  889MPD2    H213089   3.081   1.434  12.804  0.3403 -1.7482  0.9701
  889MPD2    H313090   3.014   1.665  12.875  0.4737 -0.8906 -0.4044
  889MPD2     N13091   2.799   1.519  13.242 -0.2244 -0.3215 -0.1679
  889MPD2    H513092   2.805   1.448  13.314 -0.7324 -2.1579 -1.9185
  889MPD2    N113093   3.031   1.213  12.929  0.1554 -0.3249 -0.3131
  889MPD2    H713094   3.001   1.139  12.992 -0.4078 -0.6103 -0.9124
  890MPD2     C13095   2.091   2.781  14.810  0.1187 -0.2747 -0.3454
  890MPD2    C113096   2.217   2.831  14.829 -0.3330 -0.0168  0.0926
  890MPD2    C213097   2.277   2.821  14.955 -0.5678  0.0606 -0.1762
  890MPD2    C313098   2.199   2.767  15.054 -0.2119  0.2016 -0.1974
  890MPD2    C413099   2.074   2.708  15.040 -0.8129 -0.2369 -0.0506
  890MPD2    C513100   2.023   2.717  14.913  0.9928  0.3146 -0.0994
  890MPD2     H13101   2.383   2.841  14.967 -1.1819  2.1175  1.7510
  890MPD2    H113102   2.032   2.638  15.111  0.7734 -1.6935 -0.5490
  890MPD2    H213103   2.037   2.782  14.716 -0.6140 -2.5175  0.0484
  890MPD2    H313104   1.930   2.664  14.896  1.0947  0.4876 -1.2206
  890MPD2     N13105   2.259   2.746  15.178  0.1728  0.8335  0.5716
  890MPD2    H513106   2.355   2.779  15.170  0.7359 -0.9179  0.1217
  890MPD2    N113107   2.276   2.890  14.715  0.0290 -0.0262  0.3581
  890MPD2    H713108   2.212   2.911  14.639 -0.1640 -0.4299  0.4090
  891MPD2     C13109   0.483   1.906  16.364 -0.4738  0.5401 -0.1381
  891MPD2    C113110   0.429   1.811  16.447  0.3305 -0.5186 -0.1327
  891MPD2    C213111   0.503   1.786  16.562 -0.5049 -0.5962 -0.0181
  891MPD2    C313112   0.618   1.850  16.594 -0.0021  0.4334  0.0057
  891MPD2    C413113   0.660   1.956  16.511 -0.0112 -0.1490  0.0129
  891MPD2    C513114   0.596   1.978  16.392 -0.5838 -0.4352  0.3285
  891MPD2     H13115   0.473   1.701  16.622 -1.1751  0.6780  1.4543
  891MPD2    H113116   0.744   2.018  16.542  0.0901 -0.6761  0.7831
  891MPD2    H213117   0.427   1.939  16.277 -1.1004 -0.5072 -0.1209
  891MPD2    H313118   0.645   2.046  16.324  0.0473 -0.1356  1.0871
  891MPD2     N13119   0.669   1.847  16.733 -0.1650 -0.1863 -0.2090
  891MPD2    H513120   0.759   1.883  16.760 -0.4853  0.7583 -0.4152
  891MPD2    N113121   0.299   1.754  16.413 -0.0360  0.5677 -0.3200
  891MPD2    H713122   0.254   1.788  16.328  1.9296 -0.2385 -1.6900
  892MPD2     C13123   1.612   2.882  14.749  0.7437 -0.5689  0.1372
  892MPD2    C113124   1.522   2.783  14.785 -0.4392 -0.0464  1.1200
  892MPD2    C213125   1.540   2.659  14.731 -0.5091  0.0869  0.2070
  892MPD2    C313126   1.645   2.627  14.640 -1.0681 -0.9670 -0.1965
  892MPD2    C413127   1.741   2.724  14.615  0.0812  0.4150  0.3841
  892MPD2    C513128   1.726   2.847  14.680  0.1545  0.2001 -0.4200
  892MPD2     H13129   1.463   2.584  14.744 -1.2735  0.8069 -0.1161
  892MPD2    H113130   1.829   2.701  14.556  1.5901  0.3259  2.7050
  892MPD2    H213131   1.592   2.984  14.779 -2.2200 -0.7074 -1.3955
  892MPD2    H313132   1.802   2.921  14.660 -0.0420  0.4159 -0.3743
  892MPD2     N13133   1.648   2.508  14.558  0.0623  0.1221 -0.2640
  892MPD2    H513134   1.726   2.493  14.494  1.3047 -1.9770  1.6962
  892MPD2    N113135   1.403   2.816  14.857 -0.2174 -0.2023  0.1558
  892MPD2    H713136   1.372   2.912  14.843  3.3184  0.9515  0.1764
  893MPD2     C13137   3.210   1.924   2.186 -0.2271  0.2862 -0.3319
  893MPD2    C113138   3.111   1.895   2.097 -0.6342 -0.1670 -0.6197
  893MPD2    C213139   2.974   1.913   2.137 -0.1559  0.2143  0.1528
  893MPD2    C313140   2.942   1.945   2.267  0.2447 -0.0522  0.4181
  893MPD2    C413141   3.039   1.949   2.363 -0.2961 -0.7228 -0.5063
  893MPD2    C513142   3.174   1.955   2.322 -0.4265 -0.0502 -0.1200
  893MPD2     H13143   2.901   1.928   2.058 -1.3034  1.6263  1.4820
  893MPD2    H113144   3.011   1.974   2.465  0.7876  0.0109 -0.3906
  893MPD2    H213145   3.315   1.932   2.161 -0.0179 -2.6268 -0.3652
  893MPD2    H313146   3.253   1.972   2.394  0.0751  2.0564 -1.1703
  893MPD2     N13147   2.811   1.978   2.306 -0.4811 -0.0955 -1.0628
  893MPD2    H513148   2.804   1.993   2.406 -1.0988 -0.5087 -1.0433
  893MPD2    N113149   3.160   1.862   1.964  0.1532 -1.0961 -0.0134
  893MPD2    H713150   3.259   1.863   1.941  0.3251  1.7343  0.8557
  894MPD2     C13151   1.460   0.018   0.724 -0.3284 -0.1555 -0.6426
  894MPD2    C113152   1.504   0.102   0.621  0.0579  0.1711  0.5065
  894MPD2    C213153   1.637   0.105   0.588 -0.3289  0.0486 -0.8254
  894MPD2    C313154   1.729   0.028   0.654 -0.0795 -0.1250 -0.2781
  894MPD2    C413155   1.681   4.680   0.754  0.4787 -0.4505 -0.5890
  894MPD2    C513156   1.549   4.671   0.784 -0.3684  0.5107 -0.1732
  894MPD2     H13157   1.670   0.166   0.504  2.0114 -1.7744 -1.2504
  894MPD2    H113158   1.746   4.610   0.805 -0.0729 -0.5251  0.0095
  894MPD2    H213159   1.361   0.022   0.770  0.0282  0.7226  0.0418
  894MPD2    H313160   1.517   4.599   0.860 -0.6559  1.1230  0.2844
  894MPD2     N13161   1.864   0.047   0.613  0.2911 -0.5767 -0.2820
  894MPD2    H513162   1.878   0.121   0.545  1.1384 -0.9271 -0.4839
  894MPD2    N113163   1.417   0.189   0.547  0.2926 -0.1212 -0.2731
  894MPD2    H713164   1.462   0.230   0.466  0.8160 -0.1158  0.0234
  895MPD2     C13165   0.632   1.542  13.818 -0.0805 -0.1358  0.2261
  895MPD2    C113166   0.554   1.576  13.714  0.1297 -0.3102 -0.2518
  895MPD2    C213167   0.555   1.498  13.602  0.2658  0.5965 -0.3865
  895MPD2    C313168   0.637   1.385  13.589 -0.3587 -0.6104  0.3039
  895MPD2    C413169   0.704   1.345  13.705 -0.0685  0.0588 -0.1178
  895MPD2    C513170   0.694   1.420  13.819  0.4815  0.6217 -0.1655
  895MPD2     H13171   0.506   1.547  13.518 -0.9243  0.6498  0.3408
  895MPD2    H113172   0.742   1.244  13.716  1.8903  1.1698  3.2225
  895MPD2    H213173   0.635   1.602  13.908  0.8104  0.2256 -0.0507
  895MPD2    H313174   0.736   1.375  13.909  0.0483  0.6669  0.0576
  895MPD2     N13175   0.640   1.304  13.474 -0.5490 -0.5358 -0.2998
  895MPD2    H513176   0.701   1.223  13.483  1.6130  1.5310  3.5240
  895MPD2    N113177   0.485   1.703  13.702 -0.4251  0.0550 -0.5917
  895MPD2    H713178   0.421   1.708  13.624  2.0677 -0.1176 -2.6488
  896MPD2     C13179   3.311   4.366   1.653 -0.5071 -0.2989  0.6956
  896MPD2    C113180   3.275   4.480   1.586  0.0541 -0.5137 -0.7485
  896MPD2    C213181   3.172   4.482   1.491  0.0574  0.1174 -0.3296
  896MPD2    C313182   3.115   4.365   1.449 -0.1159  0.2641  0.7421
  896MPD2    C413183   3.144   4.248   1.517 -0.5562  0.2599  0.2122
  896MPD2    C513184   3.243   4.249   1.617  0.2602  0.7666  0.0710
  896MPD2     H13185   3.146   4.578   1.449  1.2244 -0.7511 -3.0819
  896MPD2    H113186   3.087   4.156   1.509 -2.1039  1.3915 -1.6451
  896MPD2    H213187   3.391   4.374   1.725  0.0216  2.7494 -0.2231
  896MPD2    H313188   3.273   4.168   1.683 -0.8479  0.5092  0.2581
  896MPD2     N13189   3.024   4.378   1.342  0.1668 -0.0372  0.0750
  896MPD2    H513190   3.003   4.473   1.313 -0.4894 -0.8610 -2.1428
  896MPD2    N113191   3.328   4.610   1.608  0.2148  0.4382  0.4034
  896MPD2    H713192   3.304   4.679   1.538 -0.1088  0.5442  0.6154
  897MPD2     C13193   3.971   1.197  11.040 -0.4516  0.5456  0.5276
  897MPD2    C113194   3.848   1.256  11.039  0.8963 -0.3083 -0.7445
  897MPD2    C213195   3.753   1.211  11.132  0.0692  0.5540  0.6204
  897MPD2    C313196   3.779   1.093  11.202 -0.1084 -0.6792 -0.6798
  897MPD2    C413197   3.907   1.034  11.197  0.1534  0.1946  0.3619
  897MPD2    C513198   4.002   1.086  11.120 -0.2589  0.2056 -0.5217
  897MPD2     H13199   3.651   1.249  11.125 -0.3887 -0.6963  0.5085
  897MPD2    H113200   3.930   0.943  11.253 -0.5014 -0.2885 -0.1530
  897MPD2    H213201   4.047   1.219  10.965 -0.5362 -1.1325 -0.0684
  897MPD2    H313202   4.088   1.023  11.100 -2.2824 -2.8445  0.4124
  897MPD2     N13203   3.675   1.041  11.282 -0.3222 -0.0048 -0.3137
  897MPD2    H513204   3.587   1.091  11.279 -0.1240  0.3562  0.0043
  897MPD2    N113205   3.835   1.364  10.953 -0.4792 -0.0104  0.2223
  897MPD2    H713206   3.916   1.394  10.900 -0.1791  0.2736  0.8441
  898MPD2     C13207   1.522   2.596   0.945  0.5915  0.1112 -0.0009
  898MPD2    C113208   1.615   2.612   0.840  0.7469 -0.1277  0.0339
  898MPD2    C213209   1.568   2.660   0.717  0.6848 -0.1020  0.4713
  898MPD2    C313210   1.439   2.709   0.701  0.5442  0.7814 -0.0299
  898MPD2    C413211   1.351   2.693   0.804  0.6207  0.4375  0.1360
  898MPD2    C513212   1.391   2.633   0.925 -0.4474  0.8772 -0.4409
  898MPD2     H13213   1.641   2.663   0.637  1.3823  2.2597  1.1699
  898MPD2    H113214   1.248   2.728   0.811  0.7718  0.6231  1.4245
  898MPD2    H213215   1.549   2.570   1.047 -2.5489  0.0966  0.8477
  898MPD2    H313216   1.312   2.617   0.997  0.4746 -0.1205  0.3416
  898MPD2     N13217   1.401   2.771   0.583  0.3794 -0.3661  0.7921
  898MPD2    H513218   1.476   2.785   0.517  1.6393 -0.9547  2.0891
  898MPD2    N113219   1.756   2.580   0.852  0.5940  0.1342 -0.1371
  898MPD2    H713220   1.814   2.614   0.777  2.2225 -0.7790  0.7045
  899MPD2     C13221   2.077   2.674   0.092 -0.6975 -0.3867 -0.1374
  899MPD2    C113222   2.103   2.806   0.126 -0.1729  0.2455  1.0093
  899MPD2    C213223   2.101   2.846   0.264  0.3870  0.3657 -0.3269
  899MPD2    C313224   2.079   2.747   0.361 -0.2432 -0.3205 -0.2213
  899MPD2    C413225   2.069   2.616   0.319  0.1637 -0.6802  0.2295
  899MPD2    C513226   2.072   2.577   0.189 -0.8964  0.5320  0.1859
  899MPD2     H13227   2.134   2.946   0.291  0.0920  0.0659  1.1804
  899MPD2    H113228   2.059   2.536   0.391  0.1255 -0.3532  0.5905
  899MPD2    H213229   2.072   2.655  17.736 -0.0857 -0.2539 -0.1880
  899MPD2    H313230   2.072   2.473   0.158 -2.0817  0.7468 -0.5315
  899MPD2     N13231   2.081   2.776   0.495 -0.0133 -0.1235 -0.1361
  899MPD2    H513232   2.053   2.700   0.556  0.3212 -0.4185 -0.3470
  899MPD2    N113233   2.155   2.894   0.027 -0.4702  0.2087  0.0386
  899MPD2    H713234   2.179   2.863  17.684 -1.1655 -0.7836  0.1870
  900MPD2     C13235   1.622   4.109  12.597 -0.1542 -0.5304  0.0013
  900MPD2    C113236   1.519   4.021  12.629  0.3379 -0.3710  0.1204
  900MPD2    C213237   1.394   4.028  12.566  0.4387 -0.5159  0.4053
  900MPD2    C313238   1.369   4.133  12.482  0.0162  0.4659 -0.4674
  900MPD2    C413239   1.463   4.232  12.473 -0.4249 -0.0771  0.2985
  900MPD2    C513240   1.582   4.226  12.532  0.1164  0.0199  0.4337
  900MPD2     H13241   1.327   3.943  12.564  1.8651 -1.6041 -0.5733
  900MPD2    H113242   1.435   4.328  12.432 -1.3533 -1.0700 -1.4003
  900MPD2    H213243   1.724   4.091  12.630  0.4079  0.1272 -1.4037
  900MPD2    H313244   1.660   4.300  12.518 -1.4295  1.3099 -1.3765
  900MPD2     N13245   1.241   4.136  12.422 -0.4084 -0.1814 -0.4365
  900MPD2    H513246   1.167   4.077  12.456 -1.2723  0.3325 -1.4192
  900MPD2    N113247   1.550   3.920  12.716 -0.4786  1.0073  0.2120
  900MPD2    H713248   1.635   3.932  12.769 -1.5762  0.0862  2.1877
  901MPD2     C13249   1.329   2.924  12.948  0.5805 -0.4424  0.0773
  901MPD2    C113250   1.466   2.936  12.957 -1.1445 -0.6373 -0.2371
  901MPD2    C213251   1.518   3.056  12.988  0.6772 -0.2280  0.3983
  901MPD2    C313252   1.436   3.165  12.997  0.9314  0.8953  0.2133
  901MPD2    C413253   1.296   3.152  12.989 -0.5947  0.0464  0.8084
  901MPD2    C513254   1.247   3.027  12.968 -0.1268  0.1574  0.7318
  901MPD2     H13255   1.625   3.068  12.991  0.8339 -1.4096 -0.6578
  901MPD2    H113256   1.224   3.233  12.984 -1.4273 -0.6298  1.8310
  901MPD2    H213257   1.278   2.835  12.913 -0.0564 -0.2027  0.3816
  901MPD2    H313258   1.141   3.008  12.954  0.8062 -1.9762 -3.3012
  901MPD2     N13259   1.498   3.292  12.993 -0.3699  0.1751 -0.0325
  901MPD2    H513260   1.594   3.293  12.961 -0.2612 -3.6531  0.1630
  901MPD2    N113261   1.550   2.829  12.925  0.4310 -0.3547 -0.4206
  901MPD2    H713262   1.508   2.753  12.873 -1.6548  0.3776  0.1484
  902MPD2     C13263   0.840   1.822  12.929  0.3030  0.0011 -0.1011
  902MPD2    C113264   0.812   1.939  12.856 -0.1488  0.5214 -1.1220
  902MPD2    C213265   0.803   1.931  12.720 -0.8548 -0.5004 -0.0974
  902MPD2    C313266   0.810   1.811  12.657  0.3132 -1.0999 -0.4837
  902MPD2    C413267   0.840   1.699  12.726  0.4237  0.1979  0.1661
  902MPD2    C513268   0.857   1.705  12.861  0.3679 -0.1602  0.6749
  902MPD2     H13269   0.779   2.027  12.676 -1.2839 -0.2518  0.6637
  902MPD2    H113270   0.854   1.608  12.669  1.1625  1.0647 -1.0188
  902MPD2    H213271   0.851   1.823  13.037 -0.5594 -2.3761  0.0288
  902MPD2    H313272   0.882   1.617  12.920  2.4352 -0.1401 -0.1788
  902MPD2     N13273   0.794   1.793  12.516 -0.7384  0.3441 -0.3355
  902MPD2    H513274   0.796   1.700  12.477  0.8387 -0.7594  2.3855
  902MPD2    N113275   0.782   2.061  12.915 -0.6583  0.5015 -0.7392
  902MPD2    H713276   0.755   2.137  12.853 -0.5908  1.9320  0.9703
  903MPD2     C13277   0.569   2.338  11.903 -0.1268 -0.3915  1.1928
  903MPD2    C113278   0.491   2.270  11.998  0.5466 -0.7247 -0.3364
  903MPD2    C213279   0.364   2.313  12.033  0.3796  0.0995  0.7616
  903MPD2    C313280   0.317   2.425  11.966 -0.0585  0.0782  0.2683
  903MPD2    C413281   0.392   2.485  11.866  0.0451  1.0918  0.4496
  903MPD2    C513282   0.514   2.444  11.835  0.2987  0.2859  0.5353
  903MPD2     H13283   0.309   2.258  12.108  0.9538  2.4122  2.8648
  903MPD2    H113284   0.349   2.563  11.803 -0.6063  1.2488  1.0975
  903MPD2    H213285   0.672   2.322  11.872  0.0995  1.0939  1.1715
  903MPD2    H313286   0.567   2.484  11.749  0.0266 -0.4621  0.0189
  903MPD2     N13287   0.190   2.479  12.010  0.0565 -0.1715  0.0306
  903MPD2    H513288   0.132   2.440  12.084 -0.2623 -0.6477 -0.4646
  903MPD2    N113289   0.546   2.158  12.064  0.3282 -0.3502 -0.8878
  903MPD2    H713290   0.492   2.112  12.136 -2.0146  0.5483 -2.0393
  904MPD2     C13291   0.620   0.951  13.989  0.6036 -0.6253  0.3326
  904MPD2    C113292   0.605   0.988  13.857 -0.3488  0.4548 -0.1055
  904MPD2    C213293   0.714   0.976  13.777  0.6711  0.0128 -0.3252
  904MPD2    C313294   0.833   0.930  13.832 -0.1858 -0.4588 -0.5269
  904MPD2    C413295   0.838   0.867  13.952 -0.7130  0.3967  0.3167
  904MPD2    C513296   0.732   0.881  14.031 -0.2855 -0.0337  0.7936
  904MPD2     H13297   0.711   1.008  13.674  0.0527  1.9523  0.2936
  904MPD2    H113298   0.924   0.814  13.990  1.8218  4.4204  0.1533
  904MPD2    H213299   0.535   0.965  14.054 -0.1292 -0.1881 -0.7250
  904MPD2    H313300   0.733   0.841  14.132 -1.3033  2.4220  1.7764
  904MPD2     N13301   0.947   0.940  13.746 -0.9795  0.1747  0.0434
  904MPD2    H513302   0.936   0.987  13.657 -0.4562 -0.8118 -0.5439
  904MPD2    N113303   0.482   1.047  13.822 -0.1807 -0.2432  0.3327
  904MPD2    H713304   0.410   1.068  13.892 -1.4001  3.1333 -1.9304
  905MPD2     C13305   0.146   1.463  13.067  0.0560 -0.0905  0.1587
  905MPD2    C113306   0.210   1.358  13.134  0.2497  0.2799  0.2105
  905MPD2    C213307   0.314   1.291  13.069 -0.1248 -0.2906 -0.1383
  905MPD2    C313308   0.359   1.343  12.945 -0.4350 -0.1335  0.4684
  905MPD2    C413309   0.287   1.446  12.878 -0.0865  0.1991  0.3190
  905MPD2    C513310   0.184   1.505  12.941 -0.0054  0.8371  0.0129
  905MPD2     H13311   0.360   1.206  13.119 -0.6686 -0.7409 -0.3951
  905MPD2    H113312   0.313   1.483  12.779  0.2876  1.6326  0.9465
  905MPD2    H213313   0.071   1.530  13.108  1.3391 -0.4179  3.0306
  905MPD2    H313314   0.131   1.584  12.889 -0.1061  1.3443  0.8829
  905MPD2     N13315   0.462   1.287  12.869 -0.1710 -0.6142  0.2567
  905MPD2    H513316   0.469   1.310  12.770  1.0521  0.5136  0.6190
  905MPD2    N113317   0.166   1.323  13.261 -0.0574 -0.6349  0.0565
  905MPD2    H713318   0.104   1.391  13.304  0.7819  0.3136 -0.2389
  906MPD2     C13319   2.453   1.623  11.940 -0.7131 -0.6057 -1.0792
  906MPD2    C113320   2.465   1.513  11.853  0.6393  0.0979 -0.2899
  906MPD2    C213321   2.431   1.390  11.903 -0.0582 -1.4927 -0.0030
  906MPD2    C313322   2.378   1.372  12.029 -0.1795 -0.2613  0.5465
  906MPD2    C413323   2.355   1.484  12.106  0.3095  0.5238  0.0645
  906MPD2    C513324   2.399   1.607  12.062 -0.8611 -0.5977 -0.4810
  906MPD2     H13325   2.427   1.300  11.844 -2.1204 -3.2343  2.8186
  906MPD2    H113326   2.326   1.481  12.211  2.1049  0.7392  0.5689
  906MPD2    H213327   2.468   1.727  11.911  0.9405 -0.0020  1.9019
  906MPD2    H313328   2.394   1.695  12.125 -1.5574  0.1776 -1.6161
  906MPD2     N13329   2.349   1.241  12.088  0.4962 -0.0786  0.1272
  906MPD2    H513330   2.286   1.247  12.167  0.4122  1.1182 -0.0273
  906MPD2    N113331   2.505   1.523  11.719  0.1299  0.6903 -0.6704
  906MPD2    H713332   2.523   1.431  11.680  0.9216 -1.0269  3.7281
  907MPD2     C13333   0.860   0.381  15.333 -0.3274  0.1891 -0.8098
  907MPD2    C113334   0.996   0.359  15.311  0.1651  0.4627  0.6097
  907MPD2    C213335   1.090   0.421  15.385  0.3847  0.1156  0.5730
  907MPD2    C313336   1.047   0.511  15.476 -0.3209 -0.5680  0.9699
  907MPD2    C413337   0.914   0.531  15.500  0.3617  0.4494  0.3203
  907MPD2    C513338   0.827   0.470  15.426  0.6722  0.1370  0.4137
  907MPD2     H13339   1.195   0.401  15.369  0.3521  0.4405 -0.0491
  907MPD2    H113340   0.889   0.606  15.575 -1.2580 -1.3889  1.6133
  907MPD2    H213341   0.783   0.324  15.283  0.1831 -1.5379  0.3799
  907MPD2    H313342   0.724   0.484  15.458  0.5360  2.2723 -0.9852
  907MPD2     N13343   1.147   0.587  15.550 -0.3172 -0.2202 -0.3183
  907MPD2    H513344   1.240   0.546  15.551  0.0279  0.5658 -2.3566
  907MPD2    N113345   1.029   0.265  15.217  0.2279 -0.2712 -0.1801
  907MPD2    H713346   1.130   0.250  15.214  0.0489 -1.3242 -1.1615
  908MPD2     C13347   3.425   0.928  10.309 -0.0144 -0.4744  0.0548
  908MPD2    C113348   3.542   0.913  10.388 -0.0847 -0.0582 -0.3954
  908MPD2    C213349   3.584   1.013  10.473  0.0910  0.0202  0.3468
  908MPD2    C313350   3.512   1.138  10.475  0.1279  0.0643 -0.3032
  908MPD2    C413351   3.392   1.142  10.412  0.3416 -0.9114 -0.0228
  908MPD2    C513352   3.354   1.040  10.337 -0.2223  0.3209  0.1574
  908MPD2     H13353   3.666   1.002  10.541  1.7871  1.3211 -1.4958
  908MPD2    H113354   3.334   1.233  10.415 -0.2649 -1.2276 -2.5979
  908MPD2    H213355   3.398   0.855  10.233 -0.4816 -1.4715  1.1990
  908MPD2    H313356   3.255   1.065  10.299 -1.0380 -1.6304  0.9737
  908MPD2     N13357   3.569   1.253  10.542 -0.0194  0.1253  0.6597
  908MPD2    H513358   3.652   1.235  10.598 -0.8938  1.2337  2.3222
  908MPD2    N113359   3.621   0.798  10.358  0.3282 -0.5954  0.4031
  908MPD2    H713360   3.571   0.740  10.291  3.6501 -1.7368 -1.0870
  909MPD2     C13361   4.036   3.680  11.653  0.4830  0.7479  0.7276
  909MPD2    C113362   4.085   3.810  11.667  0.2445 -0.2260 -0.1766
  909MPD2    C213363   4.055   3.891  11.778 -0.3185 -0.3472  0.1727
  909MPD2    C313364   3.967   3.838  11.871  0.2642 -0.0890  0.4762
  909MPD2    C413365   3.908   3.714  11.857  0.4828 -0.0179  0.1679
  909MPD2    C513366   3.943   3.639  11.750  0.2765 -0.1709 -0.0272
  909MPD2     H13367   4.091   3.992  11.792 -2.1186  0.4327 -0.7676
  909MPD2    H113368   3.835   3.666  11.921 -0.0401  0.1864 -0.2699
  909MPD2    H213369   4.053   3.613  11.570 -0.0412 -1.4883  2.4328
  909MPD2    H313370   3.895   3.542  11.739 -0.2446 -0.0790  1.4373
  909MPD2     N13371   3.929   3.920  11.983  0.6558  0.6581  0.0488
  909MPD2    H513372   3.981   4.007  11.987 -0.0877  1.1440 -0.7461
  909MPD2    N113373   4.166   3.872  11.562 -0.1445  0.0868 -0.3263
  909MPD2    H713374   4.194   3.968  11.576 -0.3111  0.2480 -1.0935
  910MPD2     C13375   0.373   0.900  16.017  0.1732 -0.3286 -0.4436
  910MPD2    C113376   0.472   0.879  15.919  0.2236  0.0474  0.1343
  910MPD2    C213377   0.444   0.937  15.796  0.8443 -0.1653 -0.1602
  910MPD2    C313378   0.317   0.995  15.766 -0.3349 -0.1935  1.0453
  910MPD2    C413379   0.218   0.992  15.860 -0.5783 -0.0303 -0.5164
  910MPD2    C513380   0.250   0.956  15.980  0.6794 -0.3049  0.4486
  910MPD2     H13381   0.517   0.940  15.716 -0.4310  1.5060 -1.2548
  910MPD2    H113382   0.121   1.038  15.843 -1.2105 -0.7429  1.1513
  910MPD2    H213383   0.381   0.877  16.122  1.0224 -2.6909 -1.0086
  910MPD2    H313384   0.175   0.948  16.058 -0.7021  0.9419 -0.7654
  910MPD2     N13385   0.284   1.065  15.648  0.1210 -0.4206  0.6502
  910MPD2    H513386   0.190   1.101  15.638  1.2049  1.6097 -2.1600
  910MPD2    N113387   0.590   0.810  15.945  0.3902  0.1438  0.1261
  910MPD2    H713388   0.656   0.812  15.869  1.0984 -3.2654  0.6653
  911MPD2     C13389   3.292   1.434  16.165 -0.9329  0.6599  0.6475
  911MPD2    C113390   3.381   1.519  16.223 -0.7728  0.2821  0.4641
  911MPD2    C213391   3.341   1.647  16.252 -0.2400  0.6521  0.0421
  911MPD2    C313392   3.215   1.687  16.235  0.4488 -0.8005 -0.4126
  911MPD2    C413393   3.119   1.591  16.191  1.0273 -0.2389  0.3114
  911MPD2    C513394   3.162   1.473  16.142  0.3655 -0.6711  0.1161
  911MPD2     H13395   3.413   1.710  16.302 -0.7838 -0.1297  1.8211
  911MPD2    H113396   3.012   1.604  16.194  0.9055 -1.1191  0.0035
  911MPD2    H213397   3.318   1.333  16.134  0.0238  0.9511  0.5109
  911MPD2    H313398   3.091   1.401  16.103 -1.2790  1.3772 -0.6456
  911MPD2     N13399   3.166   1.818  16.274 -0.2183 -0.7880  0.9244
  911MPD2    H513400   3.065   1.830  16.276 -0.1092  0.0237  1.5160
  911MPD2    N113401   3.507   1.469  16.255  0.1262  0.2218 -0.0520
  911MPD2    H713402   3.513   1.368  16.251  0.5903  0.1840  1.4936
  912MPD2     C13403   2.828   1.806  15.830 -0.2392 -0.3939  0.1372
  912MPD2    C113404   2.826   1.796  15.966 -0.1700 -0.3508 -0.7574
  912MPD2    C213405   2.801   1.674  16.020 -0.2010 -0.1708  0.0807
  912MPD2    C313406   2.800   1.562  15.949 -1.2830 -0.7331 -0.5881
  912MPD2    C413407   2.816   1.567  15.812  0.0070 -0.0161  0.6376
  912MPD2    C513408   2.819   1.696  15.753 -0.1484  0.2154  0.3634
  912MPD2     H13409   2.799   1.656  16.127  0.9461 -2.7019 -0.3250
  912MPD2    H113410   2.824   1.477  15.753 -1.8707 -0.7404  1.4916
  912MPD2    H213411   2.857   1.898  15.781  1.0157 -1.4667 -1.1230
  912MPD2    H313412   2.820   1.699  15.645  0.6248 -2.1146  0.2937
  912MPD2     N13413   2.801   1.442  16.029  0.4210 -0.4523  0.4538
  912MPD2    H513414   2.777   1.455  16.127 -0.6200  0.0665  0.1358
  912MPD2    N113415   2.857   1.912  16.037  0.3275  0.7293  0.1378
  912MPD2    H713416   2.884   1.988  15.975 -0.0546  1.8170  1.3229
  913MPD2     C13417   3.462   2.580  10.639  0.3700  0.0118  0.0612
  913MPD2    C113418   3.537   2.688  10.672  0.0112  0.6099 -0.1982
  913MPD2    C213419   3.592   2.759  10.575 -0.1403 -0.3916 -0.6488
  913MPD2    C313420   3.583   2.720  10.439  0.0709 -0.5187  0.3826
  913MPD2    C413421   3.503   2.612  10.407  0.2787 -0.1129  0.1371
  913MPD2    C513422   3.440   2.549  10.512  0.2716  0.5405  0.2429
  913MPD2     H13423   3.672   2.828  10.602 -0.1146 -0.5907 -0.2197
  913MPD2    H113424   3.482   2.571  10.309  2.2289 -0.7362 -0.0264
  913MPD2    H213425   3.398   2.536  10.715  0.7387 -0.2227  0.2321
  913MPD2    H313426   3.379   2.464  10.484  1.8444 -0.6404  0.4162
  913MPD2     N13427   3.667   2.775  10.334  0.4759 -0.2141  0.3800
  913MPD2    H513428   3.672   2.723  10.247 -1.5747 -0.1752  0.2386
  913MPD2    N113429   3.553   2.728  10.808  0.1521 -0.7435  0.0163
  913MPD2    H713430   3.514   2.670  10.881 -1.1606 -0.9611 -0.8584
  914MPD2     C13431   1.902   3.058  12.218 -0.3213  0.1112  0.0172
  914MPD2    C113432   1.874   3.117  12.338 -0.5858 -0.2050 -0.2247
  914MPD2    C213433   1.861   3.046  12.453 -0.1772 -0.3756  0.7179
  914MPD2    C313434   1.872   2.903  12.432 -0.4255  0.8316 -0.5266
  914MPD2    C413435   1.888   2.844  12.311 -0.4858  0.5124  0.1295
  914MPD2    C513436   1.905   2.922  12.203 -0.1615  0.1191 -0.6794
  914MPD2     H13437   1.861   3.090  12.552 -1.3264  1.4996 -0.1008
  914MPD2    H113438   1.889   2.736  12.297  1.0692  0.1111  3.2658
  914MPD2    H213439   1.911   3.121  12.130  1.3619  1.3568  1.0772
  914MPD2    H313440   1.923   2.876  12.107  1.0793 -0.0449 -0.3696
  914MPD2     N13441   1.860   2.825  12.545  0.6298 -0.0041  0.1538
  914MPD2    H513442   1.854   2.879  12.631  0.4636  0.3357 -0.0723
  914MPD2    N113443   1.867   3.253  12.345  0.0373 -0.0713  0.1039
  914MPD2    H713444   1.876   3.305  12.258 -0.1341 -1.6856 -0.8674
  915MPD2     C13445   4.632   2.793  15.795 -0.4620  0.7280  0.4654
  915MPD2    C113446   4.496   2.800  15.779  0.1153 -0.6330 -0.2713
  915MPD2    C213447   4.415   2.860  15.874  0.5382 -0.2769  0.1829
  915MPD2    C313448   4.472   2.938  15.974  0.9752  0.6656  0.6455
  915MPD2    C413449   4.612   2.940  15.992  0.5568  0.1776  0.1764
  915MPD2    C513450   4.686   2.862  15.903  0.2179  0.2466 -0.2851
  915MPD2     H13451   4.308   2.851  15.861  0.5594  1.0134 -0.9352
  915MPD2    H113452   4.661   2.993  16.073  1.2229  1.0780 -0.8285
  915MPD2    H213453   4.705   2.752  15.726 -1.2133  0.4839 -0.1778
  915MPD2    H313454   0.054   2.868  15.923 -0.1681  1.4759  1.3696
  915MPD2     N13455   4.396   3.015  16.062 -0.1334 -0.1409 -0.5870
  915MPD2    H513456   4.296   3.006  16.052 -0.5418  0.8712  2.5750
  915MPD2    N113457   4.440   2.753  15.659 -0.0831  0.2036 -0.2537
  915MPD2    H713458   4.339   2.751  15.656 -0.0715 -0.3272 -0.4165
  916MPD2     C13459   2.507   1.332  15.903  0.3855 -0.1711 -0.2070
  916MPD2    C113460   2.499   1.224  15.980  0.3367  0.7740 -0.2813
  916MPD2    C213461   2.553   1.103  15.936  0.4391  0.3868  0.6462
  916MPD2    C313462   2.603   1.085  15.808 -0.4423  0.3102  0.4438
  916MPD2    C413463   2.601   1.199  15.724  0.1146 -0.8036  0.0278
  916MPD2    C513464   2.557   1.322  15.770 -0.7388  0.1190  0.4870
  916MPD2     H13465   2.556   1.014  15.999 -1.1308  0.2263  0.4750
  916MPD2    H113466   2.631   1.200  15.620 -1.3851  0.0657 -0.4036
  916MPD2    H213467   2.472   1.427  15.941 -1.5839 -1.6510  1.6769
  916MPD2    H313468   2.562   1.414  15.712  0.3313 -0.6863 -0.6952
  916MPD2     N13469   2.667   0.962  15.768 -0.1198 -0.4055 -0.2647
  916MPD2    H513470   2.664   0.893  15.843  1.8976 -1.7606 -1.4453
  916MPD2    N113471   2.438   1.251  16.108 -0.0444 -0.4116  0.4305
  916MPD2    H713472   2.413   1.349  16.119  1.5480 -0.0618  0.9024
  917MPD2     C13473   2.464   3.038  11.140 -0.5071  0.2771 -0.3688
  917MPD2    C113474   2.516   3.140  11.221 -0.1029  0.8567 -0.5070
  917MPD2    C213475   2.564   3.252  11.156 -0.4725 -0.0379  0.7176
  917MPD2    C313476   2.564   3.258  11.011  0.1486 -0.2765  0.3841
  917MPD2    C413477   2.530   3.148  10.942 -0.1672  0.8527 -0.7066
  917MPD2    C513478   2.481   3.034  11.004 -0.6871 -0.0454 -0.4964
  917MPD2     H13479   2.602   3.337  11.211 -1.3402  1.7505 -1.4493
  917MPD2    H113480   2.532   3.140  10.834 -2.0390 -2.2641 -0.5171
  917MPD2    H213481   2.411   2.952  11.179  0.0442  0.9189  1.7956
  917MPD2    H313482   2.449   2.944  10.953  0.9932 -1.9207  1.7536
  917MPD2     N13483   2.612   3.366  10.935 -0.1211 -0.1354 -0.1112
  917MPD2    H513484   2.609   3.353  10.835 -1.2983  0.2988 -0.1272
  917MPD2    N113485   2.509   3.113  11.359 -0.4572 -0.9803 -1.2571
  917MPD2    H713486   2.473   3.025  11.393 -3.0632  0.7021  0.3899
  918MPD2     C13487   2.624   3.656  12.273 -0.5192  0.3414 -0.3246
  918MPD2    C113488   2.713   3.653  12.169 -0.4322  0.3084 -0.3450
  918MPD2    C213489   2.687   3.578  12.054  0.3623  0.7337  0.3995
  918MPD2    C313490   2.585   3.489  12.050  0.2241 -0.5148 -0.0401
  918MPD2    C413491   2.494   3.497  12.158  0.3653  0.6940  0.2045
  918MPD2    C513492   2.512   3.580  12.262 -0.9360  0.6794  0.6920
  918MPD2     H13493   2.753   3.576  11.968 -1.3343  0.9123 -0.9161
  918MPD2    H113494   2.404   3.436  12.166  0.1385  0.8882 -0.8760
  918MPD2    H213495   2.652   3.717  12.359 -1.8907 -1.4869  1.4205
  918MPD2    H313496   2.439   3.569  12.341 -0.2054 -1.1978  1.1072
  918MPD2     N13497   2.565   3.409  11.944  0.5782  0.1421 -0.4730
  918MPD2    H513498   2.632   3.417  11.868 -1.2622 -1.6856 -2.2955
  918MPD2    N113499   2.837   3.731  12.195 -0.1480 -0.3828  0.1464
  918MPD2    H713500   2.849   3.767  12.289  0.9630  3.7829 -1.5856
  919MPD2     C13501   3.361   2.674  12.329 -0.1860 -0.1381  0.2648
  919MPD2    C113502   3.327   2.565  12.255 -0.3007 -0.7675  0.1653
  919MPD2    C213503   3.251   2.580  12.143  0.7078 -0.5007 -0.1800
  919MPD2    C313504   3.222   2.703  12.087 -0.4085 -0.1251  0.5571
  919MPD2    C413505   3.268   2.810  12.156 -0.6692  0.9005 -0.4277
  919MPD2    C513506   3.333   2.802  12.275 -0.2806  0.3059  0.0853
  919MPD2     H13507   3.237   2.491  12.083 -1.8620 -0.3341  0.1941
  919MPD2    H113508   3.246   2.910  12.121  1.5529  1.2618 -0.7774
  919MPD2    H213509   3.412   2.670  12.424  1.7993 -1.2926 -0.8378
  919MPD2    H313510   3.350   2.894  12.329 -2.2645 -0.4006  1.9051
  919MPD2     N13511   3.150   2.718  11.963 -0.1956  0.0666 -0.1084
  919MPD2    H513512   3.132   2.812  11.929  2.3744  0.8714  0.7281
  919MPD2    N113513   3.359   2.436  12.288 -0.1491  0.4539  0.3389
  919MPD2    H713514   3.345   2.367  12.214 -1.8493 -0.0086  1.0791
  920MPD2     C13515   3.242   3.060  11.008  0.2924  0.3893 -0.3784
  920MPD2    C113516   3.194   2.931  10.982  0.0024 -0.4668 -0.4502
  920MPD2    C213517   3.173   2.849  11.096  0.9118 -0.1008 -0.3709
  920MPD2    C313518   3.176   2.899  11.221 -0.2371 -0.2703  0.2036
  920MPD2    C413519   3.230   3.020  11.243 -0.3947  0.1837 -0.1113
  920MPD2    C513520   3.257   3.107  11.136  1.1785  0.0498 -0.0479
  920MPD2     H13521   3.129   2.750  11.089  2.1366 -0.6713 -0.0722
  920MPD2    H113522   3.240   3.056  11.344 -0.6906  0.7868 -0.2946
  920MPD2    H213523   3.255   3.139  10.935  0.4980 -0.0260 -0.7932
  920MPD2    H313524   3.291   3.210  11.146  2.0229 -0.2477  0.1529
  920MPD2     N13525   3.128   2.818  11.327 -0.3721  0.3851 -0.0789
  920MPD2    H513526   3.095   2.727  11.298  0.2016 -0.1445  0.9336
  920MPD2    N113527   3.170   2.887  10.846 -0.9674 -0.3264  0.1691
  920MPD2    H713528   3.131   2.793  10.841 -2.2163  0.2938 -1.5830
  921MPD2     C13529   4.387   1.669  16.748  0.0464  0.5717  0.7647
  921MPD2    C113530   4.394   1.567  16.654  0.6620  0.4830  0.4637
  921MPD2    C213531   4.277   1.500  16.615 -0.3856  0.4740  0.6063
  921MPD2    C313532   4.151   1.550  16.656 -0.3380 -0.5499  0.8695
  921MPD2    C413533   4.146   1.662  16.736 -0.2232  0.2108  0.7446
  921MPD2    C513534   4.265   1.715  16.786 -0.1331  0.3190 -0.6089
  921MPD2     H13535   4.277   1.417  16.546  2.3564  1.9600 -1.1759
  921MPD2    H113536   4.054   1.700  16.778 -2.2002 -2.7519 -0.9519
  921MPD2    H213537   4.476   1.712  16.793 -0.3887  1.9637  0.3126
  921MPD2    H313538   4.261   1.792  16.863 -0.1434 -0.3840  0.0935
  921MPD2     N13539   4.027   1.491  16.621  0.4518  0.2368 -0.4567
  921MPD2    H513540   3.941   1.534  16.652 -0.3476 -1.5035 -0.2415
  921MPD2    N113541   4.529   1.536  16.599 -0.1122  0.3510  0.2485
  921MPD2    H713542   4.602   1.599  16.630 -0.7942  1.3021 -0.0874
  922MPD2     C13543   0.389   4.034   0.119  1.0904  0.1658 -0.5282
  922MPD2    C113544   0.366   4.139   0.033  0.6848 -0.7784 -0.4435
  922MPD2    C213545   0.278   4.126  17.680  0.2929  0.1103 -0.5255
  922MPD2    C313546   0.198   4.008  17.674  0.4718 -0.2370 -0.4485
  922MPD2    C413547   0.226   3.901   0.010  0.1937 -0.1420 -0.4157
  922MPD2    C513548   0.324   3.918   0.106  0.3909  0.4712 -0.0991
  922MPD2     H13549   0.254   4.206  17.611  1.4583  1.1124  0.2305
  922MPD2    H113550   0.167   3.810   0.008 -2.7081  1.7247 -1.0251
  922MPD2    H213551   0.470   4.032   0.191 -0.3394 -0.6929  1.0672
  922MPD2    H313552   0.344   3.839   0.177  0.2126  0.3630 -0.1668
  922MPD2     N13553   0.087   4.005  17.582  1.3013 -0.8954 -0.2199
  922MPD2    H513554   0.070   4.092  17.532  3.3057 -0.1205  0.4128
  922MPD2    N113555   0.419   4.270   0.046 -0.1122  0.2309  0.0518
  922MPD2    H713556   0.412   4.336  17.721  1.6220  1.7314  1.1993
  923MPD2     C13557   1.559   1.076   8.905  0.0297 -0.1121  0.0837
  923MPD2    C113558   1.577   1.208   8.944 -0.8410  0.3494  0.1085
  923MPD2    C213559   1.621   1.234   9.078 -0.5336 -0.4405 -0.6269
  923MPD2    C313560   1.656   1.134   9.167 -0.0640 -0.0686  0.1911
  923MPD2    C413561   1.637   1.003   9.118 -0.9897 -0.5310  0.4240
  923MPD2    C513562   1.592   0.974   8.994 -0.2599  0.1464  0.0635
  923MPD2     H13563   1.641   1.336   9.109  0.8883 -1.5179  2.0097
  923MPD2    H113564   1.668   0.918   9.178  0.9099 -1.8958 -2.4885
  923MPD2    H213565   1.517   1.041   8.812 -1.4846 -0.5546  0.9322
  923MPD2    H313566   1.586   0.872   8.960 -1.8101  1.1599 -2.7288
  923MPD2     N13567   1.705   1.156   9.292  0.7346  0.2678  0.1290
  923MPD2    H513568   1.743   1.070   9.330  0.4756  0.5686  1.0810
  923MPD2    N113569   1.531   1.299   8.851  0.4769  0.2867  0.2121
  923MPD2    H713570   1.507   1.261   8.760 -2.4976 -1.3286  1.6561
  924MPD2     C13571   1.869   0.480  15.391 -0.2172 -0.7880 -0.3981
  924MPD2    C113572   1.859   0.505  15.524 -0.1697  0.6910  0.0206
  924MPD2    C213573   1.787   0.612  15.565 -0.6328 -0.0792 -0.3256
  924MPD2    C313574   1.694   0.681  15.480  0.1755  0.1404 -0.5917
  924MPD2    C413575   1.693   0.641  15.348 -0.4683 -0.2000 -0.0760
  924MPD2    C513576   1.791   0.550  15.306  0.3970  0.7994  0.0362
  924MPD2     H13577   1.791   0.635  15.671 -0.8649  2.0379 -0.7595
  924MPD2    H113578   1.612   0.670  15.283 -0.9187 -0.7308  0.2516
  924MPD2    H213579   1.942   0.405  15.364 -0.7509 -0.8990 -1.5258
  924MPD2    H313580   1.819   0.551  15.201 -0.3578  0.2358 -0.1697
  924MPD2     N13581   1.597   0.775  15.519 -0.5866 -0.2898  0.0119
  924MPD2    H513582   1.525   0.805  15.454 -0.5733 -1.4896 -0.5450
  924MPD2    N113583   1.918   0.411  15.609  0.3383  0.2363  0.4303
  924MPD2    H713584   1.959   0.325  15.573 -3.7574 -1.4162 -0.2551
  925MPD2     C13585   0.522   2.297  14.878  0.2202 -0.1168 -0.5028
  925MPD2    C113586   0.419   2.206  14.840  0.2376  0.2413  0.6572
  925MPD2    C213587   0.345   2.136  14.929 -0.0198  0.6445  0.9692
  925MPD2    C313588   0.367   2.173  15.060  0.1802  0.2907 -0.0776
  925MPD2    C413589   0.459   2.268  15.099 -1.2091  0.1174 -0.5563
  925MPD2    C513590   0.536   2.334  15.007  0.3742  0.0130 -0.0310
  925MPD2     H13591   0.270   2.066  14.895  0.7991 -0.4029  1.2974
  925MPD2    H113592   0.488   2.292  15.201  1.4423  0.7262 -1.4526
  925MPD2    H213593   0.584   2.347  14.804 -1.3006  1.9344 -0.3876
  925MPD2    H313594   0.607   2.412  15.032 -2.1718  1.9616  1.0801
  925MPD2     N13595   0.302   2.102  15.171 -0.1584 -0.3517 -0.0680
  925MPD2    H513596   0.266   2.010  15.148 -0.5502  0.4643 -2.6940
  925MPD2    N113597   0.384   2.184  14.707 -0.3677 -0.1485 -0.1113
  925MPD2    H713598   0.318   2.111  14.683  0.2719 -1.5722  2.4695
  926MPD2     C13599   0.018   0.535  13.496  0.6415 -1.1086 -0.1220
  926MPD2    C113600   4.642   0.603  13.459 -0.5847 -0.0739 -0.3920
  926MPD2    C213601   4.634   0.644  13.322 -0.2109  0.0902  0.5534
  926MPD2    C313602   0.006   0.634  13.239 -0.1075 -0.4805 -0.1314
  926MPD2    C413603   0.124   0.574  13.280 -0.3681  0.3324  0.6516
  926MPD2    C513604   0.127   0.520  13.403  0.6611 -0.3035 -0.1670
  926MPD2     H13605   4.531   0.668  13.296  0.4193 -0.1551 -2.2114
  926MPD2    H113606   0.207   0.556  13.212  0.7731 -0.4677  2.2498
  926MPD2    H213607   0.039   0.499  13.596 -4.4681  1.1127  1.7260
  926MPD2    H313608   0.210   0.454  13.426  0.7418  0.2621  1.1715
  926MPD2     N13609   0.000   0.667  13.105  0.2165  0.2369 -0.1056
  926MPD2    H513610   0.086   0.659  13.051  0.9702 -0.5185  1.2308
  926MPD2    N113611   4.534   0.623  13.548 -0.4973 -0.2392  0.4165
  926MPD2    H713612   4.448   0.657  13.506 -0.0916 -0.4429 -0.5692
  927MPD2     C13613   3.622   3.118   0.345  0.2742 -0.2317  0.3776
  927MPD2    C113614   3.719   3.222   0.347  0.0499 -1.3294 -0.3286
  927MPD2    C213615   3.791   3.242   0.223 -0.0722 -0.7313 -0.3484
  927MPD2    C313616   3.780   3.163   0.109  0.1453  0.2536  0.6103
  927MPD2    C413617   3.693   3.055   0.122 -0.3821 -0.1667 -0.3832
  927MPD2    C513618   3.619   3.035   0.237 -0.0202 -0.6806  0.4715
  927MPD2     H13619   3.862   3.323   0.218 -3.7143  2.5744  1.6164
  927MPD2    H113620   3.666   2.985   0.043 -1.6153  0.4521 -0.5194
  927MPD2    H213621   3.559   3.092   0.429  0.6764  2.1349  1.3988
  927MPD2    H313622   3.535   2.967   0.249 -1.4025  0.8596 -0.5749
  927MPD2     N13623   3.848   3.195  17.744  0.8424 -0.2521 -0.6044
  927MPD2    H513624   3.892   3.286  17.744  0.2783  0.0326  2.2764
  927MPD2    N113625   3.735   3.313   0.459  0.2592  0.1032  0.1471
  927MPD2    H713626   3.680   3.285   0.540  1.4173 -0.4412  0.7367
  928MPD2     C13627   1.964   2.310   1.380  0.2759 -0.2034 -0.3627
  928MPD2    C113628   2.092   2.333   1.428 -0.2051  0.2234  0.1163
  928MPD2    C213629   2.194   2.284   1.352  0.0123 -0.7010  0.2510
  928MPD2    C313630   2.185   2.210   1.238 -0.2702  0.5073  0.2315
  928MPD2    C413631   2.057   2.195   1.184  0.1301  0.4508 -0.2945
  928MPD2    C513632   1.953   2.234   1.262  0.8483  0.4523 -0.4564
  928MPD2     H13633   2.294   2.314   1.382 -1.0511  0.6978  2.4232
  928MPD2    H113634   2.032   2.133   1.098  1.0995  1.4849 -1.3124
  928MPD2    H213635   1.884   2.342   1.445  0.2123 -2.2132  0.5611
  928MPD2    H313636   1.848   2.211   1.243  0.2206  1.2577  1.9534
  928MPD2     N13637   2.290   2.156   1.159  0.1411  0.3320 -0.3830
  928MPD2    H513638   2.263   2.126   1.066  0.1736 -2.4190  0.5158
  928MPD2    N113639   2.110   2.402   1.553  0.5993  0.6298  0.2305
  928MPD2    H713640   2.037   2.464   1.589  2.4774  2.4996  0.8262
  929MPD2     C13641   1.228   1.081   9.813 -0.5253 -0.4734  0.3049
  929MPD2    C113642   1.227   1.192   9.896  0.2719 -0.0285 -0.0455
  929MPD2    C213643   1.189   1.315   9.844  0.7629  0.3649  0.2699
  929MPD2    C313644   1.140   1.325   9.712  0.8301  0.2247 -0.1938
  929MPD2    C413645   1.138   1.212   9.639 -0.4022 -0.2264  0.2913
  929MPD2    C513646   1.179   1.094   9.689 -0.0619 -0.4881 -0.3613
  929MPD2     H13647   1.181   1.401   9.910 -1.2851 -0.3264  0.9285
  929MPD2    H113648   1.098   1.208   9.538  1.7571 -0.3110 -0.5461
  929MPD2    H213649   1.254   0.986   9.859  0.6767 -0.3302 -0.0772
  929MPD2    H313650   1.176   1.005   9.626  0.4111  1.1684 -2.7352
  929MPD2     N13651   1.100   1.452   9.668 -0.8999 -0.0841  0.1269
  929MPD2    H513652   1.097   1.521   9.742 -1.4019  0.4063 -0.3482
  929MPD2    N113653   1.284   1.180  10.026 -0.1905  0.0218 -0.1414
  929MPD2    H713654   1.286   1.085  10.060  1.4254  0.5005  1.0832
  930MPD2     C13655   3.214   3.175  14.107  0.3723  0.6435 -0.1688
  930MPD2    C113656   3.297   3.193  13.997  1.1125  0.0271  0.2267
  930MPD2    C213657   3.287   3.111  13.893 -0.2685 -0.3064  0.6834
  930MPD2    C313658   3.189   3.016  13.887 -0.0051  0.7457 -0.7498
  930MPD2    C413659   3.101   3.006  13.991  0.0455 -0.5248  0.2665
  930MPD2    C513660   3.111   3.085  14.101  0.2246  0.6802 -0.3290
  930MPD2     H13661   3.360   3.125  13.814 -2.2773  0.6429 -0.9965
  930MPD2    H113662   3.026   2.928  13.988 -0.8484  0.3219  0.7474
  930MPD2    H213663   3.219   3.236  14.197  0.3307 -0.6807  0.7230
  930MPD2    H313664   3.046   3.075  14.188  0.6105 -2.4769 -0.4274
  930MPD2     N13665   3.159   2.928  13.779  0.2584  0.3406  0.2727
  930MPD2    H513666   3.093   2.855  13.804 -0.3224  0.5261 -0.7541
  930MPD2    N113667   3.380   3.305  13.987  0.0566  0.2738  0.1303
  930MPD2    H713668   3.382   3.357  14.075 -1.4627  0.7979 -0.1441
  931MPD2     C13669   4.419   3.603   0.750 -0.1962  0.1628  0.0183
  931MPD2    C113670   4.312   3.604   0.842  0.2925 -0.1882 -0.1914
  931MPD2    C213671   4.338   3.650   0.974  0.3582 -0.2766  0.0584
  931MPD2    C313672   4.466   3.667   1.016 -1.0664 -0.3369  0.0684
  931MPD2    C413673   4.569   3.666   0.929  0.3208  0.5037 -0.9214
  931MPD2    C513674   4.543   3.638   0.795 -0.1342 -0.3520 -0.4987
  931MPD2     H13675   4.252   3.649   1.041 -0.7085 -0.1668 -1.3088
  931MPD2    H113676   4.671   3.675   0.964 -0.8470 -0.9009  2.8716
  931MPD2    H213677   4.407   3.567   0.648  1.0234  0.7993 -0.3505
  931MPD2    H313678   4.630   3.640   0.731 -0.5260 -2.2784 -1.0885
  931MPD2     N13679   4.497   3.700   1.152 -0.5715 -0.1759 -0.4457
  931MPD2    H513680   4.596   3.719   1.162 -1.1347  2.2502  0.4182
  931MPD2    N113681   4.177   3.576   0.790 -0.5451  0.2775  0.4900
  931MPD2    H713682   4.174   3.543   0.694 -0.0974 -0.8819  0.8766
  932MPD2     C13683   0.028   2.714  11.324  0.2058 -0.2080 -0.0616
  932MPD2    C113684   0.103   2.645  11.410  0.7611  0.4756 -0.1233
  932MPD2    C213685   0.045   2.551  11.498 -0.5784 -0.3866  0.5513
  932MPD2    C313686   4.647   2.533  11.501  0.1520 -0.8495  0.3140
  932MPD2    C413687   4.574   2.589  11.396 -0.0737  0.0759  0.7316
  932MPD2    C513688   4.633   2.683  11.315 -0.4928 -0.3278 -0.1109
  932MPD2     H13689   0.104   2.488  11.564  1.1537  0.4426 -0.1984
  932MPD2    H113690   4.470   2.570  11.371 -0.5894  1.0645  2.0854
  932MPD2    H213691   0.060   2.782  11.246 -1.7962  1.5723  0.6749
  932MPD2    H313692   4.563   2.726  11.244 -1.0798 -0.1437  0.5792
  932MPD2     N13693   4.575   2.443  11.577 -0.4443 -0.1851 -0.2981
  932MPD2    H513694   4.476   2.437  11.553 -0.6707  0.8997  0.3545
  932MPD2    N113695   0.245   2.657  11.419  0.1356 -0.1587 -0.0368
  932MPD2    H713696   0.292   2.590  11.480 -0.4278  0.0927  0.6757
  933MPD2     C13697   1.935   2.966   1.598 -0.9150  0.1840 -0.0491
  933MPD2    C113698   2.032   2.959   1.696 -0.5103  0.6891 -0.2775
  933MPD2    C213699   2.097   3.079   1.738  0.1605 -0.1385  0.8093
  933MPD2    C313700   2.068   3.197   1.678 -0.4997  0.9676 -0.4655
  933MPD2    C413701   1.956   3.198   1.585  0.0841  0.1571 -0.0729
  933MPD2    C513702   1.891   3.085   1.554  0.2140 -0.0998  0.6525
  933MPD2     H13703   2.175   3.083   1.813  0.8062 -0.8307  0.1739
  933MPD2    H113704   1.921   3.290   1.538  0.6706 -1.8679 -4.5009
  933MPD2    H213705   1.888   2.876   1.559 -2.5437  1.7409 -1.6899
  933MPD2    H313706   1.807   3.092   1.487  0.7914 -2.0965 -0.2679
  933MPD2     N13707   2.129   3.313   1.722  0.7157 -0.1287  0.0122
  933MPD2    H513708   2.195   3.322   1.798 -0.7959  0.6537  1.2240
  933MPD2    N113709   2.076   2.835   1.739  0.0487  0.9559 -0.5033
  933MPD2    H713710   2.031   2.757   1.692 -0.5173  1.4018 -0.6976
  934MPD2     C13711   3.047   0.202   2.001  0.0660 -0.8626 -0.4492
  934MPD2    C113712   3.069   0.062   2.016 -0.2076 -0.2034 -0.1276
  934MPD2    C213713   3.005   4.712   1.928  0.1917  1.0409 -0.2461
  934MPD2    C313714   2.938   0.017   1.817 -0.1608  0.3891  0.1206
  934MPD2    C413715   2.911   0.157   1.810 -0.2156 -0.1670  0.1156
  934MPD2    C513716   2.971   0.246   1.897 -0.7236  0.0345  0.8958
  934MPD2     H13717   3.023   4.605   1.936 -0.8951  0.9152  0.4509
  934MPD2    H113718   2.848   0.200   1.733 -0.6968  1.0261  1.1716
  934MPD2    H213719   3.109   0.274   2.053  0.3412  0.4598 -2.6111
  934MPD2    H313720   2.946   0.351   1.891  0.5652  0.4386  2.6066
  934MPD2     N13721   2.878   4.673   1.721  0.1361 -0.7825  0.2716
  934MPD2    H513722   2.815   4.717   1.654  1.5708 -0.7412 -1.0463
  934MPD2    N113723   3.139   0.006   2.127  0.0614  0.5037  0.6212
  934MPD2    H713724   3.161   4.646   2.121 -0.1127  0.4707  0.5203
  935MPD2     C13725   2.878   3.685   1.629 -0.2576  0.5910 -0.3779
  935MPD2    C113726   2.826   3.720   1.506 -0.5296 -0.6596 -0.5908
  935MPD2    C213727   2.795   3.851   1.481 -0.2476 -0.2601  0.4951
  935MPD2    C313728   2.809   3.942   1.580  0.3235  0.2841 -0.0824
  935MPD2    C413729   2.843   3.907   1.707 -0.1055 -0.3131  0.0659
  935MPD2    C513730   2.871   3.772   1.738 -0.5004  0.1271 -0.5607
  935MPD2     H13731   2.772   3.872   1.377 -2.2833 -0.3382  0.9300
  935MPD2    H113732   2.844   3.976   1.791 -0.2492  1.0273 -1.0379
  935MPD2    H213733   2.907   3.586   1.662  1.9872  0.9392 -1.3033
  935MPD2    H313734   2.912   3.742   1.834  1.2445  2.4664 -0.5701
  935MPD2     N13735   2.768   4.075   1.562 -0.3366  0.4361  0.4128
  935MPD2    H513736   2.789   4.132   1.643  0.5332 -1.5582  1.6219
  935MPD2    N113737   2.805   3.627   1.399  0.1011 -0.1056 -0.0365
  935MPD2    H713738   2.743   3.643   1.321 -1.0829  0.8098  1.1023
  936MPD2     C13739   1.103   0.520  12.755 -0.1235 -0.1075 -0.5714
  936MPD2    C113740   1.148   0.391  12.736  0.5871  0.9620  0.2168
  936MPD2    C213741   1.241   0.370  12.638  0.1549  0.6351  0.5684
  936MPD2    C313742   1.306   0.479  12.580 -0.5025 -0.6898  1.0138
  936MPD2    C413743   1.268   0.609  12.602 -0.3912  0.0440  0.2554
  936MPD2    C513744   1.158   0.626  12.685 -0.4412  0.6208  0.7437
  936MPD2     H13745   1.285   0.271  12.624  0.7066  0.8781  0.5716
  936MPD2    H113746   1.316   0.693  12.553  0.1957 -0.6662 -0.3828
  936MPD2    H213747   1.036   0.549  12.835  0.2899  1.7014 -0.8724
  936MPD2    H313748   1.117   0.725  12.696 -0.6047  0.3787  2.3608
  936MPD2     N13749   1.420   0.471  12.495  0.1368  0.0542 -0.5542
  936MPD2    H513750   1.479   0.550  12.473  0.7811 -0.4532 -0.6722
  936MPD2    N113751   1.094   0.273  12.802 -0.7319 -0.3033  0.2424
  936MPD2    H713752   1.130   0.184  12.770  1.0957  0.0160  1.4248
  937MPD2     C13753   3.620   1.947  11.878  0.4799 -0.3112 -0.6826
  937MPD2    C113754   3.612   2.076  11.925  0.6221  0.0184 -0.0269
  937MPD2    C213755   3.634   2.180  11.844  0.2872  0.3335  0.0300
  937MPD2    C313756   3.685   2.160  11.717 -0.0289 -0.3370 -0.4143
  937MPD2    C413757   3.712   2.032  11.679  0.0171  0.4064  0.3526
  937MPD2    C513758   3.676   1.926  11.755 -0.5086 -0.0202  0.7988
  937MPD2     H13759   3.611   2.281  11.876  1.9873  0.7836 -0.1492
  937MPD2    H113760   3.774   2.014  11.592 -0.9427 -0.5318 -0.1345
  937MPD2    H213761   3.599   1.864  11.944  0.6958  1.3354  1.4484
  937MPD2    H313762   3.694   1.824  11.724  0.4531  0.0871  1.0124
  937MPD2     N13763   3.719   2.272  11.637  0.2691 -0.3389  0.1960
  937MPD2    H513764   3.710   2.367  11.673 -0.1439 -0.6996  1.0352
  937MPD2    N113765   3.545   2.104  12.047  0.1433 -0.0917 -0.5879
  937MPD2    H713766   3.532   2.201  12.073  1.6255 -0.0385 -0.0701
  938MPD2     C13767   1.684   3.857   0.587  0.3647  0.0208  0.2004
  938MPD2    C113768   1.777   3.921   0.672  0.1639 -0.4247  0.0316
  938MPD2    C213769   1.812   3.858   0.792 -0.2071 -0.1104  0.0789
  938MPD2    C313770   1.754   3.743   0.840 -0.2929 -0.0094  0.2233
  938MPD2    C413771   1.668   3.681   0.757 -0.6981  0.2696  0.4284
  938MPD2    C513772   1.637   3.737   0.637 -0.5939 -0.0035  0.0403
  938MPD2     H13773   1.885   3.911   0.852  1.8800 -3.5890  0.5629
  938MPD2    H113774   1.624   3.586   0.786  0.1690 -0.7543 -1.5900
  938MPD2    H213775   1.659   3.881   0.485 -2.1907  1.4558  1.1675
  938MPD2    H313776   1.566   3.687   0.572 -0.6976  0.4815 -0.2233
  938MPD2     N13777   1.798   3.676   0.955 -0.2278  0.1266  0.6224
  938MPD2    H513778   1.754   3.588   0.979  0.5587 -0.6951 -1.0404
  938MPD2    N113779   1.850   4.034   0.628  0.0222 -0.6713 -0.2386
  938MPD2    H713780   1.923   4.072   0.688  0.1167 -1.7684  0.3513
  939MPD2     C13781   3.236   4.445   1.050 -0.2275  0.3807 -0.3557
  939MPD2    C113782   3.199   4.548   0.964  0.6219 -0.0164  0.0780
  939MPD2    C213783   3.171   4.524   0.833  0.6256 -1.0584 -0.1593
  939MPD2    C313784   3.189   4.398   0.781 -0.0675  0.6053 -0.1044
  939MPD2    C413785   3.230   4.295   0.861 -0.6337  0.2284 -0.6236
  939MPD2    C513786   3.245   4.317   0.995  0.0610  0.4139 -0.4326
  939MPD2     H13787   3.142   4.608   0.771  3.0457 -0.0425  0.0708
  939MPD2    H113788   3.266   4.200   0.822  1.3029  2.0817 -3.3590
  939MPD2    H213789   3.276   4.452   1.150 -1.1941 -0.2818  0.0773
  939MPD2    H313790   3.286   4.241   1.060  1.0191  0.8475 -0.5370
  939MPD2     N13791   3.189   4.385   0.640 -0.1253 -0.5637 -0.3233
  939MPD2    H513792   3.166   4.465   0.582  2.7062  1.3797  1.2751
  939MPD2    N113793   3.184   4.674   1.033  0.4504  0.5048  0.0901
  939MPD2    H713794   3.205   4.681   1.132  2.6818 -0.2686 -0.3155
  940MPD2     C13795   2.334   0.576  13.330  0.1871 -0.1673  0.3978
  940MPD2    C113796   2.274   0.454  13.307 -0.0837  0.4867  0.2935
  940MPD2    C213797   2.288   0.383  13.184 -0.0966  0.0024  0.2575
  940MPD2    C313798   2.384   0.428  13.092 -0.1299 -0.0312  0.2190
  940MPD2    C413799   2.438   0.550  13.107  0.7207  0.2699  0.2381
  940MPD2    C513800   2.418   0.620  13.228  0.3517 -0.2751  0.6622
  940MPD2     H13801   2.245   0.286  13.160  0.3629  0.0310 -0.6832
  940MPD2    H113802   2.513   0.578  13.034  2.2246 -0.9811  1.3034
  940MPD2    H213803   2.323   0.632  13.422  0.0810  2.8702 -1.4374
  940MPD2    H313804   2.461   0.718  13.240  1.0450 -0.3478 -1.1724
  940MPD2     N13805   2.425   0.350  12.977 -0.2969 -0.5267 -0.5982
  940MPD2    H513806   2.498   0.382  12.914 -0.3575 -1.2944 -1.0613
  940MPD2    N113807   2.189   0.393  13.406 -0.2996 -0.6133 -0.3140
  940MPD2    H713808   2.163   0.299  13.377  3.3161 -1.9528  0.8183
  941MPD2     C13809   0.472   4.281  10.196 -0.2348  0.0101 -0.5871
  941MPD2    C113810   0.588   4.269  10.273 -0.2071 -0.3890 -0.9612
  941MPD2    C213811   0.644   4.139  10.280  0.4450 -0.0327 -0.7765
  941MPD2    C313812   0.573   4.027  10.231  0.4822 -0.6204  0.0585
  941MPD2    C413813   0.448   4.040  10.176 -0.2637  0.0843 -0.2251
  941MPD2    C513814   0.403   4.171  10.157 -0.1260  0.0890  0.1657
  941MPD2     H13815   0.736   4.131  10.336 -0.1550 -1.1910  0.0536
  941MPD2    H113816   0.388   3.959  10.137  2.1640 -1.6911 -0.2748
  941MPD2    H213817   0.415   4.373  10.188 -2.2231 -1.2307 -0.8110
  941MPD2    H313818   0.316   4.199  10.098 -1.2434 -0.0734  1.7384
  941MPD2     N13819   0.631   3.900  10.253 -0.0628  0.2118 -0.4845
  941MPD2    H513820   0.585   3.822  10.209  1.2730 -0.8336 -0.0291
  941MPD2    N113821   0.663   4.373  10.328 -0.0306 -0.7150 -0.2200
  941MPD2    H713822   0.742   4.356  10.389 -2.0698 -1.1381  2.2998
  942MPD2     C13823   1.130   2.122   9.499 -0.0436  0.1658 -0.6678
  942MPD2    C113824   1.045   2.037   9.433 -0.3189 -0.6923  0.1618
  942MPD2    C213825   1.099   1.924   9.371  0.7776  0.3897 -0.1199
  942MPD2    C313826   1.232   1.893   9.387 -0.2261  0.4309  0.3868
  942MPD2    C413827   1.317   1.979   9.449  0.4007  0.1753 -0.5024
  942MPD2    C513828   1.268   2.095   9.498  0.5675 -0.2991 -0.8000
  942MPD2     H13829   1.028   1.857   9.324  0.7686 -0.0138  0.4583
  942MPD2    H113830   1.423   1.964   9.467 -0.0898 -0.8614  1.4790
  942MPD2    H213831   1.102   2.209   9.557 -1.9395  0.3917 -1.9370
  942MPD2    H313832   1.338   2.165   9.544 -0.8408  0.9886 -0.6170
  942MPD2     N13833   1.290   1.777   9.330  0.4194  0.9067  0.4951
  942MPD2    H513834   1.389   1.771   9.349  0.1545 -2.2925  0.8249
  942MPD2    N113835   0.908   2.057   9.430 -0.1593  0.2871  0.4593
  942MPD2    H713836   0.853   1.989   9.379  0.8293 -2.3677  2.8855
  943MPD2     C13837   4.530   4.172  10.313  0.0947 -0.3485  0.3187
  943MPD2    C113838   4.623   4.144  10.211 -0.5139 -0.3195  0.1728
  943MPD2    C213839   4.717   4.239  10.178 -0.4720  0.0791 -1.1291
  943MPD2    C313840   4.693   4.366  10.226 -0.0759 -0.1934 -0.5668
  943MPD2    C413841   4.599   4.395  10.321 -0.2182 -0.2483  0.3389
  943MPD2    C513842   4.518   4.293  10.366  0.0679  0.2388 -0.5041
  943MPD2     H13843   0.061   4.221  10.110 -1.9284 -0.0798 -2.8273
  943MPD2    H113844   4.591   4.494  10.364  1.5450 -0.2777  0.7357
  943MPD2    H213845   4.470   4.096  10.363 -0.5974  1.0258  1.5844
  943MPD2    H313846   4.437   4.301  10.438  3.2814 -2.0283  3.3695
  943MPD2     N13847   0.016   4.483  10.180 -0.9638 -0.5271 -0.1887
  943MPD2    H513848   4.707   4.569  10.208  0.2843  0.8873 -2.3717
  943MPD2    N113849   4.640   4.008  10.176 -0.3026 -0.0089 -0.4367
  943MPD2    H713850   4.583   3.940  10.226 -1.2914 -0.2162 -1.8513
  944MPD2     C13851   3.978   3.665  11.054  0.6081  0.4424  0.5720
  944MPD2    C113852   3.942   3.628  11.182 -0.2946  0.3713  0.7766
  944MPD2    C213853   3.917   3.733  11.273  0.2400 -0.0090 -0.0454
  944MPD2    C313854   3.935   3.863  11.232  1.0280 -0.3649  0.4184
  944MPD2    C413855   3.976   3.897  11.104  0.1932  0.3745  0.7548
  944MPD2    C513856   3.992   3.798  11.016 -0.5554  0.2478 -0.3640
  944MPD2     H13857   3.898   3.720  11.379  3.4307  0.9478  0.6513
  944MPD2    H113858   4.005   3.998  11.075  0.0650 -0.2153 -1.4713
  944MPD2    H213859   3.975   3.584  10.982  1.7152  1.2415 -0.3586
  944MPD2    H313860   4.016   3.820  10.912  1.1449 -3.0193 -0.7013
  944MPD2     N13861   3.919   3.958  11.332  0.8383  0.7561  0.3173
  944MPD2    H513862   3.915   3.941  11.432 -0.3574 -1.5053 -0.1153
  944MPD2    N113863   3.952   3.493  11.219 -0.5870  0.6332 -0.1822
  944MPD2    H713864   3.994   3.428  11.153  1.3513  0.0162  1.6632
    1TMC1    C113865   2.881   3.797  14.555  0.0375 -0.1301 -0.4994
    1TMC1    C213866   3.004   3.768  14.503  0.2013 -0.1677 -0.1735
    1TMC1    C313867   3.001   3.650  14.441 -0.0443 -0.3861  0.6028
    1TMC1    C413868   2.774   3.720  14.558  0.3284 -0.1992 -0.2317
    1TMC1    C513869   2.788   3.594  14.509 -0.9951 -0.6308 -0.6957
    1TMC1    C613870   2.898   3.556  14.439  0.2021  0.1938  0.1558
    1TMC1     C13871   2.868   3.918  14.624  0.1013 -0.3903  0.4975
    1TMC1     O13872   2.952   3.930  14.716  0.4116 -0.0940  0.2838
    1TMC1     H13873   3.091   3.826  14.530  0.6738 -2.5780  3.5612
    1TMC1    H113874   2.682   3.757  14.602 -0.8972 -1.2532 -1.9055
    1TMC1    H213875   2.910   3.452  14.412  0.1798  0.3308 -0.3730
    1TMC1    C713876   2.688   3.489  14.527 -0.1619  0.6471  0.2108
    1TMC1    C813877   3.135   3.598  14.432  0.0434  0.3157  0.1447
    1TMC1    O113878   2.683   3.393  14.452  0.3936  0.2133 -0.1212
    1TMC1    O213879   3.225   3.640  14.502  0.0867  0.1873  0.2253
    1TMC1    O313880   2.631   3.508  14.651  0.1347  0.0915  0.2091
    1TMC1    H313881   2.647   3.594  14.695 -0.2322 -0.1060  0.7305
    1TMC1    O513882   3.132   3.486  14.359 -0.2208  0.0546  0.6660
    1TMC1    H513883   3.072   3.488  14.281  0.4545 -0.9934  0.1143
    2MPD2     C13884   2.620   4.345  14.791 -0.4321 -0.2943  0.3263
    2MPD2    C113885   2.570   4.318  14.666  0.9375 -0.0336  0.4048
    2MPD2    C213886   2.618   4.205  14.599 -0.4882  0.5729  0.1687
    2MPD2    C313887   2.721   4.123  14.649  0.7079 -0.5794 -0.5723
    2MPD2    C413888   2.767   4.158  14.773 -0.0342 -0.0833  0.9492
    2MPD2    C513889   2.717   4.264  14.848 -0.9303 -0.2935 -0.6132
    2MPD2     H13890   2.578   4.180  14.501  1.1873  2.6317 -1.0441
    2MPD2    H113891   2.848   4.098  14.812  0.2629  1.2292  2.3386
    2MPD2    H213892   2.590   4.431  14.849 -1.7551 -0.0866 -0.6542
    2MPD2    H313893   2.752   4.286  14.948  0.7336 -2.2580 -0.7555
    2MPD2     N13894   2.762   4.002  14.581  0.1865  0.5074 -0.2641
    2MPD2    H513895   2.717   3.987  14.492 -0.0117  0.5304 -0.1689
    2MPD2    N113896   2.482   4.412  14.615 -0.1790 -0.3487  0.0925
    2MPD2    H713897   2.447   4.489  14.671 -0.7269 -1.6961  1.5879
    3TMC2    C113898   2.364   4.536  14.447  0.0992 -0.3181  0.4334
    3TMC2    C213899   2.285   4.611  14.538  0.7309 -0.1032  0.2634
    3TMC2    C313900   2.233   4.719  14.480 -0.0847 -0.0511 -0.1326
    3TMC2    C413901   2.395   4.580  14.320 -0.4639  0.0973  0.1076
    3TMC2    C513902   2.362   4.708  14.287 -0.6038  0.0764 -0.0017
    3TMC2    C613903   2.275   0.040  14.364  0.0442 -1.0581 -0.6650
    3TMC2     C13904   2.437   4.416  14.485  0.4479 -0.4947  0.0981
    3TMC2     O13905   2.488   4.348  14.397  0.3864 -0.0944 -0.0657
    3TMC2     H13906   2.244   4.573  14.631  0.0351 -0.4690 -0.1860
    3TMC2    H113907   2.466   4.528  14.257 -1.1326  0.0890 -0.6462
    3TMC2    H213908   2.232   0.132  14.328 -1.4362 -1.4952 -0.0448
    3TMC2    C713909   2.377   0.005  14.151  0.4721 -0.2304 -0.1746
    3TMC2    C813910   2.158   0.058  14.574  0.7726  0.4312 -0.5753
    3TMC2    O113911   2.388   4.652  14.074  0.2213  0.3537 -0.1259
    3TMC2    O213912   2.076   0.141  14.543 -0.7988 -0.0991 -0.0327
    3TMC2    O513913   2.244   0.072  14.680 -0.8805 -0.5742  0.4368
    3TMC2    H513914   2.314   0.003  14.686  0.7444  0.9572 -0.8512
    4TMC2    C113915   2.363   0.858  13.671 -0.1590 -0.5426  0.0804
    4TMC2    C213916   2.466   0.919  13.736  0.0640 -0.1816  0.2273
    4TMC2    C313917   2.464   0.914  13.869 -0.0977  0.4452  1.4049
    4TMC2    C413918   2.279   0.771  13.745  0.2993 -0.1838 -0.2359
    4TMC2    C513919   2.306   0.749  13.875 -0.3963 -0.6951 -0.0182
    4TMC2    C613920   2.403   0.812  13.944  0.8562 -0.4743 -0.8768
    4TMC2     C13921   2.314   0.923  13.552  0.3989  0.0120  0.0783
    4TMC2     O13922   2.378   1.022  13.520 -0.2847 -0.8110  0.1514
    4TMC2     H13923   2.533   0.992  13.693  0.1911 -1.7683 -2.3126
    4TMC2    H113924   2.187   0.726  13.709  0.5847 -0.3533 -0.7556
    4TMC2    H213925   2.422   0.803  14.051 -1.0847 -0.4599 -0.5355
    4TMC2    C713926   2.281   0.610  13.918  0.0364  0.9750  0.5794
    4TMC2    C813927   2.576   0.969  13.929  0.2410  0.3271  0.2115
    4TMC2    O113928   2.234   0.596  14.027 -0.8685 -0.2775 -0.3270
    4TMC2    O213929   2.629   0.909  14.016  0.2404  0.3562  0.3246
    4TMC2    O513930   2.594   1.100  13.891 -0.4330  0.2621  0.5130
    4TMC2    H513931   2.529   1.125  13.821 -0.5475 -0.5767  0.3232
    5MPD2     C13932   1.965   1.031  13.195  1.1982  0.2262  0.6195
    5MPD2    C113933   1.946   0.906  13.229 -0.3337 -0.1590  0.4074
    5MPD2    C213934   2.029   0.851  13.325 -0.1849  0.0296 -0.3822
    5MPD2    C313935   2.135   0.923  13.376  0.2001 -0.3347  0.8126
    5MPD2    C413936   2.153   1.053  13.340 -0.4116  0.2292  0.1503
    5MPD2    C513937   2.072   1.101  13.247  0.5597 -0.1643  0.0269
    5MPD2     H13938   2.008   0.751  13.363  0.1722  0.6354  1.4317
    5MPD2    H113939   2.224   1.124  13.381  1.9627 -1.0301 -1.7833
    5MPD2    H213940   1.893   1.083  13.132 -0.5390 -2.2038  0.6282
    5MPD2    H313941   2.077   1.205  13.215  2.5525 -0.3467 -0.2386
    5MPD2     N13942   2.215   0.864  13.482 -0.1855  0.5524  0.1168
    5MPD2    H513943   2.189   0.768  13.503  0.1232  0.4590  0.0705
    5MPD2    N113944   1.838   0.839  13.179  0.0200 -0.5604  0.3639
    5MPD2    H713945   1.779   0.879  13.107  1.9276 -0.7900 -1.3368
    6MPD1     C13946   0.770   1.945  13.625 -0.8273  0.3620 -0.1553
    6MPD1    C113947   0.765   1.947  13.483 -0.0424 -0.6067  0.0162
    6MPD1    C213948   0.781   1.824  13.425 -0.5001 -0.0278  0.6015
    6MPD1    C313949   0.846   1.720  13.498  0.0650 -0.8996  0.7256
    6MPD1    C413950   0.864   1.730  13.634  0.1534  0.5102  0.3093
    6MPD1    C513951   0.823   1.841  13.699 -0.1064  0.4731  0.4619
    6MPD1     H13952   0.745   1.813  13.324 -1.0717  0.2374  0.7756
    6MPD1    H113953   0.903   1.650  13.696 -1.6359 -0.2996  0.3844
    6MPD1    H213954   0.747   2.037  13.678 -0.5045  1.2244 -1.4922
    6MPD1    H313955   0.844   1.847  13.805 -0.2766  0.0479  0.5200
    6MPD1     N13956   0.875   1.591  13.440 -0.4428  0.1227  0.3122
    6MPD1    H513957   0.913   1.517  13.498  0.8973  1.1856  0.7990
    6MPD1    N113958   0.720   2.053  13.407 -0.7525  0.2418  0.3224
    6MPD1    H613959   0.757   2.138  13.448  2.1703 -0.7389 -0.2723
    6MPD1    H713960   0.756   2.049  13.311 -1.5683  3.5739 -0.1322
    7MPD2     C13961   0.982   0.798  13.431  0.0563  0.0820 -0.4127
    7MPD2    C113962   1.057   0.867  13.337  0.4904  0.3282 -0.4236
    7MPD2    C213963   1.161   0.798  13.277 -0.3348 -0.2540  0.0787
    7MPD2    C313964   1.191   0.669  13.314 -0.8806  0.0796  0.0489
    7MPD2    C413965   1.121   0.605  13.411 -0.3441  0.6833  0.6092
    7MPD2    C513966   1.016   0.670  13.470 -0.2514  0.4326  0.3405
    7MPD2     H13967   1.234   0.849  13.216 -1.5698 -0.1123 -1.2969
    7MPD2    H113968   1.150   0.503  13.435 -1.5953  0.6375  1.9488
    7MPD2    H213969   0.900   0.847  13.482 -0.8513  0.8693 -2.6358
    7MPD2    H313970   0.962   0.627  13.554 -1.6471  0.0369 -0.7629
    7MPD2     N13971   1.304   0.604  13.257  0.1172 -0.3260 -0.4458
    7MPD2    H513972   1.352   0.523  13.296  0.1913 -1.3680 -2.6996
    7MPD2    N113973   1.030   0.997  13.303  0.1185 -0.0120 -0.5800
    7MPD2    H713974   1.091   1.049  13.241 -0.5951  2.3946  0.7466
    8TMC3    C113975   1.472   0.593  13.086  0.4004  0.6035 -0.8507
    8TMC3    C213976   1.577   0.623  13.168 -0.3154 -0.3660 -0.2238
    8TMC3    C313977   1.694   0.671  13.112  0.3413 -0.7530  0.4218
    8TMC3    C413978   1.484   0.622  12.949 -0.7291 -0.3472  0.0989
    8TMC3    C513979   1.587   0.697  12.906 -0.2401  0.3213 -0.3422
    8TMC3    C613980   1.700   0.714  12.984  0.3880 -0.0747  0.2417
    8TMC3     C13981   1.339   0.638  13.128  0.1247 -0.5187 -0.0221
    8TMC3     O13982   1.278   0.710  13.046  0.5857 -0.2531  0.4384
    8TMC3     H13983   1.575   0.605  13.275  0.2857 -0.1539 -0.1792
    8TMC3    H113984   1.406   0.585  12.884  0.0745 -0.6183 -0.7241
    8TMC3    H213985   1.793   0.752  12.942 -0.2167  0.7682 -0.3056
    8TMC3    C713986   1.551   0.811  12.824  0.2766 -0.1756 -0.5694
    8TMC3    C813987   1.790   0.714  13.210 -0.0675  0.1700  0.3706
    8TMC3    O113988   1.638   0.855  12.753 -0.9071  0.0847  0.9440
    8TMC3    O213989   1.821   0.638  13.300 -0.1710 -0.2056 -0.2406
    9TMC3    C113990   0.915   1.434  13.262  0.4618  0.1840  0.2586
    9TMC3    C213991   0.927   1.416  13.126  0.3199 -0.0291 -0.0899
    9TMC3    C313992   0.932   1.290  13.068 -0.0218 -0.2633  0.3473
    9TMC3    C413993   0.918   1.324  13.349  0.2156 -0.5946 -0.1635
    9TMC3    C513994   0.932   1.203  13.288  0.3029 -0.0956 -0.1997
    9TMC3    C613995   0.934   1.187  13.154 -0.3210  0.1686  0.1727
    9TMC3     C13996   0.856   1.561  13.305  0.2246  0.3876 -0.3271
    9TMC3     O13997   0.822   1.630  13.211  0.0223  0.2409  0.4342
    9TMC3     H13998   0.946   1.503  13.065 -1.9173 -0.1870 -1.0129
    9TMC3    H113999   0.926   1.340  13.456  0.5452 -1.0790 -0.1200
    9TMC3    H214000   0.935   1.086  13.116 -0.3312  0.2201  0.0365
    9TMC3    C714001   0.940   1.077  13.360  0.5131  0.4847  0.3220
    9TMC3    C814002   1.003   1.280  12.941  0.1343 -0.1783 -0.0337
    9TMC3    O114003   0.884   1.075  13.467 -0.0246  0.1816 -0.0432
    9TMC3    O214004   1.034   1.379  12.880 -0.2673  0.3991 -0.1846
   10MPD2     C14005   1.407   1.053  12.709 -0.0718  0.4493  0.2132
   10MPD2    C114006   1.351   0.966  12.799  0.6776 -1.2840  0.0398
   10MPD2    C214007   1.227   0.994  12.853 -0.3537  0.0800 -0.1109
   10MPD2    C314008   1.166   1.118  12.837 -0.3418 -0.2697  0.2535
   10MPD2    C414009   1.226   1.202  12.744  0.5213  0.3096  0.4295
   10MPD2    C514010   1.342   1.173  12.674  0.0482  0.2177 -0.3358
   10MPD2     H14011   1.195   0.930  12.935 -0.6735 -0.6385 -0.8010
   10MPD2    H114012   1.181   1.300  12.729 -2.2671 -0.9671  0.4258
   10MPD2    H214013   1.505   1.039  12.665 -0.6560 -0.5887 -0.7506
   10MPD2    H314014   1.391   1.248  12.613 -2.6785  0.2092 -2.5286
   10MPD2     N14015   1.064   1.155  12.927  0.3256  0.1304 -0.2548
   10MPD2    H514016   1.022   1.076  12.974 -0.0451 -0.7086 -1.9981
   10MPD2    N114017   1.417   0.847  12.843 -0.4591 -0.1346 -0.3142
   10MPD2    H714018   1.370   0.798  12.919  0.0666  0.8139  0.6217
   11MPD2     C14019   2.422   0.123  13.877 -0.0959 -0.5878 -0.2554
   11MPD2    C114020   2.389   0.197  13.990  0.1380  0.0574 -0.3163
   11MPD2    C214021   2.344   0.328  13.969 -1.1176 -0.1514 -0.3568
   11MPD2    C314022   2.363   0.387  13.846  0.0400  0.2236  0.0062
   11MPD2    C414023   2.406   0.309  13.736  0.4176 -0.1574 -0.2615
   11MPD2    C514024   2.436   0.177  13.750  0.6920 -0.7683 -0.8594
   11MPD2     H14025   2.309   0.381  14.057  1.1329  2.8825 -1.2893
   11MPD2    H114026   2.400   0.354  13.637 -1.4904 -0.9225 -0.5039
   11MPD2    H214027   2.457   0.021  13.881  1.1393 -0.2474 -2.5571
   11MPD2    H314028   2.456   0.114  13.664 -0.0031 -1.2068 -0.7039
   11MPD2     N14029   2.337   0.519  13.829 -0.3436  0.4374  0.7706
   11MPD2    H514030   2.379   0.556  13.743 -1.1158  0.3697  0.3649
   11MPD2    N114031   2.370   0.137  14.121 -1.0868  0.1896 -0.1479
   11MPD2    H714032   2.365   0.209  14.192 -1.0717  0.6987 -0.6628
    1MPD1     C14033   1.539   2.310  16.595  0.8986 -0.2321  0.6759
    1MPD1    C114034   1.636   2.220  16.554  0.1849  0.0799 -0.3680
    1MPD1    C214035   1.601   2.107  16.474  0.5888 -1.0409  0.2511
    1MPD1    C314036   1.475   2.099  16.412  0.2489 -0.6695  0.7086
    1MPD1    C414037   1.385   2.191  16.445 -0.0836  0.5754  0.1836
    1MPD1    C514038   1.421   2.296  16.529 -0.6783 -0.1681 -0.4149
    1MPD1     H14039   1.684   2.044  16.446  1.6180  0.2090  0.5101
    1MPD1    H114040   1.283   2.188  16.408 -0.8321 -0.8145  2.3841
    1MPD1    H214041   1.552   2.394  16.662  0.7539  1.6810 -1.6981
    1MPD1    H314042   1.344   2.370  16.549 -0.9212 -0.5941  0.1893
    1MPD1     N14043   1.435   2.003  16.321  0.1531 -0.0246 -0.3457
    1MPD1    H514044   1.339   2.011  16.287 -0.0894 -0.0080  0.3493
    1MPD1    N114045   1.761   2.234  16.616 -0.2824  0.3500 -0.4715
    1MPD1    H614046   1.789   2.331  16.620  1.8381 -0.3077  0.4692
    1MPD1    H714047   1.834   2.196  16.556  1.5633  2.0760  0.6912
    2MPD1     C14048   1.848   1.113  16.019 -0.1079  0.1496  0.1294
    2MPD1    C114049   1.890   1.211  16.101  0.2473  0.2593  0.7544
    2MPD1    C214050   1.831   1.339  16.105 -0.1764  0.3457 -0.1268
    2MPD1    C314051   1.706   1.349  16.047  0.3474 -0.0569 -0.3681
    2MPD1    C414052   1.653   1.248  15.964 -1.2791 -0.4422  0.0910
    2MPD1    C514053   1.730   1.132  15.953  0.4395 -0.9318  0.0172
    2MPD1     H14054   1.872   1.423  16.160 -0.7516  0.0624  0.7453
    2MPD1    H114055   1.566   1.267  15.903 -1.8977 -1.1376  0.7621
    2MPD1    H214056   1.905   1.021  16.018  0.0247  0.2238  1.2828
    2MPD1    H314057   1.688   1.060  15.885 -1.0995 -0.7551  0.7920
    2MPD1     N14058   1.625   1.463  16.069  0.9105 -0.0788  0.0247
    2MPD1    H514059   1.673   1.541  16.113 -0.9054  1.6181 -1.0161
    2MPD1    N114060   2.017   1.199  16.157  0.2674  0.5404 -0.5284
    2MPD1    H614061   2.045   1.101  16.166 -0.4851  0.4447  0.7455
    2MPD1    H714062   2.008   1.235  16.252  1.5677  0.9947 -0.5741
    3TMC3    C114063   1.452   1.621  16.051  0.2479 -0.0747  0.6886
    3TMC3    C214064   1.354   1.671  15.967  0.2911 -0.4556  0.0025
    3TMC3    C314065   1.304   1.797  15.993 -0.4506 -0.0172 -0.0820
    3TMC3    C414066   1.497   1.690  16.160  0.2994  0.1695 -0.5557
    3TMC3    C514067   1.447   1.816  16.179 -0.0050  0.3117 -0.0367
    3TMC3    C614068   1.351   1.872  16.107  0.8022  0.2050  0.6678
    3TMC3     C14069   1.499   1.481  16.029 -0.3040 -0.3326 -0.1349
    3TMC3     O14070   1.413   1.400  15.999  0.0726  0.2286  0.2557
    3TMC3     H14071   1.316   1.600  15.895  0.2828  0.9529 -1.3862
    3TMC3    H114072   1.565   1.643  16.229 -0.7943 -1.2336 -0.4417
    3TMC3    H214073   1.319   1.974  16.121  0.7421  0.4255 -1.1120
    3TMC3    C714074   1.506   1.895  16.282 -0.2615  0.2669 -0.3382
    3TMC3    C814075   1.226   1.856  15.893  0.1149 -0.5148  0.4533
    3TMC3    O114076   1.624   1.867  16.301  0.5017  0.4036 -0.3741
    3TMC3    O214077   1.225   1.802  15.782  0.0192  0.0734  0.2128
    4MPD1     C14078   0.852   2.181  15.764 -0.1274  0.1745  0.1039
    4MPD1    C114079   0.886   2.203  15.894 -0.7468  0.1824  0.2889
    4MPD1    C214080   0.996   2.145  15.948  0.9618  0.3363  0.7722
    4MPD1    C314081   1.065   2.048  15.873 -0.5173  0.3054 -0.5452
    4MPD1    C414082   1.029   2.017  15.747 -0.0816 -0.7781  0.6763
    4MPD1    C514083   0.922   2.082  15.692  0.1558  0.5183  0.2151
    4MPD1     H14084   1.012   2.158  16.055  0.2011 -1.5619  1.1115
    4MPD1    H114085   1.070   1.933  15.691  0.9642 -0.2512  0.6400
    4MPD1    H214086   0.766   2.235  15.726  0.5447  0.8919 -0.4142
    4MPD1    H314087   0.890   2.059  15.591 -0.0559 -0.7193  0.5644
    4MPD1     N14088   1.165   1.971  15.938 -0.4121 -0.0508  0.0988
    4MPD1    H514089   1.178   1.980  16.039 -1.8192  1.5756  0.1320
    4MPD1    N114090   0.790   2.272  15.971 -0.5398  0.4526  0.7577
    4MPD1    H614091   0.833   2.333  16.040 -0.3911 -2.2184  3.0494
    4MPD1    H714092   0.730   2.318  15.904  1.5196  0.0121 -1.3971
    1TCq1    O114093   4.338   0.552  11.037 -0.1045 -0.0302 -0.0075
    1TCq1    C114094   4.435   0.513  11.115 -0.6367  0.4252  0.7404
    1TCq1    O214095   4.530   0.448  11.070  0.1860 -0.2183  0.1888
    1TCq1    C214096   4.435   0.573  11.245  0.0396 -0.1018  0.7591
    1TCq1    C314097   4.322   0.612  11.306 -0.3874 -0.1961  0.2348
    1TCq1    C414098   4.328   0.629  11.442  0.3049 -0.0151  0.0318
    1TCq1    C514099   4.449   0.649  11.503  0.4083  0.3500 -0.1983
    1TCq1    C614100   4.560   0.615  11.441  0.5027  0.3381 -0.3218
    1TCq1    C714101   4.558   0.577  11.306  0.1109 -0.3712  0.7803
    1TCq1    C814102   4.694   0.616  11.502  0.3960  0.4979 -0.3151
    1TCq1    O414103   4.714   0.693  11.593  0.0611 -0.2267  0.3659
    1TCq1    C914104   4.223   0.693  11.518  0.3911 -0.5030 -0.4585
    1TCq1    O514105   4.139   0.762  11.458  0.0829  0.7385 -0.3073
    1TCq1    O614106   4.201   0.648  11.635 -0.1711 -0.3405  0.2894
    1TCq1    H114107   4.276   0.613  11.081 -1.6139 -0.4486 -1.5628
    1TCq1    H214108   4.226   0.595  11.260 -0.1830 -1.1987  0.1864
    1TCq1    H314109   4.463   0.657  11.611  1.8628  1.2352 -0.4429
    1TCq1    H414110   4.650   0.558  11.252 -0.0950 -0.7310  0.5501
    2MPD1     C14111   0.446   0.479  11.516 -0.2576  0.1750  0.4984
    2MPD1    C114112   0.383   0.396  11.427 -0.4017 -0.7401  0.1499
    2MPD1    C214113   0.247   0.414  11.398 -0.2391  0.8177 -0.1203
    2MPD1    C314114   0.174   0.501  11.482  0.3672  0.4613  0.1592
    2MPD1    C414115   0.238   0.573  11.580  0.4949 -0.0362  0.2187
    2MPD1    C514116   0.374   0.573  11.586  0.0063  0.1894  0.2539
    2MPD1     H14117   0.192   0.354  11.328  1.4437 -0.9481  0.0835
    2MPD1    H114118   0.186   0.642  11.646 -1.8823 -0.7479 -0.8767
    2MPD1    H214119   0.552   0.473  11.536  0.0765  0.8412 -1.0718
    2MPD1    H314120   0.418   0.637  11.663  1.0224  0.1972 -0.3423
    2MPD1     N14121   0.046   0.524  11.447  0.2637  0.1177  0.0835
    2MPD1    H514122   0.006   0.463  11.375 -2.2294  0.8927  0.8109
    2MPD1    N114123   0.458   0.316  11.343  0.1086  0.2320  0.5679
    2MPD1    H614124   0.530   0.284  11.407  1.4733  3.1278  0.4716
    2MPD1    H714125   0.402   0.238  11.307  3.3575 -1.3184 -1.1657
    1TMC1    C114126   2.917   4.083   2.487 -0.0081  0.4459 -0.0877
    1TMC1    C214127   2.944   4.107   2.621  0.1387  0.5271 -0.1536
    1TMC1    C314128   2.994   4.226   2.657  0.0912 -0.2313  0.3494
    1TMC1    C414129   2.941   4.184   2.394 -0.5306 -1.1546  0.8311
    1TMC1    C514130   2.982   4.305   2.438 -0.1765  0.3123 -0.1304
    1TMC1    C614131   3.013   4.324   2.572 -0.3006 -0.4852  0.3127
    1TMC1     C14132   2.895   3.949   2.436 -0.0900  0.2642 -0.2831
    1TMC1     O14133   2.894   3.936   2.316 -0.1494 -0.2131  0.2560
    1TMC1     H14134   2.950   4.028   2.695  1.8341  2.9836  2.2634
    1TMC1    H114135   2.923   4.165   2.289 -2.3832 -1.4160  1.1943
    1TMC1    H214136   3.056   4.417   2.608  2.0489 -0.8489 -1.5360
    1TMC1    C714137   3.039   4.398   2.338 -0.6427 -0.5669 -0.2695
    1TMC1    C814138   3.067   4.225   2.778 -0.3494 -0.1827 -0.2603
    1TMC1    O114139   2.978   4.443   2.243 -0.7505  0.3847 -0.2406
    1TMC1    O214140   3.029   4.152   2.866 -0.5948 -0.4792 -0.8420
    1TMC1    O314141   3.124   4.482   2.409 -0.1359 -0.0451 -0.0021
    1TMC1    H314142   3.192   4.432   2.459  2.1799 -0.6340 -3.7511
    1TMC1    O514143   3.195   4.233   2.739  0.5476 -0.3134 -0.5840
    1TMC1    H514144   3.217   4.275   2.653 -3.3585  0.7501 -1.0404
    2MPD1     C14145   2.754   3.469   2.503  0.5245  0.0203  0.2867
    2MPD1    C114146   2.746   3.528   2.624 -0.0186 -0.2354  0.2899
    2MPD1    C214147   2.784   3.658   2.633 -0.1170 -0.0115  0.0176
    2MPD1    C314148   2.834   3.722   2.526  0.4038  0.2225 -0.7540
    2MPD1    C414149   2.850   3.657   2.407 -1.0079 -0.3573 -0.2592
    2MPD1    C514150   2.814   3.529   2.394  0.2471  0.6170  0.1135
    2MPD1     H14151   2.770   3.715   2.724 -1.2364  0.0923 -0.2213
    2MPD1    H114152   2.884   3.706   2.317  0.1500 -0.7652 -0.0443
    2MPD1    H214153   2.715   3.369   2.487  1.2099  0.1732 -2.2889
    2MPD1    H314154   2.835   3.477   2.301  0.8995  2.4074 -0.7362
    2MPD1     N14155   2.860   3.859   2.539 -0.3504  0.0373 -0.5780
    2MPD1    H514156   2.861   3.893   2.634 -1.1070  0.5764 -0.7610
    2MPD1    N114157   2.667   3.470   2.730  0.2026 -0.1434 -0.3864
    2MPD1    H614158   2.660   3.369   2.724 -0.1737 -0.1044 -0.5747
    2MPD1    H714159   2.695   3.494   2.825 -0.2738 -1.4529  0.0766
    1MPD1     C14160   2.976   0.997  12.486  0.4538  0.4144 -0.5482
    1MPD1    C114161   2.922   1.126  12.467  0.3248 -0.1085 -0.9627
    1MPD1    C214162   2.987   1.215  12.395  0.6553  0.6640 -0.0735
    1MPD1    C314163   3.075   1.175  12.299  0.7997  0.5098  0.2734
    1MPD1    C414164   3.113   1.042  12.299  0.0762 -0.0615  0.2998
    1MPD1    C514165   3.077   0.962  12.401 -0.4197  0.2979 -0.7808
    1MPD1     H14166   2.950   1.317  12.388 -1.6833 -0.1431  0.5767
    1MPD1    H114167   3.204   1.013  12.247 -0.6821 -0.9215 -0.5254
    1MPD1    H214168   2.944   0.927  12.563  1.9406  0.0816 -0.2474
    1MPD1    H314169   3.139   0.875  12.422  1.0372  1.8793  1.5386
    1MPD1     N14170   3.133   1.272  12.209  0.1593  0.2382 -0.3049
    1MPD1    H514171   3.117   1.369  12.231 -1.4664  0.0549 -0.6265
    1MPD1    N114172   2.823   1.167  12.554  0.2271  0.7575 -0.2797
    1MPD1    H614173   2.754   1.231  12.514 -0.6346  0.7996  1.2986
    1MPD1    H714174   2.761   1.095  12.588 -1.4348  0.4678 -3.8774
    2MPD1     C14175   2.050   1.666  10.845 -0.0020 -0.0519  0.1535
    2MPD1    C114176   2.130   1.564  10.813  0.0644 -0.2023 -0.4372
    2MPD1    C214177   2.235   1.579  10.724 -0.1570  0.2618  0.0747
    2MPD1    C314178   2.266   1.703  10.683 -0.0597 -0.3424 -0.7572
    2MPD1    C414179   2.179   1.811  10.718 -0.5132  0.2699  0.5146
    2MPD1    C514180   2.080   1.792  10.806 -0.0796  0.0737  0.0349
    2MPD1     H14181   2.282   1.488  10.689  2.7658  2.2745 -1.1883
    2MPD1    H114182   2.190   1.910  10.675 -0.6795  0.6776  1.4205
    2MPD1    H214183   1.963   1.657  10.908 -0.5217  0.7875 -0.4418
    2MPD1    H314184   2.012   1.873  10.827  0.9400  0.6391  1.1515
    2MPD1     N14185   2.387   1.730  10.612 -0.0194 -0.5974 -0.4000
    2MPD1    H514186   2.409   1.824  10.583 -0.1342  0.3931  2.6925
    2MPD1    N114187   2.079   1.435  10.852 -0.6533  0.5971  0.1160
    2MPD1    H614188   2.144   1.360  10.833 -0.1182  1.2958 -0.7825
    2MPD1    H714189   2.057   1.429  10.951 -0.1848 -1.4944  0.0901
    3MPD1     C14190   2.750   2.349   9.992  0.0837  0.7102  0.3827
    3MPD1    C114191   2.821   2.387  10.102  0.2975 -0.1299 -0.0995
    3MPD1    C214192   2.817   2.291  10.206 -0.7181  0.1234 -0.2619
    3MPD1    C314193   2.721   2.182  10.205 -0.8687 -0.1850  0.7662
    3MPD1    C414194   2.648   2.163  10.086  0.7381 -0.6451  0.6822
    3MPD1    C514195   2.665   2.248   9.979 -0.0629 -0.4020 -0.1084
    3MPD1     H14196   2.871   2.310  10.298  2.9572 -1.8087 -1.9995
    3MPD1    H114197   2.589   2.074  10.067 -0.7869  0.1504  1.6867
    3MPD1    H214198   2.778   2.399   9.900 -0.9692 -0.7077 -0.7113
    3MPD1    H314199   2.631   2.221   9.880  0.1231  0.1662 -0.3257
    3MPD1     N14200   2.724   2.091  10.309 -0.1652  0.8541  0.3036
    3MPD1    H514201   2.784   2.102  10.391  0.4686 -1.9913  0.2359
    3MPD1    N114202   2.915   2.499  10.097 -0.3209  0.6722  0.0414
    3MPD1    H614203   2.937   2.542  10.186  0.4046  0.1292  0.1309
    3MPD1    H714204   2.889   2.578  10.039 -0.2167 -0.1244 -1.0947
    4MPD2     C14205   3.146   1.954  11.843 -0.3650 -0.0099 -0.0334
    4MPD2    C114206   3.254   1.871  11.826  0.5343  0.7766 -0.5054
    4MPD2    C214207   3.340   1.891  11.719 -0.7601 -0.1464  0.6853
    4MPD2    C314208   3.319   1.978  11.617 -0.3889 -0.3993 -0.6512
    4MPD2    C414209   3.198   2.053  11.630 -0.4807 -0.2113  0.1285
    4MPD2    C514210   3.120   2.046  11.741 -0.1105  0.2045 -0.5435
    4MPD2     H14211   3.433   1.835  11.711 -0.5667  0.3032 -0.1033
    4MPD2    H114212   3.153   2.114  11.553 -0.4299 -1.7740 -1.1428
    4MPD2    H214213   3.070   1.942  11.920  0.8468  1.1775  1.3529
    4MPD2    H314214   3.029   2.105  11.734  0.6975  1.5440  0.1021
    4MPD2     N14215   3.405   1.978  11.504 -0.4087  0.0678 -0.0054
    4MPD2    H514216   3.483   1.914  11.512  2.1912  3.2080 -0.5057
    4MPD2    N114217   3.295   1.768  11.913  0.1280 -0.1634 -0.5549
    4MPD2    H714218   3.386   1.726  11.896 -0.2729 -0.9106 -0.8636
    5TMC3    C114219   3.300   1.604  12.073 -0.6487 -0.3022 -0.1413
    5TMC3    C214220   3.221   1.491  12.098 -0.5914  0.6048 -0.4563
    5TMC3    C314221   3.285   1.364  12.075 -0.0628  0.0172 -0.0945
    5TMC3    C414222   3.423   1.597  12.024 -0.2809 -0.3529  0.7367
    5TMC3    C514223   3.484   1.478  11.997 -0.0738  0.3331 -0.3699
    5TMC3    C614224   3.414   1.358  12.018  0.2254  0.7100 -0.3239
    5TMC3     C14225   3.219   1.710  12.019  0.3586  0.1357  0.6582
    5TMC3     O14226   3.102   1.726  12.043  0.1459 -0.0343 -0.2728
    5TMC3     H14227   3.125   1.515  12.142  0.6690  0.9235  2.1256
    5TMC3    H114228   3.477   1.690  12.025  1.0361 -1.1104  0.5678
    5TMC3    H214229   3.455   1.263  11.986  0.7967  0.1117  2.1685
    5TMC3    C714230   3.569   1.497  11.888  0.2007 -0.1766  0.3833
    5TMC3    C814231   3.222   1.241  12.115  0.1840  0.1357  0.2148
    5TMC3    O114232   3.561   1.614  11.849  0.6382  0.2296 -0.4678
    5TMC3    O214233   3.256   1.137  12.067  0.0203  0.1075  0.4933
    6TMC3    C114234   2.594   1.702  10.521 -0.5321  0.6146  0.6959
    6TMC3    C214235   2.569   1.819  10.455 -0.1281  0.0089 -0.7814
    6TMC3    C314236   2.673   1.893  10.423  0.2575  0.5780  0.7068
    6TMC3    C414237   2.719   1.672  10.559  0.3752  0.0140  0.0227
    6TMC3    C514238   2.818   1.758  10.537  0.0930 -0.5975 -0.0013
    6TMC3    C614239   2.803   1.871  10.459  0.3912  0.4952 -0.0569
    6TMC3     C14240   2.480   1.635  10.584  0.4660  0.8114 -0.5846
    6TMC3     O14241   2.489   1.517  10.616 -0.1657 -0.1418  0.3208
    6TMC3     H14242   2.465   1.842  10.432  0.2648  1.0372 -1.5252
    6TMC3    H114243   2.731   1.599  10.638  0.6051 -0.6944 -0.6625
    6TMC3    H214244   2.878   1.946  10.442  0.0075  1.1095  0.9766
    6TMC3    C714245   2.944   1.737  10.607  0.2542 -0.3150  0.0329
    6TMC3    C814246   2.632   1.987  10.316  0.0605  0.4240  0.1648
    6TMC3    O114247   2.996   1.842  10.653 -0.5300 -0.1749  0.2373
    6TMC3    O214248   2.522   1.985  10.264 -0.3729 -0.1376 -0.0214
    7MPD2     C14249   3.745   1.373  11.431 -0.5477  0.6078 -0.9139
    7MPD2    C114250   3.665   1.479  11.460 -0.1443 -0.4008  0.8748
    7MPD2    C214251   3.618   1.486  11.593 -0.4041  0.5486  0.1184
    7MPD2    C314252   3.655   1.390  11.683 -0.1182 -0.1814  0.3125
    7MPD2    C414253   3.732   1.283  11.646 -0.0680 -0.3331  0.4307
    7MPD2    C514254   3.787   1.280  11.514 -0.0231 -0.3785  0.3892
    7MPD2     H14255   3.539   1.558  11.614 -1.6432 -1.4203  2.1985
    7MPD2    H114256   3.763   1.209  11.719  1.1238  1.0398  1.3257
    7MPD2    H214257   3.792   1.367  11.333  0.1104 -0.0115 -0.5592
    7MPD2    H314258   3.849   1.197  11.483 -1.2906 -0.0478 -3.0231
    7MPD2     N14259   3.615   1.388  11.819 -0.5026  0.0102 -0.7230
    7MPD2    H514260   3.635   1.309  11.880 -1.8273  0.0691 -0.2178
    7MPD2    N114261   3.638   1.578  11.365 -0.6048 -0.2013  0.0866
    7MPD2    H714262   3.662   1.548  11.271  1.4043  4.5204 -0.9083
    8TMC3    C114263   3.570   1.791  11.282  0.1254 -0.3343  0.4660
    8TMC3    C214264   3.482   1.741  11.187 -0.3804  0.2812 -0.2700
    8TMC3    C314265   3.385   1.830  11.134 -0.1224 -0.3371 -0.3971
    8TMC3    C414266   3.569   1.913  11.322  0.1596  0.1371  0.0300
    8TMC3    C514267   3.469   1.996  11.276 -0.8438  1.4880  0.9418
    8TMC3    C614268   3.387   1.961  11.170  0.3822 -0.0823  0.0834
    8TMC3     C14269   3.596   1.708  11.398 -0.1116 -0.7384  0.0456
    8TMC3     O14270   3.595   1.757  11.511  0.2854  0.9849 -0.6392
    8TMC3     H14271   3.483   1.635  11.166 -1.3510  0.4850 -1.3391
    8TMC3    H114272   3.647   1.945  11.391 -0.2315  1.8259 -0.3057
    8TMC3    H214273   3.311   2.027  11.131  0.5051 -0.5138 -0.9040
    8TMC3    C714274   3.391   2.048  11.389  0.3369  0.1958 -0.9041
    8TMC3    C814275   3.309   1.795  11.011 -0.1725 -0.8326 -0.6222
    8TMC3    O114276   3.297   2.117  11.354  0.8141  0.1647 -0.6376
    8TMC3    O214277   3.236   1.879  10.967  0.2483 -0.1610 -0.0454
    9MPD2     C14278   3.326   1.479  10.826 -0.4712  0.3902 -0.4748
    9MPD2    C114279   3.272   1.605  10.862  0.8877  0.1669 -0.6177
    9MPD2    C214280   3.164   1.648  10.793 -0.0188  0.0890 -0.1934
    9MPD2    C314281   3.115   1.571  10.680 -0.1548 -0.1715 -0.2665
    9MPD2    C414282   3.179   1.458  10.632  0.2457  0.3872  0.8289
    9MPD2    C514283   3.279   1.417  10.716  0.0367 -0.5441 -0.4114
    9MPD2     H14284   3.120   1.744  10.819 -0.4965  0.4930 -2.5311
    9MPD2    H114285   3.132   1.393  10.559  0.5195 -0.3583  1.3177
    9MPD2    H214286   3.405   1.433  10.884 -0.4677  0.2184 -0.6175
    9MPD2    H314287   3.335   1.329  10.687  1.6171  0.1404  0.5599
    9MPD2     N14288   2.995   1.606  10.615  0.1716  0.4491 -0.4790
    9MPD2    H514289   2.943   1.532  10.569  0.0629  1.1324 -1.4684
    9MPD2    N114290   3.337   1.669  10.973  0.6843 -0.0916  0.1245
    9MPD2    H714291   3.421   1.627  11.011 -0.3447  1.4104  4.0497
    1MPD1     C14292   2.683   1.216  16.711  0.7399  0.7920 -0.6267
    1MPD1    C114293   2.740   1.180  16.833  1.0917 -0.1788 -0.3120
    1MPD1    C214294   2.767   1.046  16.854 -0.4785 -0.1011  0.0388
    1MPD1    C314295   2.736   0.954  16.757  0.4724 -0.4813  1.4242
    1MPD1    C414296   2.687   0.998  16.638  0.3633  0.3060  0.0547
    1MPD1    C514297   2.661   1.125  16.614 -0.0964 -0.1270 -0.4359
    1MPD1     H14298   2.823   1.012  16.940 -2.0730  0.1102  1.1486
    1MPD1    H114299   2.665   0.927  16.558 -2.0477  0.7584  0.3100
    1MPD1    H214300   2.659   1.319  16.687 -1.5947  0.2717 -0.5154
    1MPD1    H314301   2.603   1.152  16.526 -1.3784 -0.2061  0.3890
    1MPD1     N14302   2.744   0.810  16.768  0.0103 -0.5573  0.5514
    1MPD1    H514303   2.714   0.760  16.685  0.9547  1.1324 -0.7891
    1MPD1    N114304   2.793   1.288  16.907  0.2108 -0.8245 -0.1540
    1MPD1    H614305   2.727   1.365  16.914  0.2329 -0.8229  0.0477
    1MPD1    H714306   2.814   1.257  17.002 -2.3863  0.0222  0.6941
    2TMC2    C114307   2.862   0.419  16.726 -0.6966 -0.0908 -0.0416
    2TMC2    C214308   2.824   0.331  16.819 -0.1272 -0.4846  0.1756
    2TMC2    C314309   2.782   0.379  16.939 -0.4017  0.5896 -0.6414
    2TMC2    C414310   2.846   0.552  16.747  0.7891  0.0597  0.3609
    2TMC2    C514311   2.803   0.596  16.870 -0.5235  0.0257  0.0233
    2TMC2    C614312   2.775   0.511  16.974  0.4715 -0.5464 -0.5771
    2TMC2     C14313   2.944   0.381  16.615  0.5211  0.5240 -0.2378
    2TMC2     O14314   2.943   0.455  16.519  0.0827  0.4286  0.2226
    2TMC2     H14315   2.803   0.229  16.790 -2.1452 -0.5058  1.6428
    2TMC2    H114316   2.890   0.616  16.671  0.3233 -0.4321 -0.3205
    2TMC2    H214317   2.719   0.544  17.061  0.9895 -1.5806  0.1450
    2TMC2    C714318   2.787   0.740  16.884  0.4588 -0.4731  0.0167
    2TMC2    C814319   2.775   0.292  17.045  0.3148  0.4594  0.0924
    2TMC2    O114320   2.791   0.780  17.001 -0.2757  0.9182 -0.6493
    2TMC2    O214321   2.823   0.179  17.030  0.4174  0.1955  0.2264
    2TMC2    O514322   2.641   0.302  17.081  0.3454 -0.1984 -0.2588
    2TMC2    H514323   2.594   0.387  17.069  0.4763  0.0816  1.2058
    3MPD1     C14324   3.356   0.150  16.415 -0.9531  0.3510  0.9009
    3MPD1    C114325   3.317   0.082  16.529 -0.2846  0.5054  0.4447
    3MPD1    C214326   3.207   0.123  16.593  0.6805 -0.3185  0.2630
    3MPD1    C314327   3.141   0.240  16.563  0.2141 -0.0810 -0.9269
    3MPD1    C414328   3.187   0.313  16.457  0.0940  0.2030  0.4034
    3MPD1    C514329   3.294   0.267  16.379  0.8626 -0.0757 -0.2055
    3MPD1     H14330   3.166   0.069  16.677  1.5195 -0.3060  0.6857
    3MPD1    H114331   3.138   0.398  16.410 -1.3773 -0.9560 -0.1775
    3MPD1    H214332   3.428   0.107  16.346 -0.1824  3.0982 -0.0342
    3MPD1    H314333   3.328   0.316  16.288  1.7407  0.6063  0.4997
    3MPD1     N14334   3.024   0.276  16.642  0.0026  0.2452 -0.4093
    3MPD1    H514335   3.000   0.215  16.719 -2.3000  1.0639 -0.4818
    3MPD1    N114336   3.366   4.694  16.570  0.2859 -0.1403  0.6113
    3MPD1    H614337   3.372   4.700  16.672  1.7796  1.6130  0.4286
    3MPD1    H714338   3.461   4.687  16.534  1.4693 -1.2107  3.8930
    1TMC1    C114339   0.634   4.253  13.063  0.0798 -0.0451 -0.0783
    1TMC1    C214340   0.575   4.193  13.174  0.9540 -0.1335  0.3882
    1TMC1    C314341   0.451   4.144  13.160  0.4246 -0.5621 -0.2920
    1TMC1    C414342   0.575   4.261  12.939  0.4426  0.2155 -0.4437
    1TMC1    C514343   0.449   4.206  12.925  0.3770 -0.8234  0.1556
    1TMC1    C614344   0.387   4.156  13.040  0.1101 -0.4921 -0.9937
    1TMC1     C14345   0.783   4.279  13.061  0.3727  0.7975  0.7363
    1TMC1     O14346   0.834   4.338  12.968  0.3545  0.4709  0.1435
    1TMC1     H14347   0.624   4.199  13.270 -1.3354 -0.0989  1.5571
    1TMC1    H114348   0.640   4.276  12.853 -1.4589  1.1164 -1.7075
    1TMC1    H214349   0.288   4.116  13.021  0.7348 -1.5375 -2.0300
    1TMC1    C714350   0.375   4.199  12.804 -0.2916  0.4842  0.3402
    1TMC1    C814351   0.380   4.085  13.270  0.5051  0.5248 -0.4689
    1TMC1    O114352   0.276   4.131  12.777 -0.4533 -0.1339  0.4109
    1TMC1    O214353   0.256   4.078  13.273 -0.6962  0.0615  0.3438
    1TMC1    O314354   0.429   4.297  12.728  0.5337  0.3861  0.1456
    1TMC1    H314355   0.470   4.367  12.784 -1.7203  0.2611  1.9434
    1TMC1    O514356   0.459   3.980  13.290 -0.1300 -0.3869  0.3027
    1TMC1    H514357   0.543   3.986  13.240  0.2985  0.8082  1.1654
    2MPD2     C14358   1.080   4.280  13.122 -0.3780 -0.3519 -0.6202
    2MPD2    C114359   0.980   4.271  13.210 -0.4720 -0.4341 -0.7058
    2MPD2    C214360   1.016   4.261  13.343  0.1848 -0.0637 -0.2473
    2MPD2    C314361   1.144   4.258  13.390  0.1107  0.7796 -0.0016
    2MPD2    C414362   1.246   4.270  13.298 -0.4901 -0.3362 -0.2015
    2MPD2    C514363   1.212   4.283  13.166 -0.9578  0.3903 -0.5235
    2MPD2     H14364   0.932   4.237  13.407  0.0368 -0.3261 -0.5410
    2MPD2    H114365   1.350   4.268  13.328 -1.0580  0.3520  1.8438
    2MPD2    H214366   1.077   4.304  13.017  0.1337  1.0094 -0.3334
    2MPD2    H314367   1.285   4.319  13.094 -1.7446 -1.7265 -2.3756
    2MPD2     N14368   1.158   4.250  13.528  0.2639  0.3282  0.7055
    2MPD2    H514369   1.075   4.256  13.587  1.0267  3.3527  1.4786
    2MPD2    N114370   0.844   4.255  13.180  0.2662  0.0354 -0.2623
    2MPD2    H714371   0.788   4.219  13.256 -2.0136  2.0232 -0.9980
    3TCq1    O114372   1.101   4.483  14.086  0.4575  0.0011  0.2870
    3TCq1    C114373   1.152   4.500  13.963  0.3952  0.7030 -0.0952
    3TCq1    O214374   1.137   4.597  13.890  0.2768  0.0742 -0.8076
    3TCq1    C214375   1.213   4.380  13.920 -0.0197  0.0770  0.4353
    3TCq1    C314376   1.281   4.300  14.005 -0.0984  0.0523 -0.0985
    3TCq1    C414377   1.355   4.200  13.949  0.6877  0.7493 -0.3368
    3TCq1    C514378   1.358   4.177  13.814  0.5007 -0.7128  0.1006
    3TCq1    C614379   1.270   4.248  13.740  0.1976  0.5717  0.4771
    3TCq1    C714380   1.204   4.354  13.786 -0.3136 -0.7503  0.2093
    3TCq1    C814381   1.280   4.227  13.596  0.0789 -0.0473 -0.0615
    3TCq1    O414382   1.380   4.180  13.545 -0.1181  0.1752 -0.2962
    3TCq1    C914383   1.433   4.104  14.027  0.8213 -0.4502 -0.0738
    3TCq1    O514384   1.467   3.998  13.971  0.0157 -0.2028  0.0430
    3TCq1    O614385   1.479   4.144  14.135 -0.2789  0.4370 -0.1165
    3TCq1    H114386   1.132   4.402  14.132  0.4046  0.5046  1.2200
    3TCq1    H214387   1.273   4.292  14.113 -0.9644  0.4844 -0.1324
    3TCq1    H314388   1.409   4.090  13.775 -0.3185 -2.0608  2.0070
    3TCq1    H414389   1.140   4.418  13.727  0.1075  1.1401  1.7904
    1MPD2     C14390   0.270   0.767  14.721  0.7900 -0.1390  0.7882
    1MPD2    C114391   0.237   0.645  14.777 -0.0508  0.2913  0.0360
    1MPD2    C214392   0.300   0.527  14.733 -0.0965 -0.2618 -0.5888
    1MPD2    C314393   0.397   0.533  14.636 -0.3026 -0.2849  0.4058
    1MPD2    C414394   0.429   0.652  14.573 -0.7570 -0.4726  0.1389
    1MPD2    C514395   0.362   0.765  14.616 -0.5109  0.0862  0.5537
    1MPD2     H14396   0.279   0.426  14.767  1.2393  0.3531  2.0759
    1MPD2    H114397   0.497   0.647  14.489  2.0621  0.0635  2.4267
    1MPD2    H214398   0.222   0.859  14.751 -1.2167 -1.0052  0.2349
    1MPD2    H314399   0.379   0.860  14.567  2.2934 -0.2911  0.7842
    1MPD2     N14400   0.444   0.408  14.590  0.0386 -0.1318 -0.4484
    1MPD2    H514401   0.410   0.328  14.643  0.0416  0.3406  0.2785
    1MPD2    N114402   0.134   0.648  14.874 -0.0512  0.1340 -0.1561
    1MPD2    H714403   0.095   0.739  14.899 -0.5700  0.5532 -2.4807
    2TMC3    C114404   4.710   0.561  15.024  0.2591  0.0546 -0.6758
    2TMC3    C214405   4.661   0.437  15.053  0.0553 -0.0496  0.2390
    2TMC3    C314406   4.536   0.404  15.011  0.0171 -0.0385  0.1049
    2TMC3    C414407   4.628   0.658  14.969 -0.3509  0.2905 -0.2375
    2TMC3    C514408   4.499   0.620  14.941 -1.0602 -0.4010 -0.2673
    2TMC3    C614409   4.451   0.491  14.957 -0.0641 -0.4021  0.2482
    2TMC3     C14410   0.087   0.538  14.944 -0.3342  0.2807  0.5671
    2TMC3     O14411   0.124   0.421  14.924 -0.2616 -0.3824 -0.4053
    2TMC3     H14412   4.714   0.360  15.109 -3.8342 -1.3207  2.1812
    2TMC3    H114413   4.665   0.751  14.928  0.2482 -0.1053 -0.5873
    2TMC3    H214414   4.352   0.460  14.926 -0.0425  0.4469 -0.6586
    2TMC3    C714415   4.419   0.716  14.876  0.3990 -0.7367  0.2288
    2TMC3    C814416   4.523   0.275  14.940 -0.2028 -0.4706 -0.1329
    2TMC3    O114417   4.351   0.685  14.776  0.2959 -0.5704  0.2733
    2TMC3    O214418   4.411   0.231  14.917  0.5933  0.0935 -0.3424
    3TCq1    O114419   0.189   1.725  14.907  0.0711 -0.3638 -0.3046
    3TCq1    C114420   0.159   1.751  15.040 -0.5126  0.9122 -0.4579
    3TCq1    O214421   0.187   1.846  15.109  0.0937 -0.3552  0.1810
    3TCq1    C214422   0.080   1.638  15.089  0.3925  0.4644  0.3485
    3TCq1    C314423   0.073   1.623  15.220 -0.7036 -0.0177  0.2982
    3TCq1    C414424   4.724   1.529  15.269  0.1569  0.2770  0.4765
    3TCq1    C514425   4.643   1.460  15.180  0.3606  0.0612 -0.2966
    3TCq1    C614426   4.653   1.479  15.044  0.8303 -0.3149  0.2698
    3TCq1    C714427   0.006   1.569  14.996  0.1942  0.8391  0.6725
    3TCq1    C814428   4.554   1.419  14.961  0.6826 -0.0413  0.8613
    3TCq1    O414429   4.531   1.468  14.854 -0.1515 -0.0534  0.4061
    3TCq1    C914430   4.716   1.496  15.415 -0.3560  0.5212 -0.0009
    3TCq1    O514431   4.687   1.375  15.441 -0.5234  0.1708 -0.1707
    3TCq1    O614432   0.032   1.581  15.491  0.0650 -0.0214 -0.2175
    3TCq1    H114433   0.157   1.636  14.884  0.1448 -0.6011  0.4983
    3TCq1    H214434   0.130   1.673  15.298 -0.5988  0.5968 -0.1763
    3TCq1    H314435   4.569   1.390  15.218  0.7149  1.1302  2.3306
    3TCq1    H414436   4.737   1.588  14.890  2.2994  0.9361  0.5430
    4MPD2     C14437   4.369   1.231  14.810  0.0061  0.0560 -0.2136
    4MPD2    C114438   4.433   1.201  14.930 -0.1433  0.1572  0.1112
    4MPD2    C214439   4.447   1.069  14.972  0.4278  0.8026 -0.2767
    4MPD2    C314440   4.403   0.969  14.896  1.1488  0.1555 -0.7413
    4MPD2    C414441   4.343   0.995  14.783 -0.3654 -0.3341 -0.6816
    4MPD2    C514442   4.332   1.123  14.731 -0.3645  0.1008 -0.7839
    4MPD2     H14443   4.489   1.040  15.068 -1.5595 -1.3925 -0.0895
    4MPD2    H114444   4.316   0.915  14.715 -1.2561 -0.1645 -0.5333
    4MPD2    H214445   4.358   1.329  14.765 -0.5551  0.4218  0.7212
    4MPD2    H314446   4.283   1.136  14.635  0.1001  2.5428 -0.6984
    4MPD2     N14447   4.433   0.837  14.943  0.4934 -0.3099 -0.5259
    4MPD2    H514448   4.489   0.821  15.026  0.9176 -0.8498 -0.9192
    4MPD2    N114449   4.512   1.296  15.003  0.3022 -0.1109 -0.1156
    4MPD2    H714450   4.556   1.264  15.090 -1.3457 -2.4986 -0.1594
    5TMC2    C114451   0.454   0.068  14.564 -0.7495 -0.2509  0.0022
    5TMC2    C214452   0.583   0.023  14.620 -0.1327 -0.1980 -0.6928
    5TMC2    C314453   0.701   0.080  14.571 -0.7742  0.1635 -0.2681
    5TMC2    C414454   0.453   0.180  14.487  0.2032 -0.0934 -0.1487
    5TMC2    C514455   0.572   0.251  14.468  0.3990 -0.4767 -0.1321
    5TMC2    C614456   0.690   0.198  14.505  0.3239 -0.2725  0.3762
    5TMC2     C14457   0.347   0.082  14.662  0.3098  0.3626 -0.2525
    5TMC2     O14458   0.353   0.188  14.718  0.3960  0.3818 -0.3677
    5TMC2     H14459   0.584   4.680  14.692  0.7350  0.9602  0.5958
    5TMC2    H114460   0.355   0.223  14.470  0.0533 -0.8148 -1.0796
    5TMC2    H214461   0.778   0.260  14.513 -0.0703  0.2790  0.4148
    5TMC2    C714462   0.554   0.392  14.504 -0.4669 -0.1048  0.4071
    5TMC2    C814463   0.829   0.058  14.646 -0.8007  0.2719 -0.8976
    5TMC2    O114464   0.626   0.477  14.457  0.1644 -0.0793 -0.0368
    5TMC2    O214465   0.935   0.069  14.586  0.1128 -0.3059 -0.0450
    5TMC2    O514466   0.810   0.064  14.777  0.3322  0.6934  0.2662
    5TMC2    H514467   0.718   0.075  14.811 -0.2753  0.9024 -1.4424
    6MPD2     C14468   4.586   0.040  14.776 -0.6433  0.5476 -0.2619
    6MPD2    C114469   4.680   0.125  14.818  0.6117  0.1447  0.2110
    6MPD2    C214470   0.071   0.117  14.780  0.3956 -0.0128 -0.7880
    6MPD2    C314471   0.104   0.028  14.678 -0.4180  0.0770 -0.6622
    6MPD2    C414472   0.010   4.672  14.642  1.1878  0.1221  0.3523
    6MPD2    C514473   4.618   4.681  14.686  0.3937  0.3218  0.0188
    6MPD2     H14474   0.145   0.182  14.826 -0.4516  1.3531 -1.3814
    6MPD2    H114475   0.037   4.596  14.570  2.1627  1.5568 -0.7943
    6MPD2    H214476   4.480   0.049  14.795 -0.6937  0.4646 -0.4933
    6MPD2    H314477   4.545   4.608  14.653 -1.9112  4.3198 -3.6747
    6MPD2     N14478   0.235   0.015  14.626 -0.3887  0.0116 -0.0294
    6MPD2    H514479   0.241   4.682  14.554 -0.4562 -0.0320  0.0078
    6MPD2    N114480   4.646   0.239  14.897  0.3572 -0.5032 -0.2382
    6MPD2    H714481   4.718   0.302  14.927 -2.2489  1.6236  1.5332
  945NH4     N114482   3.663   3.601  11.552  0.0626 -0.0815 -0.5490
  945NH4     H214483   3.693   3.700  11.551 -0.7069  0.1572 -0.5825
  945NH4     H314484   3.575   3.600  11.496 -0.5424  2.7144  0.3566
  945NH4     H414485   3.644   3.584  11.652  0.3936  2.3256 -0.0843
  945NH4     H514486   3.736   3.536  11.518 -1.0330 -2.0970  0.9278
  946SOD     NA14487   1.818   4.723  17.046  0.0401 -0.0242  0.0511
  947SOD     NA14488   4.266   3.203   7.184 -0.2298  0.3692  0.2124
  948SOD     NA14489   2.895   2.631  13.169  0.6813 -0.1589 -0.1355
  949SOD     NA14490   1.742   2.105  17.421 -0.4783  0.7976  0.4324
  950SOD     NA14491   2.201   3.544   5.742 -0.5808  0.0929  0.6436
  951SOD     NA14492   1.017   0.018  11.792 -0.3129 -0.2296 -0.0834
  952SOD     NA14493   0.874   1.839  11.028 -0.6974 -0.0042  0.1406
  953SOL     OW14494   3.652   0.835   2.558 -0.2915 -0.4534  0.0531
  953SOL    HW114495   3.562   0.811   2.537  0.0018  0.1880 -1.9403
  953SOL    HW214496   3.644   0.847   2.653  0.9986 -5.4904  0.7929
  954SOL     OW14497   2.116   2.116   7.041  0.5975  0.3918  0.3517
  954SOL    HW114498   2.185   2.082   6.984 -0.5812  1.3053 -1.6375
  954SOL    HW214499   2.077   2.033   7.069  0.2693  0.8300  1.1906
  955SOL     OW14500   1.906   0.357   3.806 -0.0581 -0.2293  0.0712
  955SOL    HW114501   1.879   0.399   3.887  2.7762 -1.5766  1.6891
  955SOL    HW214502   1.891   0.429   3.745 -1.0547  0.1785  0.7961
  956SOL     OW14503   3.607   0.228   5.617 -0.1482 -0.0395 -0.0143
  956SOL    HW114504   3.560   0.256   5.696  2.4884  1.5302  0.9543
  956SOL    HW214505   3.566   0.146   5.588  0.1888 -0.2393  0.0684
  957SOL     OW14506   0.387   2.854   3.938 -0.3937  0.1576 -0.5598
  957SOL    HW114507   0.323   2.915   3.975  1.8694  1.6921  0.8750
  957SOL    HW214508   0.367   2.770   3.978  3.2332 -1.2772 -1.7693
  958SOL     OW14509   4.275   4.426  13.002  0.1470 -0.0847 -0.0916
  958SOL    HW114510   4.192   4.471  13.016  0.4841  0.1103  1.3308
  958SOL    HW214511   4.287   4.384  13.088 -0.3194  0.1290  0.0764
  959SOL     OW14512   0.840   2.632   1.297 -0.3299  0.0196  0.3222
  959SOL    HW114513   0.830   2.704   1.358  1.9215 -0.7377  1.6011
  959SOL    HW214514   0.934   2.619   1.310  0.0936  1.9711 -0.7549
  960SOL     OW14515   0.307   4.620   8.605  0.7186  0.5375  0.8990
  960SOL    HW114516   0.282   4.712   8.598  1.9049  0.8216  0.3548
  960SOL    HW214517   0.224   4.574   8.617  0.2538  0.6518 -1.7355
  961SOL     OW14518   1.707   2.658   4.139  0.1512  0.3609  0.0528
  961SOL    HW114519   1.779   2.702   4.095 -0.3930  0.7413 -0.4531
  961SOL    HW214520   1.697   2.719   4.212 -2.1096 -0.2821  0.2679
  962SOL     OW14521   4.505   1.594   1.044 -0.2080 -0.6590 -0.1946
  962SOL    HW114522   4.489   1.570   0.952 -3.5066  2.4760 -0.4184
  962SOL    HW214523   4.544   1.681   1.029 -2.9418  0.6491  0.2883
  963SOL     OW14524   0.738   4.681  12.542  0.2529 -0.3893 -0.1275
  963SOL    HW114525   0.730   4.600  12.492  1.5986 -1.0113  0.6676
  963SOL    HW214526   0.757   4.636  12.624  0.7357  1.2063  0.6212
  964SOL     OW14527   0.509   1.889  11.003  0.9868  0.0350 -0.1713
  964SOL    HW114528   0.546   1.972  10.972 -1.4190  0.8854 -0.7410
  964SOL    HW214529   0.587   1.833  11.003  0.2892 -0.9434 -0.4142
  965SOL     OW14530   3.321   3.652   4.489 -0.7343 -0.3179  0.1808
  965SOL    HW114531   3.312   3.694   4.575  3.7637 -0.5913  0.7689
  965SOL    HW214532   3.259   3.705   4.438  0.6816 -2.3218 -3.5845
  966SOL     OW14533   3.953   3.490  16.538  0.5449  0.0946 -0.3118
  966SOL    HW114534   3.893   3.554  16.575  0.9858  0.2030  0.2180
  966SOL    HW214535   4.034   3.523  16.577 -0.3798  0.3267  1.3770
  967SOL     OW14536   2.702   2.736   5.508  0.2383  0.1458 -0.1665
  967SOL    HW114537   2.614   2.755   5.540 -0.5244 -2.2256 -0.8192
  967SOL    HW214538   2.717   2.656   5.559 -2.1577 -0.1329  0.0869
  968SOL     OW14539   1.821   1.770   2.922  0.6490 -0.1717  0.1269
  968SOL    HW114540   1.875   1.703   2.879  0.7199  0.3292 -0.5680
  968SOL    HW214541   1.747   1.729   2.968  1.0917  0.8242  1.7149
  969SOL     OW14542   2.006   2.020   4.862  0.1224  0.2436  0.0765
  969SOL    HW114543   1.965   1.956   4.919  0.5152  0.3513  0.4763
  969SOL    HW214544   1.929   2.043   4.810  0.7062  1.4104 -0.2864
  970SOL     OW14545   3.934   2.218   0.627  0.4452  0.3818 -0.4165
  970SOL    HW114546   3.884   2.293   0.595  0.5306 -0.1549 -1.7878
  970SOL    HW214547   3.984   2.260   0.698  1.4796 -2.1179  0.3493
  971SOL     OW14548   4.119   0.517  16.283 -0.8355 -0.6799 -0.3111
  971SOL    HW114549   4.209   0.492  16.303  0.3854  1.5148 -3.1229
  971SOL    HW214550   4.099   0.448  16.220 -3.6782 -0.2342  0.1089
  972SOL     OW14551   4.474   1.179  16.780  0.2543 -0.0506  0.6247
  972SOL    HW114552   4.405   1.175  16.713 -0.2148  2.5074  0.9473
  972SOL    HW214553   4.543   1.174  16.713 -2.4042 -1.5532 -1.9871
  973SOL     OW14554   1.213   4.447   4.308 -0.3059  0.1736  0.1288
  973SOL    HW114555   1.139   4.389   4.324  0.2977  0.1130  2.6484
  973SOL    HW214556   1.287   4.390   4.285 -1.8614 -1.4259 -0.9328
  974SOL     OW14557   3.804   1.325   4.837  0.5592 -0.2614  0.1958
  974SOL    HW114558   3.864   1.375   4.893 -0.2563  0.4914  0.3960
  974SOL    HW214559   3.866   1.294   4.771 -0.0107 -1.7224  0.3561
  975SOL     OW14560   1.397   2.645   1.349 -0.2003  0.8884  0.2102
  975SOL    HW114561   1.373   2.609   1.434  1.2386  2.5846  1.3484
  975SOL    HW214562   1.457   2.717   1.367 -0.1776  0.5718  1.3532
  976SOL     OW14563   2.113   3.156   6.588 -0.3938  0.4223 -0.4353
  976SOL    HW114564   2.095   3.082   6.646  0.7838  0.3753 -0.1283
  976SOL    HW214565   2.041   3.215   6.608 -0.1388  0.7187 -0.3860
  977SOL     OW14566   0.381   2.533   7.046 -0.5649  0.0472 -0.1875
  977SOL    HW114567   0.396   2.611   7.099  2.2349 -1.8264  1.7531
  977SOL    HW214568   0.293   2.502   7.070 -0.0160 -2.8459 -1.9048
  978SOL     OW14569   4.500   2.438  15.725 -0.2682  0.4377 -0.1548
  978SOL    HW114570   4.571   2.470  15.780  0.3805 -1.2933  0.0101
  978SOL    HW214571   4.430   2.432  15.790  0.8149  0.6084  1.0142
  979SOL     OW14572   0.495   3.098   1.379 -0.0711 -0.1176  0.1289
  979SOL    HW114573   0.417   3.099   1.323  0.3248  0.5347 -0.4043
  979SOL    HW214574   0.549   3.165   1.339 -2.2636  0.8592 -1.1641
  980SOL     OW14575   4.345   0.863   4.932  0.1638 -0.2160  0.0516
  980SOL    HW114576   4.313   0.834   5.017 -0.0816  1.2293  0.4637
  980SOL    HW214577   4.321   0.956   4.924 -0.6569 -0.4797 -0.4994
  981SOL     OW14578   0.376   0.070   4.776  0.7770 -0.1430  0.4677
  981SOL    HW114579   0.340   0.025   4.699  0.8260  1.6553 -0.6239
  981SOL    HW214580   0.302   0.122   4.808  0.5560  0.2301 -0.6139
  982SOL     OW14581   3.707   2.311  10.298 -0.3691 -0.5044 -0.1793
  982SOL    HW114582   3.759   2.391  10.306 -0.0467 -0.6688 -0.6816
  982SOL    HW214583   3.757   2.256  10.358 -2.2628 -0.6981  1.2162
  983SOL     OW14584   3.739   4.345   7.463  0.3650  1.0445  0.4080
  983SOL    HW114585   3.696   4.370   7.382  0.7830 -1.1323 -0.4830
  983SOL    HW214586   3.661   4.329   7.517  1.5023 -1.2100  1.3835
  984SOL     OW14587   1.401   0.470  15.571 -0.0250 -0.4068  0.3290
  984SOL    HW114588   1.391   0.376  15.563  0.0307 -0.3031 -0.9091
  984SOL    HW214589   1.442   0.465  15.658  0.4273 -2.8274 -0.0301
  985SOL     OW14590   3.874   4.701   1.871  0.2447  0.1854  0.0685
  985SOL    HW114591   3.903   4.694   1.962 -0.4219 -1.7460  0.1091
  985SOL    HW214592   3.806   4.634   1.873  0.8820 -0.4494  0.5129
  986SOL     OW14593   1.399   1.319  17.178  0.3418  0.0534 -0.4604
  986SOL    HW114594   1.353   1.315  17.094 -0.4289 -1.0709  0.0178
  986SOL    HW214595   1.462   1.249  17.162  1.2557 -0.1088  4.0230
  987SOL     OW14596   0.269   4.288   4.749 -0.1630  0.5804 -0.1916
  987SOL    HW114597   0.223   4.299   4.665 -1.4909 -2.0010  0.1908
  987SOL    HW214598   0.332   4.359   4.738 -0.0762  0.5356  0.0305
  988SOL     OW14599   4.577   2.821  14.320 -0.8686 -0.4228  0.1942
  988SOL    HW114600   4.551   2.828  14.228  0.8923  0.0959 -0.2673
  988SOL    HW214601   4.494   2.856  14.354 -0.8882 -1.0232  0.7500
  989SOL     OW14602   3.467   0.344   2.692 -0.5028  0.0821 -0.6644
  989SOL    HW114603   3.488   0.437   2.702 -3.2347  0.7958 -1.4389
  989SOL    HW214604   3.374   0.358   2.674 -0.2900  1.7083 -0.4687
  990SOL     OW14605   0.756   0.839  11.057  1.2606  0.7179  0.5618
  990SOL    HW114606   0.714   0.795  11.131  0.4482  0.6119  0.0402
  990SOL    HW214607   0.770   0.758  11.007  0.0797 -0.1537  1.6489
  991SOL     OW14608   1.234   1.995   7.437  0.2173 -0.0698  0.2426
  991SOL    HW114609   1.211   1.919   7.491  0.0323  0.5459  1.0258
  991SOL    HW214610   1.268   2.055   7.503  2.8755  0.8143 -1.9277
  992SOL     OW14611   2.907   3.395   6.294 -0.2362  0.4300 -0.0437
  992SOL    HW114612   2.987   3.351   6.322 -0.8346 -0.3681  0.4277
  992SOL    HW214613   2.921   3.486   6.319 -1.4458  0.8068 -0.7370
  993SOL     OW14614   0.576   2.289   6.316 -0.0681  0.2944 -1.0191
  993SOL    HW114615   0.568   2.252   6.228 -3.7460  0.7967 -0.8812
  993SOL    HW214616   0.485   2.285   6.344  0.5120 -2.4804  0.4475
  994SOL     OW14617   1.723   3.676  17.403  0.1228 -0.4041  0.5637
  994SOL    HW114618   1.742   3.615  17.333 -2.1275  1.3024 -1.5459
  994SOL    HW214619   1.731   3.758  17.354 -2.2097 -0.2890  0.3812
  995SOL     OW14620   2.390   0.704   2.761 -0.0293 -0.4241 -0.3348
  995SOL    HW114621   2.434   0.628   2.800 -0.0483 -0.3640 -0.1953
  995SOL    HW214622   2.299   0.677   2.755 -0.3845  1.0542 -1.6457
  996SOL     OW14623   0.580   0.660  14.243  0.5677  0.3216  0.0591
  996SOL    HW114624   0.596   0.598  14.314  0.7864  0.4444  0.1160
  996SOL    HW214625   0.583   0.741  14.293 -1.0234  1.1104 -1.1096
  997SOL     OW14626   3.753   1.552   4.546 -0.0743 -0.1128 -0.8370
  997SOL    HW114627   3.665   1.538   4.582  0.4514  0.6080  0.7231
  997SOL    HW214628   3.736   1.627   4.489 -0.2932 -0.3421 -1.0746
  998SOL     OW14629   1.177   1.463   2.697  0.0434 -0.2880 -0.7811
  998SOL    HW114630   1.238   1.534   2.718 -0.9192  0.6838 -1.2966
  998SOL    HW214631   1.138   1.442   2.782  0.9525 -1.8359 -0.7378
  999SOL     OW14632   0.055   0.658  17.463 -0.5795  0.2424  0.3426
  999SOL    HW114633   0.025   0.715  17.392 -1.1900 -1.5355 -0.8320
  999SOL    HW214634   4.716   0.664  17.520 -0.0648 -1.1448  1.1928
 1000SOL     OW14635   2.241   1.835   6.398  0.6333 -0.5275  0.3865
 1000SOL    HW114636   2.204   1.757   6.440  0.5339 -1.1730 -0.8883
 1000SOL    HW214637   2.221   1.816   6.306  0.0878  0.4223  0.3066
 1001SOL     OW14638   3.673   4.640   6.980 -0.0307  0.2759 -0.0424
 1001SOL    HW114639   3.662   4.553   6.941  0.6536  0.6198 -0.9884
 1001SOL    HW214640   3.708   4.686   6.904 -1.1672 -0.5579 -1.0584
 1002SOL     OW14641   1.293   0.572   0.934 -0.3095 -0.8390  0.0028
 1002SOL    HW114642   1.253   0.494   0.971  1.5156 -2.0031 -0.4935
 1002SOL    HW214643   1.231   0.606   0.869  0.3986  0.7447  0.1547
 1003SOL     OW14644   3.676   4.182   7.111 -0.0872  0.0747 -0.5529
 1003SOL    HW114645   3.680   4.278   7.115 -2.1368  0.1958 -1.1649
 1003SOL    HW214646   3.608   4.170   7.177  1.4741  0.9259  1.1870
 1004SOL     OW14647   3.033   4.344  11.280 -0.0070 -0.3839 -0.5171
 1004SOL    HW114648   3.027   4.294  11.362  2.0926  2.5808  1.4298
 1004SOL    HW214649   2.955   4.399  11.278 -1.8037 -2.8342  1.6064
 1005SOL     OW14650   2.512   0.867   1.287  0.5308  0.1069 -0.3731
 1005SOL    HW114651   2.432   0.919   1.282 -0.5183 -1.5038 -0.2654
 1005SOL    HW214652   2.583   0.927   1.310  2.0094 -0.9044 -2.2505
 1006SOL     OW14653   4.524   0.985   2.787 -0.2479 -0.0540  0.1764
 1006SOL    HW114654   4.533   1.078   2.764  0.9887  0.1622  1.5392
 1006SOL    HW214655   4.429   0.984   2.803  0.1991  1.3681  2.8156
 1007SOL     OW14656   2.576   2.000   5.866 -0.2483  0.1881  0.7205
 1007SOL    HW114657   2.548   2.034   5.951  1.7433  1.7517  0.7322
 1007SOL    HW214658   2.650   1.946   5.893 -0.1093  2.1929  4.2254
 1008SOL     OW14659   4.550   1.779   6.436  0.3459 -0.6332  0.2614
 1008SOL    HW114660   4.644   1.798   6.431 -0.1915  1.9787  0.2499
 1008SOL    HW214661   4.539   1.790   6.530  0.0655 -0.4660  0.2075
 1009SOL     OW14662   1.052   0.278   1.515  0.1741 -0.2235 -0.1288
 1009SOL    HW114663   1.080   0.290   1.424  0.8710 -0.6328  0.0323
 1009SOL    HW214664   1.131   0.303   1.563  0.3369  0.5832 -0.8178
 1010SOL     OW14665   1.289   1.300  14.425 -0.0572 -0.5329  0.2833
 1010SOL    HW114666   1.246   1.369  14.374  0.1456 -1.5917 -1.3294
 1010SOL    HW214667   1.272   1.336  14.512  0.6145 -0.7557  0.5060
 1011SOL     OW14668   1.265   0.394   6.356  0.0183  0.1482 -0.2894
 1011SOL    HW114669   1.295   0.329   6.292  0.6114  1.3963 -1.2989
 1011SOL    HW214670   1.172   0.401   6.332 -0.1072 -0.0504  0.1380
 1012SOL     OW14671   4.696   3.013  15.250 -0.4044 -0.3381  0.2072
 1012SOL    HW114672   0.023   3.083  15.247 -0.8473  0.1216  1.2798
 1012SOL    HW214673   4.669   3.006  15.159 -1.2171 -0.5636  0.4649
 1013SOL     OW14674   4.074   2.473   4.186 -0.3981 -0.0261  0.3327
 1013SOL    HW114675   4.136   2.546   4.182  0.9282 -1.3007 -2.2528
 1013SOL    HW214676   4.095   2.424   4.107  0.9677  2.6692 -0.9664
 1014SOL     OW14677   4.210   3.665   8.429  0.1207 -0.3844 -0.3125
 1014SOL    HW114678   4.213   3.712   8.345  1.2035 -0.0887 -0.1159
 1014SOL    HW214679   4.300   3.688   8.454 -0.2300 -0.4809  1.0688
 1015SOL     OW14680   1.717   3.968   6.129  0.0973  0.1004 -0.0651
 1015SOL    HW114681   1.702   4.044   6.185  2.1648  1.5800 -1.4911
 1015SOL    HW214682   1.808   3.940   6.142 -0.2791 -1.6373 -1.1140
 1016SOL     OW14683   0.981   0.061   7.850  0.6250  0.2814  0.0489
 1016SOL    HW114684   1.061   0.013   7.830  0.7914  0.4854  0.2272
 1016SOL    HW214685   0.915   0.000   7.816 -0.6472  2.1534 -0.8080
 1017SOL     OW14686   2.092   1.455   1.237 -0.4176  0.1710 -0.1941
 1017SOL    HW114687   2.068   1.516   1.307  0.3496  2.7255 -2.1817
 1017SOL    HW214688   2.036   1.386   1.274  1.1203 -0.9064  0.1475
 1018SOL     OW14689   0.339   0.465   9.847 -0.6551  0.3345 -0.0180
 1018SOL    HW114690   0.429   0.454   9.816 -0.3673 -2.7928  1.9375
 1018SOL    HW214691   0.346   0.498   9.936 -0.7108 -0.3267  0.2349
 1019SOL     OW14692   2.038   1.405   6.206 -0.2796 -0.5637 -0.1538
 1019SOL    HW114693   1.969   1.464   6.174 -0.2233  1.5683  3.5648
 1019SOL    HW214694   2.086   1.465   6.263 -1.8419  0.5546 -0.0032
 1020SOL     OW14695   4.012   3.013   2.343 -0.2461  0.4436  0.3492
 1020SOL    HW114696   3.984   2.940   2.399  1.8714 -1.0618 -0.6099
 1020SOL    HW214697   4.101   3.027   2.373  0.4100  1.7321 -2.2218
 1021SOL     OW14698   1.849   2.067   2.659  0.1181 -0.0818 -0.2491
 1021SOL    HW114699   1.817   1.977   2.662 -0.9891  0.2692 -1.5244
 1021SOL    HW214700   1.774   2.111   2.698  0.5204  0.6837 -0.3342
 1022SOL     OW14701   3.826   1.442   2.791  0.4805 -0.1396 -0.0299
 1022SOL    HW114702   3.786   1.522   2.825  2.1165  0.7096 -0.0938
 1022SOL    HW214703   3.756   1.415   2.732  1.3337 -1.3707 -0.4749
 1023SOL     OW14704   2.800   2.694   7.257  0.3909  0.5532  0.0131
 1023SOL    HW114705   2.791   2.754   7.183  1.0630  0.1390 -0.4028
 1023SOL    HW214706   2.846   2.749   7.320 -0.6754  1.1442  0.2844
 1024SOL     OW14707   4.256   2.135  15.841  0.0803  0.5775 -0.0171
 1024SOL    HW114708   4.285   2.123  15.751  1.4011 -0.0019  0.4764
 1024SOL    HW214709   4.337   2.116  15.889 -0.7851 -0.7457  0.9487
 1025SOL     OW14710   1.977   1.032   4.356  0.4446 -0.3431  0.4280
 1025SOL    HW114711   1.885   1.011   4.371  0.5088 -1.4623 -0.6925
 1025SOL    HW214712   2.014   0.954   4.313  0.0064  0.2996 -1.1229
 1026SOL     OW14713   0.771   4.664   1.694  0.4467  0.2534 -0.5873
 1026SOL    HW114714   0.835   4.717   1.742 -0.2830 -0.6700  1.4059
 1026SOL    HW214715   0.693   4.719   1.698  0.3003  0.0670 -0.8459
 1027SOL     OW14716   1.366   0.023  11.298  0.3319  0.1306  0.3275
 1027SOL    HW114717   1.354   0.117  11.291 -0.6947 -0.0428 -0.2962
 1027SOL    HW214718   1.304   0.001  11.368 -0.0902 -0.7000 -0.2945
 1028SOL     OW14719   3.183   3.635   3.469  0.2072  0.3526  0.5916
 1028SOL    HW114720   3.234   3.578   3.411 -0.3642 -0.9649  1.3910
 1028SOL    HW214721   3.193   3.716   3.419 -2.4748  0.6912  0.5707
 1029SOL     OW14722   3.740   0.038   6.751  0.2412  0.7758 -0.0013
 1029SOL    HW114723   3.818   0.076   6.711 -0.2662  0.0561 -1.6873
 1029SOL    HW214724   3.690   0.017   6.672  0.8220 -0.4395 -0.0536
 1030SOL     OW14725   3.258   2.287  10.696  0.0094  0.1199  0.8005
 1030SOL    HW114726   3.310   2.260  10.772 -1.1741 -1.1417  1.1706
 1030SOL    HW214727   3.182   2.327  10.740 -0.7912 -0.6067  0.0695
 1031SOL     OW14728   2.482   2.386   4.453 -1.4246  0.5628 -0.0384
 1031SOL    HW114729   2.558   2.377   4.511  0.5874 -0.6285 -2.8303
 1031SOL    HW214730   2.519   2.395   4.366  0.4430  1.7571  0.8880
 1032SOL     OW14731   3.046   4.737   9.360 -0.3426  0.0489 -0.0456
 1032SOL    HW114732   3.072   4.713   9.449 -1.6555  0.0707  0.3446
 1032SOL    HW214733   3.121   4.703   9.311 -1.1162 -0.0829 -1.1317
 1033SOL     OW14734   3.217   2.101   5.828 -0.1284 -0.6608 -0.4805
 1033SOL    HW114735   3.135   2.150   5.823  0.2555 -0.0488 -0.9119
 1033SOL    HW214736   3.257   2.131   5.909 -1.8321 -0.0268  0.1192
 1034SOL     OW14737   0.021   1.072  16.934 -0.1000  0.3178  0.2429
 1034SOL    HW114738   0.000   1.116  16.852 -0.4933 -1.7795 -0.7874
 1034SOL    HW214739   4.697   1.107  16.998 -1.5878 -3.2123  0.7575
 1035SOL     OW14740   0.362   4.574   9.210 -0.0352 -0.2141 -0.1612
 1035SOL    HW114741   0.351   4.480   9.219  0.1947 -0.2118  0.1529
 1035SOL    HW214742   0.290   4.615   9.258  0.8482  2.5104 -1.1611
 1036SOL     OW14743   1.300   3.377   3.108 -0.1719  0.2663 -0.2577
 1036SOL    HW114744   1.217   3.372   3.156 -0.2530  0.1899 -0.4068
 1036SOL    HW214745   1.327   3.467   3.128  0.7100 -0.3481  1.3091
 1037SOL     OW14746   2.654   4.341   9.047  0.6474 -0.3644  0.7450
 1037SOL    HW114747   2.579   4.372   9.098 -0.0386 -1.2083  0.2445
 1037SOL    HW214748   2.650   4.246   9.054 -2.5748 -0.3350 -0.6820
 1038SOL     OW14749   2.098   4.410   9.219  0.4419  0.3564  0.1068
 1038SOL    HW114750   2.062   4.360   9.292 -1.1238 -1.2726 -1.7889
 1038SOL    HW214751   2.183   4.371   9.198  0.4024 -0.5728  1.6531
 1039SOL     OW14752   3.499   2.847   0.694  0.4124 -0.3374  0.0981
 1039SOL    HW114753   3.509   2.754   0.714  0.6083 -0.7453 -1.8796
 1039SOL    HW214754   3.490   2.878   0.784  1.7848  0.0468  0.1054
 1040SOL     OW14755   0.632   2.910   2.745  0.4704  0.0161 -0.1749
 1040SOL    HW114756   0.663   2.830   2.789  2.2121  0.2277 -1.0015
 1040SOL    HW214757   0.559   2.932   2.803 -0.9720 -0.9602 -1.6207
 1041SOL     OW14758   1.181   1.379  12.339 -0.4602  0.0606 -0.2250
 1041SOL    HW114759   1.186   1.468  12.374 -0.0875 -0.8252  1.9461
 1041SOL    HW214760   1.090   1.357  12.354 -0.4599 -0.2296 -0.6421
 1042SOL     OW14761   0.510   2.570   1.488 -0.3878 -0.1745 -0.3459
 1042SOL    HW114762   0.450   2.531   1.424 -0.2267 -2.3123  0.8187
 1042SOL    HW214763   0.526   2.654   1.445 -0.1923 -1.5910 -3.0572
 1043SOL     OW14764   3.630   2.401   0.405  0.2353 -0.3605 -0.0325
 1043SOL    HW114765   3.606   2.354   0.485 -1.9518  0.1584 -0.3768
 1043SOL    HW214766   3.637   2.336   0.335  3.0565 -1.8068  1.6101
 1044SOL     OW14767   2.868   2.766   8.387 -0.8633 -0.0574  0.0545
 1044SOL    HW114768   2.937   2.814   8.341 -0.4626 -2.2717 -1.6821
 1044SOL    HW214769   2.911   2.746   8.470  0.9821  1.2799 -0.5825
 1045SOL     OW14770   3.236   1.993   6.597 -0.2005  0.2289 -0.6983
 1045SOL    HW114771   3.227   2.083   6.629  0.5147 -0.0778  0.3556
 1045SOL    HW214772   3.330   1.981   6.606 -0.3814  0.5087  1.7850
 1046SOL     OW14773   2.272   0.139   6.987  0.9517  0.2046 -0.6262
 1046SOL    HW114774   2.223   0.063   6.956 -1.7643  0.9502  1.8685
 1046SOL    HW214775   2.194   0.179   7.024  0.2523 -2.1947  0.4966
 1047SOL     OW14776   1.361   0.382   2.884 -0.1343  0.4974  0.3379
 1047SOL    HW114777   1.274   0.343   2.890  0.9984 -1.7379  2.1726
 1047SOL    HW214778   1.388   0.392   2.975  1.9969  0.5293 -0.2826
 1048SOL     OW14779   0.216   3.538   8.047 -0.3651 -0.2654 -0.2632
 1048SOL    HW114780   0.126   3.507   8.033 -0.1021  0.0320 -2.7358
 1048SOL    HW214781   0.236   3.500   8.132  0.8814  0.9635 -0.0174
 1049SOL     OW14782   0.808   1.165  11.983 -0.1943 -0.2681 -0.3709
 1049SOL    HW114783   0.882   1.106  11.972 -0.0447  0.1243 -1.5667
 1049SOL    HW214784   0.768   1.132  12.063  1.9313 -0.4868  0.5896
 1050SOL     OW14785   4.212   2.735   6.890 -0.3853  0.3321 -0.9562
 1050SOL    HW114786   4.244   2.816   6.850 -0.7120  1.2642  0.6714
 1050SOL    HW214787   4.287   2.707   6.943 -0.8580  0.0817 -0.4086
 1051SOL     OW14788   4.208   1.367  12.995  0.2031 -0.3649  0.0134
 1051SOL    HW114789   4.274   1.362  12.927 -1.3788  0.2289 -1.5686
 1051SOL    HW214790   4.176   1.277  13.000 -1.8035  0.2637 -1.6752
 1052SOL     OW14791   1.767   1.498  15.363  0.0790  0.5993 -0.2285
 1052SOL    HW114792   1.856   1.489  15.397 -0.3153 -1.4735  0.2944
 1052SOL    HW214793   1.724   1.427  15.411  0.1547  0.2015 -0.7557
 1053SOL     OW14794   1.332   1.970   5.023 -0.1848  0.2812 -0.3236
 1053SOL    HW114795   1.270   1.993   4.954 -1.6014 -0.7996  0.6074
 1053SOL    HW214796   1.290   1.957   5.107 -0.8231 -1.6477 -0.9540
 1054SOL     OW14797   1.963   2.414  16.532 -0.5696 -0.1666 -0.0901
 1054SOL    HW114798   2.023   2.484  16.557 -0.6729  0.1167 -0.6374
 1054SOL    HW214799   1.903   2.470  16.483  0.1730  0.3633 -0.4007
 1055SOL     OW14800   2.758   3.352   4.795 -0.0493 -0.3752  0.2375
 1055SOL    HW114801   2.725   3.268   4.762  1.5819 -1.7458  2.0948
 1055SOL    HW214802   2.734   3.413   4.726 -0.4237  0.6630  1.2916
 1056SOL     OW14803   1.775   0.669   5.630  0.7101  0.1235  0.9450
 1056SOL    HW114804   1.687   0.693   5.658  0.6322  0.8914  0.0285
 1056SOL    HW214805   1.792   0.728   5.557  0.2540 -0.4818  0.3426
 1057SOL     OW14806   2.087   2.001   8.123 -0.2469 -0.2207 -0.7443
 1057SOL    HW114807   2.044   1.932   8.173  1.6488  0.8064  2.2840
 1057SOL    HW214808   2.035   2.020   8.044 -2.4772 -3.2103  0.0333
 1058SOL     OW14809   3.783   2.705   5.565 -0.1353 -0.6940 -0.1444
 1058SOL    HW114810   3.767   2.798   5.547  2.1128 -0.1339  0.7389
 1058SOL    HW214811   3.801   2.690   5.472 -1.8162  1.5846 -0.8529
 1059SOL     OW14812   2.377   2.303   9.574 -0.1298  0.1595 -0.1822
 1059SOL    HW114813   2.403   2.317   9.665 -1.5798 -0.2583  0.2926
 1059SOL    HW214814   2.281   2.310   9.575 -0.2422 -0.9726 -2.1905
 1060SOL     OW14815   4.556   3.433  15.332 -0.0913 -0.0097  0.6179
 1060SOL    HW114816   4.577   3.345  15.364 -1.6612 -0.5669  0.1277
 1060SOL    HW214817   4.508   3.432  15.250  0.9276  1.0671  0.0127
 1061SOL     OW14818   0.646   2.977   6.722  0.3895 -0.3967  0.0871
 1061SOL    HW114819   0.626   2.939   6.636 -0.5676  1.0999 -0.3560
 1061SOL    HW214820   0.723   2.923   6.743 -0.1938 -0.9367  0.8709
 1062SOL     OW14821   0.481   2.725   2.266 -0.1993  0.1684 -0.1483
 1062SOL    HW114822   0.503   2.770   2.348 -0.1007  0.3204 -0.2576
 1062SOL    HW214823   0.405   2.679   2.302  0.1813 -1.8896 -2.0357
 1063SOL     OW14824   2.099   3.568  13.108  0.3569  0.2028  0.0852
 1063SOL    HW114825   2.145   3.652  13.099 -1.3042  1.1084  0.1063
 1063SOL    HW214826   2.136   3.524  13.031 -1.8709  1.8166 -1.9103
 1064SOL     OW14827   1.576   2.989   2.756  0.3896 -0.3011 -0.0336
 1064SOL    HW114828   1.644   3.055   2.744  0.3252  0.0286  1.4460
 1064SOL    HW214829   1.558   2.961   2.666 -0.1322  1.5878 -0.5109
 1065SOL     OW14830   1.327   1.286  14.997  0.5307  0.1038  0.1120
 1065SOL    HW114831   1.325   1.193  14.972  0.3172  0.1223  0.0668
 1065SOL    HW214832   1.283   1.331  14.925  2.4077  1.8655  0.0589
 1066SOL     OW14833   2.715   3.735   9.438 -0.3460  0.7629 -0.2929
 1066SOL    HW114834   2.795   3.764   9.481  0.4744 -0.5985 -0.9137
 1066SOL    HW214835   2.652   3.758   9.507  0.4792  0.8614  0.4270
 1067SOL     OW14836   1.597   2.792   1.660  0.0049 -0.2298  0.1547
 1067SOL    HW114837   1.513   2.748   1.673 -0.2337 -0.1059 -0.9761
 1067SOL    HW214838   1.600   2.806   1.565 -0.0246 -1.9003 -0.1036
 1068SOL     OW14839   1.375   4.369   0.988  0.1217  0.5253 -0.8898
 1068SOL    HW114840   1.470   4.373   0.988  0.0730  1.6252 -0.9427
 1068SOL    HW214841   1.371   4.280   0.952 -4.2258 -0.1010  1.0604
 1069SOL     OW14842   2.566   1.490   2.065 -0.4057 -0.3759  0.0021
 1069SOL    HW114843   2.560   1.535   2.149 -0.8080 -0.5024  0.0410
 1069SOL    HW214844   2.647   1.531   2.033 -2.2096  0.8314 -3.0327
 1070SOL     OW14845   0.515   0.389   6.821  0.1119 -0.2995  0.0302
 1070SOL    HW114846   0.582   0.332   6.859 -0.0097  0.1449  0.9149
 1070SOL    HW214847   0.540   0.476   6.851  1.5756 -0.9091  0.5698
 1071SOL     OW14848   3.718   0.854  11.676  0.2583  0.4038  0.2245
 1071SOL    HW114849   3.731   0.790  11.606  0.8301  0.2889  0.4362
 1071SOL    HW214850   3.791   0.910  11.647 -2.1027  1.5555 -3.5609
 1072SOL     OW14851   0.317   0.803   6.539 -0.6215 -0.2062 -0.1454
 1072SOL    HW114852   0.246   0.863   6.518  0.1659  1.6793  2.6293
 1072SOL    HW214853   0.346   0.782   6.450 -0.1487  0.8472 -0.2515
 1073SOL     OW14854   2.098   3.871   6.373 -0.6269  0.1043 -0.5279
 1073SOL    HW114855   2.020   3.818   6.385 -0.0505 -0.5977  0.1038
 1073SOL    HW214856   2.167   3.819   6.414 -0.8363  1.1734  1.1892
 1074SOL     OW14857   2.517   0.162   5.015 -0.0542 -0.3274  0.1710
 1074SOL    HW114858   2.535   0.223   5.086  0.4061  0.2292 -0.4291
 1074SOL    HW214859   2.595   0.107   5.008 -1.4114 -2.4180  1.3914
 1075SOL     OW14860   3.938   2.183  12.853 -0.0523  0.3462  0.4153
 1075SOL    HW114861   3.914   2.257  12.908 -0.2853  1.0417 -0.6236
 1075SOL    HW214862   4.032   2.199  12.854 -0.0737  0.5611 -2.1502
 1076SOL     OW14863   0.861   3.009   8.599  0.7112 -0.6413  0.1935
 1076SOL    HW114864   0.917   3.078   8.563 -0.6743  0.0624 -0.6095
 1076SOL    HW214865   0.839   3.049   8.682 -1.1100 -1.0739 -0.0905
 1077SOL     OW14866   1.585   1.323  12.035 -0.1121  0.1725  0.1284
 1077SOL    HW114867   1.583   1.263  12.109  0.3207 -2.0633 -1.6902
 1077SOL    HW214868   1.618   1.403  12.077 -1.8253  0.4011  1.0579
 1078SOL     OW14869   2.300   0.586   7.991 -0.1466 -0.0248  0.0499
 1078SOL    HW114870   2.207   0.592   8.012 -0.4263 -3.5973 -0.1890
 1078SOL    HW214871   2.304   0.499   7.951 -0.9585 -0.3215  0.6022
 1079SOL     OW14872   0.160   2.433   1.423  0.0190 -0.1076  0.1382
 1079SOL    HW114873   0.238   2.387   1.393  0.3354  1.9205 -2.1523
 1079SOL    HW214874   0.150   2.422   1.517 -0.5439  1.5848  0.2879
 1080SOL     OW14875   3.947   1.773  11.829 -0.3652  0.5118  0.0298
 1080SOL    HW114876   3.888   1.722  11.884  0.7247 -0.9919 -0.1879
 1080SOL    HW214877   3.907   1.751  11.744  0.0477 -3.3380  0.8670
 1081SOL     OW14878   3.119   1.015  16.679  0.1218  0.6366  0.5450
 1081SOL    HW114879   3.052   1.080  16.658  0.0537  0.5301  0.4331
 1081SOL    HW214880   3.200   1.058  16.650  0.0349  1.4376  1.5169
 1082SOL     OW14881   3.136   0.098   6.606 -0.5778 -0.2546 -0.6916
 1082SOL    HW114882   3.122   0.122   6.515 -0.1243 -2.7203 -1.4047
 1082SOL    HW214883   3.219   0.145   6.621 -0.1897 -0.5840 -1.8239
 1083SOL     OW14884   0.410   1.351   8.256  0.4725  0.7080 -0.4118
 1083SOL    HW114885   0.341   1.314   8.311  3.0519 -1.3601  1.4327
 1083SOL    HW214886   0.362   1.422   8.213 -1.8165 -0.6705 -0.1164
 1084SOL     OW14887   0.480   4.580   1.826 -0.1324 -0.2176 -0.0197
 1084SOL    HW114888   0.493   4.670   1.794 -0.6188 -0.3626 -0.6140
 1084SOL    HW214889   0.385   4.569   1.827 -0.0489 -1.0517 -1.3702
 1085SOL     OW14890   3.593   4.268  11.333  0.2894  0.6456 -0.1450
 1085SOL    HW114891   3.587   4.208  11.258 -0.6145  0.0101  0.4309
 1085SOL    HW214892   3.500   4.264  11.354  0.9610 -1.6047  2.3150
 1086SOL     OW14893   2.921   0.022  15.411 -0.1413  0.3649 -0.7421
 1086SOL    HW114894   2.912   0.017  15.506  0.5201  0.2231 -0.6859
 1086SOL    HW214895   2.879   4.678  15.387  2.1436 -1.4327  1.4991
 1087SOL     OW14896   4.384   3.828  16.175  0.3034  0.0650  0.3540
 1087SOL    HW114897   4.320   3.770  16.215  1.8376 -1.7615  0.1701
 1087SOL    HW214898   4.383   3.798  16.084 -1.0619  2.1250 -0.3141
 1088SOL     OW14899   2.954   1.347   6.351 -0.1865 -0.3607  0.0591
 1088SOL    HW114900   2.908   1.410   6.407  1.3979  0.6693  0.1795
 1088SOL    HW214901   2.905   1.265   6.361 -0.3018 -0.5554 -2.1028
 1089SOL     OW14902   0.266   3.285   3.990  0.0585  0.5298  0.2369
 1089SOL    HW114903   0.222   3.200   3.991 -1.4964  1.3299  0.0362
 1089SOL    HW214904   0.306   3.276   4.076 -1.0457  1.5480  0.8564
 1090SOL     OW14905   4.489   4.304  16.786  0.0421 -0.9313 -0.1175
 1090SOL    HW114906   4.555   4.348  16.732 -0.6779 -0.0875 -0.3232
 1090SOL    HW214907   4.462   4.234  16.727  3.5500  0.4320 -3.3431
 1091SOL     OW14908   4.389   1.682   8.096  0.2869  0.2959 -0.0302
 1091SOL    HW114909   4.363   1.774   8.094 -1.5844 -0.1168  3.8653
 1091SOL    HW214910   4.451   1.687   8.024  0.1831 -3.4668 -0.3967
 1092SOL     OW14911   2.957   3.782   2.959  0.5281  0.3607 -0.3009
 1092SOL    HW114912   2.974   3.688   2.955 -1.2836  0.0124  0.2337
 1092SOL    HW214913   3.009   3.796   3.039 -2.2697  1.0770  1.3978
 1093SOL     OW14914   1.824   2.927   7.433  0.2722  0.5377 -0.5136
 1093SOL    HW114915   1.917   2.904   7.434 -0.2156 -1.4327 -1.7236
 1093SOL    HW214916   1.783   2.862   7.490 -1.2335  1.5399 -0.4497
 1094SOL     OW14917   2.341   0.519  12.102 -0.2720  0.5680 -0.1621
 1094SOL    HW114918   2.329   0.460  12.027 -1.9240 -1.0818  1.4178
 1094SOL    HW214919   2.415   0.576  12.080  1.4787 -0.9761  1.8271
 1095SOL     OW14920   3.071   2.362   5.476 -0.1947  0.0549  0.0673
 1095SOL    HW114921   3.146   2.305   5.488 -2.0898 -2.3641  0.4445
 1095SOL    HW214922   3.018   2.316   5.410  0.3092  0.0247 -0.3107
 1096SOL     OW14923   4.312   2.426   8.791 -0.3586 -0.2953 -0.1086
 1096SOL    HW114924   4.343   2.411   8.880 -1.0278  2.4657  0.6121
 1096SOL    HW214925   4.235   2.371   8.785  1.7009 -3.1326 -0.3884
 1097SOL     OW14926   0.007   2.957  10.093 -0.1799  0.3293 -0.6194
 1097SOL    HW114927   4.681   3.026  10.076  1.0745  1.4325 -0.8687
 1097SOL    HW214928   4.724   2.933  10.183  0.6604 -2.1735 -1.0954
 1098SOL     OW14929   0.406   1.524   6.114 -0.1195  0.9406 -0.0406
 1098SOL    HW114930   0.478   1.463   6.131 -0.5526  0.4791  0.1240
 1098SOL    HW214931   0.459   1.603   6.097  2.4705 -0.4966  1.3278
 1099SOL     OW14932   2.928   1.447   8.618  0.0958 -0.2866  0.1224
 1099SOL    HW114933   2.846   1.482   8.583  0.7610  0.5367 -0.6137
 1099SOL    HW214934   2.976   1.452   8.535  0.7668 -0.0738  0.5177
 1100SOL     OW14935   0.484   2.919   2.500  0.1071  0.5618  0.3002
 1100SOL    HW114936   0.548   2.912   2.571  0.7722 -0.2923 -0.3729
 1100SOL    HW214937   0.507   3.005   2.466  0.6058  0.7625  1.1289
 1101SOL     OW14938   4.376   2.943   3.302  0.6543  0.5437 -0.0456
 1101SOL    HW114939   4.282   2.955   3.289  0.4676 -1.5897 -0.7338
 1101SOL    HW214940   4.388   3.027   3.346 -0.8692  1.5553 -1.5653
 1102SOL     OW14941   4.302   4.590  15.708  0.1129  0.0208  0.0310
 1102SOL    HW114942   4.307   4.564  15.616  2.3013 -0.4305  0.2850
 1102SOL    HW214943   4.312   4.684  15.691  2.7551 -0.4872 -1.2655
 1103SOL     OW14944   1.436   4.372  10.986  0.0320 -0.5970 -0.7666
 1103SOL    HW114945   1.341   4.383  10.975  0.1731  1.0581 -0.3217
 1103SOL    HW214946   1.456   4.450  11.038  1.5882 -0.5393 -1.4668
 1104SOL     OW14947   1.058   4.566  13.409 -0.2578  0.2791  0.4689
 1104SOL    HW114948   1.143   4.558  13.365 -0.0874  0.0453  0.8382
 1104SOL    HW214949   1.067   4.494  13.472  0.0451  0.4880  0.6682
 1105SOL     OW14950   0.033   4.476   5.564  0.9229  0.3132  0.0759
 1105SOL    HW114951   0.035   4.389   5.605  0.9830  0.2040 -0.1620
 1105SOL    HW214952   4.720   4.450   5.488  1.1418  0.2123 -0.0362
 1106SOL     OW14953   2.067   4.643  17.444  0.2331 -0.1738 -0.4482
 1106SOL    HW114954   2.043   4.687  17.526 -1.1644  0.7850 -1.3546
 1106SOL    HW214955   2.088   4.563  17.491  0.4878  0.7315  0.9839
 1107SOL     OW14956   1.077   1.919  14.208 -0.0189  0.3914 -0.0624
 1107SOL    HW114957   1.097   1.986  14.143  0.1595 -0.0302 -0.4391
 1107SOL    HW214958   1.001   1.960  14.251 -0.0436 -1.0378  1.2514
 1108SOL     OW14959   3.154   4.026   7.265 -0.7074 -0.3576  0.2900
 1108SOL    HW114960   3.181   4.116   7.283  2.6958 -1.0101 -1.6220
 1108SOL    HW214961   3.070   4.030   7.311 -1.5580  0.7373 -1.3287
 1109SOL     OW14962   3.439   1.800  10.016  0.1394 -0.5602  0.0710
 1109SOL    HW114963   3.367   1.851   9.979  0.4454  0.0830  0.3764
 1109SOL    HW214964   3.423   1.840  10.102 -1.8696  2.3412 -1.6409
 1110SOL     OW14965   0.004   2.391   7.649  0.0612  0.3587 -0.3623
 1110SOL    HW114966   0.002   2.482   7.622  0.3192  1.1271  2.2651
 1110SOL    HW214967   4.653   2.377   7.681 -0.2533 -0.3408 -1.5467
 1111SOL     OW14968   2.650   1.358   5.767  0.1580 -0.0964 -0.2040
 1111SOL    HW114969   2.729   1.413   5.773  0.4908 -1.0787  4.6408
 1111SOL    HW214970   2.581   1.423   5.782  1.7449  1.3674  0.7963
 1112SOL     OW14971   2.206   0.912   9.553  0.5413 -0.0622 -0.1196
 1112SOL    HW114972   2.257   0.958   9.620 -0.1588 -0.2413  0.5313
 1112SOL    HW214973   2.268   0.864   9.498 -0.0528 -0.5712 -0.3455
 1113SOL     OW14974   2.283   4.057   9.639  0.3035  0.7411 -0.3655
 1113SOL    HW114975   2.209   4.034   9.696  0.6480  0.5938  0.0242
 1113SOL    HW214976   2.361   4.065   9.694 -0.7841 -1.9781  1.5433
 1114SOL     OW14977   2.307   4.417   8.854  0.4214  0.4422  0.2964
 1114SOL    HW114978   2.390   4.452   8.820 -0.6046  1.0704 -1.5781
 1114SOL    HW214979   2.325   4.392   8.945 -0.4032 -1.7989 -0.1650
 1115SOL     OW14980   2.163   2.631   8.026  0.1306  0.3780 -0.2459
 1115SOL    HW114981   2.100   2.616   8.097 -0.1294  0.5393 -0.4402
 1115SOL    HW214982   2.246   2.649   8.071  0.3014  1.3766 -0.9598
 1116SOL     OW14983   0.719   0.670   6.659 -0.7939 -0.0766 -0.0216
 1116SOL    HW114984   0.686   0.673   6.569 -0.0582 -1.6488 -0.3401
 1116SOL    HW214985   0.642   0.683   6.714  0.2287  2.2781  0.8682
 1117SOL     OW14986   1.007   0.911   6.245 -0.0023  0.5744 -0.5422
 1117SOL    HW114987   1.016   0.886   6.337 -1.3825 -0.5401 -0.7189
 1117SOL    HW214988   0.927   0.964   6.251  0.3525  1.0045  0.4128
 1118SOL     OW14989   1.759   2.985   3.956 -0.1668 -0.3837  0.0886
 1118SOL    HW114990   1.678   2.935   3.952 -0.4522  0.2768 -2.5446
 1118SOL    HW214991   1.745   3.054   3.891 -2.9258 -2.1680 -1.2125
 1119SOL     OW14992   4.273   3.868   3.930 -0.4073  0.0487 -0.4595
 1119SOL    HW114993   4.200   3.919   3.965  0.7631  2.4986 -1.6122
 1119SOL    HW214994   4.270   3.886   3.836  0.6758  2.5487 -0.0022
 1120SOL     OW14995   1.513   0.390   7.105 -0.4887 -0.4003  0.7444
 1120SOL    HW114996   1.486   0.319   7.046 -0.9562 -1.3442  2.1115
 1120SOL    HW214997   1.447   0.459   7.096  0.1776  0.3625  1.7328
 1121SOL     OW14998   1.579   1.827   6.325 -0.1372 -0.4573  0.0459
 1121SOL    HW114999   1.588   1.747   6.273  0.0433 -1.2603  1.3255
 1121SOL    HW215000   1.604   1.899   6.267 -0.3068  1.1828  2.0238
 1122SOL     OW15001   3.044   0.519   8.037  0.2090  0.2093 -0.0854
 1122SOL    HW115002   3.007   0.607   8.044  1.0524  0.5374  0.2777
 1122SOL    HW215003   2.983   0.472   7.981 -0.3600  1.0528 -0.1759
 1123SOL     OW15004   1.488   0.099   2.033  0.1013 -0.7839 -0.1744
 1123SOL    HW115005   1.519   0.182   2.070  1.0994  0.5157 -4.0013
 1123SOL    HW215006   1.403   0.087   2.074  1.0975 -1.3885  1.7711
 1124SOL     OW15007   4.149   3.193   3.726 -0.1298  0.1758  0.4719
 1124SOL    HW115008   4.159   3.100   3.744 -2.2983  0.5272  3.4967
 1124SOL    HW215009   4.057   3.192   3.698 -1.0539 -0.5782  3.5442
 1125SOL     OW15010   1.144   4.393   9.877  0.1697 -0.3586 -0.0850
 1125SOL    HW115011   1.185   4.336   9.941  0.9879  0.2090 -0.0965
 1125SOL    HW215012   1.075   4.334   9.848 -1.0124  0.7542  0.4365
 1126SOL     OW15013   3.534   1.309   6.634  0.4224 -0.0182  0.1255
 1126SOL    HW115014   3.451   1.348   6.604  0.3719 -0.3045 -0.1144
 1126SOL    HW215015   3.578   1.282   6.553  0.0329  1.2191 -0.5131
 1127SOL     OW15016   0.895   0.361   1.207 -0.4105 -0.0832 -0.6926
 1127SOL    HW115017   0.893   0.307   1.128 -0.6403  2.2085 -2.2476
 1127SOL    HW215018   0.980   0.335   1.242 -0.7092 -0.5505 -0.3120
 1128SOL     OW15019   2.185   0.871   0.411 -0.3484  0.2540 -0.4962
 1128SOL    HW115020   2.280   0.873   0.423 -0.1835 -2.7915 -1.3388
 1128SOL    HW215021   2.173   0.833   0.324  0.0624 -0.8155 -0.0941
 1129SOL     OW15022   4.341   4.585   3.033  0.1701  0.0710  0.0488
 1129SOL    HW115023   4.301   4.498   3.024  0.7554 -0.2272  0.3187
 1129SOL    HW215024   4.373   4.603   2.944 -1.5613 -2.2361 -1.0532
 1130SOL     OW15025   3.004   2.999   9.882 -0.2872  0.5122 -0.5265
 1130SOL    HW115026   2.965   3.047   9.955 -2.5827 -0.8455 -0.8341
 1130SOL    HW215027   3.098   3.013   9.893 -0.4285  0.9732  0.0972
 1131SOL     OW15028   3.141   0.469   1.512  0.3335  0.0335 -0.2222
 1131SOL    HW115029   3.210   0.534   1.499 -2.0987  2.4129 -1.1270
 1131SOL    HW215030   3.122   0.487   1.604  0.6060  1.4929 -0.4453
 1132SOL     OW15031   2.234   0.642   7.405  0.5297 -0.1940  0.0791
 1132SOL    HW115032   2.219   0.708   7.473  1.4621  1.9347 -1.7854
 1132SOL    HW215033   2.286   0.682   7.335  2.4532  0.1429  1.6727
 1133SOL     OW15034   0.178   0.272   2.210 -0.1898 -0.9393 -0.0335
 1133SOL    HW115035   0.252   0.251   2.267 -1.5305 -1.3647  1.5579
 1133SOL    HW215036   0.166   0.188   2.166 -2.0238 -1.1615  0.9078
 1134SOL     OW15037   3.156   0.818  14.170  0.5179  0.1855  0.3372
 1134SOL    HW115038   3.109   0.776  14.098  0.7823  1.0491 -0.3238
 1134SOL    HW215039   3.247   0.800  14.147  0.2423 -0.8037 -0.0032
 1135SOL     OW15040   3.449   4.442  10.993 -0.3544  0.0331  0.7374
 1135SOL    HW115041   3.535   4.401  11.004  0.5699  1.2575 -1.9798
 1135SOL    HW215042   3.442   4.506  11.064  0.6350 -0.7868  1.5601
 1136SOL     OW15043   2.442   4.502   5.893 -0.0352 -0.0301 -0.2671
 1136SOL    HW115044   2.376   4.453   5.942 -0.0928  0.0517 -0.2623
 1136SOL    HW215045   2.428   4.590   5.927  2.7729 -0.2285  1.4797
 1137SOL     OW15046   4.219   1.841   9.359 -0.0427  0.0427 -0.3310
 1137SOL    HW115047   4.192   1.847   9.267  0.4207 -0.0110 -0.4675
 1137SOL    HW215048   4.268   1.923   9.360 -2.5051  1.5663 -3.1843
 1138SOL     OW15049   3.101   2.352   4.249  0.4215  0.1833  0.3097
 1138SOL    HW115050   3.138   2.264   4.244 -3.2449 -1.4057  0.6715
 1138SOL    HW215051   3.014   2.324   4.220  0.4065 -1.3793  1.8587
 1139SOL     OW15052   2.624   0.160   2.827  0.2029  0.2649 -0.3417
 1139SOL    HW115053   2.689   0.229   2.813 -0.7283  0.8181 -1.9101
 1139SOL    HW215054   2.610   0.122   2.740  3.2974 -1.5770 -0.0231
 1140SOL     OW15055   1.755   0.217   0.991  0.1798  0.8103  0.5265
 1140SOL    HW115056   1.740   0.279   0.920 -1.4527 -1.0204 -0.7369
 1140SOL    HW215057   1.684   0.236   1.052  1.7960  0.4364  2.4882
 1141SOL     OW15058   4.537   1.750   2.755 -0.2116  0.4796  0.2531
 1141SOL    HW115059   4.525   1.658   2.731 -1.4745  0.6031  0.4153
 1141SOL    HW215060   4.476   1.791   2.694  1.1994  1.4167 -0.5315
 1142SOL     OW15061   0.172   0.827   4.990 -0.3910  0.3632  0.4361
 1142SOL    HW115062   0.081   0.844   4.965 -0.2014  0.2099 -0.3518
 1142SOL    HW215063   0.159   0.795   5.080 -2.9485 -3.8804 -1.4753
 1143SOL     OW15064   3.409   3.527  10.206 -0.4640 -0.2624  0.5107
 1143SOL    HW115065   3.488   3.559  10.162  0.5664 -1.3389  1.5531
 1143SOL    HW215066   3.365   3.473  10.140 -0.9450  2.6662 -1.5740
 1144SOL     OW15067   1.188   3.352   8.448  0.1592  0.5507  0.3093
 1144SOL    HW115068   1.259   3.370   8.510  0.2989  1.9116 -0.2627
 1144SOL    HW215069   1.191   3.430   8.393  0.5657  1.0997  1.1086
 1145SOL     OW15070   0.486   3.888   2.434 -0.0247 -0.0069 -0.8209
 1145SOL    HW115071   0.457   3.950   2.368  0.5412  2.3074  1.1140
 1145SOL    HW215072   0.576   3.860   2.414  0.0522  1.5387 -2.6307
 1146SOL     OW15073   1.095   2.524   2.404  0.5639  0.3220  0.2328
 1146SOL    HW115074   1.103   2.430   2.423 -0.5730  0.2098  0.1525
 1146SOL    HW215075   1.000   2.534   2.411  0.9809  4.6351 -0.2937
 1147SOL     OW15076   4.206   3.469   3.803  0.0087 -0.7426  0.2197
 1147SOL    HW115077   4.198   3.375   3.788  1.7621 -1.2592  2.5780
 1147SOL    HW215078   4.286   3.486   3.852  1.8348 -1.0306 -2.6615
 1148SOL     OW15079   1.399   0.564   2.210 -0.3283 -0.6080 -0.4517
 1148SOL    HW115080   1.375   0.509   2.285  1.7556  1.7124  1.9590
 1148SOL    HW215081   1.468   0.620   2.247  0.0472 -1.3789  0.0289
 1149SOL     OW15082   2.526   2.528   8.068 -0.5213 -0.2708 -0.0499
 1149SOL    HW115083   2.462   2.487   8.009  0.5925  0.9930 -2.1699
 1149SOL    HW215084   2.587   2.455   8.076 -0.9128 -0.7220 -1.0884
 1150SOL     OW15085   0.206   1.649   3.025 -0.4087  0.1708 -0.6604
 1150SOL    HW115086   0.211   1.732   2.977  0.6799  0.4515 -0.0808
 1150SOL    HW215087   0.207   1.592   2.948 -0.7366  0.3193 -0.7745
 1151SOL     OW15088   1.146   3.292  15.006  0.1690  0.2491 -0.6235
 1151SOL    HW115089   1.064   3.279  14.959 -0.7712  0.8359  0.8667
 1151SOL    HW215090   1.213   3.270  14.941  0.6725 -0.6182  0.1744
 1152SOL     OW15091   0.063   0.542   9.840 -0.4136 -0.2239 -0.2328
 1152SOL    HW115092   0.031   0.465   9.887 -0.0400 -0.9221 -1.1148
 1152SOL    HW215093   0.157   0.524   9.836 -0.2816  0.5755 -0.7979
 1153SOL     OW15094   0.739   4.705  15.963 -0.1466  0.0577 -0.0789
 1153SOL    HW115095   0.742   4.712  16.058  0.7003  1.0680 -0.1845
 1153SOL    HW215096   0.725   0.058  15.938  2.4659  0.5599  0.2528
 1154SOL     OW15097   0.932   4.700   3.517  0.1859 -0.1485 -0.1394
 1154SOL    HW115098   0.985   0.041   3.505  0.3290  0.0066  1.4649
 1154SOL    HW215099   1.001   4.638   3.493  1.2100  2.2564 -3.4984
 1155SOL     OW15100   4.181   0.278   8.726 -0.3211  0.0708 -0.7241
 1155SOL    HW115101   4.093   0.252   8.751  0.2738 -1.4065 -0.1424
 1155SOL    HW215102   4.215   0.264   8.815  2.1548 -0.7622 -1.7726
 1156SOL     OW15103   0.905   3.681  11.219  0.2564  0.0849 -0.1343
 1156SOL    HW115104   0.913   3.587  11.228  1.5834  0.4326  2.2042
 1156SOL    HW215105   0.947   3.691  11.133 -1.1304  3.9515 -0.4047
 1157SOL     OW15106   0.071   2.164   3.051 -0.2659 -0.1966 -0.2304
 1157SOL    HW115107   4.729   2.113   3.040  0.4983 -1.3141 -0.6179
 1157SOL    HW215108   0.126   2.088   3.032  1.8081  1.4577 -0.8707
 1158SOL     OW15109   1.170   1.727  17.370 -0.3456 -0.1346 -0.1456
 1158SOL    HW115110   1.113   1.690  17.303  1.0180 -1.3828 -0.6002
 1158SOL    HW215111   1.107   1.754  17.437 -0.3518  0.4004 -0.3692
 1159SOL     OW15112   2.973   3.384   3.527 -0.2202 -0.7954 -0.5835
 1159SOL    HW115113   2.929   3.466   3.508  1.7897  0.5602  0.5544
 1159SOL    HW215114   3.052   3.378   3.473  0.9383 -3.3811  1.3770
 1160SOL     OW15115   3.398   1.861   0.625  0.2560  0.1834 -0.6316
 1160SOL    HW115116   3.345   1.806   0.566 -0.1627 -0.9335  0.7914
 1160SOL    HW215117   3.489   1.846   0.599 -0.2317 -2.1522 -0.9925
 1161SOL     OW15118   2.469   1.280   1.762  0.4312  0.0503  0.3132
 1161SOL    HW115119   2.560   1.306   1.748  0.2867  0.9457  1.0407
 1161SOL    HW215120   2.445   1.367   1.794 -2.7130 -1.1816  1.2468
 1162SOL     OW15121   1.379   1.736   4.742  0.8379  0.4160 -0.2588
 1162SOL    HW115122   1.454   1.683   4.713 -0.2793 -2.3191  1.8844
 1162SOL    HW215123   1.416   1.821   4.766 -1.0107  0.0290  3.9657
 1163SOL     OW15124   1.208   0.797   1.089  0.0935  0.4823 -0.5337
 1163SOL    HW115125   1.166   0.749   1.160 -0.0093 -0.1733 -1.0385
 1163SOL    HW215126   1.253   0.736   1.030 -2.1840 -0.7791 -0.9369
 1164SOL     OW15127   2.674   4.668   4.176  0.5176 -0.2923 -0.1466
 1164SOL    HW115128   2.609   4.637   4.113 -0.5208 -0.2835  0.9072
 1164SOL    HW215129   2.743   4.603   4.162 -1.4480 -1.9681 -2.1307
 1165SOL     OW15130   0.570   0.100  14.928  0.5093  0.1071 -0.4139
 1165SOL    HW115131   0.603   0.134  15.011  2.8730 -0.5169 -1.0864
 1165SOL    HW215132   0.477   0.116  14.942  0.5797  1.5320 -1.6231
 1166SOL     OW15133   3.943   2.305   0.251  0.4954 -0.1948  0.3032
 1166SOL    HW115134   3.857   2.265   0.236  0.2852  0.9925 -1.6931
 1166SOL    HW215135   3.988   2.233   0.294 -1.2559 -1.1528  0.5432
 1167SOL     OW15136   3.804   2.339   0.926 -0.1793  0.3938 -0.1368
 1167SOL    HW115137   3.755   2.392   0.863 -0.2034  0.3058 -0.1909
 1167SOL    HW215138   3.753   2.258   0.925 -0.6134  0.6527  0.6214
 1168SOL     OW15139   3.312   3.935   0.745  0.2497 -0.1985 -0.3727
 1168SOL    HW115140   3.314   3.971   0.834  0.5833 -0.4372 -0.2843
 1168SOL    HW215141   3.259   3.999   0.698 -0.5495 -0.6195 -0.0433
 1169SOL     OW15142   1.547   0.917   0.453 -0.1940 -0.5248  0.2783
 1169SOL    HW115143   1.609   0.890   0.385 -2.0763 -0.7786 -1.3370
 1169SOL    HW215144   1.498   0.977   0.397 -2.1633  0.0472  2.5731
 1170SOL     OW15145   0.472   0.817  10.419 -0.2239 -0.1837  0.0891
 1170SOL    HW115146   0.448   0.896  10.369 -0.7022 -0.7224 -0.5415
 1170SOL    HW215147   0.476   0.750  10.351  1.4544  0.1094 -0.1009
 1171SOL     OW15148   0.024   2.228   4.348  0.0256 -0.4342  0.6464
 1171SOL    HW115149   0.011   2.269   4.434 -2.1442  2.7629 -1.1994
 1171SOL    HW215150   0.005   2.304   4.292  0.1165  0.3341  1.6655
 1172SOL     OW15151   2.264   0.294  15.447 -0.6840  0.2946  0.2214
 1172SOL    HW115152   2.216   0.239  15.508 -0.7680 -1.2828 -1.2770
 1172SOL    HW215153   2.250   0.382  15.484  2.4664  0.2768  1.4860
 1173SOL     OW15154   2.892   2.858  17.680  0.5230  0.0964 -0.1026
 1173SOL    HW115155   2.888   2.774  17.635  0.3449 -0.9083  1.8088
 1173SOL    HW215156   2.800   2.886  17.681  0.4835 -0.1557  2.4227
 1174SOL     OW15157   1.325   2.235   1.902  0.3376 -0.1270 -0.1393
 1174SOL    HW115158   1.283   2.180   1.967 -0.6926  0.4825 -0.2908
 1174SOL    HW215159   1.416   2.205   1.903  0.3496 -0.0453  1.0632
 1175SOL     OW15160   3.006   1.552   2.258  0.5270  0.3736  0.5929
 1175SOL    HW115161   3.001   1.511   2.344 -1.3045 -0.1585  0.2379
 1175SOL    HW215162   3.068   1.623   2.276 -2.5473  2.8577  1.4343
 1176SOL     OW15163   0.662   1.804   0.590 -0.3587  0.1859  0.1589
 1176SOL    HW115164   0.686   1.725   0.639  0.0423  0.2634  0.0830
 1176SOL    HW215165   0.569   1.784   0.578 -0.2811  0.6918 -1.2768
 1177SOL     OW15166   0.288   0.795   0.513 -0.4055 -0.2224  0.2429
 1177SOL    HW115167   0.334   0.713   0.494  1.6160  0.8565  0.5133
 1177SOL    HW215168   0.360   0.855   0.498 -0.5362  0.2711  1.5733
 1178SOL     OW15169   4.007   1.840   1.581  0.4032 -0.1017  0.3917
 1178SOL    HW115170   4.047   1.913   1.534 -0.1994  0.4521  0.7438
 1178SOL    HW215171   4.083   1.796   1.619  0.2747 -1.6990 -1.2110
 1179SOL     OW15172   1.969   1.061   4.856 -0.4017  0.5334  0.2871
 1179SOL    HW115173   1.943   1.081   4.766  2.5005  0.5082 -0.5512
 1179SOL    HW215174   1.988   1.152   4.879 -0.2425  0.3907  0.7186
 1180SOL     OW15175   4.674   3.550   6.120  0.1603 -0.0101  0.0351
 1180SOL    HW115176   4.731   3.486   6.161  0.5179  0.2314 -0.0788
 1180SOL    HW215177   4.592   3.518   6.158  0.8506 -1.5545  0.2043
 1181SOL     OW15178   0.206   1.903   2.915 -0.1662  0.0880  0.4186
 1181SOL    HW115179   0.122   1.939   2.888  0.7577  1.1559 -1.0214
 1181SOL    HW215180   0.250   1.915   2.831  2.1954 -0.2452  1.5952
 1182SOL     OW15181   0.774   0.853   8.453 -0.2016 -0.0613  0.4734
 1182SOL    HW115182   0.747   0.793   8.523  2.5653 -1.4696  0.3223
 1182SOL    HW215183   0.697   0.841   8.398 -0.6213  2.5013  0.4843
 1183SOL     OW15184   0.308   2.691   8.576  0.4871 -0.2698 -0.5201
 1183SOL    HW115185   0.344   2.602   8.582  1.8874  0.3200 -0.1342
 1183SOL    HW215186   0.217   2.671   8.600  0.6809 -1.8340 -1.0814
 1184SOL     OW15187   3.164   3.412  10.889 -0.1088  0.6376 -0.2610
 1184SOL    HW115188   3.160   3.449  10.801 -0.7195 -0.1383 -0.5579
 1184SOL    HW215189   3.246   3.366  10.873  0.3996  1.2513  0.6196
 1185SOL     OW15190   0.206   3.779   7.618  0.2365 -0.0349  0.1471
 1185SOL    HW115191   0.181   3.847   7.681  0.6014  1.4484 -1.2940
 1185SOL    HW215192   0.163   3.700   7.651  0.8664  0.0546  1.2011
 1186SOL     OW15193   2.223   4.651   8.129  0.0150 -0.1665  0.1433
 1186SOL    HW115194   2.276   4.572   8.122 -1.0786 -0.9624  0.9792
 1186SOL    HW215195   2.192   4.653   8.039 -0.5685  2.4159  0.3891
 1187SOL     OW15196   3.137   3.490   5.552 -0.2313 -0.7053 -0.3037
 1187SOL    HW115197   3.132   3.396   5.534 -0.6588 -0.6229 -0.6300
 1187SOL    HW215198   3.087   3.533   5.483  0.3659 -0.4507 -0.5712
 1188SOL     OW15199   1.068   3.696   9.389 -0.0317  0.0890 -0.2567
 1188SOL    HW115200   0.996   3.751   9.421  0.8195  0.6661  0.6389
 1188SOL    HW215201   1.069   3.721   9.297  1.9174 -0.5879 -0.4253
 1189SOL     OW15202   2.054   0.852   1.633 -0.5786  0.3583 -0.3567
 1189SOL    HW115203   2.035   0.944   1.649 -0.7132 -0.0392  1.7796
 1189SOL    HW215204   1.977   0.831   1.580 -0.5857  2.4938 -1.1835
 1190SOL     OW15205   0.878   2.662  14.140 -0.3763 -0.3033  0.0288
 1190SOL    HW115206   0.857   2.715  14.217  1.8114  2.0949 -1.0466
 1190SOL    HW215207   0.793   2.650  14.098  0.9880 -2.1125 -2.2655
 1191SOL     OW15208   2.186   4.541  15.485 -0.2344 -0.4951 -0.0740
 1191SOL    HW115209   2.189   4.464  15.428  1.2060  0.4546 -1.2811
 1191SOL    HW215210   2.243   4.608  15.447 -1.0389  0.4994  0.4575
 1192SOL     OW15211   0.964   2.387   3.277  0.1775  0.3800 -0.2727
 1192SOL    HW115212   0.871   2.403   3.291 -0.2001  0.1150 -2.4373
 1192SOL    HW215213   0.995   2.380   3.367  0.4582  0.3720 -0.3696
 1193SOL     OW15214   1.609   2.927  11.692  0.1208 -0.6107 -0.4916
 1193SOL    HW115215   1.516   2.924  11.670  0.1031 -1.3168 -0.3328
 1193SOL    HW215216   1.608   3.018  11.720  0.2112 -0.2352 -1.7188
 1194SOL     OW15217   3.937   0.594   6.773  0.1593  0.0367 -0.0545
 1194SOL    HW115218   3.965   0.584   6.864 -2.8746  0.9527  0.9837
 1194SOL    HW215219   3.989   0.528   6.728 -0.2917  1.4566 -2.6329
 1195SOL     OW15220   0.314   2.457   0.214  0.3269  0.4677  0.2059
 1195SOL    HW115221   0.288   2.369   0.240 -1.9150  1.2291  0.5151
 1195SOL    HW215222   0.261   2.518   0.266 -0.5564 -1.2975  1.3436
 1196SOL     OW15223   3.121   2.798   8.531 -0.5116 -0.8598 -0.1874
 1196SOL    HW115224   3.156   2.731   8.590  3.5684  3.1992  1.9486
 1196SOL    HW215225   3.180   2.873   8.528  1.0309 -2.0523  0.0088
 1197SOL     OW15226   4.370   1.956   5.943  0.5058  0.1138 -0.4662
 1197SOL    HW115227   4.318   2.034   5.920 -0.9664 -0.3738  1.1659
 1197SOL    HW215228   4.458   1.972   5.910  0.0115  2.0028 -0.8847
 1198SOL     OW15229   0.921   0.126  12.465 -0.2757  0.2042  1.4135
 1198SOL    HW115230   0.893   0.215  12.483  2.4485  1.3850 -0.3586
 1198SOL    HW215231   0.842   0.079  12.492  0.4242 -1.2941  0.8579
 1199SOL     OW15232   2.145   1.085   3.262  0.2237  0.4128 -0.1417
 1199SOL    HW115233   2.169   1.176   3.279  0.9022 -0.0508  1.3581
 1199SOL    HW215234   2.192   1.066   3.181  0.0209 -2.8135  0.4838
 1200SOL     OW15235   1.670   1.319  15.085  0.4679 -0.1486  0.1894
 1200SOL    HW115236   1.683   1.254  15.154  2.3932  0.3799  0.3347
 1200SOL    HW215237   1.641   1.273  15.006 -2.6208 -0.9092  1.8063
 1201SOL     OW15238   3.518   2.359   3.474 -0.5398 -0.4291  0.5468
 1201SOL    HW115239   3.440   2.353   3.418 -0.1749  0.0344 -0.0100
 1201SOL    HW215240   3.586   2.327   3.415 -0.1448  1.2769  0.0589
 1202SOL     OW15241   1.999   3.952   3.757  0.2907  0.2119  0.3166
 1202SOL    HW115242   2.047   3.951   3.674  1.5322 -3.3164  1.0514
 1202SOL    HW215243   1.948   4.031   3.741  1.9427  1.5136  1.5244
 1203SOL     OW15244   0.268   2.142   4.269 -0.3450 -0.2705  0.3083
 1203SOL    HW115245   0.303   2.066   4.317 -2.0964 -1.1933  0.0958
 1203SOL    HW215246   0.188   2.158   4.318 -2.3695 -0.9800 -2.8041
 1204SOL     OW15247   0.963   1.754   0.697 -0.2253 -0.2004 -0.0285
 1204SOL    HW115248   0.963   1.840   0.740 -0.9200  0.2741 -0.9767
 1204SOL    HW215249   1.001   1.772   0.612 -0.1131 -0.7964 -0.1046
 1205SOL     OW15250   1.777   1.924  17.014  0.2132  0.3836  0.1222
 1205SOL    HW115251   1.700   1.917  17.070 -0.9626 -0.5705 -1.5963
 1205SOL    HW215252   1.736   1.962  16.936 -2.4137 -2.7967 -0.0538
 1206SOL     OW15253   3.315   4.586   5.071  0.8765  0.6722 -0.3979
 1206SOL    HW115254   3.223   4.578   5.044  0.7096 -0.2008  0.4483
 1206SOL    HW215255   3.329   4.676   5.042  0.7911  1.0244  0.6292
 1207SOL     OW15256   2.380   2.437   3.796 -0.0528 -0.4296 -0.2419
 1207SOL    HW115257   2.442   2.364   3.801  1.2856  0.7035 -0.1992
 1207SOL    HW215258   2.414   2.478   3.716 -1.6456  1.7219  0.1870
 1208SOL     OW15259   0.400   1.146   3.090  0.3760 -0.2696 -0.2100
 1208SOL    HW115260   0.437   1.094   3.019  1.5931  0.5258 -0.1616
 1208SOL    HW215261   0.350   1.210   3.039  0.3610  1.3399  1.8084
 1209SOL     OW15262   0.434   3.287   6.140  0.0956 -0.1802  0.1287
 1209SOL    HW115263   0.477   3.352   6.196 -0.9657 -0.2277  0.9872
 1209SOL    HW215264   0.419   3.217   6.205  0.8366 -1.0599 -0.6407
 1210SOL     OW15265   4.476   1.420  11.638  0.2056 -0.0489  0.1578
 1210SOL    HW115266   4.407   1.436  11.702 -1.2698  1.4642 -1.8032
 1210SOL    HW215267   4.462   1.328  11.615  1.7669  0.3158 -2.2790
 1211SOL     OW15268   2.427   1.590  17.366  0.0698 -0.6692 -0.1341
 1211SOL    HW115269   2.410   1.593  17.272  1.3913  2.0001 -0.2863
 1211SOL    HW215270   2.522   1.595  17.374 -0.1001  0.7727  0.9004
 1212SOL     OW15271   2.165   1.815   2.688 -0.7681  0.3186  0.6096
 1212SOL    HW115272   2.085   1.768   2.709 -0.7301 -0.3211 -0.6742
 1212SOL    HW215273   2.173   1.877   2.761 -0.8983  0.0726  0.8323
 1213SOL     OW15274   4.527   0.515   5.911  0.0200  0.0033  0.1290
 1213SOL    HW115275   4.532   0.453   5.838 -0.4455  1.3122 -1.0261
 1213SOL    HW215276   4.479   0.588   5.873  0.7341  0.3691 -0.0811
 1214SOL     OW15277   0.274   2.606   4.026 -0.0067  0.3541  0.0577
 1214SOL    HW115278   0.245   2.567   4.108 -0.0609  0.1101 -0.0786
 1214SOL    HW215279   0.231   2.552   3.960 -1.1293  1.0666  0.2164
 1215SOL     OW15280   0.093   0.575   6.527 -0.6452 -0.3391  0.0247
 1215SOL    HW115281   0.099   0.670   6.533 -1.8617 -0.2261 -0.5603
 1215SOL    HW215282   0.073   0.542   6.614  1.2921 -1.4657  0.0659
 1216SOL     OW15283   0.786   3.681   5.555  0.3020  0.2872  0.5065
 1216SOL    HW115284   0.765   3.609   5.495  0.7448 -0.0750  0.7930
 1216SOL    HW215285   0.778   3.757   5.497 -0.4104  1.3176  1.9581
 1217SOL     OW15286   0.914   0.429   8.366 -0.1099  0.6333 -0.7379
 1217SOL    HW115287   0.893   0.346   8.323 -2.2240 -0.3663  2.1972
 1217SOL    HW215288   0.875   0.486   8.300  0.3315  2.7751  0.8711
 1218SOL     OW15289   0.939   1.177  10.026  0.5464 -0.4837 -0.3236
 1218SOL    HW115290   0.854   1.137  10.038  0.5026 -0.0318  0.8395
 1218SOL    HW215291   0.931   1.205   9.934  0.8517  0.5462 -0.0391
 1219SOL     OW15292   4.484   1.321   0.683 -0.6549 -0.2145 -0.3218
 1219SOL    HW115293   4.445   1.235   0.667  1.6995 -1.7261  2.2019
 1219SOL    HW215294   4.562   1.307   0.630  0.9576  1.5411  1.5665
 1220SOL     OW15295   0.830   1.624  16.436 -0.3306  0.1111 -0.1759
 1220SOL    HW115296   0.867   1.584  16.357  1.6995  0.5034  0.5708
 1220SOL    HW215297   0.739   1.597  16.444  0.6560 -2.6332  1.7609
 1221SOL     OW15298   0.609   0.944   0.219  0.1748  0.1062  0.1069
 1221SOL    HW115299   0.627   0.926   0.127 -0.5551 -0.9290  0.1766
 1221SOL    HW215300   0.516   0.965   0.217  0.2116  0.2429 -0.1658
 1222SOL     OW15301   3.189   2.560   3.682  0.3998 -0.4950  0.0243
 1222SOL    HW115302   3.194   2.655   3.690 -1.3958 -0.3316 -0.8232
 1222SOL    HW215303   3.275   2.541   3.646  0.2311 -0.7512 -0.2532
 1223SOL     OW15304   0.585   0.006   4.081 -0.3066 -0.7300  0.7344
 1223SOL    HW115305   0.587   4.710   4.170  0.8513  0.9807  1.3423
 1223SOL    HW215306   0.674   4.720   4.055 -0.7368  0.7663 -2.1209
 1224SOL     OW15307   1.396   3.301   1.929  0.0946  0.4498 -0.3846
 1224SOL    HW115308   1.373   3.354   1.852 -1.6896 -1.1402 -0.9561
 1224SOL    HW215309   1.405   3.217   1.884  1.3861  0.7786 -0.7647
 1225SOL     OW15310   3.388   0.858   3.985 -0.5708  0.6134  0.1652
 1225SOL    HW115311   3.467   0.839   4.036 -2.0079 -1.4081  1.6465
 1225SOL    HW215312   3.326   0.821   4.048 -0.1319 -1.1578 -0.4564
 1226SOL     OW15313   2.946   2.222  12.812 -0.2798  0.1238  0.2002
 1226SOL    HW115314   2.911   2.140  12.779  0.1077 -0.0783  0.2913
 1226SOL    HW215315   2.931   2.194  12.902  1.1948 -1.7176 -0.1312
 1227SOL     OW15316   0.733   0.165   3.156  0.6546 -0.8965  0.3129
 1227SOL    HW115317   0.729   0.136   3.065 -1.8212  0.9452 -0.1755
 1227SOL    HW215318   0.826   0.183   3.172  0.1413  1.7220  0.2969
 1228SOL     OW15319   3.113   2.555   3.975  0.1269 -0.1646  0.2171
 1228SOL    HW115320   3.143   2.645   3.990 -1.0818  0.4531 -1.0695
 1228SOL    HW215321   3.162   2.522   3.900 -0.0312 -0.2722  0.1628
 1229SOL     OW15322   3.443   3.247   1.185 -0.6854  0.4808 -0.4255
 1229SOL    HW115323   3.468   3.158   1.206  1.2110  1.3357  0.8876
 1229SOL    HW215324   3.381   3.230   1.114 -1.5595 -1.3258  0.7618
 1230SOL     OW15325   1.749   0.458   8.777 -0.7667  0.2287 -0.1110
 1230SOL    HW115326   1.715   0.485   8.862  0.2496  0.5964  0.1717
 1230SOL    HW215327   1.770   0.544   8.741 -0.1196 -0.9133 -2.5178
 1231SOL     OW15328   0.464   1.478   5.677  0.3705 -0.3701 -0.4220
 1231SOL    HW115329   0.451   1.541   5.748  2.9415 -0.7782  0.3988
 1231SOL    HW215330   0.548   1.508   5.644  1.1729 -2.7087 -0.4673
 1232SOL     OW15331   1.648   3.658   7.945 -0.6616 -0.2927  0.3341
 1232SOL    HW115332   1.594   3.582   7.969  2.9507 -2.4033  1.6552
 1232SOL    HW215333   1.693   3.626   7.867 -0.8427 -0.5690  0.3385
 1233SOL     OW15334   1.040   0.517   5.055  0.3468  0.3618  0.0506
 1233SOL    HW115335   1.003   0.561   5.131 -0.8134  0.3317 -0.5008
 1233SOL    HW215336   0.981   0.545   4.985 -0.8298 -0.7218  0.6262
 1234SOL     OW15337   4.590   0.961   4.616  0.5447  0.2861  0.2117
 1234SOL    HW115338   4.590   1.040   4.562  1.6021  1.6548  2.2097
 1234SOL    HW215339   4.608   1.001   4.701 -3.2070  0.4318  0.9316
 1235SOL     OW15340   2.136   4.613   9.031 -0.7548 -0.3049  0.5594
 1235SOL    HW115341   2.116   4.535   9.083 -2.0274 -0.0704  0.4218
 1235SOL    HW215342   2.214   4.639   9.080 -0.7642 -1.5974  1.2507
 1236SOL     OW15343   2.137   1.899   5.418 -0.1170 -0.0110  0.6859
 1236SOL    HW115344   2.170   1.809   5.426 -1.3990 -0.6399 -1.0622
 1236SOL    HW215345   2.092   1.895   5.502 -0.8471 -4.4840  0.1177
 1237SOL     OW15346   4.010   0.487   3.817  0.1518  0.1419  0.3324
 1237SOL    HW115347   4.015   0.581   3.832 -1.0580  0.0218  1.4930
 1237SOL    HW215348   4.101   0.459   3.826  0.1339  0.1164  0.4330
 1238SOL     OW15349   0.909   4.481   4.807 -0.2368  0.5024 -0.3871
 1238SOL    HW115350   0.875   4.547   4.868 -0.6555 -0.6050  0.5698
 1238SOL    HW215351   0.968   4.534   4.754  0.7207 -0.3944 -0.2244
 1239SOL     OW15352   2.693   0.058   7.875  0.2090 -0.7516 -0.1481
 1239SOL    HW115353   2.647   0.021   7.799 -1.0074  1.8027 -0.6890
 1239SOL    HW215354   2.632   0.025   7.941  0.6529  1.2171  1.2336
 1240SOL     OW15355   3.932   1.235  12.750 -0.5662  0.0214 -0.0328
 1240SOL    HW115356   3.846   1.272  12.731 -0.6944 -0.4495 -0.3653
 1240SOL    HW215357   3.932   1.145  12.716 -1.3737 -0.0345  0.1101
 1241SOL     OW15358   0.747   1.892   8.061 -0.1163 -0.0317 -0.0662
 1241SOL    HW115359   0.808   1.839   8.113 -1.3745 -0.2531  1.2023
 1241SOL    HW215360   0.698   1.832   8.005  0.6043  1.6872 -2.4981
 1242SOL     OW15361   3.755   2.517  17.481 -0.2788 -0.2109 -0.0856
 1242SOL    HW115362   3.779   2.527  17.389 -1.5393 -1.8691 -0.5930
 1242SOL    HW215363   3.781   2.600  17.522  2.2900 -1.6629  1.2387
 1243SOL     OW15364   0.163   3.692   6.972 -0.5643  0.2421 -0.4838
 1243SOL    HW115365   0.252   3.657   6.981 -0.7319  0.2180  1.1304
 1243SOL    HW215366   0.143   3.718   7.062 -0.8143 -0.6432 -0.2881
 1244SOL     OW15367   0.934   4.354  10.150  0.9387  0.7694  0.4906
 1244SOL    HW115368   1.013   4.313  10.113  0.7514  2.4494 -1.7889
 1244SOL    HW215369   0.942   4.333  10.243  1.3145 -4.0140 -0.5762
 1245SOL     OW15370   0.367   2.367   4.438  0.0101  0.2280  0.2268
 1245SOL    HW115371   0.441   2.400   4.488  1.1507  1.5063 -2.3016
 1245SOL    HW215372   0.377   2.272   4.433 -2.0208  0.0473 -0.6712
 1246SOL     OW15373   0.054   0.561   5.781 -0.2555 -0.4986  0.0319
 1246SOL    HW115374   4.697   0.556   5.787 -0.3124  2.3434  1.6488
 1246SOL    HW215375   0.062   0.556   5.686 -3.0369 -1.1634 -0.1634
 1247SOL     OW15376   1.471   0.440   4.422  0.3673 -0.4726  0.0655
 1247SOL    HW115377   1.512   0.519   4.457  1.1775 -0.2587 -1.3503
 1247SOL    HW215378   1.397   0.475   4.373 -0.9040 -3.7898 -0.3922
 1248SOL     OW15379   3.093   0.881  16.910 -0.1288  0.4166  1.0278
 1248SOL    HW115380   3.113   0.944  16.840  1.1492  0.2981  1.2953
 1248SOL    HW215381   3.116   0.805  16.857  0.2227 -0.3405  2.2731
 1249SOL     OW15382   2.294   3.244   3.171 -0.4406 -0.1470  0.6097
 1249SOL    HW115383   2.327   3.188   3.101 -2.0914 -0.2021 -0.1194
 1249SOL    HW215384   2.232   3.184   3.213 -1.5360  0.6117  0.0870
 1250SOL     OW15385   2.787   3.845   8.689 -0.8062  0.2106  0.3801
 1250SOL    HW115386   2.710   3.827   8.636  0.7619 -1.6973 -1.2337
 1250SOL    HW215387   2.747   3.901   8.756 -0.7038  1.9489 -1.0153
 1251SOL     OW15388   0.133   3.377   2.863  0.1155 -0.0288  0.2288
 1251SOL    HW115389   0.203   3.351   2.804  1.5550 -0.0599  1.9688
 1251SOL    HW215390   0.153   3.469   2.879 -1.5601  0.0205  2.0679
 1252SOL     OW15391   1.585   0.746   2.266 -0.4106  0.1243 -0.2287
 1252SOL    HW115392   1.616   0.803   2.336  1.6466 -1.8541  0.4880
 1252SOL    HW215393   1.667   0.708   2.234  0.4265 -0.8970  3.0774
 1253SOL     OW15394   3.434   2.671   1.655  0.2780  0.3428 -0.1790
 1253SOL    HW115395   3.357   2.614   1.642 -0.3075  0.5448  2.4626
 1253SOL    HW215396   3.455   2.703   1.568 -0.2212 -1.8969 -1.1320
 1254SOL     OW15397   2.553   2.399   6.652 -0.4116 -0.4852 -0.4438
 1254SOL    HW115398   2.501   2.461   6.704 -0.9173 -0.9217 -0.4298
 1254SOL    HW215399   2.506   2.318   6.671  2.6670 -2.8905 -3.0602
 1255SOL     OW15400   3.239   3.454   7.991  0.2143 -0.0076  0.1821
 1255SOL    HW115401   3.170   3.402   7.949 -1.0705  0.7951  1.3064
 1255SOL    HW215402   3.307   3.428   7.929  1.4607  1.4269  0.9572
 1256SOL     OW15403   1.140   0.113   7.426 -0.7603  0.1156 -0.0913
 1256SOL    HW115404   1.139   0.166   7.346 -0.8522 -1.4488 -1.1170
 1256SOL    HW215405   1.116   0.175   7.495 -0.3727  0.5574 -0.3502
 1257SOL     OW15406   2.669   2.647  13.167 -0.2207 -0.1256  0.3131
 1257SOL    HW115407   2.637   2.558  13.178 -2.5349  0.8267  1.0739
 1257SOL    HW215408   2.585   2.692  13.162 -1.1539 -1.7171  1.8521
 1258SOL     OW15409   3.399   3.278  10.823 -0.0584  0.0008  0.3585
 1258SOL    HW115410   3.489   3.256  10.799  0.1748  1.3816 -0.0335
 1258SOL    HW215411   3.356   3.197  10.793  2.0347 -0.9975  0.0288
 1259SOL     OW15412   1.648   0.100   9.140 -0.1072 -0.3506  0.0324
 1259SOL    HW115413   1.591   0.025   9.126 -1.0032 -0.1584  2.5979
 1259SOL    HW215414   1.637   0.164   9.069 -2.0014  0.4157  1.0072
 1260SOL     OW15415   0.019   0.332   5.997  0.2250  0.6841  0.2606
 1260SOL    HW115416   4.681   0.293   5.954  2.4297 -2.7274 -0.5656
 1260SOL    HW215417   0.028   0.410   5.943 -1.4453  2.1004  2.0355
 1261SOL     OW15418   4.654   3.571   3.490 -0.7205  0.0502  0.6075
 1261SOL    HW115419   4.729   3.511   3.479 -0.5016  0.5711 -0.7998
 1261SOL    HW215420   4.658   3.592   3.583  1.7736  0.5437  0.3950
 1262SOL     OW15421   3.839   0.927   7.776 -0.2865 -0.1955  0.3030
 1262SOL    HW115422   3.750   0.910   7.806 -0.9086 -0.0103 -1.4787
 1262SOL    HW215423   3.886   0.876   7.842  0.6566  0.5475  0.2174
 1263SOL     OW15424   2.183   2.064   9.343  0.5715 -0.3479  0.2415
 1263SOL    HW115425   2.234   2.125   9.288  1.3754 -0.3990  0.9209
 1263SOL    HW215426   2.213   1.990   9.291 -0.1001  0.1866 -0.9111
 1264SOL     OW15427   0.850   0.619  16.623 -0.8011 -0.2685 -0.6158
 1264SOL    HW115428   0.901   0.670  16.560 -0.4050 -0.2405 -0.2731
 1264SOL    HW215429   0.813   0.690  16.675  0.2552  0.0416 -0.2680
 1265SOL     OW15430   0.327   2.764   5.378  0.0292 -0.1426  0.1031
 1265SOL    HW115431   0.300   2.785   5.289 -1.2380 -0.0554  0.5154
 1265SOL    HW215432   0.391   2.694   5.360 -0.9441 -0.9511 -0.1804
 1266SOL     OW15433   0.856   4.202   0.674 -0.1904 -0.2844  0.4293
 1266SOL    HW115434   0.948   4.218   0.694 -0.6825  0.7055  1.9280
 1266SOL    HW215435   0.845   4.203   0.579  0.6964 -1.7713  0.3211
 1267SOL     OW15436   3.376   4.163   4.836 -0.3502 -0.6095 -0.2116
 1267SOL    HW115437   3.411   4.101   4.900  1.9207 -0.1190 -0.9927
 1267SOL    HW215438   3.351   4.100   4.769 -0.9932  0.8138 -1.2991
 1268SOL     OW15439   3.887   0.321   4.571  0.2199  0.3835  0.3490
 1268SOL    HW115440   3.829   0.357   4.504 -1.0235  0.8131  1.6753
 1268SOL    HW215441   3.864   0.366   4.652  0.7041  1.6402 -0.2121
 1269SOL     OW15442   4.347   1.222   4.019 -0.3559  0.0762  0.1997
 1269SOL    HW115443   4.286   1.239   4.091 -0.7945  0.5173 -0.2792
 1269SOL    HW215444   4.308   1.140   3.986  1.1941 -0.4584 -0.2919
 1270SOL     OW15445   1.561   4.133   1.725 -0.5708 -0.2367 -0.2698
 1270SOL    HW115446   1.617   4.192   1.674 -0.5590  1.5668  1.8109
 1270SOL    HW215447   1.493   4.195   1.751 -1.7391 -0.9241 -1.6781
 1271SOL     OW15448   3.573   3.618  10.016  0.0295  0.3123 -0.8824
 1271SOL    HW115449   3.547   3.686   9.954 -2.7630  0.7763  0.8220
 1271SOL    HW215450   3.624   3.558   9.960 -1.3509  0.8178 -2.6805
 1272SOL     OW15451   2.451   0.912   5.487 -0.3424 -0.2176 -0.4556
 1272SOL    HW115452   2.522   0.862   5.445 -0.3455  1.5886 -2.6152
 1272SOL    HW215453   2.503   0.986   5.519 -1.0132  1.5296 -3.4174
 1273SOL     OW15454   3.559   0.381   3.727  0.2203  0.2234 -0.1048
 1273SOL    HW115455   3.505   0.359   3.651 -3.1325  2.1565  1.7217
 1273SOL    HW215456   3.625   0.312   3.721 -0.6683 -0.5359 -1.2072
 1274SOL     OW15457   4.120   2.220   7.458 -0.6580  0.1516  0.5106
 1274SOL    HW115458   4.157   2.307   7.443  0.7644 -0.5868 -0.2355
 1274SOL    HW215459   4.107   2.181   7.372  2.7894  1.4638 -0.5994
 1275SOL     OW15460   1.781   1.134   0.394 -0.1579  0.3661  0.5382
 1275SOL    HW115461   1.793   1.093   0.480  0.5217 -0.6915 -0.0663
 1275SOL    HW215462   1.741   1.063   0.344  0.8409 -1.8375  2.8376
 1276SOL     OW15463   4.178   3.996   6.800 -0.1272 -0.4844  0.3426
 1276SOL    HW115464   4.164   4.049   6.878 -2.0834 -1.2284  0.5093
 1276SOL    HW215465   4.124   4.041   6.734  0.8982 -1.0520 -0.9002
 1277SOL     OW15466   3.900   4.578   6.489 -0.1950  0.4054 -0.4846
 1277SOL    HW115467   3.868   4.641   6.425  2.5472  1.8548 -0.4418
 1277SOL    HW215468   3.994   4.589   6.471 -0.0695 -0.6472 -0.4496
 1278SOL     OW15469   0.353   3.960   8.803 -0.2536  0.0903  0.4068
 1278SOL    HW115470   0.372   3.914   8.885  1.7448  0.3634  0.1131
 1278SOL    HW215471   0.421   4.026   8.787  1.3603 -0.9852  2.7827
 1279SOL     OW15472   3.565   1.984   7.400  0.3951 -0.2430  0.4776
 1279SOL    HW115473   3.469   1.986   7.392  0.6357  0.3389 -2.1260
 1279SOL    HW215474   3.583   2.067   7.358  1.8202  0.7963  3.1432
 1280SOL     OW15475   4.451   1.552   1.304  0.0674  0.4795 -0.0018
 1280SOL    HW115476   4.463   1.565   1.210 -1.8815  0.4325 -0.2507
 1280SOL    HW215477   4.445   1.640   1.340  2.0545  0.2738  0.8633
 1281SOL     OW15478   3.448   0.378   8.179  0.1133  0.1790  0.1033
 1281SOL    HW115479   3.470   0.418   8.095 -2.7341 -1.2670 -1.3276
 1281SOL    HW215480   3.357   0.402   8.195  0.1263 -0.2425  0.8173
 1282SOL     OW15481   3.579   2.233   6.263 -0.2759 -0.3309  0.0224
 1282SOL    HW115482   3.627   2.291   6.204  0.2850 -1.0431 -0.2201
 1282SOL    HW215483   3.585   2.280   6.347 -0.2222 -0.5934  0.1669
 1283SOL     OW15484   0.073   2.679   7.684  0.1848 -0.1311  0.2232
 1283SOL    HW115485   0.163   2.648   7.689  0.6595  1.0758 -0.8225
 1283SOL    HW215486   0.074   2.721   7.598  0.1099  1.1229  0.8415
 1284SOL     OW15487   3.438   1.421   7.425  0.3170  0.0979  0.5214
 1284SOL    HW115488   3.375   1.358   7.390 -3.0518  2.9462  1.4130
 1284SOL    HW215489   3.374   1.491   7.433  1.5206  1.3805 -1.1287
 1285SOL     OW15490   2.791   2.142   5.663 -0.1877 -0.2764 -0.7968
 1285SOL    HW115491   2.714   2.191   5.690  1.8744  2.6065 -0.0802
 1285SOL    HW215492   2.848   2.139   5.740 -2.5938  0.3807  0.9971
 1286SOL     OW15493   4.562   2.084   1.407 -0.2146 -0.2760  0.1227
 1286SOL    HW115494   4.541   2.021   1.338 -0.8184  1.5081 -1.3267
 1286SOL    HW215495   4.512   2.154   1.364  1.2751  1.1429  0.6892
 1287SOL     OW15496   1.377   0.709  11.674 -0.0468  0.6439  0.3384
 1287SOL    HW115497   1.358   0.781  11.613 -1.3204 -1.0934 -1.3146
 1287SOL    HW215498   1.416   0.653  11.607  0.9074  0.8268  0.7270
 1288SOL     OW15499   4.415   2.773   0.221  0.1347  0.2851  0.1862
 1288SOL    HW115500   4.330   2.779   0.177  1.1813  0.5299 -1.8002
 1288SOL    HW215501   4.431   2.681   0.241 -0.6099  0.2312  0.5484
 1289SOL     OW15502   4.020   2.720  15.076 -0.0530 -0.5498  0.0090
 1289SOL    HW115503   4.097   2.664  15.078 -0.5349 -1.2493 -0.8875
 1289SOL    HW215504   3.963   2.657  15.120  1.1427  0.5571  3.0936
 1290SOL     OW15505   3.145   0.315   3.733  0.1892  0.5303 -0.4361
 1290SOL    HW115506   3.171   0.405   3.713 -1.8993  1.3513  0.6123
 1290SOL    HW215507   3.110   0.312   3.822  1.1686  0.0354 -0.0756
 1291SOL     OW15508   3.880   2.300   8.208 -0.3204  0.1573  0.2605
 1291SOL    HW115509   3.825   2.345   8.273  0.5673 -1.7578  2.3045
 1291SOL    HW215510   3.815   2.284   8.139  1.3841  1.8266 -1.7112
 1292SOL     OW15511   4.120   0.270   2.162 -0.0320  0.5857 -0.0086
 1292SOL    HW115512   4.147   0.260   2.070 -0.0377  1.4079 -0.0983
 1292SOL    HW215513   4.152   0.360   2.169  2.0360 -0.1761  0.0872
 1293SOL     OW15514   0.589   4.287  14.088  0.1488 -0.4069  0.1009
 1293SOL    HW115515   0.580   4.372  14.131  0.0826  0.2835 -1.2644
 1293SOL    HW215516   0.604   4.232  14.164 -2.5302 -2.1128 -0.6059
 1294SOL     OW15517   4.263   2.763   7.222 -0.2474  0.1739 -0.4483
 1294SOL    HW115518   4.340   2.795   7.175 -0.4988  0.3122 -0.7640
 1294SOL    HW215519   4.313   2.729   7.296  0.4519 -0.7778 -1.3605
 1295SOL     OW15520   4.373   3.406  15.121  0.5959  0.1378  0.0813
 1295SOL    HW115521   4.318   3.484  15.128  1.2036  0.3564  2.5194
 1295SOL    HW215522   4.378   3.401  15.026 -1.4234  1.1661 -0.0717
 1296SOL     OW15523   2.805   4.366   7.207  0.1000 -0.4188  0.6416
 1296SOL    HW115524   2.783   4.451   7.170  1.5938 -1.1593 -1.9716
 1296SOL    HW215525   2.730   4.308   7.193 -0.2101  0.3148 -0.7507
 1297SOL     OW15526   4.314   2.242   0.505 -0.0556 -0.0332  0.2131
 1297SOL    HW115527   4.293   2.208   0.592  0.4544 -0.5553  0.1289
 1297SOL    HW215528   4.299   2.337   0.510  0.2121  0.0117  0.1802
 1298SOL     OW15529   0.035   3.298   9.541  0.4461  0.3862  0.1197
 1298SOL    HW115530   0.116   3.297   9.592  0.6224  1.6615 -0.1256
 1298SOL    HW215531   4.728   3.379   9.567 -0.3036  0.3825 -1.1575
 1299SOL     OW15532   3.486   2.905   5.110 -0.0835 -0.2478 -0.1546
 1299SOL    HW115533   3.580   2.890   5.118 -0.4296 -1.0052  2.7389
 1299SOL    HW215534   3.462   2.848   5.038  0.3955  1.5927 -1.7589
 1300SOL     OW15535   2.088   2.495   8.441  0.4732  0.4279  0.3224
 1300SOL    HW115536   2.142   2.487   8.520 -0.4862  2.8379  1.2279
 1300SOL    HW215537   2.017   2.544   8.483 -0.7192 -0.2363 -0.8853
 1301SOL     OW15538   2.050   4.489  15.134  0.0691  0.3857 -0.2800
 1301SOL    HW115539   2.015   4.426  15.198  1.1054  0.7377  0.6324
 1301SOL    HW215540   2.052   4.575  15.177 -0.6269  0.1363  0.2640
 1302SOL     OW15541   1.386   1.479  15.167  0.0985  0.2719  0.6713
 1302SOL    HW115542   1.391   1.407  15.105 -0.9371  0.0995  0.7871
 1302SOL    HW215543   1.426   1.552  15.121  0.6694 -0.5447 -0.1174
 1303SOL     OW15544   0.422   1.770   1.744  0.8092  0.9793 -0.1326
 1303SOL    HW115545   0.422   1.680   1.777 -1.0419  0.5479 -1.3603
 1303SOL    HW215546   0.329   1.790   1.742  0.6646  0.3040 -0.3131
 1304SOL     OW15547   3.912   3.050   5.769  0.2430  0.4007  0.0141
 1304SOL    HW115548   3.989   3.071   5.821 -1.1432  1.9239  1.4428
 1304SOL    HW215549   3.868   2.996   5.835  1.4135  0.9896  1.2716
 1305SOL     OW15550   2.955   1.981   1.129 -0.3085  0.7385  0.2818
 1305SOL    HW115551   2.992   2.049   1.185 -1.2299  0.4679  1.2292
 1305SOL    HW215552   2.933   1.914   1.194 -0.0358  0.1733 -0.2114
 1306SOL     OW15553   4.399   1.376   2.189 -0.1661  0.7319  0.0577
 1306SOL    HW115554   4.406   1.281   2.193 -1.1834  0.6520  0.0562
 1306SOL    HW215555   4.311   1.404   2.214  0.2397  0.4020  1.7924
 1307SOL     OW15556   4.369   4.125   8.424 -0.0019 -0.2852 -0.1910
 1307SOL    HW115557   4.429   4.065   8.380  0.6701 -0.5145  1.0279
 1307SOL    HW215558   4.391   4.109   8.516 -0.2664  2.1291  0.2804
 1308SOL     OW15559   1.278   0.471  17.124 -0.1211 -0.4423  0.1382
 1308SOL    HW115560   1.260   0.475  17.030  0.7167 -0.3498 -0.0132
 1308SOL    HW215561   1.372   0.460  17.109  0.0781  1.2918  0.1144
 1309SOL     OW15562   1.883   1.803   7.953  0.6342  0.6490  0.6750
 1309SOL    HW115563   1.862   1.763   8.037  1.5315 -0.0124  0.5885
 1309SOL    HW215564   1.950   1.740   7.927  0.3671  1.3932 -1.8725
 1310SOL     OW15565   4.094   1.207   6.619 -0.3772 -0.0072  0.3641
 1310SOL    HW115566   4.135   1.185   6.536  0.1262  0.6053  0.4477
 1310SOL    HW215567   4.105   1.129   6.674 -0.5966  0.1035  0.5644
 1311SOL     OW15568   4.359   4.507  16.988  0.0397 -0.7339  0.7578
 1311SOL    HW115569   4.336   4.421  17.024 -1.6049  0.3567  2.3250
 1311SOL    HW215570   4.406   4.478  16.910  0.2950  0.3245  0.5225
 1312SOL     OW15571   3.054   3.573   9.869 -0.0964  0.6238 -0.6657
 1312SOL    HW115572   3.092   3.610   9.790  0.2401 -0.7767 -1.1671
 1312SOL    HW215573   3.122   3.513   9.899  0.0717  0.6915 -0.9102
 1313SOL     OW15574   4.503   2.476   7.294 -0.2471 -0.1474  0.5662
 1313SOL    HW115575   4.493   2.384   7.272 -1.8814 -0.1854  1.4589
 1313SOL    HW215576   4.510   2.490   7.389 -0.2541  0.5074  0.4714
 1314SOL     OW15577   2.132   4.429   7.668 -0.5817 -0.4615  0.3710
 1314SOL    HW115578   2.072   4.500   7.691 -1.8509 -1.7489  1.0459
 1314SOL    HW215579   2.113   4.366   7.738 -3.0259  0.0285  0.1275
 1315SOL     OW15580   1.547   0.764  13.740 -0.0166  0.6247  0.4830
 1315SOL    HW115581   1.550   0.778  13.835  0.2184  1.2641  0.3792
 1315SOL    HW215582   1.524   0.671  13.741  1.0486  0.3487 -1.5428
 1316SOL     OW15583   1.945   0.230   5.255 -0.0175 -0.2761 -0.3866
 1316SOL    HW115584   1.935   0.323   5.235 -1.0270  0.1642  2.2505
 1316SOL    HW215585   2.033   0.208   5.225 -0.1633 -0.5205 -0.6480
 1317SOL     OW15586   2.729   0.728   7.173  0.3768 -0.5585 -0.2703
 1317SOL    HW115587   2.659   0.770   7.122 -0.0214 -0.6116  0.2243
 1317SOL    HW215588   2.693   0.746   7.261 -0.1496  1.6326 -0.9219
 1318SOL     OW15589   0.227   4.571   7.547 -0.0833  0.4452 -0.0544
 1318SOL    HW115590   0.174   4.537   7.475  0.0261  0.2486 -0.0431
 1318SOL    HW215591   0.164   4.560   7.619 -0.7295 -0.1562 -0.7048
 1319SOL     OW15592   4.161   2.556  17.490  0.1895 -0.0867 -0.5419
 1319SOL    HW115593   4.185   2.576  17.400  0.5945  1.3037 -0.1226
 1319SOL    HW215594   4.121   2.636  17.526 -2.7077 -2.2931  1.1940
 1320SOL     OW15595   0.547   0.961  15.004 -0.0373  0.1090  0.3715
 1320SOL    HW115596   0.630   0.948  15.049  1.3401 -0.5070 -2.3826
 1320SOL    HW215597   0.543   0.878  14.957 -1.5517  0.3618  0.0420
 1321SOL     OW15598   2.985   2.264   7.180 -0.4583 -0.2274 -0.1231
 1321SOL    HW115599   3.037   2.269   7.260  0.4140  1.4730 -0.8033
 1321SOL    HW215600   2.985   2.358   7.162 -0.0433 -0.2524 -0.2534
 1322SOL     OW15601   0.002   1.884   8.850  1.4591  0.4050  0.0596
 1322SOL    HW115602   0.086   1.869   8.893  0.8622  0.7530  1.3842
 1322SOL    HW215603   4.704   1.796   8.836  3.2722 -0.7604  2.6344
 1323SOL     OW15604   0.015   3.981   2.642  0.3008  0.1882  0.0219
 1323SOL    HW115605   0.045   3.940   2.561  0.0973  0.3640 -0.1408
 1323SOL    HW215606   0.086   3.959   2.703  1.8870  0.9615 -1.5602
 1324SOL     OW15607   3.529   4.463   3.699 -0.5942 -0.5814 -0.5115
 1324SOL    HW115608   3.546   4.416   3.617  2.3675 -0.1489 -0.1598
 1324SOL    HW215609   3.476   4.398   3.746  1.5639 -1.0450  1.3066
 1325SOL     OW15610   2.439   1.012   6.945 -0.1952  0.4259  0.5234
 1325SOL    HW115611   2.471   0.923   6.933 -0.6346  0.7675 -3.3255
 1325SOL    HW215612   2.507   1.068   6.908 -0.5739 -0.3493 -1.3614
 1326SOL     OW15613   1.019   0.840   0.111  0.1231  0.0779  0.1367
 1326SOL    HW115614   0.997   0.748   0.094  2.2769 -0.6026  1.0686
 1326SOL    HW215615   0.967   0.857   0.190 -0.2072  0.7982 -0.2362
 1327SOL     OW15616   2.727   0.240  10.735  0.0558 -0.0993  0.4191
 1327SOL    HW115617   2.757   0.248  10.645 -1.7240 -0.6663 -0.2222
 1327SOL    HW215618   2.669   0.164  10.727  0.8909 -0.7380  0.3991
 1328SOL     OW15619   1.884   3.906   5.300 -0.0344 -0.3855  0.0820
 1328SOL    HW115620   1.965   3.894   5.349  0.3872  0.9602 -0.2965
 1328SOL    HW215621   1.833   3.857   5.365  0.5004 -2.0505 -0.7527
 1329SOL     OW15622   1.324   0.233  10.381  0.3252 -0.0022  0.9201
 1329SOL    HW115623   1.359   0.225  10.293 -0.5430 -1.2306  0.6873
 1329SOL    HW215624   1.233   0.204  10.370  0.7190 -1.4355  1.3299
 1330SOL     OW15625   0.132   4.345   2.143 -0.2010  0.6315  0.2833
 1330SOL    HW115626   0.217   4.387   2.132 -0.0377  0.0057 -0.9006
 1330SOL    HW215627   0.088   4.396   2.075 -0.3833  0.3552  0.1930
 1331SOL     OW15628   1.500   2.401  15.420 -0.3544  0.3386 -0.0505
 1331SOL    HW115629   1.491   2.307  15.407 -3.2844  0.6760 -0.4188
 1331SOL    HW215630   1.457   2.435  15.341  0.0006  0.7248 -0.0826
 1332SOL     OW15631   1.113   2.160  12.153 -0.2173  0.0675 -0.3437
 1332SOL    HW115632   1.020   2.177  12.139 -0.9817 -1.2773  3.2001
 1332SOL    HW215633   1.122   2.177  12.247  2.8418 -1.7267 -0.3057
 1333SOL     OW15634   2.367   3.417   3.408  0.1336  0.3784 -0.3257
 1333SOL    HW115635   2.340   3.379   3.324 -2.8412  0.9042  0.3711
 1333SOL    HW215636   2.419   3.347   3.447  0.8800 -0.0882 -2.1843
 1334SOL     OW15637   4.173   0.994  16.326 -0.2713 -0.3555 -0.3814
 1334SOL    HW115638   4.115   0.919  16.342 -1.4489  0.7296  0.4486
 1334SOL    HW215639   4.134   1.040  16.252 -1.5249 -0.2517  0.3350
 1335SOL     OW15640   2.668   3.991   8.017 -0.6946  0.4705 -0.2311
 1335SOL    HW115641   2.693   4.050   8.089 -0.6208 -1.8421  1.6225
 1335SOL    HW215642   2.634   3.915   8.064  1.0202  0.4264  0.9340
 1336SOL     OW15643   3.297   3.954   8.266  0.1643  0.0090  0.6755
 1336SOL    HW115644   3.202   3.944   8.265  0.0496  1.1966 -1.8981
 1336SOL    HW215645   3.314   3.860   8.274 -2.5017 -0.5668 -0.3138
 1337SOL     OW15646   2.368   4.260  11.326  0.0240  0.3536  0.2708
 1337SOL    HW115647   2.309   4.281  11.398  0.2327 -0.5677  0.6999
 1337SOL    HW215648   2.302   4.272  11.257  0.9240  2.0489 -0.3075
 1338SOL     OW15649   3.729   2.535   2.724 -0.6060 -0.7014 -0.2300
 1338SOL    HW115650   3.798   2.590   2.762 -0.4662 -1.1834  0.2192
 1338SOL    HW215651   3.737   2.552   2.630 -1.1039  2.6340  0.3282
 1339SOL     OW15652   4.393   2.111  12.324  0.1835 -0.6197  0.6081
 1339SOL    HW115653   4.418   2.082  12.236  0.9793  0.1598  0.5687
 1339SOL    HW215654   4.321   2.160  12.284 -0.5673 -1.4425  0.9750
 1340SOL     OW15655   1.205   1.857   1.282 -0.2682 -0.1869 -0.2274
 1340SOL    HW115656   1.273   1.866   1.349 -0.7278  2.5693 -0.1459
 1340SOL    HW215657   1.220   1.936   1.229  0.4094  0.5223  1.0235
 1341SOL     OW15658   4.064   4.558   6.116  0.0885 -0.2080  0.6479
 1341SOL    HW115659   4.128   4.597   6.056 -0.5364  1.7761  1.2603
 1341SOL    HW215660   4.054   4.467   6.088 -1.0963 -0.0063  0.4399
 1342SOL     OW15661   4.173   0.771   5.578 -0.6895  0.1267 -0.0463
 1342SOL    HW115662   4.176   0.675   5.578  0.6947  0.1668  0.4644
 1342SOL    HW215663   4.266   0.795   5.575 -0.7197  0.4338  1.3379
 1343SOL     OW15664   3.273   1.026  13.561  0.1618 -0.2750  0.0800
 1343SOL    HW115665   3.277   1.020  13.465  0.2072  3.1041 -0.1465
 1343SOL    HW215666   3.339   0.961  13.586  0.0718  0.7152  2.8898
 1344SOL     OW15667   0.374   1.005   8.404  0.0490 -0.3248 -0.2442
 1344SOL    HW115668   0.359   1.097   8.381  3.1302  0.0648 -0.6641
 1344SOL    HW215669   0.376   0.954   8.324  0.1521 -0.7227  0.0137
 1345SOL     OW15670   1.625   2.669   5.113  0.1043  0.1765 -0.0100
 1345SOL    HW115671   1.674   2.698   5.189  1.9068 -0.9573 -0.7408
 1345SOL    HW215672   1.604   2.578   5.133 -1.5617  0.1397 -1.8515
 1346SOL     OW15673   3.574   3.412   9.151  0.1920  0.0875  0.1145
 1346SOL    HW115674   3.498   3.354   9.159  0.4264 -0.4424 -1.5479
 1346SOL    HW215675   3.548   3.457   9.071  2.8162  1.4607  0.0390
 1347SOL     OW15676   1.483   3.055   1.797  0.0925  0.3173  0.0085
 1347SOL    HW115677   1.492   2.982   1.858 -2.9741 -1.0098 -1.1367
 1347SOL    HW215678   1.502   3.007   1.717 -0.5696  2.1519 -1.2625
 1348SOL     OW15679   4.386   0.519   6.393 -0.6390 -0.9536 -0.1635
 1348SOL    HW115680   4.459   0.532   6.333 -0.6888 -1.1738 -0.2730
 1348SOL    HW215681   4.381   0.606   6.433 -1.4446 -0.7454 -0.7079
 1349SOL     OW15682   1.343   0.677   6.279 -0.5760  0.0649  0.3914
 1349SOL    HW115683   1.291   0.697   6.201  0.8656 -0.1144 -0.6183
 1349SOL    HW215684   1.316   0.588   6.301 -0.2535 -0.2121 -0.3128
 1350SOL     OW15685   2.326   4.308  16.849  0.0634 -0.3231  0.3303
 1350SOL    HW115686   2.370   4.344  16.926 -0.3524  0.0648  0.3889
 1350SOL    HW215687   2.398   4.336  16.793  1.4672 -1.0783  1.7265
 1351SOL     OW15688   0.708   0.732   0.359  0.0464 -1.0052  0.4098
 1351SOL    HW115689   0.691   0.649   0.315  0.2596 -1.1647  0.6279
 1351SOL    HW215690   0.666   0.796   0.301  1.6181 -0.4714 -0.1259
 1352SOL     OW15691   0.797   3.331   8.115 -0.8377 -0.1299  0.5104
 1352SOL    HW115692   0.709   3.358   8.142 -0.5924  0.4116  0.7707
 1352SOL    HW215693   0.845   3.391   8.173 -1.4217 -0.2255  1.0950
 1353SOL     OW15694   3.156   1.206  13.274 -0.2026 -0.3299  0.4927
 1353SOL    HW115695   3.074   1.168  13.243  0.2334 -0.2404 -0.7962
 1353SOL    HW215696   3.201   1.123  13.287  0.7002 -0.3215 -2.4189
 1354SOL     OW15697   2.040   1.259   5.591 -0.6807  0.1725 -0.2119
 1354SOL    HW115698   1.988   1.327   5.550 -0.4401  1.4525  1.6033
 1354SOL    HW215699   2.130   1.270   5.560 -0.0022  1.3130  2.1902
 1355SOL     OW15700   0.898   1.959   1.847  1.2433  0.1188  0.0305
 1355SOL    HW115701   0.899   1.969   1.942  3.3096 -1.3094  0.1742
 1355SOL    HW215702   0.886   1.866   1.830  0.5339 -0.2082  2.3578
 1356SOL     OW15703   0.551   1.919   1.393  0.1342  0.1246  0.0918
 1356SOL    HW115704   0.622   1.901   1.332 -0.4540  0.3260 -0.6459
 1356SOL    HW215705   0.594   1.977   1.457 -1.3431 -1.7455  2.7898
 1357SOL     OW15706   0.974   1.994   7.295 -0.3997  0.4825 -0.0359
 1357SOL    HW115707   1.031   1.922   7.321  0.1939  0.1659 -2.2430
 1357SOL    HW215708   1.033   2.042   7.237 -0.7673 -0.6465 -1.3316
 1358SOL     OW15709   4.047   2.210   3.997  0.1469 -0.3747  0.2259
 1358SOL    HW115710   4.018   2.198   4.087  1.5243 -0.9725  0.5973
 1358SOL    HW215711   4.101   2.135   3.971  3.9824  3.2562 -2.3037
 1359SOL     OW15712   1.415   2.147   6.310 -0.5837 -0.2951 -0.8695
 1359SOL    HW115713   1.379   2.079   6.366 -1.6178  1.4523  0.5665
 1359SOL    HW215714   1.491   2.141   6.368 -0.9459 -0.8628 -0.4546
 1360SOL     OW15715   2.740   2.302  13.803  0.2389  0.7781  0.5787
 1360SOL    HW115716   2.647   2.300  13.779  0.9342  0.5981 -2.0423
 1360SOL    HW215717   2.781   2.258  13.729 -1.3691 -3.9850  2.4728
 1361SOL     OW15718   0.961   3.783   2.606 -0.5588 -0.6708  0.4069
 1361SOL    HW115719   0.869   3.784   2.582 -0.7267  0.2035  1.1104
 1361SOL    HW215720   0.991   3.846   2.540 -0.4102 -1.0276  0.1310
 1362SOL     OW15721   1.368   0.729   3.891  0.5428  0.2033 -0.7236
 1362SOL    HW115722   1.457   0.736   3.925  0.1806  0.6198  0.1232
 1362SOL    HW215723   1.319   0.780   3.956  1.2776 -1.0589  0.8191
 1363SOL     OW15724   2.061   4.516   1.280  0.0584 -0.0054 -0.2929
 1363SOL    HW115725   2.101   4.495   1.365  0.2784 -0.4073 -0.4963
 1363SOL    HW215726   2.114   4.588   1.245 -0.8796 -0.3520 -2.4085
 1364SOL     OW15727   2.435   2.018   3.012  0.1203  0.2458 -0.1161
 1364SOL    HW115728   2.436   2.050   2.921  0.0285  0.5644 -0.0058
 1364SOL    HW215729   2.418   2.103   3.052  0.6741 -0.4267  1.5200
 1365SOL     OW15730   2.221   0.302   4.378 -0.1691  0.1188  0.1829
 1365SOL    HW115731   2.275   0.276   4.452  0.1993 -1.8791 -0.7874
 1365SOL    HW215732   2.261   0.249   4.309 -4.8764 -0.1740 -2.3393
 1366SOL     OW15733   2.401   0.885  16.882  0.1516  0.1961 -0.1920
 1366SOL    HW115734   2.494   0.904  16.873  0.8947 -2.0917  2.7137
 1366SOL    HW215735   2.361   0.941  16.815 -0.6724 -0.9097 -0.6216
 1367SOL     OW15736   2.365   1.296   8.253 -0.4277  0.0738  0.1431
 1367SOL    HW115737   2.402   1.309   8.340  1.1746  0.7743 -0.6386
 1367SOL    HW215738   2.442   1.251   8.217 -0.7476  0.7221 -1.3383
 1368SOL     OW15739   0.286   2.961  15.680  0.1222 -0.0603 -0.6105
 1368SOL    HW115740   0.305   2.867  15.686 -0.9956 -0.3036 -0.6963
 1368SOL    HW215741   0.201   2.971  15.636  0.0526 -0.9050 -0.6779
 1369SOL     OW15742   0.011   0.032  10.424  0.6268  0.1231  0.2284
 1369SOL    HW115743   0.037   4.683  10.454 -0.0048  0.4881  1.8046
 1369SOL    HW215744   0.096   0.076  10.418  0.5449  0.0315 -1.8054
 1370SOL     OW15745   2.117   2.271   5.727  1.0237  0.0359 -0.0609
 1370SOL    HW115746   2.067   2.331   5.671  1.8572  1.0727  0.2965
 1370SOL    HW215747   2.170   2.323   5.788 -0.7250  1.1779  0.4980
 1371SOL     OW15748   1.986   2.825   8.983 -0.2051  0.1907  0.2418
 1371SOL    HW115749   2.031   2.778   8.913 -1.5185 -2.7225  1.3068
 1371SOL    HW215750   2.016   2.781   9.063 -1.1314 -0.9744 -0.0586
 1372SOL     OW15751   0.795   1.702   6.307 -0.1742  0.0011  0.2343
 1372SOL    HW115752   0.802   1.637   6.377  0.1475 -0.9064 -0.6410
 1372SOL    HW215753   0.887   1.726   6.315 -0.3488  0.2237  1.5187
 1373SOL     OW15754   3.656   0.362   5.360 -0.4670  0.3986  0.4248
 1373SOL    HW115755   3.616   0.343   5.445 -0.9942  0.4631  0.1898
 1373SOL    HW215756   3.630   0.280   5.318  0.6493  1.9014 -3.1705
 1374SOL     OW15757   2.256   0.332   1.513  0.0565 -0.5371 -0.0366
 1374SOL    HW115758   2.288   0.333   1.603 -0.8129  1.2780  0.2634
 1374SOL    HW215759   2.336   0.374   1.481  0.2115 -0.1551  0.8495
 1375SOL     OW15760   1.311   1.808  15.532  0.1411  0.1374 -0.4259
 1375SOL    HW115761   1.327   1.902  15.534  0.6193  0.0143  1.1475
 1375SOL    HW215762   1.251   1.803  15.606 -1.0078 -1.3058 -1.4299
 1376SOL     OW15763   3.466   0.338  13.378  0.0560 -0.2243  0.3347
 1376SOL    HW115764   3.507   0.292  13.305  1.7599  2.1771 -0.2038
 1376SOL    HW215765   3.382   0.294  13.391  0.2230 -0.4336  0.7020
 1377SOL     OW15766   0.807   4.638   9.442  0.5751  0.1119 -0.1401
 1377SOL    HW115767   0.848   4.724   9.430  0.6451  0.1801  0.5459
 1377SOL    HW215768   0.719   4.657   9.474  0.0928  2.3058 -2.7499
 1378SOL     OW15769   0.374   2.896  13.206  0.1988  0.3096 -0.2317
 1378SOL    HW115770   0.422   2.866  13.129  0.0417  0.3105 -0.3298
 1378SOL    HW215771   0.346   2.983  13.178  0.8842 -0.1242 -2.2669
 1379SOL     OW15772   1.507   4.671   9.005  0.1855  0.6826 -0.3830
 1379SOL    HW115773   1.568   4.629   8.944  3.3161  2.0150  1.8140
 1379SOL    HW215774   1.436   4.708   8.952  0.5400  1.1236 -0.5505
 1380SOL     OW15775   4.465   2.844  17.588  0.2969  0.4164 -0.4224
 1380SOL    HW115776   4.538   2.893  17.624  0.0211  0.2710  0.3410
 1380SOL    HW215777   4.510   2.807  17.512  0.3529 -0.3367 -0.0235
 1381SOL     OW15778   0.450   3.137  12.334  0.1309  0.1056 -0.4961
 1381SOL    HW115779   0.542   3.130  12.359 -0.0039 -0.2893 -0.1317
 1381SOL    HW215780   0.414   3.075  12.396  2.6321 -0.0036  0.8441
 1382SOL     OW15781   4.008   4.246  16.488 -0.2551 -0.4736 -0.5079
 1382SOL    HW115782   4.101   4.262  16.502 -0.4199 -0.7235  0.8450
 1382SOL    HW215783   3.970   4.203  16.564  0.4793  0.6007  0.4643
 1383SOL     OW15784   0.942   4.277   6.168  0.3207 -0.2801  0.3410
 1383SOL    HW115785   1.016   4.338   6.173 -0.3501  0.7678 -2.8901
 1383SOL    HW215786   0.867   4.335   6.161 -0.1934 -0.9836  0.0614
 1384SOL     OW15787   1.383   3.228  12.650 -0.1271  0.0584 -0.2710
 1384SOL    HW115788   1.415   3.161  12.589  0.6027  0.6949 -0.5877
 1384SOL    HW215789   1.349   3.169  12.717 -0.5786  2.4265  1.5692
 1385SOL     OW15790   0.976   0.381   4.409  0.2200  0.0368 -0.5069
 1385SOL    HW115791   0.998   0.305   4.356  0.7608  0.4007 -0.8042
 1385SOL    HW215792   0.980   0.335   4.493 -2.3141  2.7036  1.0956
 1386SOL     OW15793   3.397   0.013   3.299 -0.0152 -0.4002  0.0284
 1386SOL    HW115794   3.370   0.019   3.390  0.6043  0.0596  0.1819
 1386SOL    HW215795   3.345   0.077   3.251  0.2254  1.8472  2.7860
 1387SOL     OW15796   1.006   1.751   1.445  0.7415  0.0483  0.4847
 1387SOL    HW115797   1.038   1.805   1.518 -0.3415  1.5633 -0.1496
 1387SOL    HW215798   1.070   1.767   1.377 -0.3648 -0.1926 -0.6215
 1388SOL     OW15799   3.034   4.692   6.860 -0.1887 -0.3841 -0.4757
 1388SOL    HW115800   3.015   4.602   6.835 -0.7289 -0.4979  0.3330
 1388SOL    HW215801   3.027   0.001   6.777  1.1168 -1.8405 -1.4099
 1389SOL     OW15802   2.678   0.695   0.686 -0.3305  0.0319  0.8275
 1389SOL    HW115803   2.744   0.718   0.752 -0.6408 -0.3516  1.2666
 1389SOL    HW215804   2.624   0.635   0.738  0.9836  0.1227  2.3024
 1390SOL     OW15805   3.397   0.852   3.707 -0.2323 -0.4650  0.3656
 1390SOL    HW115806   3.387   0.869   3.800 -0.8318 -0.2346  0.2626
 1390SOL    HW215807   3.399   0.945   3.681  2.4878  0.1900  2.9306
 1391SOL     OW15808   0.406   1.428  16.664  0.0816 -0.4244  0.0780
 1391SOL    HW115809   0.341   1.493  16.637 -0.3222 -1.9668 -2.6769
 1391SOL    HW215810   0.462   1.438  16.587 -1.8638 -4.2232 -1.7868
 1392SOL     OW15811   3.608   1.011   5.418 -0.4017 -0.2732  0.2615
 1392SOL    HW115812   3.700   1.028   5.439 -0.0251  1.9789 -3.2681
 1392SOL    HW215813   3.579   0.955   5.490  0.1174 -0.6327  0.1917
 1393SOL     OW15814   3.592   3.433  11.760  0.2898 -0.1774 -0.1825
 1393SOL    HW115815   3.508   3.433  11.806  0.3185 -2.8080 -0.1057
 1393SOL    HW215816   3.603   3.341  11.737 -1.6200 -0.3841 -0.2349
 1394SOL     OW15817   0.501   0.898   6.077  0.0095 -0.0771 -0.6987
 1394SOL    HW115818   0.480   0.851   5.997  0.5279  3.3394 -2.8493
 1394SOL    HW215819   0.473   0.988   6.060 -0.5693 -0.2826 -0.8434
 1395SOL     OW15820   4.500   4.022  15.478  0.2013  0.5072  0.5035
 1395SOL    HW115821   4.554   3.951  15.512 -1.1181 -0.9476 -0.4396
 1395SOL    HW215822   4.415   3.985  15.455  1.6102 -2.7264  0.4394
 1396SOL     OW15823   0.069   1.914   6.447  0.7244  0.5258 -0.5045
 1396SOL    HW115824   0.131   1.874   6.508  0.0584  0.1514 -0.0709
 1396SOL    HW215825   0.126   1.902   6.371 -0.0283  0.5262 -1.0647
 1397SOL     OW15826   1.606   4.666  15.189 -0.0567 -0.3088 -0.5209
 1397SOL    HW115827   1.636   4.695  15.103  1.3014  2.9319  1.0329
 1397SOL    HW215828   1.592   0.005  15.245  2.3031  0.6004 -1.1988
 1398SOL     OW15829   0.042   4.706  17.746 -0.1508  0.1170  0.3218
 1398SOL    HW115830   0.116   4.647  17.729 -1.0258 -1.1590  0.9647
 1398SOL    HW215831   0.036   0.018  17.664 -0.0236 -1.6191 -0.7629
 1399SOL     OW15832   3.012   0.630  16.337  0.2133 -0.3815  0.2319
 1399SOL    HW115833   2.996   0.557  16.397  0.1566  0.2964  1.0534
 1399SOL    HW215834   3.069   0.683  16.393 -0.8181  1.0173 -0.0449
 1400SOL     OW15835   2.658   0.458  16.076 -0.1776  0.5056 -0.3549
 1400SOL    HW115836   2.734   0.507  16.046  0.4970 -0.8287 -0.7942
 1400SOL    HW215837   2.625   0.437  15.988  0.2093 -0.1528 -0.3359
 1401SOL     OW15838   1.489   0.005  11.832 -0.5984  0.0827  0.4039
 1401SOL    HW115839   1.498   4.730  11.927  1.2061  2.8234  0.5963
 1401SOL    HW215840   1.570   4.713  11.792 -0.7191  2.8705 -1.9741
 1402SOL     OW15841   3.751   1.470   4.174  0.4850 -0.2145  0.0389
 1402SOL    HW115842   3.809   1.505   4.241  1.6774  0.5608 -1.4134
 1402SOL    HW215843   3.788   1.505   4.094 -2.5918 -0.2096 -1.3984
 1403SOL     OW15844   3.769   2.863   9.221  0.0800 -0.2419  0.3216
 1403SOL    HW115845   3.691   2.822   9.258 -0.5833  0.2530 -0.5118
 1403SOL    HW215846   3.792   2.930   9.285 -0.5519 -0.9762  1.3122
 1404SOL     OW15847   4.258   2.361   8.384 -0.2032  0.0506  0.4498
 1404SOL    HW115848   4.223   2.405   8.307  0.5727  1.0092  0.6471
 1404SOL    HW215849   4.183   2.373   8.443 -0.2789 -1.4629  0.6533
 1405SOL     OW15850   1.143   0.653  14.701  0.0409  0.4319  0.4309
 1405SOL    HW115851   1.094   0.733  14.683  1.3595  1.2093  0.2746
 1405SOL    HW215852   1.071   0.592  14.720 -0.0571  0.1722 -0.8095
 1406SOL     OW15853   3.756   2.307   5.045 -0.0535 -0.2208  0.6497
 1406SOL    HW115854   3.725   2.265   5.126 -0.3086 -1.5261 -0.1202
 1406SOL    HW215855   3.833   2.256   5.022  0.0669  0.8501 -1.2897
 1407SOL     OW15856   3.807   2.491   4.859  0.0119  0.0033  0.3377
 1407SOL    HW115857   3.805   2.409   4.908  1.5921  1.2857  2.5356
 1407SOL    HW215858   3.787   2.450   4.775 -3.8204  0.6378  0.9369
 1408SOL     OW15859   1.368   0.008  12.467  0.2616  0.5729 -0.3390
 1408SOL    HW115860   1.354   0.091  12.422  1.2884  1.2283  0.5551
 1408SOL    HW215861   1.437   0.024  12.531 -0.2520  1.9404 -0.1427
 1409SOL     OW15862   4.156   2.132   0.317 -0.3927  0.0490  0.0700
 1409SOL    HW115863   4.217   2.136   0.391  0.6969  0.4876 -0.8631
 1409SOL    HW215864   4.203   2.173   0.245  0.1208 -1.1780 -0.2954
 1410SOL     OW15865   3.609   2.504   3.098  0.1981 -0.6264  0.1075
 1410SOL    HW115866   3.651   2.565   3.159 -1.0678 -1.7287  2.0590
 1410SOL    HW215867   3.595   2.570   3.030  3.0847  0.1505  0.2715
 1411SOL     OW15868   0.288   2.176  16.445 -0.9507 -0.2886  0.4509
 1411SOL    HW115869   0.334   2.242  16.496 -0.5117 -0.0590 -0.2430
 1411SOL    HW215870   0.358   2.158  16.383 -1.6729  0.0219 -0.4519
 1412SOL     OW15871   4.143   0.900   0.953 -0.0415  0.1772  0.8720
 1412SOL    HW115872   4.235   0.878   0.969  0.9212  3.9686  0.3845
 1412SOL    HW215873   4.107   0.879   1.040  1.3308 -0.0706  1.3818
 1413SOL     OW15874   3.403   2.397   6.042  0.1107 -0.0220  0.0010
 1413SOL    HW115875   3.498   2.386   6.045  0.0533 -0.4166  0.3661
 1413SOL    HW215876   3.384   2.404   5.948 -0.0690 -0.8632 -0.0221
 1414SOL     OW15877   3.594   2.038   4.242  0.7805  0.5668  0.8363
 1414SOL    HW115878   3.539   2.015   4.167 -0.6183 -2.1688  2.6761
 1414SOL    HW215879   3.538   1.984   4.299  0.4434 -0.2898 -0.2965
 1415SOL     OW15880   0.359   0.008   6.186  0.0986  0.0936  0.2199
 1415SOL    HW115881   0.361   4.660   6.229  3.2201  0.7911  1.4407
 1415SOL    HW215882   0.287   0.046   6.237 -0.7353 -1.0777 -0.0812
 1416SOL     OW15883   4.512   0.193   1.202  0.8293 -0.5001 -0.4672
 1416SOL    HW115884   4.600   0.196   1.239  0.1609 -0.1591  1.1059
 1416SOL    HW215885   4.477   0.125   1.260 -0.1062 -0.4100 -0.9330
 1417SOL     OW15886   3.144   0.593   2.484  0.0978 -0.5050  0.7946
 1417SOL    HW115887   3.231   0.631   2.471 -0.1823  0.1571  0.8680
 1417SOL    HW215888   3.135   0.561   2.394  0.6800  1.1993  0.1228
 1418SOL     OW15889   3.382   0.911   8.900 -0.2926  0.1843 -0.4674
 1418SOL    HW115890   3.452   0.950   8.847 -0.7146 -0.5285 -1.5438
 1418SOL    HW215891   3.313   0.973   8.876 -3.8962 -3.0761  1.5679
 1419SOL     OW15892   1.525   0.937   5.727 -0.2779 -0.4684 -0.0568
 1419SOL    HW115893   1.581   0.897   5.793  2.7421  1.3247 -1.5072
 1419SOL    HW215894   1.582   1.011   5.706  0.6396 -1.0945  0.2497
 1420SOL     OW15895   3.072   1.479   8.351  0.2342 -0.4830  0.0575
 1420SOL    HW115896   3.041   1.473   8.260 -0.2633  2.1279  0.0660
 1420SOL    HW215897   3.152   1.527   8.333  0.3853 -1.3485 -1.6198
 1421SOL     OW15898   3.271   3.500   1.635 -0.2530 -0.3878  0.4343
 1421SOL    HW115899   3.207   3.430   1.642  0.1988 -0.8330  0.1416
 1421SOL    HW215900   3.313   3.473   1.553  1.5428 -0.9022  1.5254
 1422SOL     OW15901   0.292   4.006   2.265  0.3329 -0.2370  0.4179
 1422SOL    HW115902   0.275   4.053   2.183 -3.0113  1.2104  1.9533
 1422SOL    HW215903   0.249   4.063   2.328  0.2892 -1.0950  1.1681
 1423SOL     OW15904   1.769   2.241   5.736 -0.1559 -0.9322  0.0155
 1423SOL    HW115905   1.849   2.252   5.685  1.2163  0.2261  2.4070
 1423SOL    HW215906   1.738   2.330   5.756  1.8182  0.1757 -1.8284
 1424SOL     OW15907   4.086   2.671  15.853  0.0725 -0.1024  0.9667
 1424SOL    HW115908   4.116   2.582  15.869 -0.9864 -0.6206  0.0719
 1424SOL    HW215909   3.992   2.673  15.875  0.0028  0.4969  0.6388
 1425SOL     OW15910   0.756   3.095   7.067  0.1625  0.2712  0.0384
 1425SOL    HW115911   0.772   3.169   7.126  0.7200 -2.0119  2.7547
 1425SOL    HW215912   0.816   3.115   6.995  0.3556 -2.3455 -0.5399
 1426SOL     OW15913   3.664   2.298  13.569 -0.2307 -0.5581 -0.4164
 1426SOL    HW115914   3.755   2.320  13.589 -0.4510 -0.2354  0.2216
 1426SOL    HW215915   3.612   2.328  13.644 -1.0821 -1.7431 -0.5306
 1427SOL     OW15916   3.465   3.042   8.293  0.4210  0.0380 -0.2185
 1427SOL    HW115917   3.498   3.116   8.344 -0.2726  1.3494 -1.7159
 1427SOL    HW215918   3.440   2.987   8.368 -0.8055  0.9577  0.0394
 1428SOL     OW15919   4.551   1.423   4.611 -0.0070 -0.2443 -0.1694
 1428SOL    HW115920   4.567   1.334   4.580  1.7602 -0.4095  1.2250
 1428SOL    HW215921   4.455   1.418   4.606 -0.1501  0.9158  1.2898
 1429SOL     OW15922   1.708   4.681   7.485 -0.0048 -0.6184 -0.4035
 1429SOL    HW115923   1.690   4.635   7.567 -2.5459  1.9327  0.4622
 1429SOL    HW215924   1.800   4.705   7.497  0.3392 -2.4790  0.6302
 1430SOL     OW15925   4.586   0.206   4.390 -0.2187 -0.8726  0.3107
 1430SOL    HW115926   4.556   0.278   4.334  1.2033 -1.7773 -1.6289
 1430SOL    HW215927   4.674   0.198   4.354 -0.0772 -1.2376  0.7433
 1431SOL     OW15928   2.669   3.779   8.205 -0.6401 -0.1874  0.2096
 1431SOL    HW115929   2.605   3.718   8.240 -1.8061  0.6101 -0.5118
 1431SOL    HW215930   2.731   3.731   8.150 -1.3211  0.7305 -1.3785
 1432SOL     OW15931   0.615   0.414  17.745  0.2788 -0.2374 -0.1109
 1432SOL    HW115932   0.658   0.449  17.667  1.4091 -0.0830  0.5843
 1432SOL    HW215933   0.608   0.319  17.734  2.2275 -0.0367 -3.1206
 1433SOL     OW15934   3.612   1.805  13.324 -0.0189  0.4198  0.0948
 1433SOL    HW115935   3.676   1.740  13.296  0.7268  1.4894 -0.6275
 1433SOL    HW215936   3.551   1.757  13.381 -0.8711  0.4806 -0.7760
 1434SOL     OW15937   3.147   2.454  10.285 -0.0289  0.1540  0.5254
 1434SOL    HW115938   3.125   2.369  10.323 -0.6285 -0.3677 -0.9784
 1434SOL    HW215939   3.059   2.490  10.296  0.4026  1.3994 -0.0885
 1435SOL     OW15940   2.621   4.509   0.531  0.1418 -0.5112 -0.0106
 1435SOL    HW115941   2.606   4.463   0.448 -0.9912  0.1917 -0.2030
 1435SOL    HW215942   2.621   4.601   0.504 -0.3263 -0.7347 -0.7825
 1436SOL     OW15943   2.566   0.503   3.682 -0.3683 -0.1772  0.1849
 1436SOL    HW115944   2.506   0.560   3.634  1.3972  0.9029 -0.7365
 1436SOL    HW215945   2.497   0.444   3.713 -1.4331  0.9066 -0.1078
 1437SOL     OW15946   0.276   0.299   3.099 -0.3981 -0.0800  0.1334
 1437SOL    HW115947   0.278   0.390   3.129  1.8105  1.3110 -4.0943
 1437SOL    HW215948   0.362   0.293   3.057 -0.0488 -0.1751  0.8588
 1438SOL     OW15949   1.071   2.610  17.231  0.2647 -0.2650 -0.0204
 1438SOL    HW115950   1.136   2.614  17.160  1.6210 -1.1552  1.1636
 1438SOL    HW215951   1.120   2.647  17.305  1.2392  0.7223 -1.1526
 1439SOL     OW15952   0.693   1.475  11.134  0.4527  0.1228  0.0904
 1439SOL    HW115953   0.652   1.435  11.057  2.5410  1.7005 -1.8430
 1439SOL    HW215954   0.714   1.567  11.122  0.2454  0.1920  0.2559
 1440SOL     OW15955   1.606   1.339  17.503 -0.0070  0.2411 -0.5640
 1440SOL    HW115956   1.578   1.259  17.547  1.5890 -0.0329 -0.0533
 1440SOL    HW215957   1.521   1.371  17.472 -0.2461  1.0819  0.9018
 1441SOL     OW15958   1.082   1.404  12.091  0.0232 -0.9379  0.0009
 1441SOL    HW115959   1.099   1.363  12.176  2.3789 -0.6057 -0.3085
 1441SOL    HW215960   1.086   1.495  12.119  0.5707 -1.2085  0.8094
 1442SOL     OW15961   3.359   1.634   3.377  0.3760  0.3225 -0.2563
 1442SOL    HW115962   3.294   1.665   3.440  0.7387  2.0353 -0.7195
 1442SOL    HW215963   3.369   1.718   3.332  1.1714  0.2015 -0.3068
 1443SOL     OW15964   0.955   1.825   8.318  0.2390 -0.4283  0.3375
 1443SOL    HW115965   0.997   1.903   8.354  0.5667  0.4103 -1.9029
 1443SOL    HW215966   0.887   1.813   8.385 -2.3812  2.1353 -1.9108
 1444SOL     OW15967   0.152   3.162  11.231 -0.0005  0.4034  0.5256
 1444SOL    HW115968   0.069   3.184  11.273 -1.3043 -0.0560 -1.7627
 1444SOL    HW215969   0.206   3.238  11.253 -1.0296  1.5276 -0.7758
 1445SOL     OW15970   2.381   0.854   3.851  0.0785 -0.2882 -0.5339
 1445SOL    HW115971   2.402   0.826   3.939 -0.5156  0.9546  0.0032
 1445SOL    HW215972   2.438   0.796   3.800 -0.0594  1.3602 -2.5786
 1446SOL     OW15973   0.479   1.071   2.840 -0.0113 -0.5529  0.2599
 1446SOL    HW115974   0.506   1.143   2.783  0.2947 -1.3018 -0.5339
 1446SOL    HW215975   0.441   1.013   2.774 -1.5724 -2.4480  2.8223
 1447SOL     OW15976   3.571   2.896  11.802  0.1000  0.4395 -0.5342
 1447SOL    HW115977   3.569   2.845  11.883  1.0209  1.6911  0.2864
 1447SOL    HW215978   3.479   2.923  11.797 -0.1364 -0.0959  0.7898
 1448SOL     OW15979   3.442   2.972   0.948 -0.4606  0.1964  0.3622
 1448SOL    HW115980   3.382   2.980   1.022 -0.8215 -1.0453  0.2055
 1448SOL    HW215981   3.406   3.031   0.882  0.8234  0.4849 -0.0749
 1449SOL     OW15982   0.777   1.364   4.875  0.7058 -0.3804 -0.5343
 1449SOL    HW115983   0.860   1.408   4.896  0.2723 -0.5191  1.4543
 1449SOL    HW215984   0.758   1.418   4.798  1.4344  0.8074  0.1084
 1450SOL     OW15985   0.950   0.589   0.965 -0.0378  0.4121  0.2379
 1450SOL    HW115986   0.995   0.523   0.911 -0.3208 -0.7532  1.4256
 1450SOL    HW215987   0.893   0.530   1.014  1.4495 -1.6068 -0.4348
 1451SOL     OW15988   1.581   0.313   8.217 -0.3365  0.1571  0.1885
 1451SOL    HW115989   1.564   0.402   8.187 -2.4703 -1.0365 -2.0858
 1451SOL    HW215990   1.509   0.306   8.279 -1.7170 -1.2188 -1.5915
 1452SOL     OW15991   0.538   4.251   0.849 -0.4205  0.0004 -0.4260
 1452SOL    HW115992   0.502   4.265   0.936 -0.6426 -2.0213 -0.1734
 1452SOL    HW215993   0.600   4.323   0.854  1.7987 -1.8071 -1.5143
 1453SOL     OW15994   1.097   2.838  11.728  0.0367 -0.2312  0.0489
 1453SOL    HW115995   1.015   2.888  11.722 -1.1088 -2.1461 -0.1992
 1453SOL    HW215996   1.110   2.835  11.823  0.1548 -0.9836  0.0091
 1454SOL     OW15997   2.639   3.032   8.408  0.5327  0.0120  0.2996
 1454SOL    HW115998   2.622   3.050   8.315 -0.7060  4.4496  1.4085
 1454SOL    HW215999   2.599   2.945   8.417  2.4637 -1.0677 -1.5774
 1455SOL     OW16000   3.313   0.541   3.719  0.1739 -0.0276 -0.1154
 1455SOL    HW116001   3.366   0.586   3.653 -0.9301  3.2484  1.2307
 1455SOL    HW216002   3.236   0.596   3.736 -0.2043 -0.2746 -1.0690
 1456SOL     OW16003   0.838   3.661   9.147 -0.6668 -0.1502 -0.7863
 1456SOL    HW116004   0.875   3.719   9.081  2.9125 -1.1029  0.3656
 1456SOL    HW216005   0.919   3.623   9.181 -0.8242 -2.3612 -2.8896
 1457SOL     OW16006   4.373   2.300   4.496  0.2960 -0.2733 -0.6800
 1457SOL    HW116007   4.400   2.332   4.583  2.5296 -0.7683 -1.1770
 1457SOL    HW216008   4.408   2.375   4.448  0.8178 -1.5410 -2.2452
 1458SOL     OW16009   0.305   1.181   0.614 -0.1329  0.1031 -0.1307
 1458SOL    HW116010   0.330   1.093   0.586  1.0435  0.7485 -1.1040
 1458SOL    HW216011   0.300   1.172   0.709  1.4953  1.5580  0.1042
 1459SOL     OW16012   4.424   0.965   0.058 -0.2444  0.0969  0.4339
 1459SOL    HW116013   4.411   1.047   0.011  1.3464 -1.5085 -2.8337
 1459SOL    HW216014   4.489   0.919   0.005 -0.9589  2.8271 -2.7678
 1460SOL     OW16015   2.267   0.530   5.934 -0.5331  0.2017  0.0246
 1460SOL    HW116016   2.294   0.597   5.871 -2.5646  1.2795  0.3302
 1460SOL    HW216017   2.198   0.578   5.978  2.1285  2.0815  2.1549
 1461SOL     OW16018   4.728   2.224   5.279 -0.0289  0.3019 -0.1592
 1461SOL    HW116019   4.660   2.183   5.225  0.2744 -1.4545  0.7796
 1461SOL    HW216020   0.064   2.203   5.223 -0.7125 -0.8681 -0.6364
 1462SOL     OW16021   3.215   3.862   3.315 -0.1520  0.0862 -0.3183
 1462SOL    HW116022   3.301   3.869   3.274 -1.2279 -1.6170 -2.8891
 1462SOL    HW216023   3.169   3.924   3.258 -0.7680 -1.2457 -1.2797
 1463SOL     OW16024   0.217   2.696  10.988 -0.6411 -0.2146 -0.5103
 1463SOL    HW116025   0.275   2.622  10.969  0.7369  0.3164  1.7485
 1463SOL    HW216026   0.231   2.731  11.076  3.0624 -0.8211 -0.8682
 1464SOL     OW16027   3.604   2.955  14.703  0.4287 -0.1113  0.1326
 1464SOL    HW116028   3.641   2.897  14.768 -1.2426 -2.6093 -1.1504
 1464SOL    HW216029   3.550   3.006  14.764 -0.5575  1.8829 -2.3651
 1465SOL     OW16030   4.114   4.609  14.690 -0.4894 -0.1560  0.2287
 1465SOL    HW116031   4.101   4.676  14.757  2.2332  2.2519 -1.7014
 1465SOL    HW216032   4.105   4.667  14.614  2.0301  0.0373  0.0961
 1466SOL     OW16033   1.487   4.008   8.243 -0.2616  0.0018  0.4177
 1466SOL    HW116034   1.453   3.919   8.255  0.7203 -0.3320  0.7256
 1466SOL    HW216035   1.574   4.007   8.282  0.6602  0.7801 -1.6498
 1467SOL     OW16036   4.324   3.780   6.465  0.5717  0.3497 -0.2793
 1467SOL    HW116037   4.372   3.774   6.383 -2.0416 -1.5864 -1.6612
 1467SOL    HW216038   4.235   3.755   6.442  0.7958 -0.8282  0.1295
 1468SOL     OW16039   0.813   3.584   2.950 -0.1546 -0.1547  0.0457
 1468SOL    HW116040   0.875   3.597   3.022 -1.5618 -2.1009  1.6094
 1468SOL    HW216041   0.785   3.497   2.978  1.9388 -1.1709 -0.9872
 1469SOL     OW16042   4.452   0.006   1.808 -0.3769 -0.0019 -0.0667
 1469SOL    HW116043   4.434   4.668   1.752  0.3067 -1.6295  1.8965
 1469SOL    HW216044   4.437   4.708   1.896 -0.8014 -1.9133 -0.9174
 1470SOL     OW16045   0.618   2.675   4.056  0.2477 -1.1233 -0.2244
 1470SOL    HW116046   0.680   2.629   4.113  1.1671  2.6656  1.7823
 1470SOL    HW216047   0.578   2.601   4.011  0.0060 -0.3889 -1.1994
 1471SOL     OW16048   3.863   1.267   3.579  0.1794  0.0267  0.0899
 1471SOL    HW116049   3.913   1.296   3.655  0.1807  1.3536 -0.4206
 1471SOL    HW216050   3.874   1.337   3.514  1.2283  0.3587  0.6192
 1472SOL     OW16051   0.165   2.620   2.736 -0.5233 -0.0202  0.2289
 1472SOL    HW116052   0.104   2.590   2.668  2.0362 -2.2661 -1.0696
 1472SOL    HW216053   0.127   2.566   2.805  0.0415  0.3474  0.8227
 1473SOL     OW16054   0.477   0.432   2.137  0.0665 -0.3768 -0.6090
 1473SOL    HW116055   0.511   0.510   2.093 -2.4755  1.7734  1.3304
 1473SOL    HW216056   0.385   0.431   2.112 -0.0990 -3.8419  0.1433
 1474SOL     OW16057   0.326   2.649  13.299  0.1219 -0.1295 -0.6938
 1474SOL    HW116058   0.348   2.740  13.279 -0.3512  0.1998  0.2829
 1474SOL    HW216059   0.336   2.613  13.211  1.1845  1.1752 -1.1021
 1475SOL     OW16060   2.307   4.384   4.113 -0.3354  0.3277  0.4291
 1475SOL    HW116061   2.267   4.307   4.154  2.4306 -1.9047 -1.0749
 1475SOL    HW216062   2.311   4.355   4.022  1.1791  1.3969  0.1583
 1476SOL     OW16063   4.670   3.246  11.326  0.2271 -0.1704  0.5728
 1476SOL    HW116064   4.590   3.200  11.353 -0.8481  1.2475 -0.1901
 1476SOL    HW216065   4.663   3.319  11.388 -2.5320 -0.2488  0.3809
 1477SOL     OW16066   0.086   2.872   8.217  0.3835 -0.4104 -0.3975
 1477SOL    HW116067   0.109   2.936   8.150  0.3226 -1.0315 -1.0005
 1477SOL    HW216068   0.162   2.871   8.275 -2.6056 -1.2555  3.5135
 1478SOL     OW16069   0.022   0.563   6.814 -0.3644  0.0275  0.1113
 1478SOL    HW116070   0.022   0.556   6.910  0.7343  3.6699  0.3689
 1478SOL    HW216071   4.671   0.528   6.808  0.1010 -1.2512  0.6533
 1479SOL     OW16072   2.920   0.499   8.592 -0.5576  0.2171  0.3351
 1479SOL    HW116073   2.874   0.427   8.549 -0.2706 -0.8428  1.8118
 1479SOL    HW216074   2.857   0.571   8.586  2.5259  2.8997  0.0346
 1480SOL     OW16075   3.420   2.414   6.848  0.5330  0.3311  0.5970
 1480SOL    HW116076   3.511   2.392   6.828  0.1545 -1.0145  0.3326
 1480SOL    HW216077   3.404   2.353   6.921  0.1854 -0.9677 -0.5649
 1481SOL     OW16078   2.313   0.021  17.631  0.3282  0.5219 -0.1442
 1481SOL    HW116079   2.223   0.017  17.663  0.5181  1.5335  0.5351
 1481SOL    HW216080   2.351   4.700  17.695 -0.4883 -0.3324 -0.4471
 1482SOL     OW16081   0.075   3.952   8.766 -0.4591 -0.0925  0.4126
 1482SOL    HW116082   0.170   3.959   8.775 -0.6358  0.6738  1.7329
 1482SOL    HW216083   0.055   3.869   8.809  3.0217 -1.1065  0.1146
 1483SOL     OW16084   0.411   0.721   3.429  0.1546  0.0226 -0.0998
 1483SOL    HW116085   0.416   0.744   3.336 -1.6700  1.6577  0.2185
 1483SOL    HW216086   0.464   0.787   3.473  0.4406 -0.6211  0.5307
 1484SOL     OW16087   2.088   4.396   1.724 -0.0143  0.5316  0.7039
 1484SOL    HW116088   2.180   4.407   1.703  0.3010 -4.0399 -0.2839
 1484SOL    HW216089   2.047   4.469   1.679  2.1489  1.7988  0.7944
 1485SOL     OW16090   2.270   2.683   4.476 -0.1274  0.3106 -0.3263
 1485SOL    HW116091   2.362   2.700   4.498  0.3244 -0.6843 -1.4813
 1485SOL    HW216092   2.252   2.599   4.518 -1.4932  1.0066  0.4633
 1486SOL     OW16093   1.198   1.933   6.612 -0.4318 -0.0506  0.6284
 1486SOL    HW116094   1.293   1.942   6.623 -0.5619 -0.2110  1.8871
 1486SOL    HW216095   1.169   2.009   6.662  3.4442  0.3781  2.2256
 1487SOL     OW16096   2.749   0.771   1.560  0.5482  0.0927 -0.8700
 1487SOL    HW116097   2.761   0.677   1.574 -2.5056 -0.0995  0.4524
 1487SOL    HW216098   2.751   0.769   1.464 -1.3679  1.4788 -0.9456
 1488SOL     OW16099   3.716   1.419   5.911  0.1589  0.0683 -0.1240
 1488SOL    HW116100   3.623   1.413   5.934  0.6082  0.9864  1.9479
 1488SOL    HW216101   3.717   1.495   5.854 -1.2019  0.6714  0.6464
 1489SOL     OW16102   2.514   4.042  11.339 -0.3340 -0.4344 -0.4490
 1489SOL    HW116103   2.457   4.015  11.411  0.2423  0.3840  0.3070
 1489SOL    HW216104   2.473   4.124  11.310 -2.7063 -1.5876 -0.3409
 1490SOL     OW16105   3.401   3.239   4.243 -0.0662 -0.4716 -0.1633
 1490SOL    HW116106   3.393   3.144   4.247  1.0393 -0.6040 -1.1362
 1490SOL    HW216107   3.347   3.264   4.318 -0.9164  3.4722 -2.1033
 1491SOL     OW16108   0.810   3.314   3.484 -0.6947  0.5659 -0.6658
 1491SOL    HW116109   0.779   3.390   3.436  2.5169  0.8117 -2.3589
 1491SOL    HW216110   0.737   3.259   3.455  0.8926 -3.0337  2.0526
 1492SOL     OW16111   3.936   0.801   2.899  0.0212 -0.0161  0.9593
 1492SOL    HW116112   3.991   0.723   2.908  1.0447  0.6994  0.9938
 1492SOL    HW216113   3.851   0.764   2.876  0.1266  1.5978 -2.0772
 1493SOL     OW16114   4.272   2.877   9.239  0.6278 -0.0438 -0.0460
 1493SOL    HW116115   4.284   2.915   9.326 -2.4867  1.3987 -0.2255
 1493SOL    HW216116   4.204   2.814   9.266  1.4551 -1.2741 -0.8330
 1494SOL     OW16117   1.876   1.387   0.539 -0.5990 -0.1540 -0.0555
 1494SOL    HW116118   1.969   1.398   0.520 -0.3941 -1.6758 -0.0050
 1494SOL    HW216119   1.852   1.313   0.482  0.5939 -0.3402 -0.3119
 1495SOL     OW16120   1.452   2.001   2.365  0.4386  0.1828 -0.0464
 1495SOL    HW116121   1.546   2.021   2.371  0.4973 -0.0886 -0.0675
 1495SOL    HW216122   1.438   1.917   2.408 -0.2464  1.8463  3.0239
 1496SOL     OW16123   2.780   4.206   3.949  0.0481  0.0904  0.5564
 1496SOL    HW116124   2.829   4.241   3.876  1.4189 -0.7443  1.0811
 1496SOL    HW216125   2.858   4.178   3.997 -0.9581  0.3910  2.3843
 1497SOL     OW16126   2.555   3.678   7.153  0.0793 -0.2451  0.0751
 1497SOL    HW116127   2.566   3.595   7.200  0.4020  0.4988  1.3222
 1497SOL    HW216128   2.637   3.722   7.175 -1.4377  3.5693 -1.8002
 1498SOL     OW16129   4.476   1.154   1.548 -0.4980 -0.5219  0.6738
 1498SOL    HW116130   4.530   1.165   1.470 -2.2374  1.5091 -0.2520
 1498SOL    HW216131   4.448   1.242   1.572  3.1017  0.5235  0.9303
 1499SOL     OW16132   1.984   0.757   0.868  0.7025  0.3196  0.3892
 1499SOL    HW116133   1.901   0.793   0.900 -0.1918  0.2112 -1.7586
 1499SOL    HW216134   1.957   0.734   0.779  0.3333 -2.0221  1.1277
 1500SOL     OW16135   2.183   0.347   5.363 -0.1464  0.1742 -0.0272
 1500SOL    HW116136   2.224   0.425   5.400 -0.1432  0.0953  0.1354
 1500SOL    HW216137   2.176   0.294   5.442 -1.5636 -1.7967 -1.4875
 1501SOL     OW16138   2.631   4.066   3.748  0.1731 -0.0464 -0.0924
 1501SOL    HW116139   2.632   4.132   3.817  1.5533  0.0798 -0.2164
 1501SOL    HW216140   2.562   4.006   3.777  2.3955 -2.1772  0.8778
 1502SOL     OW16141   2.474   4.618  16.800 -0.2381  0.0420  1.0545
 1502SOL    HW116142   2.416   4.605  16.875  0.3874  1.1202  1.7352
 1502SOL    HW216143   2.501   4.529  16.775  1.0821  1.1092 -1.3340
 1503SOL     OW16144   0.605   2.017   0.195 -0.0316  0.0620  0.5118
 1503SOL    HW116145   0.556   1.941   0.163 -2.4881  0.8993  2.3164
 1503SOL    HW216146   0.683   1.970   0.226  1.3433  1.4143 -0.9400
 1504SOL     OW16147   4.245   3.660   7.987 -0.6483 -0.1671  0.2927
 1504SOL    HW116148   4.160   3.641   7.946 -0.9462 -0.4137  1.0303
 1504SOL    HW216149   4.253   3.753   7.970 -2.5927 -0.0677 -0.1071
 1505SOL     OW16150   1.660   2.607  15.029  0.1025 -0.1349  0.5315
 1505SOL    HW116151   1.702   2.693  15.032  0.7512 -0.4733  0.9909
 1505SOL    HW216152   1.567   2.621  15.010  0.0670  0.8412  1.4147
 1506SOL     OW16153   1.839   4.424  15.577  0.0340 -0.1664 -0.7679
 1506SOL    HW116154   1.864   4.342  15.534  2.6877  0.8477 -1.1271
 1506SOL    HW216155   1.746   4.414  15.597  0.0226 -1.0543 -1.2342
 1507SOL     OW16156   4.057   0.389   6.670 -0.1176  0.0094  0.1528
 1507SOL    HW116157   4.036   0.296   6.678  0.9658 -0.1866  0.5884
 1507SOL    HW216158   4.149   0.382   6.647 -0.2594 -2.6624  0.3463
 1508SOL     OW16159   0.036   2.767   1.022  0.8704  0.3357 -0.0871
 1508SOL    HW116160   0.093   2.700   1.061 -1.2884 -0.7352  1.2275
 1508SOL    HW216161   0.021   2.720   0.940 -0.6165  0.3056  0.1989
 1509SOL     OW16162   4.561   3.210   9.288 -0.7789  0.6386  0.2512
 1509SOL    HW116163   4.541   3.150   9.360  0.9489  1.1804  1.1949
 1509SOL    HW216164   4.657   3.212   9.293 -0.7815  0.4850  0.3910
 1510SOL     OW16165   0.124   3.754  14.613 -0.2076 -0.6929  0.1782
 1510SOL    HW116166   0.154   3.709  14.692 -2.2577  0.6895  1.7394
 1510SOL    HW216167   0.030   3.743  14.625 -0.7144  0.8411 -2.5212
 1511SOL     OW16168   4.261   0.050   7.138 -0.0774  0.1090  0.2267
 1511SOL    HW116169   4.297   4.701   7.123 -0.2803 -0.7823  5.0672
 1511SOL    HW216170   4.177   0.014   7.166  0.3785 -1.4528 -0.4034
 1512SOL     OW16171   2.242   4.370   6.459 -0.3561 -0.1216  0.2662
 1512SOL    HW116172   2.203   4.427   6.394 -1.2662 -0.0360  0.8845
 1512SOL    HW216173   2.189   4.292   6.444 -0.2393 -0.3132  0.8409
 1513SOL     OW16174   2.083   1.940  17.273  0.1553 -0.5470  0.0115
 1513SOL    HW116175   2.096   1.918  17.181  2.3130  0.6553  0.0392
 1513SOL    HW216176   2.029   1.864  17.295  1.0565 -2.0767 -3.0759
 1514SOL     OW16177   1.212   3.742   0.780  0.2073 -0.1073  0.3313
 1514SOL    HW116178   1.130   3.788   0.765  0.1137 -1.0184 -1.9254
 1514SOL    HW216179   1.272   3.816   0.773  0.5254 -0.4784 -0.9200
 1515SOL     OW16180   0.929   0.120   7.080  0.2240  0.2884 -0.5363
 1515SOL    HW116181   0.936   0.037   7.127  0.0071 -0.7785 -2.3993
 1515SOL    HW216182   0.966   0.106   6.992 -1.3438  0.9060 -1.3025
 1516SOL     OW16183   3.469   1.414   3.260 -0.3167 -0.6217 -0.3610
 1516SOL    HW116184   3.382   1.403   3.222  0.1561  0.9927 -1.9186
 1516SOL    HW216185   3.446   1.494   3.306 -1.4345 -0.6883 -0.8173
 1517SOL     OW16186   2.957   0.326   3.515  0.3352 -0.0083 -0.3531
 1517SOL    HW116187   2.965   0.309   3.609 -0.1997 -0.4053 -0.3777
 1517SOL    HW216188   2.991   0.414   3.500 -0.3714  0.4155  0.5590
 1518SOL     OW16189   4.474   0.187   0.340  0.0999 -0.4921 -0.1368
 1518SOL    HW116190   4.419   0.232   0.275  1.5497  2.5209  0.7068
 1518SOL    HW216191   4.559   0.212   0.303  0.2314 -2.9674 -1.4723
 1519SOL     OW16192   0.137   0.915  10.615  0.3069  0.1345  0.0013
 1519SOL    HW116193   0.057   0.866  10.633 -0.9463  2.0212 -0.4380
 1519SOL    HW216194   0.105   1.003  10.593  0.5928  0.2592  0.0854
 1520SOL     OW16195   4.132   0.547   8.666 -0.5381  0.4089 -0.1766
 1520SOL    HW116196   4.218   0.567   8.630 -0.9330  0.7508 -0.9419
 1520SOL    HW216197   4.141   0.456   8.694 -0.0632  0.1260 -1.2680
 1521SOL     OW16198   2.240   0.513   3.862  0.2916 -0.1347  0.2029
 1521SOL    HW116199   2.312   0.510   3.925  0.8381 -3.3001 -0.5831
 1521SOL    HW216200   2.173   0.537   3.926  1.2772  2.9341  0.0939
 1522SOL     OW16201   1.263   1.537  10.662 -0.1235  0.4076 -0.5336
 1522SOL    HW116202   1.299   1.540  10.751 -1.2114 -1.2505 -0.0391
 1522SOL    HW216203   1.169   1.540  10.676 -0.1209 -0.9132 -0.1702
 1523SOL     OW16204   0.495   3.368  11.298  0.6521 -0.1393  0.2719
 1523SOL    HW116205   0.530   3.333  11.217  2.5889  2.0754  0.1693
 1523SOL    HW216206   0.511   3.462  11.286  1.5395 -0.6524 -2.3129
 1524SOL     OW16207   4.194   3.267  13.875  0.1590 -0.0279 -0.4167
 1524SOL    HW116208   4.158   3.233  13.957  3.6737  0.6788  1.4191
 1524SOL    HW216209   4.131   3.336  13.853 -2.8343 -2.0844  1.7181
 1525SOL     OW16210   4.514   4.385   7.351 -0.3875 -0.3462 -0.1731
 1525SOL    HW116211   4.419   4.394   7.352 -0.0104  3.5597  3.3646
 1525SOL    HW216212   4.522   4.295   7.320  0.3174  0.5662 -2.5978
 1526SOL     OW16213   2.765   3.818   7.251 -0.1597 -0.4577 -0.6243
 1526SOL    HW116214   2.853   3.786   7.233  0.0753 -0.2162  0.0931
 1526SOL    HW216215   2.760   3.848   7.342  1.5898  0.1120 -0.7123
 1527SOL     OW16216   0.114   3.778   6.610 -0.6461 -0.3197  0.2790
 1527SOL    HW116217   0.074   3.708   6.663 -0.8590  0.1168  0.6916
 1527SOL    HW216218   0.046   3.771   6.543  0.8334 -1.1440 -1.1275
 1528SOL     OW16219   4.537   2.254  17.594 -0.2246  0.2912 -0.7479
 1528SOL    HW116220   4.516   2.345  17.613 -2.4388 -0.1506 -1.0500
 1528SOL    HW216221   4.624   2.244  17.631 -0.7047  3.3164  1.1348
 1529SOL     OW16222   3.018   4.503  14.822 -0.1594  0.0368  0.0355
 1529SOL    HW116223   3.101   4.551  14.831 -0.7950  1.0634  0.3978
 1529SOL    HW216224   2.980   4.535  14.904  1.2210  0.2828  0.5875
 1530SOL     OW16225   1.850   2.264   6.673  0.4688 -0.1571 -0.4955
 1530SOL    HW116226   1.852   2.267   6.768  1.2531  0.2953 -0.5248
 1530SOL    HW216227   1.778   2.322   6.649 -0.4611 -1.5036 -0.9702
 1531SOL     OW16228   2.471   3.065   3.744  0.2356 -0.3075  0.1079
 1531SOL    HW116229   2.501   2.974   3.742  1.1110 -0.0444  1.6181
 1531SOL    HW216230   2.427   3.074   3.828 -1.9072 -0.0526 -1.0608
 1532SOL     OW16231   3.476   3.122   2.819  0.0635  0.2365  0.1044
 1532SOL    HW116232   3.558   3.157   2.854 -0.0705  2.5217 -1.8718
 1532SOL    HW216233   3.409   3.151   2.882  0.2045  1.1636 -0.1831
 1533SOL     OW16234   4.617   0.004   7.768 -0.3156 -0.1476 -0.1647
 1533SOL    HW116235   4.660   0.087   7.747  0.7217 -0.7142 -0.2555
 1533SOL    HW216236   4.588   4.711   7.682  1.0295  1.4509 -1.2058
 1534SOL     OW16237   3.490   1.886   6.325  0.4164 -0.0079 -0.3242
 1534SOL    HW116238   3.488   1.791   6.335  1.6334 -0.1387 -1.3791
 1534SOL    HW216239   3.473   1.911   6.416 -2.4418  0.0808 -0.8612
 1535SOL     OW16240   1.042   2.206   8.644  0.7470 -0.3285  0.0109
 1535SOL    HW116241   0.953   2.179   8.667  1.3661 -2.1646  0.2471
 1535SOL    HW216242   1.096   2.164   8.712 -0.2343 -1.4022  0.1278
 1536SOL     OW16243   2.330   0.918   4.510  0.1844 -0.2193 -0.7083
 1536SOL    HW116244   2.262   0.983   4.524 -0.7752 -1.5768  0.9904
 1536SOL    HW216245   2.273   0.842   4.500 -0.2243 -0.0251  0.1429
 1537SOL     OW16246   2.460   2.282   6.209 -0.6927  0.3010 -0.4912
 1537SOL    HW116247   2.498   2.369   6.199  0.0351  0.0903  0.4125
 1537SOL    HW216248   2.408   2.296   6.287  0.2579  1.4993 -0.0630
 1538SOL     OW16249   2.088   3.387   2.635  0.0675  0.4626 -0.6881
 1538SOL    HW116250   2.004   3.387   2.590 -0.2884  1.3631 -0.0249
 1538SOL    HW216251   2.107   3.294   2.622  0.4138  0.2633  1.2621
 1539SOL     OW16252   0.357   2.726   9.322 -0.4350  0.0790  0.1853
 1539SOL    HW116253   0.408   2.791   9.371 -0.2599  0.9919 -1.1924
 1539SOL    HW216254   0.324   2.670   9.392  1.3384 -0.2843  0.7380
 1540SOL     OW16255   3.538   1.620   6.375  0.0067 -0.2751  0.2086
 1540SOL    HW116256   3.526   1.591   6.465  2.6191 -1.5090  0.1536
 1540SOL    HW216257   3.605   1.563   6.337  0.2933 -0.0061  0.3143
 1541SOL     OW16258   0.032   0.918   0.464  0.2343 -0.1638  0.0892
 1541SOL    HW116259   0.122   0.906   0.494  0.5286 -0.2832 -0.8252
 1541SOL    HW216260   4.728   0.854   0.521  0.2253  1.8525  2.3343
 1542SOL     OW16261   4.448   3.580  13.569  0.8576 -0.3846 -0.1431
 1542SOL    HW116262   4.495   3.562  13.651 -0.5826 -0.7013  0.6053
 1542SOL    HW216263   4.405   3.499  13.541 -1.8305  0.9236  0.2389
 1543SOL     OW16264   0.900   2.193   0.321  0.1355 -0.0556 -0.3153
 1543SOL    HW116265   0.865   2.104   0.320 -0.6079  0.2404 -1.5065
 1543SOL    HW216266   0.923   2.210   0.230  1.7697 -1.0621 -0.0830
 1544SOL     OW16267   1.296   0.868   9.041  0.3656  0.7248 -0.6111
 1544SOL    HW116268   1.298   0.963   9.053 -3.0353  0.5277  1.3343
 1544SOL    HW216269   1.297   0.870   8.945  0.2505 -1.3968 -0.6634
 1545SOL     OW16270   1.837   3.047   6.930  1.0274  0.1352 -0.0547
 1545SOL    HW116271   1.924   3.073   6.960  0.7421  0.3375  0.6083
 1545SOL    HW216272   1.803   3.045   7.020  1.9425 -0.6562  0.2718
 1546SOL     OW16273   0.882   3.016  10.709  0.2643 -0.4226 -0.0131
 1546SOL    HW116274   0.893   2.991  10.801  0.1829 -0.7556 -0.0941
 1546SOL    HW216275   0.962   3.067  10.695  0.6600 -0.5267  1.8252
 1547SOL     OW16276   2.563   0.773   6.910 -0.6505 -0.1176 -0.6131
 1547SOL    HW116277   2.622   0.724   6.852  1.3872 -0.7904  2.0144
 1547SOL    HW216278   2.485   0.718   6.918  0.6922 -1.7084  1.6561
 1548SOL     OW16279   4.155   3.067  15.303  0.1660  0.4405  0.0283
 1548SOL    HW116280   4.212   3.143  15.319 -0.9636  0.9180  1.8202
 1548SOL    HW216281   4.173   3.014  15.381 -1.1739  2.5979  1.8383
 1549SOL     OW16282   0.735   3.562   7.544 -0.2620  0.1533 -0.0333
 1549SOL    HW116283   0.648   3.583   7.578 -1.0470 -2.0275 -0.6996
 1549SOL    HW216284   0.767   3.512   7.619 -0.2129 -1.7548 -1.3217
 1550SOL     OW16285   0.170   4.431  13.577 -0.1217 -0.0203 -0.0022
 1550SOL    HW116286   0.235   4.500  13.586  0.8240 -0.6023 -2.3148
 1550SOL    HW216287   0.091   4.469  13.616  0.8378  0.1496  1.8147
 1551SOL     OW16288   0.353   1.457   3.750  0.2007 -0.0495  0.0178
 1551SOL    HW116289   0.340   1.495   3.837  1.6658 -0.6441  0.5034
 1551SOL    HW216290   0.277   1.401   3.733 -1.0950  1.0919  1.9926
 1552SOL     OW16291   2.554   3.548   8.595 -0.2364  0.0581 -0.3958
 1552SOL    HW116292   2.557   3.466   8.547  0.0732  0.3173 -0.8192
 1552SOL    HW216293   2.564   3.512   8.683  0.5633  2.8674  0.6700
 1553SOL     OW16294   1.335   2.259   0.937  0.3670 -0.3637  0.0951
 1553SOL    HW116295   1.332   2.311   1.017  0.9469  0.4061 -0.3843
 1553SOL    HW216296   1.395   2.314   0.888 -0.5887  0.4685 -0.1322
 1554SOL     OW16297   0.552   4.170   2.234  0.3335 -0.3146  0.2682
 1554SOL    HW116298   0.472   4.135   2.195 -0.0894  0.1714  0.7102
 1554SOL    HW216299   0.595   4.199   2.153  0.1884  0.6414  0.5339
 1555SOL     OW16300   0.366   1.352   2.618  0.1283  0.0866  0.4429
 1555SOL    HW116301   0.428   1.326   2.549  2.6998  2.2453  1.9465
 1555SOL    HW216302   0.426   1.361   2.692 -1.7097 -0.5517  2.0057
 1556SOL     OW16303   2.917   3.495   8.847 -0.9112 -0.3995 -0.1115
 1556SOL    HW116304   2.847   3.559   8.859  0.5332  1.4786 -1.6499
 1556SOL    HW216305   2.887   3.429   8.910 -1.6341  0.4950  0.4918
 1557SOL     OW16306   3.144   3.706  17.660  0.4951 -0.4842  0.0753
 1557SOL    HW116307   3.112   3.732  17.746  1.7087  0.9436  0.0917
 1557SOL    HW216308   3.238   3.704  17.678  0.1738  1.3610  1.9404
 1558SOL     OW16309   4.108   2.412   8.129 -0.4044 -0.7428 -0.0889
 1558SOL    HW116310   4.060   2.452   8.056  1.0533  0.3195 -0.4550
 1558SOL    HW216311   4.030   2.364   8.156 -1.8691  0.8498 -1.4897
 1559SOL     OW16312   3.411   0.663  14.739  0.6694  0.4195  0.3446
 1559SOL    HW116313   3.477   0.664  14.670 -0.4615  0.0449 -0.7511
 1559SOL    HW216314   3.460   0.704  14.810  0.4576  1.2221  0.0233
 1560SOL     OW16315   3.389   1.075   2.800  0.2840 -0.2630 -0.0578
 1560SOL    HW116316   3.303   1.101   2.767  0.8804 -0.0804 -1.4471
 1560SOL    HW216317   3.379   0.980   2.806 -2.3053 -0.0249 -0.7318
 1561SOL     OW16318   3.799   0.199   3.811  0.3299 -0.5506  0.3536
 1561SOL    HW116319   3.790   0.104   3.803 -0.0931 -0.4343 -0.5961
 1561SOL    HW216320   3.885   0.205   3.769 -1.6979 -0.1319 -3.7836
 1562SOL     OW16321   1.011   3.681   6.674  0.1062  0.2927 -0.4111
 1562SOL    HW116322   0.991   3.756   6.731 -1.6890  1.2675 -2.3113
 1562SOL    HW216323   0.924   3.662   6.639  0.3459 -3.7674  1.2545
 1563SOL     OW16324   0.390   0.913   7.664  0.4508 -0.0077 -0.0052
 1563SOL    HW116325   0.440   0.954   7.593  0.0970  1.0820  0.3675
 1563SOL    HW216326   0.363   0.839   7.610  0.0600 -0.1392  0.3727
 1564SOL     OW16327   2.322   2.597   3.353 -0.2726  0.1911 -0.2487
 1564SOL    HW116328   2.252   2.626   3.411  0.7351  0.4531  0.8236
 1564SOL    HW216329   2.282   2.525   3.304 -0.2914  0.0794 -0.0675
 1565SOL     OW16330   1.349   4.669  16.065 -0.1070 -0.1322  0.2812
 1565SOL    HW116331   1.385   0.004  16.115 -1.0387  0.6720 -0.2256
 1565SOL    HW216332   1.253   4.668  16.073 -0.0294 -1.2130  1.1989
 1566SOL     OW16333   1.625   4.693   3.125  0.5523  0.3925 -0.2933
 1566SOL    HW116334   1.682   4.719   3.198  1.0810 -0.9741 -0.2148
 1566SOL    HW216335   1.675   4.625   3.081  0.2741  0.0960 -0.1560
 1567SOL     OW16336   3.213   1.168   5.805  0.4251  0.0175 -0.2040
 1567SOL    HW116337   3.228   1.248   5.756 -1.8432  0.2055 -0.5820
 1567SOL    HW216338   3.119   1.173   5.820  0.2960 -1.7293 -0.3839
 1568SOL     OW16339   4.337   0.938   2.483 -0.3823  0.9718  1.0896
 1568SOL    HW116340   4.401   0.867   2.490  0.4819  1.8357  2.0126
 1568SOL    HW216341   4.265   0.909   2.539 -0.1268  1.1332  1.5016
 1569SOL     OW16342   1.253   2.158  14.407  0.4198 -0.1739 -0.6622
 1569SOL    HW116343   1.162   2.181  14.393  0.0865 -0.7146  0.6395
 1569SOL    HW216344   1.282   2.223  14.342  0.4055  2.1723  1.6591
 1570SOL     OW16345   2.206   4.737  16.049 -0.5349  0.1163  0.3777
 1570SOL    HW116346   2.124   4.715  16.004 -1.0199  0.4594  1.0854
 1570SOL    HW216347   2.239   4.648  16.039 -3.1172 -0.6829 -0.9728
 1571SOL     OW16348   1.594   3.505   4.884 -0.2332 -0.7257  0.3569
 1571SOL    HW116349   1.584   3.548   4.798 -0.5229 -1.5665 -0.0298
 1571SOL    HW216350   1.518   3.446   4.887  0.9389 -2.1137  2.2754
 1572SOL     OW16351   2.960   1.980   2.793 -0.2668 -0.0848  0.1608
 1572SOL    HW116352   2.897   1.992   2.863  0.0935 -0.7302  0.5959
 1572SOL    HW216353   3.040   2.000   2.841 -0.3229 -0.9456  0.6125
 1573SOL     OW16354   3.001   3.943   5.881  0.4272  0.4363 -0.5817
 1573SOL    HW116355   2.960   4.028   5.897  1.8561  0.8811  0.6718
 1573SOL    HW216356   3.088   3.965   5.850  1.8866 -0.8292  2.6288
 1574SOL     OW16357   1.699   0.607   6.347 -0.2058  0.3581 -0.6092
 1574SOL    HW116358   1.638   0.631   6.417  1.5704  0.4303  0.8941
 1574SOL    HW216359   1.683   0.513   6.350  2.7921 -0.1260  0.0970
 1575SOL     OW16360   1.379   1.591   5.734  0.0726  0.2425 -0.2967
 1575SOL    HW116361   1.382   1.547   5.819 -0.5721 -0.0448 -0.4262
 1575SOL    HW216362   1.367   1.510   5.684  0.4744  0.9370 -1.5036
 1576SOL     OW16363   2.435   3.908  15.549 -0.2995  0.4112 -0.1872
 1576SOL    HW116364   2.452   3.887  15.457 -2.0751  1.4195 -0.7498
 1576SOL    HW216365   2.473   3.825  15.578  0.4742  0.8028 -0.1038
 1577SOL     OW16366   4.228   4.694   4.611 -0.1593 -0.3568  0.0737
 1577SOL    HW116367   4.308   4.711   4.660 -0.4376 -2.1926  1.1569
 1577SOL    HW216368   4.177   4.647   4.677 -1.6577 -0.4374 -1.1345
 1578SOL     OW16369   1.701   3.306   6.386 -0.3005  0.2963 -0.0153
 1578SOL    HW116370   1.621   3.337   6.430 -0.4261  2.2133 -1.5916
 1578SOL    HW216371   1.686   3.213   6.368  0.5082 -0.4145  3.0273
 1579SOL     OW16372   0.821   3.590   8.727  0.1835  0.0245 -0.0951
 1579SOL    HW116373   0.772   3.531   8.669 -1.4965  0.6768  0.6647
 1579SOL    HW216374   0.752   3.657   8.730 -1.4266 -1.7250  2.2966
 1580SOL     OW16375   4.531   1.177   3.465 -0.7213 -0.4493 -0.1346
 1580SOL    HW116376   4.615   1.217   3.488  0.0979 -1.1258 -1.8891
 1580SOL    HW216377   4.483   1.196   3.546 -0.0147  1.6021 -0.2058
 1581SOL     OW16378   2.439   3.228  13.521  0.4334 -0.0498 -0.0511
 1581SOL    HW116379   2.425   3.144  13.478  0.2852 -0.4547  0.7874
 1581SOL    HW216380   2.392   3.214  13.603  1.5915 -0.3059  0.5675
 1582SOL     OW16381   1.813   4.558   4.647 -0.1038 -0.0740 -0.1088
 1582SOL    HW116382   1.780   4.621   4.711 -0.0405 -0.3194  0.1653
 1582SOL    HW216383   1.905   4.583   4.639 -0.3496 -0.0833 -3.0292
 1583SOL     OW16384   1.754   3.006   7.183 -0.3020  0.0020 -0.3210
 1583SOL    HW116385   1.754   2.938   7.250  3.6972 -0.6851 -1.0042
 1583SOL    HW216386   1.665   3.002   7.149 -1.9647  0.5271  3.9730
 1584SOL     OW16387   2.404   3.791   5.473 -0.1783  0.2121 -0.0016
 1584SOL    HW116388   2.337   3.840   5.425  0.5473  0.6589 -0.5597
 1584SOL    HW216389   2.443   3.737   5.404 -0.5458  0.3478 -0.3107
 1585SOL     OW16390   3.041   3.527   8.302  0.2354 -0.3114 -0.1873
 1585SOL    HW116391   2.963   3.571   8.335  0.0340  0.0419 -1.1382
 1585SOL    HW216392   3.027   3.436   8.327 -2.6158 -0.0196 -0.7778
 1586SOL     OW16393   0.971   1.876  16.470 -0.1434 -0.4753 -0.3729
 1586SOL    HW116394   0.944   1.907  16.556  1.7852 -0.3496  0.1891
 1586SOL    HW216395   0.912   1.806  16.442  1.6052 -2.0320 -0.1257
 1587SOL     OW16396   3.196   2.456  16.846 -0.6035  0.0562  0.3170
 1587SOL    HW116397   3.164   2.433  16.759 -0.0833 -1.4920  0.5378
 1587SOL    HW216398   3.229   2.374  16.881 -0.8693 -0.2209 -0.0826
 1588SOL     OW16399   1.857   4.089   9.245 -0.2423 -0.5012  0.5228
 1588SOL    HW116400   1.847   4.132   9.160  1.5342 -0.7472  0.1812
 1588SOL    HW216401   1.902   4.161   9.289 -0.9988  0.7639 -0.7850
 1589SOL     OW16402   0.401   0.182   8.952 -0.4299 -0.0424 -0.2248
 1589SOL    HW116403   0.317   0.136   8.957 -0.6575  0.1830 -2.1799
 1589SOL    HW216404   0.448   0.125   8.892 -0.1201 -1.4853  1.4072
 1590SOL     OW16405   1.196   0.739   4.480  0.4339 -0.5978  0.5340
 1590SOL    HW116406   1.104   0.717   4.472 -0.0553  0.5923  2.9075
 1590SOL    HW216407   1.241   0.673   4.426 -0.0537  0.4468 -1.1664
 1591SOL     OW16408   3.890   2.276   2.849  0.0164 -0.7180 -0.0478
 1591SOL    HW116409   3.868   2.247   2.761 -3.4624 -1.5656  1.1312
 1591SOL    HW216410   3.804   2.258   2.886 -0.3935 -1.3091 -1.2976
 1592SOL     OW16411   2.503   0.024  13.267  0.0811  0.2310 -0.3263
 1592SOL    HW116412   2.554   0.015  13.187 -0.5536  1.0740 -0.8150
 1592SOL    HW216413   2.518   0.115  13.292 -0.4944 -0.7599  3.6490
 1593SOL     OW16414   2.137   3.197  11.115 -0.1159 -0.2494 -0.0103
 1593SOL    HW116415   2.142   3.229  11.205  1.5781  0.5140 -0.3614
 1593SOL    HW216416   2.131   3.102  11.124 -2.4220 -0.2611 -1.8966
 1594SOL     OW16417   3.905   4.353   2.788 -0.3201  0.2838  0.3751
 1594SOL    HW116418   3.912   4.360   2.693  0.1310  2.1322  0.5316
 1594SOL    HW216419   3.814   4.382   2.799 -1.3610 -2.2572 -1.6456
 1595SOL     OW16420   4.611   2.745   5.611  0.0731 -0.5879 -0.4274
 1595SOL    HW116421   4.599   2.683   5.539  0.0571  0.0032 -0.9357
 1595SOL    HW216422   4.698   2.782   5.596 -0.4831  0.1898 -1.7491
 1596SOL     OW16423   1.924   3.944   5.022  0.2506 -0.0167  0.0547
 1596SOL    HW116424   1.923   3.941   5.118  1.1272 -0.5903  0.0428
 1596SOL    HW216425   1.885   3.862   4.991  0.2219  0.2401 -0.5988
 1597SOL     OW16426   2.988   0.873  14.398 -0.0755  0.1058 -0.5012
 1597SOL    HW116427   3.034   0.880  14.315 -1.8722 -1.6216 -1.6202
 1597SOL    HW216428   3.064   0.843  14.449 -1.3211 -2.3609 -0.0931
 1598SOL     OW16429   1.497   3.013   6.784 -0.3126 -0.1414 -0.9640
 1598SOL    HW116430   1.531   2.926   6.761  1.4440  0.2934  0.0112
 1598SOL    HW216431   1.414   3.003   6.737 -1.8194 -0.1012  1.7059
 1599SOL     OW16432   2.432   4.623   7.101 -0.4216 -0.0028 -0.7733
 1599SOL    HW116433   2.410   4.642   7.010 -0.4338 -2.7847 -1.3454
 1599SOL    HW216434   2.374   4.549   7.117 -0.2308 -0.0665 -0.3638
 1600SOL     OW16435   1.488   4.472   6.250  0.2408  0.1407 -0.3907
 1600SOL    HW116436   1.570   4.511   6.281  0.0892  1.5300 -1.7231
 1600SOL    HW216437   1.428   4.546   6.262  0.0098 -0.1473  0.2141
 1601SOL     OW16438   4.708   4.069   3.998 -0.0852 -0.3121  0.4512
 1601SOL    HW116439   0.004   4.124   3.928  1.8608  0.6388  2.1399
 1601SOL    HW216440   0.033   4.087   4.068 -1.2206 -0.6144  1.5611
 1602SOL     OW16441   3.279   3.491   6.050 -0.2493  0.1594 -0.0589
 1602SOL    HW116442   3.253   3.399   6.040 -0.0943  0.2700 -1.5268
 1602SOL    HW216443   3.370   3.472   6.073 -0.8522 -1.4452  1.0063
 1603SOL     OW16444   1.929   4.449   3.171  0.1884 -1.0690 -0.5138
 1603SOL    HW116445   1.871   4.375   3.190 -2.1601  0.8389 -0.3113
 1603SOL    HW216446   1.888   4.479   3.089  1.4536 -0.7042 -1.0126
 1604SOL     OW16447   4.626   4.734   2.513 -0.0313  0.7337  0.9481
 1604SOL    HW116448   4.688   0.059   2.476  0.3821  0.7686  1.7012
 1604SOL    HW216449   4.656   4.652   2.475 -3.9910 -0.6171  0.7075
 1605SOL     OW16450   2.760   4.193   2.890  0.2168  0.3355  0.2102
 1605SOL    HW116451   2.743   4.209   2.983 -1.3285  0.1764 -0.0347
 1605SOL    HW216452   2.853   4.172   2.890  0.4019  1.1985 -0.4736
 1606SOL     OW16453   2.634   2.754   1.190 -0.3713 -0.1214 -0.2293
 1606SOL    HW116454   2.618   2.764   1.284 -0.1691 -1.9655  0.0114
 1606SOL    HW216455   2.640   2.658   1.186 -0.2803 -0.1089 -0.4084
 1607SOL     OW16456   1.513   1.739  13.724 -0.0077 -0.1742 -0.0583
 1607SOL    HW116457   1.523   1.657  13.677 -3.3002  0.3157 -1.6389
 1607SOL    HW216458   1.484   1.701  13.807 -0.5327 -0.8550 -0.5589
 1608SOL     OW16459   0.099   0.190   6.852 -0.4590  0.1989  0.2069
 1608SOL    HW116460   0.129   0.119   6.796  2.4172  1.2765  0.3952
 1608SOL    HW216461   0.167   0.254   6.834  0.4937 -1.3030 -1.4634
 1609SOL     OW16462   0.923   0.947  14.984 -0.2251 -0.1950  0.1540
 1609SOL    HW116463   0.894   0.856  14.979 -1.5042  0.2246 -0.0574
 1609SOL    HW216464   0.917   0.944  15.080 -0.2108  0.9006  0.1939
 1610SOL     OW16465   3.832   4.336   7.847 -0.2529  0.7196 -0.2150
 1610SOL    HW116466   3.850   4.250   7.810  1.8190  1.1845 -0.3118
 1610SOL    HW216467   3.878   4.399   7.791 -1.1539  1.1823 -0.4361
 1611SOL     OW16468   4.095   1.525   9.678  0.7337  0.4312 -0.6642
 1611SOL    HW116469   4.051   1.564   9.753  0.4887  1.5043 -1.3504
 1611SOL    HW216470   4.160   1.593   9.657  1.1055  0.7056  1.3483
 1612SOL     OW16471   2.867   0.581   3.218  0.0430 -0.0023 -0.0579
 1612SOL    HW116472   2.791   0.523   3.217 -1.1653  1.5942 -1.3845
 1612SOL    HW216473   2.915   0.541   3.291 -2.6289  0.1748  1.8267
 1613SOL     OW16474   0.828   2.777   6.825 -0.0356  0.7576  0.2417
 1613SOL    HW116475   0.896   2.712   6.808 -1.0569 -0.3938  0.6209
 1613SOL    HW216476   0.775   2.740   6.895 -0.6179  1.1563  0.0194
 1614SOL     OW16477   3.587   1.735   7.774  0.2598  0.2147 -0.2053
 1614SOL    HW116478   3.656   1.797   7.747  0.8208 -0.4609 -0.3185
 1614SOL    HW216479   3.551   1.711   7.688 -2.7291  1.1736  0.7804
 1615SOL     OW16480   1.786   1.552   9.091  0.0635 -0.0175  0.3293
 1615SOL    HW116481   1.703   1.546   9.044 -0.6490 -3.4949  1.9852
 1615SOL    HW216482   1.767   1.487   9.159  2.4584 -0.5775  0.4731
 1616SOL     OW16483   4.132   3.186   8.469  0.0745 -0.3432  0.0377
 1616SOL    HW116484   4.044   3.179   8.432  0.8236 -1.8943 -1.4416
 1616SOL    HW216485   4.180   3.165   8.389 -0.1891  2.9932 -0.9938
 1617SOL     OW16486   1.891   4.089  11.139 -0.1284 -0.6173  0.2902
 1617SOL    HW116487   1.816   4.072  11.196 -1.2833  1.2006 -0.6912
 1617SOL    HW216488   1.851   4.137  11.067 -0.1009 -1.6130 -0.3816
 1618SOL     OW16489   0.772   3.965   3.094  0.5462  0.2380 -0.8109
 1618SOL    HW116490   0.781   3.998   3.005  0.7194  1.5411 -0.3106
 1618SOL    HW216491   0.679   3.944   3.103  1.2587 -2.5941 -0.1129
 1619SOL     OW16492   1.200   1.401   6.597 -0.0607 -0.5341  0.1967
 1619SOL    HW116493   1.152   1.462   6.653 -0.0059  0.5013 -0.9070
 1619SOL    HW216494   1.141   1.384   6.523 -2.0915  1.2948  1.3940
 1620SOL     OW16495   1.202   2.221   7.146 -0.6100  0.5330  0.0329
 1620SOL    HW116496   1.280   2.176   7.177 -0.1208  1.5126  0.2270
 1620SOL    HW216497   1.210   2.218   7.051  2.1411 -2.1510  0.3395
 1621SOL     OW16498   1.774   4.574   8.511 -0.1561 -0.3630  0.0059
 1621SOL    HW116499   1.806   4.584   8.421  0.9034 -2.5914  0.1345
 1621SOL    HW216500   1.759   4.667   8.526 -2.8027 -1.0630  1.7089
 1622SOL     OW16501   1.988   0.164   4.922 -0.8740  0.3545  0.1378
 1622SOL    HW116502   2.050   0.232   4.950  0.7235 -0.5903 -1.1053
 1622SOL    HW216503   2.036   0.084   4.941 -0.5523  0.8515  1.4470
 1623SOL     OW16504   1.946   1.213  17.167 -0.2583 -0.0912  0.0187
 1623SOL    HW116505   1.938   1.246  17.256  2.4008 -2.2972  1.0620
 1623SOL    HW216506   2.012   1.275  17.135 -2.2286  0.8870 -2.1528
 1624SOL     OW16507   4.267   1.860  10.944  0.3585 -0.1497 -0.5798
 1624SOL    HW116508   4.250   1.791  11.009  0.7491  0.6028  0.3105
 1624SOL    HW216509   4.282   1.933  11.004  0.4684 -0.4720 -0.2100
 1625SOL     OW16510   1.951   4.716  12.358 -0.0464 -0.0863  0.3915
 1625SOL    HW116511   2.006   0.005  12.431 -1.3268  1.7821  0.6580
 1625SOL    HW216512   2.015   4.700  12.288  1.1844 -0.3329  1.5827
 1626SOL     OW16513   0.982   0.801   7.402  0.7747 -0.7298 -0.0831
 1626SOL    HW116514   1.040   0.727   7.424  0.4176 -0.1314  2.8785
 1626SOL    HW216515   0.894   0.781   7.432  0.7608 -2.3128 -1.1948
 1627SOL     OW16516   0.120   3.354  14.648 -0.0144 -0.4265 -0.3523
 1627SOL    HW116517   0.151   3.355  14.557 -0.3477  1.9397 -0.4288
 1627SOL    HW216518   0.027   3.363  14.627 -0.0782 -0.0442  0.1053
 1628SOL     OW16519   3.450   2.595  16.594 -0.1404  0.2339 -0.0228
 1628SOL    HW116520   3.477   2.537  16.666  1.7419  0.6287 -0.4129
 1628SOL    HW216521   3.429   2.676  16.641  0.7074 -0.4946  1.6147
 1629SOL     OW16522   1.113   2.505   0.179  0.1810 -0.5893 -0.3141
 1629SOL    HW116523   1.059   2.538   0.251  0.1357 -0.9032 -0.2075
 1629SOL    HW216524   1.188   2.466   0.224 -0.7615 -1.2310  0.6695
 1630SOL     OW16525   1.737   0.480   9.071 -0.1214  0.3843  0.1157
 1630SOL    HW116526   1.808   0.427   9.034 -0.6977  0.2482 -0.7991
 1630SOL    HW216527   1.782   0.563   9.081 -0.7631  0.7673 -0.1551
 1631SOL     OW16528   2.260   0.903   3.449  0.1574  0.5961  0.1698
 1631SOL    HW116529   2.282   0.975   3.508 -2.6013  1.8100 -0.3181
 1631SOL    HW216530   2.235   0.939   3.364 -2.4624  2.2774  1.6779
 1632SOL     OW16531   1.490   2.718   2.800  0.3066 -0.0200 -0.1534
 1632SOL    HW116532   1.449   2.743   2.883  1.1833  0.5054  0.1143
 1632SOL    HW216533   1.546   2.793   2.781  0.7467 -0.2352  0.3193
 1633SOL     OW16534   3.130   3.519  10.607  0.0811 -0.5166  0.1178
 1633SOL    HW116535   3.138   3.466  10.527  2.2154 -0.1331  0.0783
 1633SOL    HW216536   3.124   3.609  10.575 -1.9479 -0.4236  0.7574
 1634SOL     OW16537   4.347   1.027   3.326 -0.1586  0.5477  0.0302
 1634SOL    HW116538   4.393   0.944   3.339 -2.4948 -0.9646 -1.3327
 1634SOL    HW216539   4.415   1.086   3.358 -1.9440  0.8898  3.2450
 1635SOL     OW16540   1.362   3.974   9.645  0.8936  0.1786 -0.4021
 1635SOL    HW116541   1.429   3.906   9.643  1.2564  0.5205  0.1198
 1635SOL    HW216542   1.424   4.045   9.625  0.0768  0.6356 -1.2790
 1636SOL     OW16543   3.136   3.822   5.008  0.2733 -0.0971  0.2298
 1636SOL    HW116544   3.161   3.889   5.071  2.1096  0.2896 -0.8954
 1636SOL    HW216545   3.102   3.874   4.935  1.5962  2.4762  1.4329
 1637SOL     OW16546   0.697   0.047   8.004  0.4121  0.2781  0.4748
 1637SOL    HW116547   0.708   0.010   8.091  0.6034  1.7142  1.0509
 1637SOL    HW216548   0.603   0.065   8.007  0.2658 -0.9024  2.4498
 1638SOL     OW16549   2.680   1.633   6.825  0.6876 -0.2525 -0.9866
 1638SOL    HW116550   2.769   1.662   6.843  0.3002 -0.7540  1.7578
 1638SOL    HW216551   2.666   1.568   6.894  2.8184 -0.5635 -0.8478
 1639SOL     OW16552   4.686   3.588   8.022 -0.4138  0.2447 -0.0412
 1639SOL    HW116553   4.644   3.655   7.967 -2.6447 -1.8252 -0.8869
 1639SOL    HW216554   4.610   3.530   8.028 -0.2275  0.0644  0.5566
 1640SOL     OW16555   3.291   3.952   1.051  0.1722  0.3002  0.6073
 1640SOL    HW116556   3.333   3.873   1.085  1.2429 -0.0062 -1.3999
 1640SOL    HW216557   3.278   4.006   1.128  1.0739  2.2800 -0.6444
 1641SOL     OW16558   3.210   3.698  10.270  0.3107 -0.4253  0.0337
 1641SOL    HW116559   3.282   3.639  10.246 -0.0821  0.2373 -2.8107
 1641SOL    HW216560   3.264   3.777  10.265 -0.6595  0.3216  1.3625
 1642SOL     OW16561   4.577   2.661   8.197 -0.5588 -0.3016  0.2598
 1642SOL    HW116562   4.640   2.639   8.129  0.7476 -0.9855  1.6817
 1642SOL    HW216563   4.627   2.653   8.278  0.6190  4.1238 -0.0302
 1643SOL     OW16564   4.388   3.725   9.806  0.2216  0.0379 -0.2237
 1643SOL    HW116565   4.317   3.760   9.752  1.8562 -1.5340 -3.3995
 1643SOL    HW216566   4.420   3.650   9.755 -1.8645  0.3570 -1.9872
 1644SOL     OW16567   0.333   1.074   4.162  0.3052  0.2663  0.0302
 1644SOL    HW116568   0.287   1.036   4.237  1.2696 -0.5023  0.2298
 1644SOL    HW216569   0.420   1.046   4.190  0.4066  2.1202  1.5734
 1645SOL     OW16570   1.051   4.561   3.801  0.1358 -0.1483  0.8369
 1645SOL    HW116571   0.967   4.584   3.763 -0.3218 -1.0681  1.2842
 1645SOL    HW216572   1.054   4.595   3.890  1.7831  1.8142  0.0455
 1646SOL     OW16573   0.674   3.176  10.701 -0.4292  0.1769  0.4124
 1646SOL    HW116574   0.744   3.112  10.694 -0.8688 -0.3577  0.8422
 1646SOL    HW216575   0.614   3.140  10.767 -0.9226  1.2784  0.5626
 1647SOL     OW16576   3.677   3.966   3.046  0.6288  0.0549 -0.3280
 1647SOL    HW116577   3.726   4.047   3.059  0.8923 -0.1420 -0.1016
 1647SOL    HW216578   3.628   3.994   2.969 -0.3468 -0.0807  0.2507
 1648SOL     OW16579   4.592   4.277  12.387  0.4443 -0.4597 -0.1572
 1648SOL    HW116580   4.619   4.246  12.473 -1.1303 -1.8134 -0.1423
 1648SOL    HW216581   4.675   4.314  12.358  0.2869 -2.3077 -2.9674
 1649SOL     OW16582   1.699   2.573   6.911  0.1691  0.0099 -0.9686
 1649SOL    HW116583   1.745   2.656   6.923  2.9871 -1.6014 -0.4890
 1649SOL    HW216584   1.763   2.511   6.947 -0.3563  0.6485  1.0548
 1650SOL     OW16585   2.972   1.561   6.660  0.3393 -0.1888  0.6820
 1650SOL    HW116586   3.018   1.587   6.581 -1.5583 -1.0578 -0.6970
 1650SOL    HW216587   2.895   1.527   6.615  0.8724  0.3680 -0.6437
 1651SOL     OW16588   2.696   2.882   2.466  0.0810 -0.4086  0.5096
 1651SOL    HW116589   2.646   2.945   2.413  2.3552 -2.3714 -3.9975
 1651SOL    HW216590   2.634   2.885   2.539  0.2154  2.0520  0.5298
 1652SOL     OW16591   1.865   1.923   2.096  0.1467 -0.5364 -0.6767
 1652SOL    HW116592   1.910   1.996   2.141 -0.0695  0.6680 -2.4227
 1652SOL    HW216593   1.917   1.846   2.119 -1.8222 -1.7953 -0.4317
 1653SOL     OW16594   1.177   4.160   1.605 -0.5592 -0.0522 -0.2830
 1653SOL    HW116595   1.113   4.113   1.658  0.6497  0.4428  1.6145
 1653SOL    HW216596   1.249   4.164   1.668  0.8436 -1.1021 -1.8229
 1654SOL     OW16597   1.810   1.392   1.901  0.0812  0.0166  0.2535
 1654SOL    HW116598   1.753   1.363   1.972 -1.1831  2.0419  0.0779
 1654SOL    HW216599   1.755   1.427   1.831  0.6119  0.7199  0.1925
 1655SOL     OW16600   0.639   1.436  12.304 -0.0779  0.1499 -0.2417
 1655SOL    HW116601   0.589   1.362  12.338 -1.8021  1.4824  0.1032
 1655SOL    HW216602   0.568   1.501  12.300 -1.1343 -0.9690  0.5178
 1656SOL     OW16603   3.636   2.007   9.467 -0.4509  0.1341  0.0011
 1656SOL    HW116604   3.688   1.957   9.529 -0.0643  0.6130  0.0670
 1656SOL    HW216605   3.557   2.023   9.519 -1.2081 -0.6281 -0.9148
 1657SOL     OW16606   0.363   3.640   7.451  0.0842  0.0614 -0.5615
 1657SOL    HW116607   0.310   3.677   7.521  0.2462 -2.8733  1.1144
 1657SOL    HW216608   0.395   3.561   7.495 -2.1238 -0.9386 -0.7280
 1658SOL     OW16609   2.333   3.170   5.231 -0.1999 -0.2193 -0.2075
 1658SOL    HW116610   2.314   3.144   5.140 -0.0949 -0.9429 -0.0209
 1658SOL    HW216611   2.428   3.156   5.228 -0.4572 -1.8918 -0.5236
 1659SOL     OW16612   3.472   1.453   4.242  0.0820  0.0578  0.6268
 1659SOL    HW116613   3.567   1.465   4.238 -0.0916  2.3128  2.9646
 1659SOL    HW216614   3.459   1.511   4.318  1.8763  1.0154  0.1974
 1660SOL     OW16615   1.018   4.182   1.963  0.2181 -0.5265 -0.6187
 1660SOL    HW116616   1.010   4.271   1.929 -1.1593 -0.2304  0.4672
 1660SOL    HW216617   1.099   4.183   2.013  0.3937 -3.2321 -0.8371
 1661SOL     OW16618   1.200   0.884  10.090 -0.3051  0.6433  0.2170
 1661SOL    HW116619   1.210   0.815  10.156 -0.9332 -0.9769 -1.3856
 1661SOL    HW216620   1.132   0.841  10.039 -0.6432  0.0617  1.1621
 1662SOL     OW16621   2.230   0.436   7.631  0.4729  0.0882 -0.1974
 1662SOL    HW116622   2.144   0.406   7.604 -0.0529 -0.3193  1.9306
 1662SOL    HW216623   2.252   0.509   7.572  0.2386  0.5529  0.2893
 1663SOL     OW16624   0.300   0.348  13.815 -0.1602 -0.6628 -0.1855
 1663SOL    HW116625   0.321   0.295  13.892  1.9590  1.5769  0.7725
 1663SOL    HW216626   0.362   0.312  13.752  0.2440 -1.7085  0.8170
 1664SOL     OW16627   3.245   2.721  16.758  0.4272  0.2004 -0.2047
 1664SOL    HW116628   3.228   2.632  16.788 -0.0412  0.0248 -0.9873
 1664SOL    HW216629   3.180   2.734  16.689 -0.3920  1.2328  0.7643
 1665SOL     OW16630   2.874   3.997   3.677  0.3026 -0.3356  0.2200
 1665SOL    HW116631   2.863   3.970   3.586 -1.9500  1.4672 -0.0205
 1665SOL    HW216632   2.783   3.989   3.703  0.4600  1.0488  1.1379
 1666SOL     OW16633   0.942   3.689   4.468  0.4273  0.1694  0.6852
 1666SOL    HW116634   0.968   3.701   4.559  0.8770  1.9213  0.3140
 1666SOL    HW216635   0.960   3.598   4.445 -1.1997  0.2269 -0.8147
 1667SOL     OW16636   0.895   1.051  11.645 -0.3097 -0.0826 -0.5567
 1667SOL    HW116637   0.814   1.002  11.657  0.1811 -1.1559 -1.5000
 1667SOL    HW216638   0.939   1.010  11.570 -1.4508  1.5223 -2.0886
 1668SOL     OW16639   0.716   4.398  12.446  0.1881  0.0620  0.5661
 1668SOL    HW116640   0.725   4.326  12.508  1.5529  0.0991  0.4006
 1668SOL    HW216641   0.620   4.393  12.439  0.4406 -3.3918 -0.6533
 1669SOL     OW16642   3.611   1.997   3.687  0.3810  0.4828 -0.0175
 1669SOL    HW116643   3.690   2.034   3.646 -0.5496 -1.5479 -3.6396
 1669SOL    HW216644   3.576   2.069   3.739  0.9134  1.3911 -0.8964
 1670SOL     OW16645   4.341   1.629  13.937  0.1462 -0.3864  0.0916
 1670SOL    HW116646   4.257   1.646  13.979 -0.5287 -3.4086 -0.0260
 1670SOL    HW216647   4.315   1.635  13.845  3.4994  0.9032 -0.7693
 1671SOL     OW16648   4.084   3.592   2.466 -0.4608  0.2107  0.8061
 1671SOL    HW116649   4.161   3.644   2.442  0.8699 -1.5012  1.3094
 1671SOL    HW216650   4.120   3.508   2.436 -1.3895  0.0165  0.2527
 1672SOL     OW16651   4.694   2.209   9.088 -0.5662 -0.2059  0.7234
 1672SOL    HW116652   0.040   2.235   9.126 -1.1259  1.0819  1.0646
 1672SOL    HW216653   4.716   2.177   9.000  3.1458  0.4350  1.3884
 1673SOL     OW16654   0.156   1.380   6.139  0.3643 -0.1956 -0.8497
 1673SOL    HW116655   0.242   1.420   6.151 -0.7839  2.7232 -2.2877
 1673SOL    HW216656   0.172   1.286   6.148  1.1976  0.0419  0.2140
 1674SOL     OW16657   0.910   4.093   2.858  0.0920  0.1993 -0.2538
 1674SOL    HW116658   0.968   4.048   2.796  0.7492 -0.9046  1.1497
 1674SOL    HW216659   0.954   4.177   2.869  2.0345 -0.9230  0.6040
 1675SOL     OW16660   1.622   3.988   1.153  0.0633 -0.2610  0.3566
 1675SOL    HW116661   1.639   3.907   1.202  0.9443  0.6098  1.4873
 1675SOL    HW216662   1.570   4.033   1.220 -0.0833 -1.3635  0.9755
 1676SOL     OW16663   4.559   2.566   7.846  0.2696  0.0014 -0.4724
 1676SOL    HW116664   4.556   2.476   7.879  0.5034 -0.6806 -2.3247
 1676SOL    HW216665   4.653   2.578   7.837  0.4066  0.8280  2.0794
 1677SOL     OW16666   0.811   0.872   5.515  0.3725 -0.1314  0.1269
 1677SOL    HW116667   0.751   0.893   5.586  0.5737 -1.3541  0.6565
 1677SOL    HW216668   0.867   0.950   5.511 -0.8283  0.7016 -0.6244
 1678SOL     OW16669   0.769   0.034  16.229  0.2569  0.2405  0.3092
 1678SOL    HW116670   0.855   0.061  16.261  0.3651  0.3884 -0.1016
 1678SOL    HW216671   0.715   0.098  16.275  1.0352  0.0627  1.4664
 1679SOL     OW16672   3.897   3.988   9.516 -0.0600 -0.1453  0.1898
 1679SOL    HW116673   3.956   4.008   9.589  1.2876 -1.3698 -0.5585
 1679SOL    HW216674   3.866   4.075   9.493 -0.5479 -0.4468 -0.3002
 1680SOL     OW16675   3.251   0.350   5.310 -0.4882 -0.8807 -0.3298
 1680SOL    HW116676   3.317   0.283   5.295 -0.7542 -1.7020  2.2762
 1680SOL    HW216677   3.194   0.308   5.245  0.0493 -2.4098  0.1724
 1681SOL     OW16678   0.466   2.264   1.604  0.2036 -0.0206  0.3310
 1681SOL    HW116679   0.424   2.178   1.603 -0.8832  0.5081  1.2574
 1681SOL    HW216680   0.462   2.286   1.511 -1.6920  1.2478  0.7133
 1682SOL     OW16681   0.280   0.905  13.170  0.3433 -0.0171  0.2997
 1682SOL    HW116682   0.200   0.898  13.222 -1.3615  0.3949 -2.3007
 1682SOL    HW216683   0.312   0.987  13.208 -1.4363  0.4485  0.7811
 1683SOL     OW16684   4.102   3.821   4.768 -0.3414  0.7040 -0.5995
 1683SOL    HW116685   4.165   3.749   4.781 -2.0018 -0.3493  1.6030
 1683SOL    HW216686   4.024   3.768   4.751 -0.7023  1.3848 -1.0133
 1684SOL     OW16687   2.697   3.139   2.365 -0.1131  0.1515  0.7149
 1684SOL    HW116688   2.630   3.207   2.374  0.1229  0.7734 -2.1943
 1684SOL    HW216689   2.685   3.102   2.277  0.8838 -0.5488  0.8684
 1685SOL     OW16690   3.329   2.022   2.637 -0.2006  0.2787 -0.2270
 1685SOL    HW116691   3.357   2.020   2.728 -2.2037 -0.8169  0.3556
 1685SOL    HW216692   3.359   2.110   2.615  0.3329 -0.2181 -1.4967
 1686SOL     OW16693   1.592   1.649   0.351 -0.1123  0.4912 -0.0519
 1686SOL    HW116694   1.621   1.731   0.311 -1.4502  0.9439 -0.0919
 1686SOL    HW216695   1.619   1.676   0.439  1.0213  2.6654 -1.0601
 1687SOL     OW16696   0.540   4.377  17.534 -0.4691 -0.5302  0.4720
 1687SOL    HW116697   0.623   4.352  17.494 -0.1688 -0.5125  1.0925
 1687SOL    HW216698   0.482   4.348  17.463 -0.5371 -1.2080  0.8051
 1688SOL     OW16699   3.227   3.185  12.072  0.1289  0.0334  0.1743
 1688SOL    HW116700   3.246   3.279  12.073  1.0481 -0.1641  1.7763
 1688SOL    HW216701   3.201   3.172  12.164 -1.9250  1.6719 -0.1735
 1689SOL     OW16702   1.593   2.845   4.916  0.8417  0.4669 -0.0535
 1689SOL    HW116703   1.604   2.779   4.985  0.7045  1.2977  0.7717
 1689SOL    HW216704   1.679   2.884   4.929  0.4852  0.8309  1.2826
 1690SOL     OW16705   0.367   2.767   7.182 -0.1817 -0.0849  0.0944
 1690SOL    HW116706   0.413   2.814   7.251 -0.7250 -0.3177  0.6075
 1690SOL    HW216707   0.357   2.834   7.115 -0.6688  1.7820  2.0572
 1691SOL     OW16708   0.943   3.918  11.622  0.0365  0.0753 -0.5448
 1691SOL    HW116709   0.955   3.835  11.576  2.5794  0.9801 -1.5172
 1691SOL    HW216710   0.992   3.979  11.567  2.3007 -0.5756  0.7278
 1692SOL     OW16711   0.189   1.773   6.669  0.1680 -0.3315 -0.2419
 1692SOL    HW116712   0.217   1.683   6.652  1.9997  0.1442  0.2596
 1692SOL    HW216713   0.269   1.816   6.700 -0.5087  1.3390 -0.8295
 1693SOL     OW16714   0.951   1.359   6.381 -0.5792 -0.3418  0.1680
 1693SOL    HW116715   0.946   1.269   6.414 -1.0824 -0.6801 -0.8157
 1693SOL    HW216716   0.939   1.356   6.286  1.8092  1.5186 -0.1963
 1694SOL     OW16717   2.196   0.371  14.650 -0.1325 -0.5168  0.1084
 1694SOL    HW116718   2.133   0.406  14.586 -0.2065 -0.8986 -0.0285
 1694SOL    HW216719   2.191   0.276  14.639 -1.7077 -0.4156 -0.1019
 1695SOL     OW16720   2.596   0.056   2.050  0.2864 -0.0563 -0.1733
 1695SOL    HW116721   2.578   0.058   1.956 -1.1408  2.4569  0.1166
 1695SOL    HW216722   2.622   0.147   2.069 -1.8545  0.8266 -1.4622
 1696SOL     OW16723   4.143   2.877  16.058 -0.4109  0.1037 -0.3204
 1696SOL    HW116724   4.089   2.867  16.136  1.8653  0.5759  1.3114
 1696SOL    HW216725   4.118   2.801  16.005  0.0579 -1.1998  1.3624
 1697SOL     OW16726   4.610   1.568   2.203  0.1390  0.7455  0.1877
 1697SOL    HW116727   4.545   1.497   2.208 -0.4631  1.1926 -1.2197
 1697SOL    HW216728   4.648   1.551   2.116 -0.5154 -1.2484  0.2767
 1698SOL     OW16729   4.087   0.010   5.848  0.2362  0.2008  0.5955
 1698SOL    HW116730   4.148   4.687   5.806 -1.2479 -1.2807  0.6189
 1698SOL    HW216731   4.009   4.699   5.825  0.3576  0.8175 -1.0986
 1699SOL     OW16732   0.478   4.116   1.103  0.0075  0.8181 -0.1960
 1699SOL    HW116733   0.528   4.038   1.080  2.1422  1.4872  2.2226
 1699SOL    HW216734   0.402   4.118   1.045  0.8196  1.1590 -1.2563
 1700SOL     OW16735   1.097   1.712   7.292  0.3295 -0.3067 -0.1927
 1700SOL    HW116736   1.118   1.741   7.381 -2.9755  1.9056 -0.1471
 1700SOL    HW216737   1.145   1.629   7.292  0.1626 -0.3988 -0.8818
 1701SOL     OW16738   3.574   3.837  17.066 -0.0095 -0.3710  0.1638
 1701SOL    HW116739   3.574   3.909  17.129 -1.6085 -0.3537  0.1365
 1701SOL    HW216740   3.484   3.846  17.037  0.3390 -1.3901 -1.2339
 1702SOL     OW16741   1.386   2.203   2.615 -0.4184 -0.2383 -0.4041
 1702SOL    HW116742   1.377   2.108   2.612 -0.1648 -0.2742 -0.1506
 1702SOL    HW216743   1.322   2.231   2.550  0.4511 -0.7871 -1.4837
 1703SOL     OW16744   1.542   2.544  11.874  0.0009 -0.1513  0.1861
 1703SOL    HW116745   1.573   2.454  11.865  2.6146  0.9866 -1.8457
 1703SOL    HW216746   1.570   2.569  11.962 -0.3933 -2.6549  1.0498
 1704SOL     OW16747   4.490   0.574   3.038  0.0378 -0.2563  0.4197
 1704SOL    HW116748   4.398   0.577   3.067  0.2026  0.7208  0.8603
 1704SOL    HW216749   4.540   0.579   3.120 -0.3082 -0.7811  0.6654
 1705SOL     OW16750   4.518   3.327   5.410  0.1771  0.0912  0.0744
 1705SOL    HW116751   4.594   3.272   5.431  1.1360  2.1779  2.1587
 1705SOL    HW216752   4.473   3.327   5.495  1.7680 -0.3740  0.9268
 1706SOL     OW16753   1.103   2.248  17.389 -0.0767 -0.7552 -0.6107
 1706SOL    HW116754   1.086   2.173  17.446  1.0661 -0.0363  0.6833
 1706SOL    HW216755   1.015   2.287  17.386  0.7785  1.3474  1.6210
 1707SOL     OW16756   4.051   1.078   7.233  0.0320  0.2971 -0.0260
 1707SOL    HW116757   4.098   1.034   7.162 -3.4121 -1.9846 -0.9325
 1707SOL    HW216758   3.965   1.096   7.194 -0.5971  1.2323  1.8041
 1708SOL     OW16759   2.075   2.898   6.708  0.1016 -0.3041 -0.3389
 1708SOL    HW116760   2.159   2.855   6.719  0.3689  0.4606  0.5930
 1708SOL    HW216761   2.070   2.937   6.795 -0.4412 -0.0578 -0.4785
 1709SOL     OW16762   0.565   1.831  10.662  0.4619  0.0465 -0.6794
 1709SOL    HW116763   0.486   1.864  10.618 -0.2576 -3.2641 -1.8276
 1709SOL    HW216764   0.561   1.736  10.660  0.8514 -0.0192  1.4353
 1710SOL     OW16765   4.577   3.153   6.842  0.2111 -0.4450  0.1400
 1710SOL    HW116766   4.612   3.132   6.928 -2.0875 -0.2332  1.1086
 1710SOL    HW216767   4.583   3.071   6.793  0.4265 -0.6232  0.4662
 1711SOL     OW16768   2.690   3.886  16.674 -0.0317  0.2463 -0.2704
 1711SOL    HW116769   2.774   3.844  16.693 -0.4116 -0.9537 -1.2268
 1711SOL    HW216770   2.702   3.965  16.727  3.0263  1.7115 -3.1621
 1712SOL     OW16771   4.665   2.118   2.254 -0.3542  0.1411 -0.2002
 1712SOL    HW116772   0.002   2.176   2.259 -0.8193  0.8524 -1.4877
 1712SOL    HW216773   4.619   2.155   2.179 -2.7155  0.9012  1.6019
 1713SOL     OW16774   4.644   0.125   2.907 -0.1028  0.2669  0.4389
 1713SOL    HW116775   4.703   0.057   2.872 -2.4817 -0.6337 -1.7625
 1713SOL    HW216776   4.640   0.097   2.999  0.5251 -0.3113  0.2960
 1714SOL     OW16777   1.658   1.499   6.372 -0.3789  0.1789  0.5559
 1714SOL    HW116778   1.584   1.537   6.418 -0.0717 -1.8954  2.7337
 1714SOL    HW216779   1.715   1.497   6.449 -0.8329  1.6374  0.9217
 1715SOL     OW16780   3.506   4.660   8.581  0.0823 -0.6646  0.9222
 1715SOL    HW116781   3.581   4.715   8.557 -2.4970  1.4683 -2.2905
 1715SOL    HW216782   3.436   4.723   8.598  1.4300  0.6541  1.6029
 1716SOL     OW16783   0.153   0.633   6.221 -0.2620  0.6682 -0.3927
 1716SOL    HW116784   0.211   0.556   6.216 -1.2745  0.0078 -2.2592
 1716SOL    HW216785   0.095   0.598   6.288  0.2082  0.7673  0.0630
 1717SOL     OW16786   4.400   1.758   3.794 -0.4211 -0.4129  0.0451
 1717SOL    HW116787   4.367   1.699   3.862 -0.6198  1.2140  1.3722
 1717SOL    HW216788   4.374   1.708   3.717  1.1934 -0.2060 -0.6185
 1718SOL     OW16789   0.218   0.454   7.624 -0.0931  0.3402 -0.8452
 1718SOL    HW116790   0.197   0.435   7.716 -0.2434  0.7743 -0.7913
 1718SOL    HW216791   0.184   0.543   7.619  0.3993  0.7054  2.2322
 1719SOL     OW16792   1.957   0.359   3.088  0.1553 -0.5950  0.4595
 1719SOL    HW116793   2.042   0.383   3.124  0.1480  2.4978 -1.5980
 1719SOL    HW216794   1.909   0.433   3.124  1.3793  1.7859 -2.7895
 1720SOL     OW16795   2.824   2.708  11.203 -0.2723 -0.5300 -0.1467
 1720SOL    HW116796   2.838   2.801  11.187  1.0797 -0.4406  1.6802
 1720SOL    HW216797   2.770   2.690  11.280  0.0805 -0.7744  0.0418
 1721SOL     OW16798   2.038   3.675   4.376 -0.0611 -0.0536 -0.3082
 1721SOL    HW116799   2.083   3.759   4.382 -2.9287  1.3116  2.3119
 1721SOL    HW216800   2.074   3.634   4.297  1.3844  0.0706  0.2736
 1722SOL     OW16801   3.049   4.412   5.913  0.3810 -0.3836 -0.2810
 1722SOL    HW116802   3.141   4.396   5.891  0.4629 -0.9101  0.4544
 1722SOL    HW216803   3.025   4.495   5.872  0.2477 -0.6010 -0.6470
 1723SOL     OW16804   4.681   2.684  10.272  0.8715 -0.4956 -0.7505
 1723SOL    HW116805   0.035   2.687  10.247  1.5600 -1.5854  1.7132
 1723SOL    HW216806   4.671   2.716  10.362  1.2635 -4.7851  0.8232
 1724SOL     OW16807   0.504   4.091   3.808 -0.0990 -0.1490  0.3538
 1724SOL    HW116808   0.458   4.156   3.756  2.1771  1.3248  0.1632
 1724SOL    HW216809   0.449   4.014   3.802  2.5574 -1.9575 -0.9856
 1725SOL     OW16810   1.254   2.812   2.653 -0.0632 -0.5133  0.3762
 1725SOL    HW116811   1.186   2.750   2.680 -0.2962 -0.7692 -0.7755
 1725SOL    HW216812   1.328   2.783   2.706  0.5981 -1.0197 -0.8239
 1726SOL     OW16813   4.146   3.776  10.659  0.1273 -0.7296 -0.1246
 1726SOL    HW116814   4.054   3.781  10.684  0.5185  0.2024  1.1093
 1726SOL    HW216815   4.192   3.729  10.729 -0.9214 -1.5730 -0.0068
 1727SOL     OW16816   2.229   3.160   8.911  0.3080  0.1651  0.3351
 1727SOL    HW116817   2.285   3.082   8.912  0.0306 -0.0372 -0.3287
 1727SOL    HW216818   2.245   3.188   8.821 -1.4421  1.5879  0.4702
 1728SOL     OW16819   0.549   4.005   4.624  0.0088 -0.0822  0.1667
 1728SOL    HW116820   0.616   4.013   4.692  2.1066  0.4479 -1.9750
 1728SOL    HW216821   0.476   3.993   4.686 -0.3317 -3.4957 -0.8603
 1729SOL     OW16822   0.633   1.941   1.673  0.5371 -0.1778  0.2270
 1729SOL    HW116823   0.703   1.907   1.729  1.8441 -1.6130 -2.2901
 1729SOL    HW216824   0.560   1.881   1.692  0.3443  0.3638  1.2170
 1730SOL     OW16825   2.999   0.656   9.031 -0.1150 -0.4173 -0.2164
 1730SOL    HW116826   2.993   0.730   8.971  0.2921 -0.7050 -0.6130
 1730SOL    HW216827   3.039   0.594   8.970  2.0916  3.6904 -2.9931
 1731SOL     OW16828   0.587   3.803   3.629  0.1496 -0.6575  0.1693
 1731SOL    HW116829   0.628   3.771   3.709 -2.4525  2.1665  2.6119
 1731SOL    HW216830   0.548   3.889   3.643 -1.1030 -1.3100  0.6786
 1732SOL     OW16831   0.575   0.185   6.501 -0.3344 -0.0984  0.3364
 1732SOL    HW116832   0.564   0.102   6.547  1.4398 -0.6597 -0.2472
 1732SOL    HW216833   0.487   0.221   6.513 -0.5963 -0.6801  0.1371
 1733SOL     OW16834   3.947   3.465   4.274 -0.1946 -0.2809  0.0000
 1733SOL    HW116835   4.001   3.519   4.216  0.7512 -0.2718  0.8745
 1733SOL    HW216836   3.893   3.538   4.304 -0.1155 -0.5283  0.7352
 1734SOL     OW16837   4.541   3.373   6.557  0.4972 -0.1424  0.0001
 1734SOL    HW116838   4.629   3.372   6.518  0.8513  0.3973  0.7775
 1734SOL    HW216839   4.550   3.294   6.610  0.0988 -0.1689  0.0260
 1735SOL     OW16840   0.624   1.197  16.262 -0.1652 -0.2175 -0.3644
 1735SOL    HW116841   0.537   1.204  16.301  0.3204  2.0031  0.3474
 1735SOL    HW216842   0.609   1.255  16.187  1.4075 -1.2266 -1.4708
 1736SOL     OW16843   0.340   2.984   3.377 -0.2518 -0.1945  0.0812
 1736SOL    HW116844   0.273   2.927   3.340 -0.6922  0.4747 -0.1509
 1736SOL    HW216845   0.418   2.955   3.330 -1.4142 -1.4980 -1.0230
 1737SOL     OW16846   3.293   1.033   5.018  0.6620  0.0520  0.0366
 1737SOL    HW116847   3.265   1.094   4.950  0.9970  0.2277  0.0582
 1737SOL    HW216848   3.303   1.095   5.091  0.8094 -0.3745  0.3738
 1738SOL     OW16849   0.490   2.551  15.914 -0.3614 -0.1008 -0.1918
 1738SOL    HW116850   0.516   2.468  15.873  2.3023  1.1653 -1.0776
 1738SOL    HW216851   0.487   2.612  15.841 -0.1358  0.5706  0.3597
 1739SOL     OW16852   0.015   2.794   8.890  0.4918 -0.3999 -0.3573
 1739SOL    HW116853   0.073   2.864   8.919 -0.5704 -0.1558  1.1254
 1739SOL    HW216854   0.023   2.730   8.961  0.3391 -0.5749 -0.4948
 1740SOL     OW16855   1.286   3.735   4.101  0.0981 -0.1956  0.1690
 1740SOL    HW116856   1.294   3.652   4.148  0.0777 -0.2091  0.1482
 1740SOL    HW216857   1.342   3.787   4.159 -0.7026 -1.0311  1.6911
 1741SOL     OW16858   3.595   1.973   5.059  0.0727  0.0252  0.0310
 1741SOL    HW116859   3.538   1.971   5.136 -0.4306  2.5914 -0.2865
 1741SOL    HW216860   3.676   2.001   5.102 -0.4904  0.4046  0.8274
 1742SOL     OW16861   1.177   0.076   4.430  0.1390 -0.3696  0.4625
 1742SOL    HW116862   1.243   0.118   4.485 -0.2065 -1.3757  1.6636
 1742SOL    HW216863   1.216   0.088   4.343  1.4758 -1.8917  0.8409
 1743SOL     OW16864   4.729   0.263   2.470  0.2049 -0.4891  0.2264
 1743SOL    HW116865   4.646   0.310   2.470 -0.8764 -2.4447  0.1325
 1743SOL    HW216866   0.015   0.265   2.378 -1.6977  0.2830 -0.2445
 1744SOL     OW16867   1.660   3.691   4.271  0.2938  0.7047 -0.3669
 1744SOL    HW116868   1.658   3.600   4.242 -1.0908 -0.6372  3.8283
 1744SOL    HW216869   1.752   3.717   4.280  0.9503 -2.0269  1.2078
 1745SOL     OW16870   1.199   2.081  11.701 -0.2867 -0.3998  0.2544
 1745SOL    HW116871   1.195   1.986  11.689 -0.0088 -0.3565 -0.1878
 1745SOL    HW216872   1.226   2.098  11.791  2.2838  0.8098 -0.7242
 1746SOL     OW16873   3.859   0.086   9.181  0.3296 -0.2733 -0.4521
 1746SOL    HW116874   3.801   0.010   9.179 -0.1967  0.0683  2.1369
 1746SOL    HW216875   3.936   0.040   9.146  0.9458 -2.1818  3.4454
 1747SOL     OW16876   1.753   2.492   0.089 -0.4667  0.5781  0.5930
 1747SOL    HW116877   1.848   2.492   0.103 -0.5433  0.6925  1.1341
 1747SOL    HW216878   1.743   2.526   0.000  1.8677 -0.9457 -0.2623
 1748SOL     OW16879   2.953   3.573  17.525  0.1833 -0.0230 -0.1230
 1748SOL    HW116880   3.033   3.627  17.525 -0.5659  1.1107 -2.2868
 1748SOL    HW216881   2.896   3.637  17.568  1.1849 -0.7127  2.2327
 1749SOL     OW16882   0.924   4.494   8.953 -0.3275  0.2615 -0.5450
 1749SOL    HW116883   0.879   4.512   9.035 -0.2335  1.6801 -0.8002
 1749SOL    HW216884   0.949   4.402   8.947  0.8169  0.4201  1.9254
 1750SOL     OW16885   3.432   4.399  16.381  1.0671 -0.2459  0.0064
 1750SOL    HW116886   3.364   4.462  16.360  0.3130 -0.7895  0.7970
 1750SOL    HW216887   3.398   4.337  16.446  2.1033 -2.2990 -1.4008
 1751SOL     OW16888   1.755   2.278   9.988  0.1768 -0.2056 -0.3342
 1751SOL    HW116889   1.795   2.250  10.070 -2.2499 -0.2489  0.8139
 1751SOL    HW216890   1.678   2.327  10.018 -0.4519 -1.3732 -0.0712
 1752SOL     OW16891   2.302   0.346  16.992  0.1674 -0.3769  0.0529
 1752SOL    HW116892   2.329   0.261  17.026  1.5172 -0.0996 -0.3194
 1752SOL    HW216893   2.361   0.404  17.039  1.2843  0.2198 -2.0946
 1753SOL     OW16894   2.625   0.764   5.299 -0.4588 -0.0322  0.0180
 1753SOL    HW116895   2.613   0.744   5.206  0.6493 -1.0076  0.0976
 1753SOL    HW216896   2.683   0.839   5.286 -0.3831 -0.2302 -0.7884
 1754SOL     OW16897   1.450   3.854   4.286 -0.2597 -0.0296 -0.1017
 1754SOL    HW116898   1.419   3.833   4.374  1.4274 -0.4522  0.4033
 1754SOL    HW216899   1.528   3.798   4.278 -0.0799  0.2717 -0.4265
 1755SOL     OW16900   2.326   1.820   3.175  0.8904 -0.2247  0.7462
 1755SOL    HW116901   2.382   1.745   3.157 -0.2417 -0.9375  0.2035
 1755SOL    HW216902   2.357   1.876   3.103 -0.5785 -1.5405 -0.8847
 1756SOL     OW16903   1.283   2.461   5.078 -0.1684  0.1477 -0.6187
 1756SOL    HW116904   1.338   2.478   5.155 -0.4878  0.9140 -0.5590
 1756SOL    HW216905   1.239   2.382   5.111  2.2184 -0.3104  1.5066
 1757SOL     OW16906   2.082   3.144   5.622  0.0947 -0.0913  0.2900
 1757SOL    HW116907   1.993   3.109   5.613  0.1271 -0.0429 -0.2054
 1757SOL    HW216908   2.096   3.185   5.537 -0.9928  1.4461  0.8438
 1758SOL     OW16909   4.416   0.857   1.035 -0.5723  0.0828  0.0832
 1758SOL    HW116910   4.437   0.940   0.991 -1.1958  1.7825  2.9955
 1758SOL    HW216911   4.483   0.852   1.104  1.0907 -0.8175 -1.5961
 1759SOL     OW16912   2.388   1.513   1.857 -0.0562  0.0366 -0.7529
 1759SOL    HW116913   2.317   1.565   1.893  2.1034  1.9898  0.6777
 1759SOL    HW216914   2.434   1.502   1.940 -0.0028 -0.5323 -0.8571
 1760SOL     OW16915   2.378   3.571  15.775  0.0761 -0.4434  0.1922
 1760SOL    HW116916   2.309   3.635  15.755 -0.2860 -1.1496 -0.8493
 1760SOL    HW216917   2.442   3.586  15.705  0.2321 -0.8243  0.2515
 1761SOL     OW16918   0.868   2.709   7.603 -0.1604  0.1169 -0.1782
 1761SOL    HW116919   0.880   2.622   7.642 -0.7248  0.5086  0.8870
 1761SOL    HW216920   0.792   2.733   7.656 -1.1721  0.5775 -1.8295
 1762SOL     OW16921   2.673   3.302   3.935  0.1238  0.0375  0.6240
 1762SOL    HW116922   2.599   3.290   3.994  0.0296  1.8513  0.8775
 1762SOL    HW216923   2.665   3.220   3.887 -2.3728  1.8076 -1.9825
 1763SOL     OW16924   3.055   0.193   6.947 -0.9350  0.2951 -0.5826
 1763SOL    HW116925   3.041   0.099   6.944 -0.7218  0.2817 -1.3148
 1763SOL    HW216926   3.099   0.198   7.031 -1.6201 -0.9214 -0.1613
 1764SOL     OW16927   3.370   2.902   0.469 -0.5496 -0.2431  0.0433
 1764SOL    HW116928   3.408   2.892   0.556 -1.2490  1.8630  0.5881
 1764SOL    HW216929   3.342   2.993   0.475 -0.2169 -0.1250 -0.1792
 1765SOL     OW16930   2.032   1.980  15.638  0.0903 -0.8332  0.2417
 1765SOL    HW116931   2.063   2.070  15.637  0.6234 -1.0250 -0.4503
 1765SOL    HW216932   1.938   1.999  15.631  0.3423  1.0465  1.9351
 1766SOL     OW16933   2.224   0.946   1.906 -0.3005  0.2369  0.2054
 1766SOL    HW116934   2.170   0.870   1.884 -0.9489  0.5550  0.6692
 1766SOL    HW216935   2.162   1.017   1.889  0.9781  0.7088 -2.4938
 1767SOL     OW16936   3.565   1.324  15.913 -0.1127  0.1710 -0.1738
 1767SOL    HW116937   3.524   1.404  15.946  0.0170  0.5470 -0.9270
 1767SOL    HW216938   3.534   1.262  15.978 -0.0150  0.9452  0.6148
 1768SOL     OW16939   3.592   1.720   7.060 -0.4110 -0.5013 -0.1980
 1768SOL    HW116940   3.675   1.673   7.048 -1.6098 -3.4016  2.7807
 1768SOL    HW216941   3.543   1.695   6.982  2.6487 -0.0859 -2.2440
 1769SOL     OW16942   3.916   3.497   4.924  0.6280  1.1910 -0.2626
 1769SOL    HW116943   3.998   3.527   4.963  1.2351 -1.9666  0.8523
 1769SOL    HW216944   3.927   3.406   4.950 -1.6233  0.7623 -0.8145
 1770SOL     OW16945   0.387   1.190   2.358  0.6261 -0.3930  0.0682
 1770SOL    HW116946   0.460   1.142   2.398  1.6321 -0.0158 -1.3151
 1770SOL    HW216947   0.422   1.224   2.276  1.7487 -2.4938 -0.3218
 1771SOL     OW16948   3.335   2.965   1.533 -0.2961 -0.1353 -0.3799
 1771SOL    HW116949   3.393   2.918   1.473  1.4119 -1.5844  2.4346
 1771SOL    HW216950   3.393   3.032   1.570 -1.1403 -0.1141  0.8852
 1772SOL     OW16951   0.916   2.212   4.987  0.1474 -0.4285 -0.7720
 1772SOL    HW116952   0.848   2.220   4.921 -0.7842  1.5389  0.4305
 1772SOL    HW216953   0.925   2.117   4.992 -1.7339 -0.5214  0.8380
 1773SOL     OW16954   4.224   2.479   7.484 -0.0352 -0.1954 -0.3543
 1773SOL    HW116955   4.183   2.507   7.403 -1.0864 -0.3695  0.1216
 1773SOL    HW216956   4.185   2.540   7.545 -1.0262  0.1210 -1.3147
 1774SOL     OW16957   4.146   2.860   3.695 -0.3360 -0.2135  0.1564
 1774SOL    HW116958   4.214   2.798   3.671 -1.1807 -0.7718 -0.8074
 1774SOL    HW216959   4.084   2.869   3.622  0.1527 -0.4371 -0.2846
 1775SOL     OW16960   3.931   0.225   8.793  0.4304 -0.1661  0.5482
 1775SOL    HW116961   3.874   0.284   8.744 -0.5834 -2.1228 -0.6321
 1775SOL    HW216962   3.877   0.149   8.815 -2.1760  1.7637  0.6918
 1776SOL     OW16963   1.555   2.968  15.854 -0.2359  0.2461 -0.3400
 1776SOL    HW116964   1.544   2.913  15.776  1.0146  1.2538 -1.2253
 1776SOL    HW216965   1.463   2.968  15.880  0.3773  2.8931  1.8474
 1777SOL     OW16966   1.171   1.458   7.355 -0.2032 -0.2930 -0.0838
 1777SOL    HW116967   1.147   1.387   7.295  0.7212  0.5635 -1.4775
 1777SOL    HW216968   1.267   1.458   7.363 -0.0735 -0.4804 -1.4979
 1778SOL     OW16969   1.243   4.237   7.160 -0.2074 -0.1064  0.0679
 1778SOL    HW116970   1.318   4.295   7.171  0.4064 -0.9183  0.1835
 1778SOL    HW216971   1.191   4.252   7.240  0.4826 -3.4036  1.1333
 1779SOL     OW16972   0.610   3.500   8.560  0.1587  0.7495  0.6805
 1779SOL    HW116973   0.556   3.422   8.548  1.1350 -0.1060  1.9835
 1779SOL    HW216974   0.567   3.547   8.487  0.3588  0.2560  0.2451
 1780SOL     OW16975   2.593   2.482   5.427 -0.0751 -0.6031 -0.2849
 1780SOL    HW116976   2.519   2.451   5.376 -0.0479  0.5572 -1.0109
 1780SOL    HW216977   2.540   2.544   5.477  1.1578 -0.6330  1.0537
 1781SOL     OW16978   4.280   1.673   9.551 -0.1715  0.5484  0.6532
 1781SOL    HW116979   4.329   1.741   9.597 -1.2607  1.0489  1.0718
 1781SOL    HW216980   4.244   1.719   9.475  0.8398  1.6608  0.8331
 1782SOL     OW16981   3.244   3.861  11.394 -0.0412  0.6060 -0.1032
 1782SOL    HW116982   3.245   3.899  11.306 -0.9353  0.8375 -0.0125
 1782SOL    HW216983   3.200   3.928  11.447 -0.7484  0.5120 -0.5689
 1783SOL     OW16984   0.374   1.328  14.069 -0.2228 -0.1561  0.3997
 1783SOL    HW116985   0.320   1.251  14.085  0.1498 -0.6612 -0.7958
 1783SOL    HW216986   0.323   1.404  14.096 -1.2009  0.1152 -2.2542
 1784SOL     OW16987   3.930   0.523   8.067  0.1369  0.1906 -0.0975
 1784SOL    HW116988   3.897   0.433   8.075 -0.7565  0.4150 -1.1884
 1784SOL    HW216989   4.002   0.526   8.129 -0.0009 -0.4419  0.0953
 1785SOL     OW16990   2.143   1.145   2.584  1.0366 -0.6849 -0.1480
 1785SOL    HW116991   2.092   1.148   2.666  1.1208  0.3498 -0.1316
 1785SOL    HW216992   2.220   1.093   2.605  2.1086  1.0098  0.1312
 1786SOL     OW16993   1.866   3.173   4.138  0.0711 -0.2426 -0.0375
 1786SOL    HW116994   1.783   3.179   4.186 -0.0897 -0.8395 -0.2379
 1786SOL    HW216995   1.845   3.117   4.063  1.2872 -2.4225  1.2338
 1787SOL     OW16996   0.577   0.403   9.783  0.0972 -0.5838  0.0971
 1787SOL    HW116997   0.585   0.326   9.840  1.1217 -0.7787 -0.3138
 1787SOL    HW216998   0.662   0.407   9.739  0.3413 -1.1335  0.5257
 1788SOL     OW16999   1.964   4.701   7.800 -0.2587 -0.1274 -0.5307
 1788SOL    HW117000   1.964   4.629   7.863 -0.5386  1.9246  1.7800
 1788SOL    HW217001   2.055   4.727   7.817 -0.8809  0.5872  1.6159
 1789SOL     OW17002   1.378   4.676   7.135 -0.0612 -0.2405  0.3429
 1789SOL    HW117003   1.429   4.707   7.210  1.0026  0.5108 -0.6992
 1789SOL    HW217004   1.441   4.671   7.063 -1.7283  0.7176 -1.1651
 1790SOL     OW17005   1.369   4.602   3.815 -0.1159  0.3467  0.0776
 1790SOL    HW117006   1.275   4.608   3.800 -0.0886 -1.6703 -0.9866
 1790SOL    HW217007   1.414   4.626   3.733  0.4414  0.2607  0.3567
 1791SOL     OW17008   2.352   4.311   7.944  0.7918  0.3906  0.7031
 1791SOL    HW117009   2.379   4.374   7.877 -0.5616 -1.1917 -1.3051
 1791SOL    HW217010   2.432   4.258   7.948  1.2127  0.9863  0.2330
 1792SOL     OW17011   2.116   3.587   4.132 -0.1782 -0.0465 -0.1466
 1792SOL    HW117012   2.091   3.626   4.049 -1.1507  1.0834  0.6844
 1792SOL    HW217013   2.202   3.556   4.106 -0.0994 -0.9779  1.1839
 1793SOL     OW17014   1.286   1.449   0.848 -0.3701 -0.6117  0.5177
 1793SOL    HW117015   1.295   1.423   0.756  1.1790 -3.0588  1.3732
 1793SOL    HW217016   1.371   1.417   0.876 -0.2357  1.1078  2.0233
 1794SOL     OW17017   0.843   2.057  15.201  0.4618 -0.1892 -0.1668
 1794SOL    HW117018   0.937   2.040  15.212  0.6041  0.5676 -0.1874
 1794SOL    HW217019   0.841   2.045  15.106 -1.1627  2.2249 -0.4376
 1795SOL     OW17020   3.568   3.233   8.451 -0.5444 -0.2579  0.0893
 1795SOL    HW117021   3.498   3.296   8.440 -0.0768  0.3607  0.6688
 1795SOL    HW217022   3.640   3.294   8.467 -1.5450  0.5676  1.3711
 1796SOL     OW17023   1.784   3.214   5.825  0.0239 -0.0894  0.4822
 1796SOL    HW117024   1.730   3.167   5.762  1.4570  1.1831 -1.7167
 1796SOL    HW217025   1.836   3.141   5.859 -0.9968 -0.3252  1.5014
 1797SOL     OW17026   0.632   3.958   8.319 -0.4118 -0.7350 -0.6824
 1797SOL    HW117027   0.687   4.003   8.256  0.5613  0.0231  0.7132
 1797SOL    HW217028   0.670   3.870   8.307 -1.5709 -1.4484  1.0007
 1798SOL     OW17029   1.998   1.712   2.180  0.5300  0.0146 -0.5971
 1798SOL    HW117030   1.933   1.710   2.250  0.7812 -0.9138 -0.3895
 1798SOL    HW217031   2.072   1.677   2.230 -1.1524  1.1628  2.6795
 1799SOL     OW17032   0.270   0.219   9.683  0.1601  0.1538  0.1896
 1799SOL    HW117033   0.275   0.140   9.737 -1.2942  0.2529  0.4630
 1799SOL    HW217034   0.342   0.273   9.718 -1.5099  2.1567  0.5305
 1800SOL     OW17035   1.446   1.813   3.652  0.4349  0.1572 -0.4249
 1800SOL    HW117036   1.438   1.779   3.563 -1.2758 -2.5621  0.7958
 1800SOL    HW217037   1.372   1.771   3.695  1.5704 -3.5669 -2.1303
 1801SOL     OW17038   2.356   4.626   0.390  0.4900 -0.1662  0.2478
 1801SOL    HW117039   2.427   4.676   0.430  1.4689 -1.2603 -0.0923
 1801SOL    HW217040   2.335   4.552   0.447 -0.3706 -2.5435 -3.1850
 1802SOL     OW17041   3.722   0.889   3.477 -0.6543  0.0542 -0.0910
 1802SOL    HW117042   3.678   0.974   3.475 -1.0729 -0.1842 -0.9140
 1802SOL    HW217043   3.799   0.909   3.531 -0.7312  0.6133 -0.1873
 1803SOL     OW17044   0.973   2.986   5.615 -0.0313  0.9385 -0.2876
 1803SOL    HW117045   0.981   2.935   5.534 -0.0417 -1.4390  1.2139
 1803SOL    HW217046   1.021   2.930   5.676 -1.2616  0.1416 -0.0298
 1804SOL     OW17047   1.337   3.701   6.197 -0.1138 -0.6167  0.0243
 1804SOL    HW117048   1.425   3.730   6.220 -0.5535 -0.1045  1.0545
 1804SOL    HW217049   1.355   3.688   6.104 -0.0749 -0.1349 -0.0313
 1805SOL     OW17050   2.083   4.439   5.520 -0.1080  0.1168  0.1962
 1805SOL    HW117051   1.994   4.402   5.517  0.2213 -0.6135 -0.6420
 1805SOL    HW217052   2.076   4.523   5.475 -0.4729 -0.8308 -1.5157
 1806SOL     OW17053   2.857   1.722  11.746 -0.4815 -0.4061 -0.0937
 1806SOL    HW117054   2.794   1.795  11.742  1.6679  1.5468  1.7280
 1806SOL    HW217055   2.937   1.771  11.764 -0.6609 -0.3826  0.6531
 1807SOL     OW17056   3.025   2.318   8.093 -0.0132  0.2451  0.3508
 1807SOL    HW117057   2.990   2.332   8.182 -0.7279 -1.7309  0.3805
 1807SOL    HW217058   3.002   2.226   8.079 -0.5329 -0.0000  2.7256
 1808SOL     OW17059   4.630   2.775   1.435  0.3553  0.2793  0.5419
 1808SOL    HW117060   4.641   2.738   1.522 -1.6000 -0.0945  0.6401
 1808SOL    HW217061   4.555   2.834   1.445 -0.3755 -0.4081 -0.8754
 1809SOL     OW17062   3.977   4.375   8.998 -0.0780 -0.1007 -0.3070
 1809SOL    HW117063   3.991   4.377   9.092 -1.4610  1.5331 -0.1417
 1809SOL    HW217064   3.947   4.284   8.997 -1.5849  0.4004  1.1521
 1810SOL     OW17065   0.483   3.594   5.455  0.0043 -0.1391 -0.0546
 1810SOL    HW117066   0.431   3.609   5.534 -0.6754  1.6800 -0.8574
 1810SOL    HW217067   0.476   3.682   5.418  0.2588 -1.7231 -3.8870
 1811SOL     OW17068   4.014   1.141   0.978  0.0312  0.2262  0.5550
 1811SOL    HW117069   4.023   1.051   0.945 -1.1924  0.1317  0.4770
 1811SOL    HW217070   4.102   1.167   1.004  0.9993 -1.0156 -1.4717
 1812SOL     OW17071   2.136   4.340  11.215 -0.0366  0.3106 -0.5145
 1812SOL    HW117072   2.059   4.322  11.269 -0.5322 -0.0064 -1.3247
 1812SOL    HW217073   2.100   4.412  11.162  0.3841  0.1648 -0.9989
 1813SOL     OW17074   4.734   3.164   8.492  0.1535 -0.0402 -0.2896
 1813SOL    HW117075   4.661   3.128   8.442  0.5636  1.4486 -1.9762
 1813SOL    HW217076   4.685   3.167   8.573  1.0682 -2.1867  0.3420
 1814SOL     OW17077   1.756   3.216   2.751  0.6022 -0.3098 -0.0208
 1814SOL    HW117078   1.771   3.272   2.674 -0.2616 -0.1439 -0.0735
 1814SOL    HW217079   1.808   3.260   2.818  1.2820  1.2131 -1.5211
 1815SOL     OW17080   2.692   1.307   2.994  0.3126 -0.0933  0.0887
 1815SOL    HW117081   2.643   1.304   3.076 -1.1129 -1.6980 -0.8282
 1815SOL    HW217082   2.624   1.260   2.946 -0.8316  0.5719  1.0512
 1816SOL     OW17083   3.552   1.704   9.139 -0.0196  0.6476  0.1560
 1816SOL    HW117084   3.499   1.724   9.061 -0.0528 -2.1331 -0.5198
 1816SOL    HW217085   3.598   1.787   9.151 -2.1585  2.0568 -1.2029
 1817SOL     OW17086   0.594   2.325   0.996 -0.3229 -0.0488 -0.7899
 1817SOL    HW117087   0.638   2.399   1.040  1.4897 -1.6162  0.0400
 1817SOL    HW217088   0.648   2.313   0.918 -1.1099  0.3239 -1.3847
 1818SOL     OW17089   2.343   2.000   5.302  0.2247  0.0281  0.0925
 1818SOL    HW117090   2.257   1.966   5.328 -0.8947  1.6465 -1.5139
 1818SOL    HW217091   2.344   2.073   5.364 -2.2705 -0.6891  0.9492
 1819SOL     OW17092   0.137   3.005   9.046  0.1792  0.2560 -0.2179
 1819SOL    HW117093   0.229   3.020   9.065 -0.4747 -0.1647  3.2433
 1819SOL    HW217094   0.115   3.098   9.031 -0.3059  0.0644 -0.6991
 1820SOL     OW17095   3.123   0.465   4.314  0.3375  0.7902  0.3007
 1820SOL    HW117096   3.160   0.447   4.227  1.1069 -1.1021  1.0093
 1820SOL    HW217097   3.193   0.445   4.376 -1.0786 -3.7988  0.4357
 1821SOL     OW17098   2.406   1.672  15.031  0.2007  0.3103 -0.2722
 1821SOL    HW117099   2.409   1.757  15.075  0.9186 -0.1123  0.5072
 1821SOL    HW217100   2.333   1.633  15.080 -0.4128 -0.6682 -1.9682
 1822SOL     OW17101   0.666   4.307   4.900 -0.0647  0.0902 -0.6114
 1822SOL    HW117102   0.761   4.293   4.904 -0.1564 -0.3245  0.0496
 1822SOL    HW217103   0.657   4.378   4.963  0.9545 -0.8707  0.6010
 1823SOL     OW17104   4.054   4.250   3.106  0.0875 -0.4420 -0.4630
 1823SOL    HW117105   4.095   4.241   3.192 -1.5046  1.0449  0.4483
 1823SOL    HW217106   4.131   4.284   3.060  0.6800  0.0589  0.9150
 1824SOL     OW17107   3.312   2.191   3.830 -0.3955 -0.6081  0.0542
 1824SOL    HW117108   3.256   2.203   3.753 -0.7491 -0.3104  0.3605
 1824SOL    HW217109   3.287   2.270   3.879  0.5035  0.2792 -0.9192
 1825SOL     OW17110   2.078   4.708   7.251  0.1639 -0.1503  0.4290
 1825SOL    HW117111   2.015   4.736   7.317 -0.8351  0.0969 -0.6439
 1825SOL    HW217112   2.028   4.725   7.171  1.6360 -1.0887 -0.6876
 1826SOL     OW17113   1.848   2.471  13.266 -0.2762 -0.7204  0.0639
 1826SOL    HW117114   1.908   2.508  13.201  1.3582 -1.6060  1.0672
 1826SOL    HW217115   1.914   2.452  13.332  0.8794  1.0533 -0.5793
 1827SOL     OW17116   0.859   2.453   7.391 -0.3612  0.2527  0.2270
 1827SOL    HW117117   0.931   2.393   7.413  0.5282  0.7861 -1.2026
 1827SOL    HW217118   0.916   2.525   7.364 -1.5745  1.0458 -0.1989
 1828SOL     OW17119   4.576   2.147   0.549  0.2712  0.2997 -0.1111
 1828SOL    HW117120   4.484   2.161   0.525  0.5194  1.1449 -0.5494
 1828SOL    HW217121   4.592   2.226   0.602 -0.9661  0.9149 -0.6609
 1829SOL     OW17122   4.053   3.076  15.898  0.0924 -0.0277 -0.1321
 1829SOL    HW117123   4.097   3.015  15.957  0.4962  0.8573  0.4858
 1829SOL    HW217124   3.971   3.026  15.895  1.2288 -1.8049 -1.1423
 1830SOL     OW17125   3.033   1.828   8.919 -0.2629  0.5713 -0.7464
 1830SOL    HW117126   2.986   1.755   8.879  1.1560 -0.9004  0.2451
 1830SOL    HW217127   3.084   1.798   8.994 -3.4800 -1.7113  0.5104
 1831SOL     OW17128   0.638   2.787   6.025  0.7447  0.1235  0.1599
 1831SOL    HW117129   0.565   2.815   5.970  0.4017  1.5072  1.3070
 1831SOL    HW217130   0.607   2.696   6.030  1.9576 -0.3063 -0.3165
 1832SOL     OW17131   4.252   3.852   5.775  0.7094 -0.1538 -0.5188
 1832SOL    HW117132   4.293   3.832   5.860  0.5818  3.8926  0.5057
 1832SOL    HW217133   4.181   3.788   5.777 -0.2965  0.9502 -1.9082
 1833SOL     OW17134   4.219   3.847   8.233 -0.6801  0.0838 -0.0471
 1833SOL    HW117135   4.192   3.877   8.146  0.7782 -0.0254 -0.5414
 1833SOL    HW217136   4.312   3.865   8.216 -1.0474 -0.3235 -2.4495
 1834SOL     OW17137   0.814   4.528   7.089  0.3922 -0.1980 -0.1666
 1834SOL    HW117138   0.823   4.437   7.118 -0.3782 -0.6480 -1.3571
 1834SOL    HW217139   0.844   4.577   7.165 -0.2708  0.2026 -0.1673
 1835SOL     OW17140   1.055   0.677  17.584 -0.2653 -0.0603 -0.0149
 1835SOL    HW117141   1.115   0.666  17.510  0.4475  2.6102  0.1376
 1835SOL    HW217142   1.034   0.771  17.579  0.1364  0.0209 -0.2233
 1836SOL     OW17143   4.088   0.674   7.831 -0.5151  0.3953 -0.5073
 1836SOL    HW117144   4.018   0.653   7.893  1.5066 -1.8821  1.0187
 1836SOL    HW217145   4.112   0.762   7.860 -0.1747  0.3766 -0.7381
 1837SOL     OW17146   0.133   3.110   2.981 -0.4661 -0.3626  0.1670
 1837SOL    HW117147   0.169   3.125   2.893 -1.0179 -2.8301 -0.4743
 1837SOL    HW217148   0.067   3.178   2.997 -0.1512 -0.5541  2.2229
 1838SOL     OW17149   1.774   1.359   5.965  0.0856  0.5335  0.1384
 1838SOL    HW117150   1.699   1.324   6.012  0.1073  0.3347  0.0251
 1838SOL    HW217151   1.813   1.430   6.017  2.2610  0.0257 -0.7810
 1839SOL     OW17152   2.018   3.361   8.002 -0.2187 -0.4598  0.1647
 1839SOL    HW117153   1.981   3.362   7.914  0.4368 -0.8128 -0.1161
 1839SOL    HW217154   2.108   3.330   7.993 -0.7356 -1.4793 -1.4363
 1840SOL     OW17155   0.153   2.516  13.470  0.7600 -0.5094 -0.4304
 1840SOL    HW117156   0.126   2.437  13.423  1.2435 -1.3562  0.7292
 1840SOL    HW217157   0.211   2.560  13.408 -0.9456  1.5690 -0.5662
 1841SOL     OW17158   0.646   1.219   6.762 -0.0334 -0.2339 -0.5521
 1841SOL    HW117159   0.591   1.169   6.821 -1.2605  0.4649 -1.1050
 1841SOL    HW217160   0.729   1.225   6.809 -1.1534 -2.1211  1.6287
 1842SOL     OW17161   4.095   2.255   1.046  1.0638 -0.0236  0.1016
 1842SOL    HW117162   4.102   2.348   1.024 -1.1473 -0.1584 -1.1773
 1842SOL    HW217163   4.017   2.222   1.001  1.3155 -0.1187 -0.2646
 1843SOL     OW17164   0.555   1.931   3.583 -0.1741 -0.1764 -0.7714
 1843SOL    HW117165   0.546   1.836   3.597 -1.1138  0.2058  1.3398
 1843SOL    HW217166   0.634   1.939   3.530  2.0137 -3.8610  1.8779
 1844SOL     OW17167   0.837   4.486   3.133 -0.1983  0.5474  0.2246
 1844SOL    HW117168   0.929   4.495   3.108  0.7208  2.8114  4.3257
 1844SOL    HW217169   0.831   4.399   3.172  0.2099  0.4796  0.1420
 1845SOL     OW17170   0.278   0.212   6.556 -0.1579  0.6909  0.0376
 1845SOL    HW117171   0.269   0.292   6.608 -1.4747 -0.1966  1.1655
 1845SOL    HW217172   0.241   0.152   6.620  2.3748 -0.4473  0.4309
 1846SOL     OW17173   2.351   2.464   8.934  0.0011  0.2286  0.2281
 1846SOL    HW117174   2.408   2.501   9.001 -0.3732  0.9810  0.1352
 1846SOL    HW217175   2.385   2.375   8.935 -1.3747 -0.2863  0.6996
 1847SOL     OW17176   1.887   4.338   4.458 -0.8125 -0.6792  0.1683
 1847SOL    HW117177   1.969   4.312   4.498 -0.3281 -0.3637 -0.6308
 1847SOL    HW217178   1.836   4.366   4.534 -0.7914 -0.0584 -0.0482
 1848SOL     OW17179   1.495   3.718  15.631 -0.4189  0.0800  0.2561
 1848SOL    HW117180   1.403   3.747  15.631 -0.5082 -0.2131 -0.2717
 1848SOL    HW217181   1.521   3.739  15.721 -2.4971  0.5768  0.7506
 1849SOL     OW17182   0.128   4.208   3.352 -0.4805 -0.2630  0.1928
 1849SOL    HW117183   0.153   4.267   3.281 -0.0787 -1.4421 -0.6380
 1849SOL    HW217184   0.086   4.131   3.314  1.5636 -1.3056  0.0311
 1850SOL     OW17185   2.278   1.910  17.467  0.3532 -0.5501 -0.2540
 1850SOL    HW117186   2.218   1.945  17.400  3.4474  1.6029 -1.9414
 1850SOL    HW217187   2.357   1.920  17.414  0.9747  0.6035  0.8922
 1851SOL     OW17188   2.447   0.690  14.629 -0.3758 -0.0634 -1.0992
 1851SOL    HW117189   2.363   0.675  14.584 -1.5259  1.6172  0.5255
 1851SOL    HW217190   2.506   0.727  14.563 -0.1359 -1.3639 -1.6147
 1852SOL     OW17191   0.213   1.729  11.399 -0.0882 -0.0527  0.1190
 1852SOL    HW117192   0.244   1.748  11.310 -0.2625 -0.0959  0.0488
 1852SOL    HW217193   0.128   1.690  11.377  0.0008 -1.3827  2.2269
 1853SOL     OW17194   0.453   1.598   0.840  0.2242 -0.2598  0.3021
 1853SOL    HW117195   0.426   1.627   0.752 -0.4697 -0.9985  0.2730
 1853SOL    HW217196   0.537   1.561   0.816 -1.1814 -2.4974 -1.1746
 1854SOL     OW17197   1.106   2.332  17.076 -0.1452 -0.0869 -0.3780
 1854SOL    HW117198   1.085   2.359  17.165 -1.6444  0.3899 -0.8784
 1854SOL    HW217199   1.198   2.354  17.062 -0.4533  0.1999 -1.9820
 1855SOL     OW17200   1.680   4.431  10.586  0.2458 -0.1124  0.4079
 1855SOL    HW117201   1.590   4.462  10.598  0.3992 -0.5513  2.7159
 1855SOL    HW217202   1.682   4.422  10.491  3.1420  2.0704  0.2701
 1856SOL     OW17203   1.171   0.012  16.679 -0.3323  0.8261 -0.1368
 1856SOL    HW117204   1.155   4.656  16.679 -0.1133  0.7935  0.8658
 1856SOL    HW217205   1.157   0.025  16.585  0.5521 -1.7751 -0.6324
 1857SOL     OW17206   3.965   1.142   2.191  0.2759 -0.7394  0.5422
 1857SOL    HW117207   4.019   1.143   2.270 -0.8679 -0.9591  1.3337
 1857SOL    HW217208   4.021   1.091   2.132  1.3075  1.3532 -0.2946
 1858SOL     OW17209   2.132   1.706   8.748 -0.1444 -0.4199 -0.4489
 1858SOL    HW117210   2.144   1.756   8.668 -2.4687  1.8928  0.6585
 1858SOL    HW217211   2.084   1.628   8.719  2.2266 -2.3724  0.8977
 1859SOL     OW17212   0.932   1.130   6.511  0.2296 -0.1759  0.1358
 1859SOL    HW117213   0.984   1.051   6.496  0.7826  0.1322  0.4041
 1859SOL    HW217214   0.842   1.100   6.508 -0.1942  0.8867  2.2473
 1860SOL     OW17215   1.989   3.868  11.012  0.0953  0.2872 -0.1645
 1860SOL    HW117216   1.945   3.940  11.056 -2.0389 -0.1986 -1.4945
 1860SOL    HW217217   2.065   3.917  10.983  0.9703 -1.0109 -0.0725
 1861SOL     OW17218   4.057   3.908  15.022  0.5282 -0.2720 -0.1073
 1861SOL    HW117219   4.137   3.959  15.003  0.5837  0.1592  1.3057
 1861SOL    HW217220   4.001   3.966  15.074 -0.6732 -0.8829 -0.7243
 1862SOL     OW17221   2.457   3.882   1.258  0.1098  0.0556 -0.6972
 1862SOL    HW117222   2.397   3.814   1.289  0.1112  0.0956 -0.6085
 1862SOL    HW217223   2.456   3.932   1.339  2.8979  1.1393 -1.3531
 1863SOL     OW17224   0.153   2.316  13.951 -0.0517 -1.0672  0.0212
 1863SOL    HW117225   0.108   2.322  13.867  2.6597  2.1519 -1.2278
 1863SOL    HW217226   0.164   2.407  13.978  0.2751 -1.7240  2.1316
 1864SOL     OW17227   3.258   4.116   2.021 -0.1236  0.1490 -0.0540
 1864SOL    HW117228   3.196   4.043   2.025  0.0758 -0.0092  0.1633
 1864SOL    HW217229   3.197   4.188   2.003 -1.4258 -0.7426  0.7219
 1865SOL     OW17230   2.917   4.135   2.040  0.2703 -0.9332  0.4737
 1865SOL    HW117231   2.907   4.039   2.042 -1.0587 -0.8586 -1.5049
 1865SOL    HW217232   2.822   4.150   2.044  0.2879 -0.7643  0.2659
 1866SOL     OW17233   0.086   1.985   2.502 -0.2312  0.2444  0.0991
 1866SOL    HW117234   0.003   1.986   2.549 -0.7183 -1.1683 -0.7085
 1866SOL    HW217235   0.054   1.995   2.412  1.6286 -1.2281 -0.7479
 1867SOL     OW17236   1.115   4.561  11.899 -0.1735  0.1978 -0.3258
 1867SOL    HW117237   1.063   4.483  11.880  0.6094 -0.2902 -0.4520
 1867SOL    HW217238   1.206   4.532  11.895 -0.0044  0.9410 -1.6070
 1868SOL     OW17239   4.406   3.433   4.205  0.3987  0.0801  0.4491
 1868SOL    HW117240   4.463   3.507   4.224  0.5081 -0.0867  0.7764
 1868SOL    HW217241   4.324   3.468   4.239 -0.4709  1.0864 -2.6505
 1869SOL     OW17242   0.812   0.108   6.084 -0.4068  0.2466 -0.2274
 1869SOL    HW117243   0.725   0.080   6.057 -1.9925  0.2742  4.7755
 1869SOL    HW217244   0.796   0.170   6.156 -2.2365  0.3705 -0.7442
 1870SOL     OW17245   1.924   0.728   6.232 -0.0302  0.5202 -0.9237
 1870SOL    HW117246   1.844   0.690   6.268  0.1226 -0.2284 -1.3737
 1870SOL    HW217247   1.940   0.804   6.288 -0.7422 -0.1584  0.1947
 1871SOL     OW17248   4.296   3.669  15.321 -0.2861 -0.0013  0.5753
 1871SOL    HW117249   4.278   3.600  15.386  0.1863  2.5384  3.4095
 1871SOL    HW217250   4.384   3.699  15.345  0.1399  1.3431 -2.7066
 1872SOL     OW17251   2.071   1.326   6.856 -0.3158 -0.7560  0.4552
 1872SOL    HW117252   1.988   1.281   6.871 -0.9287  0.1584 -0.2303
 1872SOL    HW217253   2.129   1.277   6.914  0.7938 -0.2287 -0.2078
 1873SOL     OW17254   4.373   1.335   7.141  0.2855 -0.4862 -0.3659
 1873SOL    HW117255   4.313   1.377   7.080  0.7321 -1.1663 -1.2764
 1873SOL    HW217256   4.462   1.339   7.105  0.6770  1.3594  0.7903
 1874SOL     OW17257   3.516   4.452   5.711 -0.0160  0.1491 -0.3781
 1874SOL    HW117258   3.489   4.487   5.796 -1.1501 -1.1578 -0.2005
 1874SOL    HW217259   3.557   4.369   5.736 -0.6383  0.1403  0.6224
 1875SOL     OW17260   2.636   3.112   5.885 -0.1131 -0.0365 -0.2743
 1875SOL    HW117261   2.592   3.154   5.811 -1.3983 -1.9023 -0.5729
 1875SOL    HW217262   2.714   3.167   5.881 -0.6152  0.7299  0.5995
 1876SOL     OW17263   0.240   3.296   6.838  0.0040  0.2607  0.7972
 1876SOL    HW117264   0.281   3.211   6.822  0.7412  0.7334  0.1759
 1876SOL    HW217265   0.308   3.341   6.889 -0.7450  2.3784 -0.0592
 1877SOL     OW17266   0.319   0.084   3.837 -0.4221  0.0822  0.1333
 1877SOL    HW117267   0.336   0.041   3.921 -1.6820 -0.4386  0.1172
 1877SOL    HW217268   0.376   0.160   3.848 -1.8295  1.1839 -0.3382
 1878SOL     OW17269   3.420   1.905   5.270 -0.1348  0.2003 -0.2066
 1878SOL    HW117270   3.504   1.871   5.301 -0.0106 -0.9607 -1.8114
 1878SOL    HW217271   3.357   1.834   5.281 -1.2832  1.1190 -0.9682
 1879SOL     OW17272   0.491   0.078   1.333 -0.7528 -0.3803  0.2802
 1879SOL    HW117273   0.469   0.126   1.413 -0.0244  0.4062  0.0096
 1879SOL    HW217274   0.580   0.104   1.308 -1.1650  0.8730  0.1489
 1880SOL     OW17275   2.997   4.488   8.465 -0.5293  0.6649  0.1644
 1880SOL    HW117276   3.066   4.422   8.459  2.0050  3.6482 -3.5311
 1880SOL    HW217277   3.052   4.561   8.436  0.2390 -0.9751 -2.5046
 1881SOL     OW17278   1.806   0.053   3.297  0.0435  0.7940 -0.4114
 1881SOL    HW117279   1.819   0.017   3.385  1.3648 -0.1562 -0.9862
 1881SOL    HW217280   1.884   0.034   3.245  1.2666 -0.2270  1.7800
 1882SOL     OW17281   1.434   3.634   1.487  0.0658 -0.4939  0.4002
 1882SOL    HW117282   1.372   3.707   1.489 -0.1339 -0.5993 -1.4465
 1882SOL    HW217283   1.499   3.654   1.554  0.0825 -4.9571  1.6686
 1883SOL     OW17284   3.685   2.248   3.281 -0.4176  0.0688  0.1145
 1883SOL    HW117285   3.765   2.237   3.332  0.4055  1.6752 -0.7960
 1883SOL    HW217286   3.695   2.318   3.216 -1.6195 -0.4123 -0.5807
 1884SOL     OW17287   3.185   4.496   8.143 -0.3054  0.4053 -0.1156
 1884SOL    HW117288   3.278   4.473   8.147  0.1084  2.1384  0.2977
 1884SOL    HW217289   3.153   4.434   8.208 -0.4254 -1.1668 -1.6857
 1885SOL     OW17290   2.090   0.075  11.026 -0.1557  0.2119 -0.6821
 1885SOL    HW117291   2.074   4.721  11.044  0.5315  0.2466  0.1103
 1885SOL    HW217292   2.004   0.109  10.999 -0.9504 -1.7067 -0.5216
 1886SOL     OW17293   3.655   4.119   6.225 -0.3314 -0.2585 -0.1102
 1886SOL    HW117294   3.668   4.125   6.130 -1.4552  1.4668 -0.1593
 1886SOL    HW217295   3.595   4.193   6.236 -0.7205 -0.5888 -0.0016
 1887SOL     OW17296   4.631   3.225   7.441 -0.3225 -0.1978 -0.6184
 1887SOL    HW117297   4.640   3.165   7.515  0.6600  1.4784  0.6263
 1887SOL    HW217298   4.696   3.293   7.459 -0.6466  0.3465 -1.5155
 1888SOL     OW17299   4.696   1.233   0.914 -0.3253 -0.0890 -0.5406
 1888SOL    HW117300   4.715   1.300   0.980 -0.6677 -0.0257 -0.5035
 1888SOL    HW217301   4.705   1.287   0.836 -0.9550  1.0107  0.1306
 1889SOL     OW17302   1.436   3.303  14.912 -0.4740  0.0210 -1.1206
 1889SOL    HW117303   1.495   3.322  14.984 -0.5062 -2.2846 -0.4568
 1889SOL    HW217304   1.433   3.390  14.873  0.0587  0.8209  0.6153
 1890SOL     OW17305   0.540   2.133  16.074 -0.2502  0.3251  0.0424
 1890SOL    HW117306   0.533   2.211  16.129  2.5519  1.6167 -1.3900
 1890SOL    HW217307   0.630   2.142  16.043  0.7593 -2.8816  2.1271
 1891SOL     OW17308   3.886   2.324   2.299  0.1309 -0.2775  0.5652
 1891SOL    HW117309   3.949   2.368   2.356 -0.7017  0.5379  0.8775
 1891SOL    HW217310   3.864   2.390   2.233 -1.3757 -2.4540 -1.1187
 1892SOL     OW17311   0.994   2.754  15.525  0.2426  0.6718 -0.6904
 1892SOL    HW117312   1.081   2.765  15.563 -0.6240  1.6953  0.9883
 1892SOL    HW217313   0.985   2.833  15.472  1.1630  1.5603  0.4710
 1893SOL     OW17314   3.010   3.756  11.496 -0.1906  0.1502 -0.1113
 1893SOL    HW117315   3.084   3.766  11.437 -1.4740 -2.6326 -2.1929
 1893SOL    HW217316   2.983   3.670  11.464  0.3584 -0.5508  1.2804
 1894SOL     OW17317   0.336   0.913   9.760  0.2537 -0.1309 -0.4846
 1894SOL    HW117318   0.369   0.825   9.738 -1.0553 -1.0243  1.1335
 1894SOL    HW217319   0.359   0.954   9.677 -0.4300  0.6470 -0.2833
 1895SOL     OW17320   4.060   3.375   6.399  0.6345 -0.3731 -0.0964
 1895SOL    HW117321   3.971   3.412   6.400  0.6880 -0.2928  1.6752
 1895SOL    HW217322   4.047   3.286   6.364 -0.7314 -0.0717 -0.3577
 1896SOL     OW17323   4.232   1.780   7.051  0.0654 -0.2154 -0.0592
 1896SOL    HW117324   4.265   1.719   7.116  0.4981  1.6454  1.4509
 1896SOL    HW217325   4.294   1.758   6.981  0.9980  0.2863  0.6159
 1897SOL     OW17326   2.126   1.081  10.094  0.4063  0.6245 -0.4969
 1897SOL    HW117327   2.160   1.120  10.013 -0.3911 -2.3156 -2.2921
 1897SOL    HW217328   2.126   1.163  10.143  0.2046 -0.3521  1.1258
 1898SOL     OW17329   4.644   1.325   8.854 -0.5445 -0.1232 -0.1046
 1898SOL    HW117330   4.632   1.233   8.878 -2.7060  0.6077  1.7002
 1898SOL    HW217331   4.550   1.340   8.844 -0.7817 -0.8703  0.9553
 1899SOL     OW17332   4.569   1.227   9.452  0.7630  0.0555  0.0116
 1899SOL    HW117333   4.499   1.292   9.456  0.5131 -0.1418 -0.9994
 1899SOL    HW217334   4.597   1.217   9.543  1.4352 -2.1684 -0.4275
 1900SOL     OW17335   0.721   2.693   0.041  0.3434 -0.2756  0.3595
 1900SOL    HW117336   0.640   2.736   0.014  1.9313  1.3844 -1.8033
 1900SOL    HW217337   0.685   2.614   0.082 -1.3021  0.5253  0.4573
 1901SOL     OW17338   2.928   4.258   7.746 -0.1421 -0.9570 -0.4998
 1901SOL    HW117339   2.972   4.221   7.669  0.1700 -1.6492  0.0165
 1901SOL    HW217340   2.876   4.331   7.710  0.8340  0.8611  1.7727
 1902SOL     OW17341   3.594   2.803   8.659 -0.3135  0.1015 -0.2820
 1902SOL    HW117342   3.588   2.785   8.753  2.2052 -0.5147 -0.2420
 1902SOL    HW217343   3.551   2.724   8.626 -1.0923  0.1188  0.6784
 1903SOL     OW17344   3.285   2.008   9.954 -0.4431 -0.5346 -1.1208
 1903SOL    HW117345   3.311   2.099   9.937 -1.2336 -0.0962 -0.0020
 1903SOL    HW217346   3.192   2.028   9.969 -0.1138 -0.5001  0.9438
 1904SOL     OW17347   1.708   1.319   1.561 -0.3277  0.3669  0.7890
 1904SOL    HW117348   1.802   1.318   1.547 -0.6609 -1.9126 -1.4151
 1904SOL    HW217349   1.690   1.409   1.532  0.4337  0.5467  0.8702
 1905SOL     OW17350   4.569   1.918   3.607  0.0874  0.7425  0.2215
 1905SOL    HW117351   4.490   1.945   3.560 -0.0672  0.3560  0.2618
 1905SOL    HW217352   4.543   1.942   3.696 -1.5101 -0.7931  0.1819
 1906SOL     OW17353   2.841   0.881   2.467 -0.3154  0.2565  0.1079
 1906SOL    HW117354   2.902   0.944   2.428  0.8360 -0.2930  1.0104
 1906SOL    HW217355   2.810   0.931   2.542 -1.0128  0.1877 -0.1403
 1907SOL     OW17356   1.937   1.309   1.379 -0.5269 -0.1114  0.5417
 1907SOL    HW117357   1.938   1.220   1.343  1.5536  0.3572 -0.6176
 1907SOL    HW217358   1.851   1.342   1.356  0.0224  0.1148 -1.2317
 1908SOL     OW17359   4.205   3.299  10.521 -0.1939 -0.2925  0.4262
 1908SOL    HW117360   4.136   3.301  10.454 -0.7763  2.2029  1.1239
 1908SOL    HW217361   4.287   3.281  10.474 -0.1457  0.6800  0.1319
 1909SOL     OW17362   2.524   2.616  11.188 -0.4538  0.2471 -0.4266
 1909SOL    HW117363   2.520   2.521  11.185  0.8671  0.1948 -0.4893
 1909SOL    HW217364   2.566   2.638  11.105 -0.0640 -2.4115 -0.9217
 1910SOL     OW17365   0.780   2.824  17.192  0.1593 -0.3044  0.2073
 1910SOL    HW117366   0.707   2.873  17.229 -0.2315 -1.6220  1.1636
 1910SOL    HW217367   0.733   2.752  17.149  1.1764 -1.8580  1.7201
 1911SOL     OW17368   1.710   0.117   5.131  0.1801 -0.5502  0.2688
 1911SOL    HW117369   1.677   0.202   5.103 -0.5787 -0.3524  1.7260
 1911SOL    HW217370   1.794   0.149   5.164  0.5382 -1.7448  0.5230
 1912SOL     OW17371   3.330   3.162   5.203  0.5261 -0.0865 -0.1075
 1912SOL    HW117372   3.371   3.082   5.169 -2.4820 -1.2983 -0.8243
 1912SOL    HW217373   3.239   3.140   5.220  0.4188  0.9609  0.6353
 1913SOL     OW17374   4.521   4.475   8.958 -0.0900 -0.1862  0.3345
 1913SOL    HW117375   4.574   4.541   9.003  0.4332 -0.2360 -0.2083
 1913SOL    HW217376   4.526   4.517   8.872  1.1176  1.5656  1.2670
 1914SOL     OW17377   1.679   0.450   9.923 -0.1475  0.1728 -0.1761
 1914SOL    HW117378   1.593   0.418   9.897  0.5266 -0.5556 -1.5264
 1914SOL    HW217379   1.686   0.535   9.880  1.3110 -0.3301 -0.9414
 1915SOL     OW17380   1.325   3.832  14.310  0.1732  0.6115  0.2712
 1915SOL    HW117381   1.281   3.870  14.386 -0.8608 -1.7794  0.8687
 1915SOL    HW217382   1.295   3.743  14.323 -1.1838  0.7807 -1.7407
 1916SOL     OW17383   4.264   0.288  17.380 -0.2206 -0.6144 -0.0712
 1916SOL    HW117384   4.189   0.315  17.327  0.5849  2.1375  0.1505
 1916SOL    HW217385   4.320   0.257  17.309  0.3692 -0.2010  0.2037
 1917SOL     OW17386   2.254   2.328  10.568 -0.2165  0.9461 -0.6485
 1917SOL    HW117387   2.280   2.395  10.631  0.2252  1.1116 -1.0081
 1917SOL    HW217388   2.223   2.256  10.624 -1.9544  0.8192 -1.7559
 1918SOL     OW17389   1.404   0.487  11.450  0.1678  0.2071  0.0085
 1918SOL    HW117390   1.376   0.421  11.386 -0.5992 -0.8189  1.4008
 1918SOL    HW217391   1.495   0.468  11.471 -0.4154 -2.7012 -0.1023
 1919SOL     OW17392   1.103   1.941  13.082  0.5767  0.0218 -0.4492
 1919SOL    HW117393   1.152   1.999  13.140 -1.8596 -0.1753  1.7958
 1919SOL    HW217394   1.020   1.975  13.116 -0.3708 -0.9628 -1.7492
 1920SOL     OW17395   1.797   1.354   0.809 -0.3018 -0.4866 -0.3762
 1920SOL    HW117396   1.887   1.344   0.840  0.0315 -1.7165 -1.8028
 1920SOL    HW217397   1.821   1.347   0.717  0.5194  1.3125 -0.3074
 1921SOL     OW17398   3.292   4.490   2.030 -0.0246 -0.3442  0.2742
 1921SOL    HW117399   3.328   4.514   1.945 -2.3950  2.2944 -0.0025
 1921SOL    HW217400   3.216   4.436   2.006 -0.8312  1.1811 -0.6756
 1922SOL     OW17401   0.137   1.643   3.315  0.5485  0.1569  1.0365
 1922SOL    HW117402   0.055   1.693   3.324  1.0043  1.0997 -0.1125
 1922SOL    HW217403   0.169   1.653   3.226 -4.3955 -0.6867 -0.8503
 1923SOL     OW17404   2.110   4.131   6.762 -0.5976  0.0022  0.4093
 1923SOL    HW117405   2.117   4.037   6.776 -0.1341 -0.1609 -0.9076
 1923SOL    HW217406   2.090   4.156   6.852  1.7948 -0.8994  1.1775
 1924SOL     OW17407   1.592   2.523   7.444 -0.6733 -0.8587  0.0468
 1924SOL    HW117408   1.569   2.560   7.359  1.1827 -0.9871 -0.5130
 1924SOL    HW217409   1.625   2.598   7.493 -0.3026 -0.0003 -1.5187
 1925SOL     OW17410   0.089   0.573   8.449  0.0577 -0.3408  0.0226
 1925SOL    HW117411   0.072   0.665   8.429  0.4755  0.2452  2.3602
 1925SOL    HW217412   0.168   0.552   8.399 -0.1734  0.3141 -0.6098
 1926SOL     OW17413   1.261   2.080  17.226  0.4781  0.1433  0.2878
 1926SOL    HW117414   1.203   2.109  17.296 -0.5041  0.2495 -0.5843
 1926SOL    HW217415   1.198   2.016  17.195 -0.8709  2.3778 -1.5575
 1927SOL     OW17416   0.959   4.113   8.657  0.3780 -0.1486 -0.4336
 1927SOL    HW117417   0.964   4.037   8.599 -0.6347 -0.7963  0.3109
 1927SOL    HW217418   0.941   4.189   8.602 -1.2485 -0.0397  0.2599
 1928SOL     OW17419   2.237   0.797  10.759  0.4218  0.5181  0.5269
 1928SOL    HW117420   2.220   0.844  10.677 -0.3668 -0.2118  0.2747
 1928SOL    HW217421   2.317   0.748  10.742  0.3659  1.4161 -2.3647
 1929SOL     OW17422   3.146   2.673   6.457  0.2342 -0.2699  0.0331
 1929SOL    HW117423   3.231   2.630   6.470 -0.6389 -1.9982 -0.0434
 1929SOL    HW217424   3.142   2.683   6.361 -1.8803  1.6866  0.3433
 1930SOL     OW17425   1.695   1.897  10.159 -0.0670 -0.2048 -0.0232
 1930SOL    HW117426   1.765   1.834  10.145 -0.8155 -0.4132 -2.9019
 1930SOL    HW217427   1.620   1.842  10.137  0.4804 -1.1714  0.5442
 1931SOL     OW17428   4.530   1.191  13.162 -0.2503  0.2901  0.6206
 1931SOL    HW117429   4.607   1.145  13.129  0.3422  3.1433 -2.0321
 1931SOL    HW217430   4.474   1.114  13.154 -0.0539  0.2437 -0.4020
 1932SOL     OW17431   1.989   1.976  12.583  0.3886  0.2165  0.1539
 1932SOL    HW117432   2.036   1.995  12.502  2.9836 -1.3765  1.2872
 1932SOL    HW217433   2.061   1.957  12.644 -0.9824 -1.9892  1.0987
 1933SOL     OW17434   3.289   3.984  11.132 -0.9585  0.3654  0.1551
 1933SOL    HW117435   3.344   3.930  11.075  2.0168 -0.4799  3.8408
 1933SOL    HW217436   3.267   4.058  11.074 -1.5227 -0.5775 -0.8291
 1934SOL     OW17437   2.575   2.563   6.170  0.2690  0.3921  0.0043
 1934SOL    HW117438   2.607   2.547   6.081 -1.3411 -0.2283 -0.4686
 1934SOL    HW217439   2.551   2.656   6.170  0.1545  0.3660 -0.5933
 1935SOL     OW17440   3.585   2.286   4.603  0.9806  0.1693  0.3792
 1935SOL    HW117441   3.599   2.194   4.582  0.5416  0.3504 -0.7303
 1935SOL    HW217442   3.675   2.308   4.629  2.3828 -0.4849 -4.0032
 1936SOL     OW17443   3.395   0.094   4.985 -0.4359 -0.0757 -0.4446
 1936SOL    HW117444   3.487   0.070   4.979 -0.8978 -1.6987 -0.9638
 1936SOL    HW217445   3.393   0.173   4.931  3.6724  0.8510  0.7592
 1937SOL     OW17446   1.702   3.877   4.029 -0.0918 -0.4984 -0.2684
 1937SOL    HW117447   1.748   3.869   3.946  1.3211  0.4763  0.4267
 1937SOL    HW217448   1.640   3.804   4.021 -0.5789 -0.2143  0.9758
 1938SOL     OW17449   1.501   2.089   1.519 -0.5232  0.0019  0.0543
 1938SOL    HW117450   1.535   2.139   1.592 -2.4193 -1.2380  1.7826
 1938SOL    HW217451   1.550   2.120   1.443  0.7105 -0.7788  0.5347
 1939SOL     OW17452   0.791   1.371   7.102 -1.0131  0.4813  0.0819
 1939SOL    HW117453   0.853   1.306   7.068 -1.9935 -0.8427  0.8311
 1939SOL    HW217454   0.781   1.337   7.191  2.7974  0.6342  0.5903
 1940SOL     OW17455   2.525   1.216   6.227  0.1511  0.0032  0.0639
 1940SOL    HW117456   2.480   1.285   6.178  0.5868  0.6242  0.5362
 1940SOL    HW217457   2.449   1.175   6.269  0.8737 -1.2645  0.1397
 1941SOL     OW17458   3.125   1.688   3.891 -0.5720  0.2290 -0.3467
 1941SOL    HW117459   3.180   1.640   3.829 -0.6291 -0.2038 -0.0618
 1941SOL    HW217460   3.041   1.643   3.880 -0.6122  0.5801 -1.5368
 1942SOL     OW17461   0.121   2.048   1.400  0.1185  0.0599  0.1644
 1942SOL    HW117462   0.153   2.049   1.310  0.0877 -1.2906  0.1383
 1942SOL    HW217463   0.031   2.070   1.375  0.0376  0.3811  0.7315
 1943SOL     OW17464   0.757   3.085   6.426  0.3978 -0.0068 -0.5354
 1943SOL    HW117465   0.742   2.999   6.385  0.4563 -0.5434  0.5537
 1943SOL    HW217466   0.767   3.139   6.347  0.5091 -0.0394 -0.5439
 1944SOL     OW17467   0.698   2.837   4.841 -0.5471  0.1837 -0.3133
 1944SOL    HW117468   0.689   2.930   4.821 -1.4621  0.3364  0.7767
 1944SOL    HW217469   0.659   2.826   4.928 -2.1408 -0.7253 -1.1346
 1945SOL     OW17470   1.718   0.792   5.074  0.5118 -0.0592  0.5460
 1945SOL    HW117471   1.791   0.774   5.133  2.0282  0.7941 -1.0736
 1945SOL    HW217472   1.655   0.740   5.123 -2.0223 -0.4243 -3.0765
 1946SOL     OW17473   2.926   2.872   7.399  0.4435  0.4941  0.0091
 1946SOL    HW117474   2.847   2.925   7.409 -0.3034 -0.4851 -0.7287
 1946SOL    HW217475   2.986   2.943   7.373 -0.1906  0.9068 -0.3268
 1947SOL     OW17476   4.606   2.540   2.027 -0.5619  0.5401 -0.3517
 1947SOL    HW117477   4.700   2.539   2.010 -0.5535 -0.1933 -0.2815
 1947SOL    HW217478   4.593   2.593   2.106 -1.5362 -1.1118  0.6069
 1948SOL     OW17479   2.666   3.578  11.375  0.4592  0.5567 -0.3705
 1948SOL    HW117480   2.710   3.556  11.293  0.3810 -2.1494  0.3086
 1948SOL    HW217481   2.650   3.489  11.406 -3.7451  1.0492 -1.1391
 1949SOL     OW17482   1.918   0.693   6.667  0.0004 -0.2622  0.0576
 1949SOL    HW117483   1.858   0.746   6.615  2.7254 -0.1960 -2.9623
 1949SOL    HW217484   1.876   0.607   6.662  2.6820 -1.6468  1.0469
 1950SOL     OW17485   3.456   0.749   8.626 -0.1080  0.5700  0.1186
 1950SOL    HW117486   3.477   0.724   8.536  0.2416  0.6349  0.1830
 1950SOL    HW217487   3.431   0.838   8.599  0.5082  0.7488  0.1421
 1951SOL     OW17488   1.988   1.057   1.263 -0.1185 -0.1549 -0.2829
 1951SOL    HW117489   2.015   1.043   1.172  1.4578 -2.4718  0.5406
 1951SOL    HW217490   1.958   0.968   1.282 -0.5629 -0.5664 -2.8795
 1952SOL     OW17491   1.262   3.532   2.540  0.0712  0.2796  0.0737
 1952SOL    HW117492   1.311   3.462   2.583 -0.4183  0.0615  0.2781
 1952SOL    HW217493   1.184   3.486   2.508  0.6873  0.4439 -1.6759
 1953SOL     OW17494   0.978   1.659  11.097  0.1745 -0.2815  0.4114
 1953SOL    HW117495   0.967   1.619  11.183  0.6815 -1.2005  0.0559
 1953SOL    HW217496   1.005   1.590  11.036  0.3785 -0.8212  1.1131
 1954SOL     OW17497   2.191   4.375   6.985  0.5051  0.1119  0.4900
 1954SOL    HW117498   2.203   4.289   7.025 -1.7831 -0.3251  0.1995
 1954SOL    HW217499   2.226   4.360   6.896 -1.0730 -0.7549  0.0144
 1955SOL     OW17500   2.773   1.036   1.659 -0.3469 -0.0084 -0.3598
 1955SOL    HW117501   2.749   0.949   1.627 -0.2284 -0.7759  1.6476
 1955SOL    HW217502   2.697   1.053   1.715 -0.8804  1.5795 -1.5716
 1956SOL     OW17503   2.035   4.638   9.392 -0.4656 -0.4810  0.4677
 1956SOL    HW117504   2.053   4.565   9.334  2.1631 -0.6820  1.4996
 1956SOL    HW217505   2.071   4.593   9.469 -0.9752  2.3328  2.3484
 1957SOL     OW17506   1.499   1.767   7.415  0.6515  0.4625 -0.0754
 1957SOL    HW117507   1.547   1.844   7.447 -0.6743  1.2744 -0.0384
 1957SOL    HW217508   1.444   1.796   7.343 -1.8334 -1.5175  1.0343
 1958SOL     OW17509   2.505   3.983  12.504  0.8647  0.2068  0.1803
 1958SOL    HW117510   2.504   4.029  12.421 -0.2474 -0.1020  0.0323
 1958SOL    HW217511   2.434   4.034  12.542  1.1536 -0.0432  1.0771
 1959SOL     OW17512   2.574   0.280   1.793  0.0572  0.5069  0.2631
 1959SOL    HW117513   2.479   0.292   1.791  0.0075  0.0778 -0.0508
 1959SOL    HW217514   2.603   0.371   1.801 -1.8993  1.0419  1.2851
 1960SOL     OW17515   2.649   3.333  10.152  0.0619 -0.1277 -0.2490
 1960SOL    HW117516   2.626   3.399  10.087  1.5581  0.1064 -0.5478
 1960SOL    HW217517   2.665   3.385  10.230  0.7850  0.4570 -0.7823
 1961SOL     OW17518   0.912   4.289   3.973 -0.4789  0.0877 -0.4095
 1961SOL    HW117519   0.842   4.292   4.039  0.7034  0.3091  0.8151
 1961SOL    HW217520   0.882   4.367   3.926  1.8593  1.7044  0.7649
 1962SOL     OW17521   4.716   2.841   2.685 -0.4480  0.4438  0.7882
 1962SOL    HW117522   0.050   2.891   2.646 -0.3044 -0.9823 -0.7943
 1962SOL    HW217523   0.033   2.777   2.730  1.0218  1.0621 -0.1365
 1963SOL     OW17524   0.956   3.784  15.992 -0.2789  0.2729 -0.6407
 1963SOL    HW117525   1.034   3.732  16.012 -0.5429  0.6754  1.4799
 1963SOL    HW217526   0.888   3.716  15.986 -0.4657  0.4562 -0.6176
 1964SOL     OW17527   1.362   3.239  11.329 -0.5159 -0.6171 -0.3796
 1964SOL    HW117528   1.377   3.277  11.416 -0.6779 -1.3640 -0.0265
 1964SOL    HW217529   1.368   3.318  11.276 -1.1050 -1.2061 -1.3188
 1965SOL     OW17530   2.858   2.753  10.910 -0.3765  0.2221 -0.2212
 1965SOL    HW117531   2.868   2.736  11.003 -0.0701  0.4817 -0.2061
 1965SOL    HW217532   2.867   2.848  10.920  0.7596  0.4978 -3.5523
 1966SOL     OW17533   0.639   1.369   6.254  0.3240  0.1469 -0.2474
 1966SOL    HW117534   0.648   1.413   6.339 -1.1213  0.4978 -0.2858
 1966SOL    HW217535   0.723   1.390   6.214  0.5125  1.6365  0.9228
 1967SOL     OW17536   4.267   1.872   5.514  0.2113  0.1051  0.1403
 1967SOL    HW117537   4.312   1.788   5.526 -0.8587 -0.5544 -0.4399
 1967SOL    HW217538   4.291   1.903   5.427 -2.1282 -0.0381 -0.5676
 1968SOL     OW17539   3.104   1.240  17.634  0.2573  0.3126  0.4778
 1968SOL    HW117540   3.096   1.166  17.573 -0.0811  1.8924 -1.3952
 1968SOL    HW217541   3.037   1.222  17.699  0.3098 -0.2756  0.3788
 1969SOL     OW17542   0.900   1.269   0.524 -0.2024 -0.1948 -0.1931
 1969SOL    HW117543   0.831   1.222   0.570  0.0801 -0.3638  0.0565
 1969SOL    HW217544   0.975   1.223   0.563 -1.1882 -0.6720  1.1563
 1970SOL     OW17545   0.999   0.081   1.759 -0.0183  0.1630  0.2609
 1970SOL    HW117546   1.019   0.097   1.667  0.7553 -2.5806 -0.0580
 1970SOL    HW217547   1.087   0.050   1.781  0.4064  2.0965  1.2229
 1971SOL     OW17548   4.015   3.441   1.181  1.0190  0.0087  0.5551
 1971SOL    HW117549   4.056   3.517   1.139 -0.5982  0.1033 -0.8678
 1971SOL    HW217550   3.923   3.466   1.179  1.1832  0.6181  0.6361
 1972SOL     OW17551   3.482   2.225   9.065 -0.2791  0.8492  0.4188
 1972SOL    HW117552   3.553   2.213   9.002 -0.3840 -1.4146  0.7396
 1972SOL    HW217553   3.400   2.209   9.018  0.1687 -1.9029  0.5907
 1973SOL     OW17554   3.531   0.487   4.680 -0.4522 -0.0983  0.4763
 1973SOL    HW117555   3.590   0.417   4.654 -1.3227 -0.7960  0.3547
 1973SOL    HW217556   3.495   0.450   4.760 -0.8897 -1.3376 -0.2826
 1974SOL     OW17557   3.278   3.057   9.479  0.0178 -0.4621  0.5219
 1974SOL    HW117558   3.183   3.042   9.479 -0.0643 -0.0272 -1.2294
 1974SOL    HW217559   3.276   3.143   9.521  1.8625  0.0960 -0.5308
 1975SOL     OW17560   0.293   0.035  15.357 -0.1009  0.1432 -0.4143
 1975SOL    HW117561   0.304   0.065  15.448  0.9609  1.7635 -1.0851
 1975SOL    HW217562   0.370   0.073  15.315  0.4632 -1.2585 -0.6515
 1976SOL     OW17563   0.135   4.245  12.289 -0.2306 -0.2803  0.3310
 1976SOL    HW117564   0.152   4.307  12.360  0.9781 -0.9943  0.6626
 1976SOL    HW217565   0.167   4.157  12.311 -2.3203 -1.0145  0.4570
 1977SOL     OW17566   4.489   3.359  15.647  0.0094  0.3403  0.4101
 1977SOL    HW117567   4.572   3.321  15.673  0.8654  1.5657 -0.5205
 1977SOL    HW217568   4.437   3.279  15.644 -1.8644  1.5735 -0.2043
 1978SOL     OW17569   3.384   0.321   3.515 -0.2519 -0.4380  0.0668
 1978SOL    HW117570   3.318   0.356   3.574  0.2101  0.9071 -0.1976
 1978SOL    HW217571   3.330   0.284   3.445 -0.1856  0.5274 -0.4953
 1979SOL     OW17572   0.706   0.014   2.428  0.2511 -0.2769 -0.9219
 1979SOL    HW117573   0.635   4.717   2.483  0.6900  1.5064  0.8022
 1979SOL    HW217574   0.667   0.098   2.404 -1.7565  0.1515  3.6678
 1980SOL     OW17575   2.447   1.839   6.157 -0.0025 -0.3244 -0.5734
 1980SOL    HW117576   2.433   1.746   6.143  1.1734 -0.6952  0.6607
 1980SOL    HW217577   2.490   1.845   6.243 -3.8443  3.5312  1.1106
 1981SOL     OW17578   3.646   3.183   7.526  0.2363 -0.3447 -0.2483
 1981SOL    HW117579   3.660   3.262   7.474 -0.9620  0.3531  0.4938
 1981SOL    HW217580   3.719   3.126   7.504  0.5094  0.5860 -1.7077
 1982SOL     OW17581   2.854   4.714  17.208 -0.4958  0.1207 -0.7589
 1982SOL    HW117582   2.933   0.002  17.255 -0.4283  1.6122 -1.6882
 1982SOL    HW217583   2.855   0.042  17.139 -0.2328  1.4757  0.5392
 1983SOL     OW17584   3.630   0.573   7.139 -0.2942  0.5214 -0.2505
 1983SOL    HW117585   3.698   0.566   7.207  0.6571  1.2729 -1.1307
 1983SOL    HW217586   3.677   0.544   7.061  0.9146  0.3864  0.5265
 1984SOL     OW17587   4.479   3.698   7.090  0.0861  0.2559 -0.1672
 1984SOL    HW117588   4.400   3.740   7.056  0.2027  1.8293  1.4519
 1984SOL    HW217589   4.470   3.615   7.044  2.7822 -0.5069  0.6650
 1985SOL     OW17590   2.976   1.052   3.605 -0.2805 -0.0850 -0.2688
 1985SOL    HW117591   3.010   0.965   3.583  0.5088 -0.0092  0.6367
 1985SOL    HW217592   2.893   1.066   3.559 -1.3607 -0.5159  1.5439
 1986SOL     OW17593   2.213   0.238  10.835  0.7230 -0.3241  0.3678
 1986SOL    HW117594   2.189   0.189  10.756 -1.5122  1.3555 -0.0203
 1986SOL    HW217595   2.162   0.189  10.900 -1.4427 -0.2272 -1.2400
 1987SOL     OW17596   0.388   3.807   6.629 -0.2558 -0.5624 -0.0220
 1987SOL    HW117597   0.430   3.722   6.646 -0.4177 -0.7118 -0.3690
 1987SOL    HW217598   0.297   3.779   6.631  0.0456 -1.5861 -0.4250
 1988SOL     OW17599   2.706   4.262   9.947 -0.0915  0.4220 -0.0138
 1988SOL    HW117600   2.753   4.335   9.908 -1.6245  2.2440  1.5517
 1988SOL    HW217601   2.650   4.306  10.011 -0.4661 -2.3295  1.5928
 1989SOL     OW17602   4.627   0.567   9.199  0.0054  0.2154 -0.3982
 1989SOL    HW117603   4.571   0.490   9.200  2.3696 -1.4300  2.4865
 1989SOL    HW217604   4.709   0.518   9.193  0.3046  0.8746 -1.5829
 1990SOL     OW17605   2.121   3.246   5.380 -0.5807  0.9461 -0.2753
 1990SOL    HW117606   2.197   3.222   5.327 -1.0360 -2.1453  0.5102
 1990SOL    HW217607   2.081   3.295   5.308 -2.1067 -1.1218 -0.8271
 1991SOL     OW17608   0.446   3.471   7.662 -0.7419  0.1017 -0.0830
 1991SOL    HW117609   0.440   3.375   7.661 -0.2321  0.1220 -2.9060
 1991SOL    HW217610   0.472   3.475   7.754  1.2293 -0.9517 -0.5918
 1992SOL     OW17611   1.254   0.721   5.314  0.5284  0.7707 -0.0425
 1992SOL    HW117612   1.174   0.669   5.318  0.4996  0.8299  0.1915
 1992SOL    HW217613   1.285   0.688   5.398  2.4445  1.4692 -0.4777
 1993SOL     OW17614   0.725   1.062  17.070 -0.4258 -0.0864 -0.2055
 1993SOL    HW117615   0.755   1.153  17.073 -1.2849  0.2443 -1.6128
 1993SOL    HW217616   0.635   1.086  17.092  0.8276  3.1074  1.5377
 1994SOL     OW17617   2.498   0.254   6.852  0.4823 -0.3661 -0.4784
 1994SOL    HW117618   2.439   0.310   6.801  0.0861 -0.3546 -0.0086
 1994SOL    HW217619   2.426   0.203   6.889 -0.0533  0.6827 -0.0777
 1995SOL     OW17620   2.480   4.384  15.507 -0.1643  0.0499  0.1679
 1995SOL    HW117621   2.479   4.479  15.513  2.2554  0.3475 -3.7614
 1995SOL    HW217622   2.427   4.379  15.427  1.0710 -1.9883 -0.5388
 1996SOL     OW17623   0.214   4.577   2.443  0.1186  0.2112 -0.6768
 1996SOL    HW117624   0.290   4.566   2.500  0.9872 -0.2360 -1.9079
 1996SOL    HW217625   0.252   4.605   2.359  3.0068  0.1727  0.6192
 1997SOL     OW17626   4.586   1.728   1.542  0.1208 -0.1072 -0.1949
 1997SOL    HW117627   4.654   1.691   1.485 -1.6210 -1.1544 -1.5933
 1997SOL    HW217628   4.600   1.823   1.546 -3.1747  0.3667 -0.0475
 1998SOL     OW17629   2.334   3.872   4.054  0.0546 -0.3178 -0.2088
 1998SOL    HW117630   2.373   3.926   4.123  2.5949 -3.0339  0.4765
 1998SOL    HW217631   2.369   3.788   4.083  0.6063 -0.2847 -0.7777
 1999SOL     OW17632   3.306   2.264   2.790  0.2332 -0.1718 -0.0070
 1999SOL    HW117633   3.248   2.304   2.725  0.2391 -0.1000  0.0326
 1999SOL    HW217634   3.361   2.343   2.791 -1.1746  0.8618 -2.7682
 2000SOL     OW17635   1.592   4.636   2.371  0.0922  0.1395 -0.1126
 2000SOL    HW117636   1.677   4.594   2.378  0.0135  0.2560  1.5702
 2000SOL    HW217637   1.577   4.648   2.277  1.3828  2.0418 -0.0832
 2001SOL     OW17638   1.137   4.613   4.663 -0.2874  0.4992  0.1220
 2001SOL    HW117639   1.211   4.622   4.603 -0.3185  0.1419  0.0290
 2001SOL    HW217640   1.145   4.692   4.715  0.0449  2.2434 -2.5923
 2002SOL     OW17641   1.588   3.189  11.710  0.2624  0.7227  0.7314
 2002SOL    HW117642   1.628   3.236  11.637 -2.7124 -1.2328 -2.1756
 2002SOL    HW217643   1.497   3.217  11.705  0.3321  0.8406  0.1117
 2003SOL     OW17644   4.193   3.641  15.073 -0.2233 -0.3936 -0.1170
 2003SOL    HW117645   4.125   3.702  15.045 -0.0136 -0.6705 -1.2398
 2003SOL    HW217646   4.212   3.666  15.163  1.3088  2.4876 -1.2697
 2004SOL     OW17647   1.481   1.413   0.410  0.2337  1.0160 -0.1007
 2004SOL    HW117648   1.565   1.386   0.447  0.4705  1.0604 -0.6112
 2004SOL    HW217649   1.507   1.496   0.368  0.6358  1.3013  0.7114
 2005SOL     OW17650   2.105   0.499   8.400  0.1993 -0.2665 -0.2923
 2005SOL    HW117651   2.009   0.502   8.399  0.2951  2.9154  0.1547
 2005SOL    HW217652   2.117   0.557   8.475  0.8219 -0.0669 -0.5484
 2006SOL     OW17653   1.573   4.586   2.078  0.3952 -0.0308  0.2134
 2006SOL    HW117654   1.561   4.666   2.027 -0.2389 -0.7150 -0.7283
 2006SOL    HW217655   1.657   4.560   2.041 -0.3229  0.3244 -1.6871
 2007SOL     OW17656   0.567   4.650   7.139 -0.6983 -0.5169 -0.7233
 2007SOL    HW117657   0.503   4.586   7.108 -1.1549  0.2442 -1.3460
 2007SOL    HW217658   0.637   4.649   7.074 -0.8972 -1.2405 -0.9236
 2008SOL     OW17659   3.473   0.172   7.289 -0.5139 -0.9674 -0.1517
 2008SOL    HW117660   3.414   0.137   7.221 -1.1834 -1.4667  0.6893
 2008SOL    HW217661   3.553   0.173   7.237 -0.1285  0.0614  0.4747
 2009SOL     OW17662   3.008   2.050  10.048  0.2536 -0.3473  0.1411
 2009SOL    HW117663   2.998   2.141  10.077  0.2169 -0.6054  0.9319
 2009SOL    HW217664   2.941   2.040   9.980 -0.6414  1.7438  0.7156
 2010SOL     OW17665   4.679   2.607   3.005  0.3639 -0.1854 -0.1042
 2010SOL    HW117666   4.734   2.541   3.046  0.0183 -0.8824 -0.7790
 2010SOL    HW217667   4.710   2.684   3.055 -0.8572  1.1109 -1.3429
 2011SOL     OW17668   0.936   2.442   9.778  0.5024  0.7047  0.3131
 2011SOL    HW117669   0.996   2.405   9.842 -1.0600 -1.4623  0.5049
 2011SOL    HW217670   0.905   2.357   9.748  0.7074  1.0672 -0.9255
 2012SOL     OW17671   1.086   1.189   0.707  0.2075  0.4433 -0.4265
 2012SOL    HW117672   1.155   1.250   0.684 -0.7953  1.3611 -1.0131
 2012SOL    HW217673   1.118   1.147   0.787 -0.9203 -0.2574 -0.3411
 2013SOL     OW17674   2.968   4.459   6.721 -0.1315 -0.4087 -0.5249
 2013SOL    HW117675   3.045   4.437   6.668  1.7443 -0.8587  2.3527
 2013SOL    HW217676   2.990   4.405   6.798  2.2807  3.0661  1.2092
 2014SOL     OW17677   4.077   2.663   2.682  0.1502  0.2471 -0.7117
 2014SOL    HW117678   4.084   2.572   2.711 -1.1077  0.1026 -0.8633
 2014SOL    HW217679   4.086   2.704   2.768  0.2153  0.4081 -0.7954
 2015SOL     OW17680   1.356   2.652   1.641  0.0393  0.1421 -0.7060
 2015SOL    HW117681   1.333   2.561   1.661  1.0283  0.5413  2.2114
 2015SOL    HW217682   1.278   2.690   1.680  0.7263  1.1172 -0.2831
 2016SOL     OW17683   0.680   0.986   9.846 -0.0183 -0.8534  0.4664
 2016SOL    HW117684   0.636   0.912   9.805  1.5243 -1.6554  0.2778
 2016SOL    HW217685   0.644   1.056   9.790  2.1193 -1.7077 -1.9396
 2017SOL     OW17686   2.109   3.840   9.774 -0.3179 -0.0553  0.3470
 2017SOL    HW117687   2.080   3.847   9.683  0.4797 -0.0977  0.0841
 2017SOL    HW217688   2.165   3.763   9.768  0.5465  0.5126  0.9778
 2018SOL     OW17689   0.027   2.832   9.427  0.1464 -0.2897 -0.4093
 2018SOL    HW117690   0.077   2.760   9.464 -0.8402  0.3886  2.2788
 2018SOL    HW217691   0.034   2.811   9.334 -1.7985  0.0202 -0.6392
 2019SOL     OW17692   3.600   4.662   4.031 -0.2917 -0.2229 -0.2119
 2019SOL    HW117693   3.609   4.573   4.066  0.9547 -0.0173 -0.0129
 2019SOL    HW217694   3.680   4.705   4.058 -0.4073 -0.5499  0.6357
 2020SOL     OW17695   3.780   1.691   1.573  0.1409  0.2825  0.4907
 2020SOL    HW117696   3.866   1.727   1.596 -0.2465  0.4790  1.6432
 2020SOL    HW217697   3.790   1.597   1.588  0.4308  0.2362  0.0163
 2021SOL     OW17698   0.906   2.543   5.076  0.4376  0.0261 -0.1243
 2021SOL    HW117699   0.926   2.630   5.042  2.4085 -0.0407  0.8616
 2021SOL    HW217700   0.927   2.547   5.169  1.4211  0.3701 -0.3564
 2022SOL     OW17701   0.506   2.553   7.862 -0.0343  0.2136 -0.3377
 2022SOL    HW117702   0.479   2.492   7.931  1.9588 -0.1134  0.1642
 2022SOL    HW217703   0.541   2.490   7.799  0.0078  0.4271 -0.5298
 2023SOL     OW17704   2.646   4.121   2.651  0.6513 -0.3299 -0.8355
 2023SOL    HW117705   2.554   4.143   2.665 -0.0197 -3.2228 -0.5507
 2023SOL    HW217706   2.688   4.144   2.734 -1.0937  1.5077 -0.4712
 2024SOL     OW17707   1.577   4.125   6.380 -0.2521  0.5894 -0.0778
 2024SOL    HW117708   1.526   4.172   6.446 -2.3278 -0.9953 -0.5597
 2024SOL    HW217709   1.531   4.042   6.390  3.0040 -0.9502  2.3052
 2025SOL     OW17710   0.990   1.692   2.307  0.3144 -0.2317 -0.5927
 2025SOL    HW117711   1.058   1.740   2.260 -2.2320  3.2298 -0.7385
 2025SOL    HW217712   1.039   1.609   2.313  0.8111 -0.1759 -3.9527
 2026SOL     OW17713   0.378   3.122   5.221 -0.1008 -0.3450 -0.2225
 2026SOL    HW117714   0.419   3.200   5.184  0.0425  0.9065  2.5580
 2026SOL    HW217715   0.453   3.091   5.271 -0.3470 -0.4975  0.0564
 2027SOL     OW17716   2.739   1.550   4.287 -0.3660  0.3765  0.1655
 2027SOL    HW117717   2.710   1.556   4.196  0.3949 -1.3487 -0.1863
 2027SOL    HW217718   2.816   1.604   4.270  1.2179 -2.1649 -0.8095
 2028SOL     OW17719   0.080   1.484   7.573  0.1195  0.4951 -0.6022
 2028SOL    HW117720   0.120   1.524   7.651  0.1083  0.9688 -0.8419
 2028SOL    HW217721   0.125   1.399   7.573 -2.1192 -0.7102  3.7773
 2029SOL     OW17722   4.098   2.415   0.757  0.0451 -0.3883  0.1066
 2029SOL    HW117723   4.151   2.450   0.685 -0.0620 -0.9469 -0.2457
 2029SOL    HW217724   4.030   2.478   0.780  0.0436 -0.4995  0.4109
 2030SOL     OW17725   2.258   0.083   8.349  0.3590 -0.1386 -0.5851
 2030SOL    HW117726   2.235   0.024   8.278 -2.0571 -0.5745  0.5564
 2030SOL    HW217727   2.222   0.166   8.318  0.7881 -0.2605 -1.4138
 2031SOL     OW17728   2.013   3.719   3.913 -0.1334  0.6415 -0.1339
 2031SOL    HW117729   2.036   3.797   3.863 -0.7319  0.7464 -0.2433
 2031SOL    HW217730   1.925   3.703   3.880  1.3669 -2.6489 -2.4525
 2032SOL     OW17731   3.030   2.172   6.500 -0.5744 -0.2618  0.2334
 2032SOL    HW117732   3.098   2.240   6.498 -1.1083  0.2215 -1.6918
 2032SOL    HW217733   3.083   2.099   6.466 -0.1910 -0.8825  2.1740
 2033SOL     OW17734   1.924   0.065   9.129  0.0974  0.4002 -0.0611
 2033SOL    HW117735   1.951   4.713   9.109 -1.3273  0.3735 -1.9107
 2033SOL    HW217736   1.831   0.053   9.151  0.0221  2.5771  0.8094
 2034SOL     OW17737   2.060   4.514   6.709  0.8146  0.0894  0.4566
 2034SOL    HW117738   2.140   4.466   6.729  0.3029 -0.8533  0.2589
 2034SOL    HW217739   2.089   4.583   6.650  0.3574  1.3630  1.7244
 2035SOL     OW17740   4.291   0.708  13.369 -0.3161 -0.4319  0.5962
 2035SOL    HW117741   4.226   0.644  13.398 -1.4061  0.2278 -0.3950
 2035SOL    HW217742   4.251   0.788  13.402 -0.9925 -0.1589 -0.8896
 2036SOL     OW17743   1.444   3.411   6.527  0.8037 -0.6222  0.3080
 2036SOL    HW117744   1.372   3.415   6.589  0.7716  2.6979  0.0440
 2036SOL    HW217745   1.410   3.397   6.439  0.0774  1.2452  0.3070
 2037SOL     OW17746   0.316   3.645   9.254 -0.4619  0.1002  0.0648
 2037SOL    HW117747   0.310   3.603   9.340 -1.6651  1.0829  0.4598
 2037SOL    HW217748   0.235   3.696   9.260  1.0866  2.4601  1.0150
 2038SOL     OW17749   4.685   2.536   3.948 -0.1589 -0.4891 -0.2655
 2038SOL    HW117750   0.006   2.501   3.881  1.5856  1.4428  0.2714
 2038SOL    HW217751   4.600   2.532   3.905 -0.6376  1.4278  0.5106
 2039SOL     OW17752   2.200   4.542   6.213 -0.5930 -0.1530  0.3742
 2039SOL    HW117753   2.106   4.559   6.225 -0.7239  1.7974 -3.3785
 2039SOL    HW217754   2.205   4.471   6.148  0.2881  0.1442  0.1192
 2040SOL     OW17755   4.275   0.439   3.871  0.0536  0.0204 -0.2802
 2040SOL    HW117756   4.347   0.404   3.817  0.5860 -0.7420  0.9063
 2040SOL    HW217757   4.330   0.460   3.947  1.4646  0.6753 -1.5005
 2041SOL     OW17758   2.571   2.010   4.524  0.5614 -0.3059 -0.0409
 2041SOL    HW117759   2.481   2.016   4.490 -0.3794 -1.6559  2.2115
 2041SOL    HW217760   2.551   1.948   4.593  0.3846 -1.0885 -0.7902
 2042SOL     OW17761   0.730   2.519   3.327  0.5869 -0.1774  0.2090
 2042SOL    HW117762   0.720   2.600   3.276  3.4654 -0.5837 -0.9835
 2042SOL    HW217763   0.669   2.461   3.282 -0.9343 -1.2039  3.6224
 2043SOL     OW17764   1.788   2.288   4.233  0.1315  0.0936 -0.4268
 2043SOL    HW117765   1.750   2.310   4.148 -0.7425  1.7669  0.3907
 2043SOL    HW217766   1.875   2.322   4.213  1.3545 -4.0089 -2.1141
 2044SOL     OW17767   1.885   0.905   2.380 -0.0117 -0.4719  0.4162
 2044SOL    HW117768   1.944   0.877   2.450  0.5441 -0.9280 -0.2337
 2044SOL    HW217769   1.912   0.846   2.309  0.0328 -0.2252  0.2291
 2045SOL     OW17770   4.305   1.367   7.605 -0.1781  0.6875 -0.0103
 2045SOL    HW117771   4.348   1.307   7.666  2.0992  2.2392 -0.0966
 2045SOL    HW217772   4.274   1.317   7.529  0.0063  0.3713  0.1209
 2046SOL     OW17773   2.103   0.717   8.585 -0.5632 -0.3089  0.3399
 2046SOL    HW117774   2.146   0.803   8.581  2.4220 -1.7992  0.1923
 2046SOL    HW217775   2.150   0.668   8.653  1.1112 -0.9078 -1.2583
 2047SOL     OW17776   3.166   3.834   7.535 -0.3317 -0.2476  0.0463
 2047SOL    HW117777   3.165   3.800   7.625  3.5453 -0.1243  0.1402
 2047SOL    HW217778   3.234   3.777   7.499  0.7247  1.3102 -0.3755
 2048SOL     OW17779   1.226   3.071   2.509  0.0157 -0.0736 -0.1176
 2048SOL    HW117780   1.276   2.991   2.521  0.2286  0.2726  1.2078
 2048SOL    HW217781   1.186   3.043   2.426 -0.0888 -0.1738 -0.0335
 2049SOL     OW17782   4.423   0.882   0.317  0.0115 -0.1399  0.0095
 2049SOL    HW117783   4.430   0.902   0.223  1.9345  0.5035  0.3049
 2049SOL    HW217784   4.334   0.910   0.337 -0.0092 -0.8251  0.8742
 2050SOL     OW17785   2.535   4.489  11.306 -0.3342  0.6574 -0.3793
 2050SOL    HW117786   2.470   4.419  11.317  0.1211  0.3483  0.3863
 2050SOL    HW217787   2.478   4.553  11.263  0.1152  1.4147  0.1385
 2051SOL     OW17788   2.675   4.013   6.168 -0.0675 -0.2684 -0.3866
 2051SOL    HW117789   2.758   4.058   6.182 -0.7182  1.2475 -1.3671
 2051SOL    HW217790   2.603   4.075   6.158 -0.4968 -0.4604  1.5132
 2052SOL     OW17791   2.582   0.350   9.038 -0.6267  0.0861 -0.3945
 2052SOL    HW117792   2.576   0.260   9.005  0.1100  0.2830 -1.0620
 2052SOL    HW217793   2.625   0.346   9.123 -0.7434 -1.5954 -0.4147
 2053SOL     OW17794   1.802   4.248   2.693  0.4461  0.5426 -0.2581
 2053SOL    HW117795   1.731   4.183   2.691  0.0378  0.9471  0.9202
 2053SOL    HW217796   1.816   4.253   2.599  0.1637 -0.6066 -0.3675
 2054SOL     OW17797   2.242   1.185   9.885 -0.1226 -0.5675 -0.3639
 2054SOL    HW117798   2.260   1.276   9.862 -0.2954 -0.6437 -0.7897
 2054SOL    HW217799   2.295   1.149   9.814 -0.6732 -2.8916  0.3899
 2055SOL     OW17800   1.157   4.144   4.047 -0.6865  0.2559 -0.2184
 2055SOL    HW117801   1.066   4.148   4.017  0.1844  0.2289 -2.8570
 2055SOL    HW217802   1.199   4.225   4.018  2.6804 -0.4942  2.5421
 2056SOL     OW17803   3.039   1.620   4.584  0.3473  0.3129  0.1074
 2056SOL    HW117804   3.082   1.593   4.665 -2.2255  1.1606  1.7606
 2056SOL    HW217805   2.949   1.637   4.610  0.1534 -1.4846  0.6347
 2057SOL     OW17806   0.528   1.467  17.171 -0.3911  0.6214 -0.7592
 2057SOL    HW117807   0.485   1.507  17.095  0.5713 -0.4957 -1.8829
 2057SOL    HW217808   0.473   1.389  17.178 -0.0028  0.3434 -0.8801
 2058SOL     OW17809   0.588   2.387   7.690 -0.1526  0.3963 -0.4898
 2058SOL    HW117810   0.520   2.322   7.675  0.2054 -0.6723  2.6226
 2058SOL    HW217811   0.594   2.412   7.597  0.5209  3.1905  0.2951
 2059SOL     OW17812   0.833   2.466  14.859  0.2647  0.1489  0.0554
 2059SOL    HW117813   0.866   2.406  14.793 -0.2485 -0.6342  0.5136
 2059SOL    HW217814   0.856   2.417  14.938 -2.4732 -0.7460  0.3110
 2060SOL     OW17815   2.482   3.404   6.069 -0.1872  0.1923  0.1713
 2060SOL    HW117816   2.554   3.446   6.023  0.8606 -3.1206 -1.1456
 2060SOL    HW217817   2.521   3.391   6.155 -0.9445  1.3476  0.6975
 2061SOL     OW17818   1.013   1.031   8.088  0.7793  0.6376 -0.4311
 2061SOL    HW117819   0.942   1.081   8.048 -0.3385  0.3881  1.2157
 2061SOL    HW217820   1.067   1.098   8.131 -3.1389  2.1808  2.0851
 2062SOL     OW17821   3.984   3.256   9.279 -0.3987 -0.3236  0.4391
 2062SOL    HW117822   3.903   3.270   9.328 -1.4318 -1.6845 -0.8623
 2062SOL    HW217823   3.956   3.285   9.192 -1.0606 -0.6913  0.5246
 2063SOL     OW17824   2.658   3.498   3.011 -0.2480 -0.0039  0.1621
 2063SOL    HW117825   2.670   3.406   3.034  0.8961  0.0581 -0.1566
 2063SOL    HW217826   2.698   3.540   3.088  1.1971 -0.9684 -0.0627
 2064SOL     OW17827   2.665   0.393   5.745  0.0116 -0.2502  0.3515
 2064SOL    HW117828   2.618   0.452   5.685 -1.4298 -1.0288  0.7123
 2064SOL    HW217829   2.751   0.379   5.706 -1.2623 -1.4133 -1.9928
 2065SOL     OW17830   0.979   1.196   3.142 -0.4470  0.1870 -0.5811
 2065SOL    HW117831   0.895   1.224   3.108 -0.1797 -0.7582 -2.0154
 2065SOL    HW217832   0.966   1.211   3.236  0.4388 -2.2963 -0.0436
 2066SOL     OW17833   2.164   0.828   6.736 -0.1767  0.2245  0.5177
 2066SOL    HW117834   2.197   0.882   6.664  0.0851  0.0086  0.4740
 2066SOL    HW217835   2.089   0.786   6.695  0.7222 -3.1391  2.2387
 2067SOL     OW17836   2.390   4.588   2.693 -0.1207  0.4365  0.5702
 2067SOL    HW117837   2.436   4.541   2.763  0.7339  1.0349  0.4161
 2067SOL    HW217838   2.446   4.562   2.620  1.6990  0.1886  2.0329
 2068SOL     OW17839   2.265   0.594   8.757  0.3256  0.0537  0.4142
 2068SOL    HW117840   2.254   0.501   8.741 -0.5436  0.5556 -1.8974
 2068SOL    HW217841   2.359   0.607   8.752  0.5697 -1.6423  0.7242
 2069SOL     OW17842   1.463   1.200  12.995  0.0754 -0.2217 -0.2088
 2069SOL    HW117843   1.404   1.206  12.920  0.8037  0.3248 -0.7417
 2069SOL    HW217844   1.471   1.292  13.020 -1.4017 -0.3959  0.8940
 2070SOL     OW17845   2.530   4.527  16.430 -0.0446  0.2471  0.1063
 2070SOL    HW117846   2.575   4.493  16.353  0.4944  1.4743 -0.1234
 2070SOL    HW217847   2.525   4.616  16.395 -1.7842  0.1716  0.1445
 2071SOL     OW17848   0.621   2.612  14.794  0.2929  0.0892 -0.0041
 2071SOL    HW117849   0.685   2.559  14.841  0.5190 -0.7787 -1.3139
 2071SOL    HW217850   0.633   2.588  14.702 -1.2132 -2.5243  0.4858
 2072SOL     OW17851   4.681   0.401   7.785  0.2733 -0.4298  0.3804
 2072SOL    HW117852   4.626   0.392   7.863 -0.6596  1.3261 -0.0761
 2072SOL    HW217853   4.722   0.315   7.787 -0.1939 -0.6658 -0.3739
 2073SOL     OW17854   3.460   4.726  13.843 -0.1768 -0.3213 -0.5498
 2073SOL    HW117855   3.527   0.051  13.871  0.4068 -0.4927 -1.5415
 2073SOL    HW217856   3.427   4.698  13.928  1.1880  0.4712  0.2460
 2074SOL     OW17857   0.559   4.656   2.117  0.2881 -0.8997 -0.1176
 2074SOL    HW117858   0.554   4.652   2.022  1.9962  1.9030 -0.3520
 2074SOL    HW217859   0.593   0.006   2.136  0.2841 -0.7078 -0.9994
 2075SOL     OW17860   1.278   3.921   5.432 -0.0308  0.0580  0.2589
 2075SOL    HW117861   1.373   3.911   5.437 -0.2475 -2.5974 -0.8909
 2075SOL    HW217862   1.251   3.864   5.504 -0.0208 -0.2203  0.0414
 2076SOL     OW17863   2.026   3.941   4.139  0.1806 -0.0138 -0.5040
 2076SOL    HW117864   2.082   3.889   4.197 -1.5802 -1.0996  0.2065
 2076SOL    HW217865   2.040   3.899   4.054  1.0679  0.3863 -0.5545
 2077SOL     OW17866   3.936   0.189   6.431 -0.5252 -0.1926  0.3666
 2077SOL    HW117867   3.936   0.121   6.363  0.3926  1.5407 -1.3679
 2077SOL    HW217868   4.000   0.250   6.393  0.1075 -0.8499  0.3601
 2078SOL     OW17869   3.578   1.171   8.623 -0.1258 -0.0849 -0.1724
 2078SOL    HW117870   3.610   1.096   8.675  1.1415  0.6005  0.0276
 2078SOL    HW217871   3.646   1.174   8.556 -1.7219  3.1010 -1.6383
 2079SOL     OW17872   0.251   1.596   8.199  0.1750  0.1420  0.6775
 2079SOL    HW117873   0.249   1.690   8.219 -0.2963  0.9599 -3.3309
 2079SOL    HW217874   0.304   1.589   8.120  2.2849 -0.6647  2.1685
 2080SOL     OW17875   3.863   3.921  13.654  0.1811  0.5759  0.2916
 2080SOL    HW117876   3.889   3.835  13.685 -0.4767  0.2237 -0.1504
 2080SOL    HW217877   3.934   3.976  13.687  1.2762  0.1876 -1.4163
 2081SOL     OW17878   2.162   0.144   2.408 -0.1261 -0.3258 -0.6303
 2081SOL    HW117879   2.110   0.151   2.328 -1.3995 -0.1333  0.2126
 2081SOL    HW217880   2.101   0.185   2.469 -0.1414 -2.4434  0.7909
 2082SOL     OW17881   1.788   2.090   8.071  0.0657 -0.4482  0.3954
 2082SOL    HW117882   1.755   2.161   8.127  1.7581  0.7678 -0.1460
 2082SOL    HW217883   1.832   2.140   8.002 -0.2979 -0.5113  0.1129
 2083SOL     OW17884   3.765   0.325  16.325 -0.3851  0.5080  0.2320
 2083SOL    HW117885   3.852   0.310  16.288 -0.0461 -0.4512  1.4165
 2083SOL    HW217886   3.714   0.278  16.258  0.6181 -0.6066  0.2494
 2084SOL     OW17887   2.224   2.293   8.304  0.1351  0.0931  0.1230
 2084SOL    HW117888   2.173   2.357   8.354 -1.9671  0.5539 -2.6148
 2084SOL    HW217889   2.171   2.286   8.225  0.8409  0.7040 -0.4049
 2085SOL     OW17890   4.549   2.455   1.795  0.3556 -0.3419 -0.4819
 2085SOL    HW117891   4.622   2.508   1.762 -1.7164  4.4937  2.7305
 2085SOL    HW217892   4.553   2.497   1.881 -0.3609 -3.2564  0.9581
 2086SOL     OW17893   1.894   4.400   7.284 -0.2001 -0.0877 -0.3789
 2086SOL    HW117894   1.907   4.317   7.331 -1.3347 -1.3106 -2.2116
 2086SOL    HW217895   1.974   4.449   7.299 -0.1509 -0.4775  0.6203
 2087SOL     OW17896   0.196   0.089   7.257 -0.1711 -0.8219 -0.2120
 2087SOL    HW117897   0.212   0.110   7.349 -0.6025  0.1871 -0.3643
 2087SOL    HW217898   0.147   0.008   7.270 -0.1582 -0.7121  0.5166
 2088SOL     OW17899   3.511   3.714   5.754  0.1628 -0.1221 -0.1876
 2088SOL    HW117900   3.593   3.743   5.716 -0.4524  0.5176 -1.0216
 2088SOL    HW217901   3.471   3.666   5.682  0.6356  2.1789 -1.9828
 2089SOL     OW17902   4.657   0.505   7.061  0.3157  0.1036  0.3857
 2089SOL    HW117903   4.624   0.415   7.056  1.0912 -0.1472 -0.2663
 2089SOL    HW217904   4.593   0.550   7.115 -0.4512  0.2648 -0.6372
 2090SOL     OW17905   2.089   3.036   2.110  0.7518  0.2002  0.3719
 2090SOL    HW117906   2.144   3.015   2.035  1.5954 -2.2067  1.6806
 2090SOL    HW217907   2.030   3.107   2.083 -0.2606 -0.6670  0.2713
 2091SOL     OW17908   1.931   0.905  15.740  0.7444  0.6620 -0.5723
 2091SOL    HW117909   1.840   0.886  15.763  1.7218  0.7672  3.4486
 2091SOL    HW217910   1.923   0.950  15.657  1.2083 -0.5778 -1.2977
 2092SOL     OW17911   1.561   1.686  15.333  0.0257 -0.1982  0.4046
 2092SOL    HW117912   1.586   1.594  15.331  0.1019 -0.1319 -1.9430
 2092SOL    HW217913   1.638   1.727  15.372  0.6182  1.6892 -2.7305
 2093SOL     OW17914   2.875   2.921  13.554  0.1889 -0.3966  0.2043
 2093SOL    HW117915   2.889   2.839  13.602 -2.2014  0.5950  2.5482
 2093SOL    HW217916   2.871   2.977  13.631 -1.3121 -0.1098 -0.0861
 2094SOL     OW17917   1.576   0.074  10.434  0.3221 -0.4697  0.7149
 2094SOL    HW117918   1.513   0.146  10.429  1.4867  0.4678 -0.6651
 2094SOL    HW217919   1.613   0.089  10.346 -1.9614 -0.0349 -0.1610
 2095SOL     OW17920   2.411   3.614   9.861  0.0641  1.0135 -0.3618
 2095SOL    HW117921   2.334   3.606   9.805 -0.1413  1.7996 -0.2006
 2095SOL    HW217922   2.381   3.643   9.947  0.2192 -0.4233  0.1743
 2096SOL     OW17923   0.609   0.233   4.361 -0.4437  0.3043  0.2743
 2096SOL    HW117924   0.597   0.167   4.429 -3.5034  0.3723 -0.1987
 2096SOL    HW217925   0.694   0.204   4.328 -0.7446 -1.0212  0.6785
 2097SOL     OW17926   1.207   2.288  11.172 -0.0413  0.4282  0.4621
 2097SOL    HW117927   1.288   2.239  11.186  0.0160  0.3492 -0.1790
 2097SOL    HW217928   1.203   2.326  11.260 -2.2023  0.1840  0.4792
 2098SOL     OW17929   3.404   2.481   3.897  0.3622  0.6453  0.2234
 2098SOL    HW117930   3.433   2.535   3.824  1.5680  1.3889  1.2484
 2098SOL    HW217931   3.418   2.536   3.974 -1.5290 -0.8853  1.6834
 2099SOL     OW17932   1.724   2.213  15.245 -0.3996 -0.0571 -0.1203
 2099SOL    HW117933   1.713   2.222  15.151 -0.7482  1.1226  0.0401
 2099SOL    HW217934   1.637   2.182  15.270  0.0667 -2.1104 -1.0607
 2100SOL     OW17935   4.322   2.269   1.450 -0.2529  0.1889 -0.0473
 2100SOL    HW117936   4.373   2.308   1.378  0.1837 -0.9111 -0.3314
 2100SOL    HW217937   4.233   2.283   1.419 -0.6040  2.7266  2.1773
 2101SOL     OW17938   4.167   2.092  15.404  0.1080  0.3186 -0.1909
 2101SOL    HW117939   4.176   2.166  15.344 -1.5149  0.5026 -0.2051
 2101SOL    HW217940   4.086   2.119  15.447  0.6398 -0.7767  1.5088
 2102SOL     OW17941   2.173   2.173   0.584 -0.0487 -0.5585  0.1912
 2102SOL    HW117942   2.206   2.094   0.542  0.5106  0.0123 -0.4646
 2102SOL    HW217943   2.235   2.241   0.557  0.2749 -1.4457 -1.3351
 2103SOL     OW17944   0.077   0.385   0.783 -0.0835 -0.0479  0.1195
 2103SOL    HW117945   0.007   0.328   0.815 -0.8044  1.3924  1.0754
 2103SOL    HW217946   0.044   0.474   0.777 -0.6762 -0.3861 -1.6766
 2104SOL     OW17947   1.354   2.775   3.015 -0.2090 -0.6816 -0.2075
 2104SOL    HW117948   1.262   2.778   2.988 -0.5514 -2.1713  0.8193
 2104SOL    HW217949   1.348   2.853   3.070 -1.4790 -0.1583 -1.0648
 2105SOL     OW17950   1.090   3.472   4.861  0.0427 -0.4966 -0.2281
 2105SOL    HW117951   0.999   3.487   4.837  0.4347 -0.3567 -1.6345
 2105SOL    HW217952   1.093   3.512   4.949 -0.5421 -1.8215  0.3867
 2106SOL     OW17953   4.706   2.099   4.751 -0.5532 -0.8411  0.1976
 2106SOL    HW117954   4.644   2.171   4.750  0.6373  0.1233 -2.2207
 2106SOL    HW217955   0.044   2.156   4.757 -1.7915  0.8829 -0.7346
 2107SOL     OW17956   3.087   3.803   5.503 -0.0312 -0.8855  0.1252
 2107SOL    HW117957   3.101   3.739   5.433 -0.2876  2.1833 -2.7578
 2107SOL    HW217958   3.067   3.738   5.570 -1.2320 -0.9337 -0.2616
 2108SOL     OW17959   4.220   1.935  10.679 -0.7058  0.6678 -0.1854
 2108SOL    HW117960   4.301   1.909  10.636  0.3030  4.0630 -0.2614
 2108SOL    HW217961   4.230   1.909  10.771  1.0860 -1.5167 -0.9851
 2109SOL     OW17962   3.333   2.479   8.854 -0.3983  0.2759  0.1447
 2109SOL    HW117963   3.419   2.458   8.817 -0.8566  0.1607 -0.8535
 2109SOL    HW217964   3.307   2.396   8.894  2.4998 -1.0172 -0.6392
 2110SOL     OW17965   2.152   1.390   0.471  0.2100 -0.0168  0.2933
 2110SOL    HW117966   2.219   1.426   0.529 -0.0459  2.3777 -0.9369
 2110SOL    HW217967   2.160   1.294   0.469  0.4786  0.0284 -0.5913
 2111SOL     OW17968   1.455   1.241   3.029 -0.4620  0.7398  0.3592
 2111SOL    HW117969   1.431   1.259   2.938  0.9548  1.5371  0.1523
 2111SOL    HW217970   1.532   1.296   3.036  1.2349 -1.8406  2.2860
 2112SOL     OW17971   1.201   0.246   7.167 -0.2741 -0.0179 -0.3517
 2112SOL    HW117972   1.208   0.204   7.081  1.2580 -0.0429 -0.2137
 2112SOL    HW217973   1.151   0.326   7.150 -0.3231  0.1871  0.7805
 2113SOL     OW17974   0.231   1.404  11.321 -0.2134  0.2887 -0.2898
 2113SOL    HW117975   0.182   1.444  11.393 -0.3434 -0.0130 -0.2114
 2113SOL    HW217976   0.310   1.458  11.324  0.6426 -1.1108  2.0179
 2114SOL     OW17977   4.137   4.223   7.726  0.4163  0.4920 -0.5170
 2114SOL    HW117978   4.100   4.242   7.812  1.8943  2.6714 -0.3667
 2114SOL    HW217979   4.228   4.206   7.750  0.7178 -0.0800 -2.0382
 2115SOL     OW17980   0.872   0.141   9.382  1.1751 -0.4265  0.3570
 2115SOL    HW117981   0.867   0.224   9.336  0.2226 -1.0297 -0.6342
 2115SOL    HW217982   0.962   0.153   9.411  0.6603  0.6288  1.4906
 2116SOL     OW17983   3.396   3.060   7.531 -0.3317  0.3254  0.5656
 2116SOL    HW117984   3.388   2.989   7.594  2.3181 -2.2755 -2.0358
 2116SOL    HW217985   3.487   3.087   7.544  0.1037 -0.9154  0.0573
 2117SOL     OW17986   4.364   0.024  15.944  0.2986 -0.3999  0.3717
 2117SOL    HW117987   4.425   4.707  15.993  1.9880 -1.9608 -3.5078
 2117SOL    HW217988   4.346   4.714  15.863 -2.8378 -0.2672  0.9970
 2118SOL     OW17989   3.213   1.424   6.262 -0.4118 -0.0941  0.3682
 2118SOL    HW117990   3.121   1.398   6.261 -0.2044 -0.8572  0.8058
 2118SOL    HW217991   3.233   1.422   6.356  0.9623  1.7005  0.1033
 2119SOL     OW17992   3.116   0.851  14.856 -0.4445 -0.3298  0.4365
 2119SOL    HW117993   3.180   0.878  14.790 -0.8196  0.4062  0.3684
 2119SOL    HW217994   3.168   0.794  14.913  1.8065  1.6102  0.3654
 2120SOL     OW17995   3.803   0.690   8.342 -0.0768  0.2802  0.3808
 2120SOL    HW117996   3.865   0.625   8.309 -1.9100 -1.6963  0.8555
 2120SOL    HW217997   3.825   0.758   8.278 -1.0735  0.1477 -0.1016
 2121SOL     OW17998   1.348   0.521   8.671 -0.2483 -0.1340  0.2811
 2121SOL    HW117999   1.256   0.523   8.645  0.2806  0.7398 -1.5823
 2121SOL    HW218000   1.354   0.444   8.728 -1.0096  0.6047  1.3514
 2122SOL     OW18001   4.192   3.192   3.063  0.5009 -0.4696  0.7531
 2122SOL    HW118002   4.184   3.240   3.146  1.0882  1.6662 -0.4300
 2122SOL    HW218003   4.284   3.166   3.059  0.7276  0.5632 -0.6274
 2123SOL     OW18004   2.128   0.855   0.145  0.3464  0.2379 -0.0982
 2123SOL    HW118005   2.051   0.907   0.121 -1.1096 -1.6675  0.4745
 2123SOL    HW218006   2.156   0.833   0.057 -1.8628  1.0665 -1.0244
 2124SOL     OW18007   0.791   2.170   6.454  0.0647 -0.1110  0.3043
 2124SOL    HW118008   0.766   2.079   6.434  3.5383 -0.7686 -1.1204
 2124SOL    HW218009   0.723   2.210   6.400  0.7230  0.2228 -0.2736
 2125SOL     OW18010   1.788   2.080  15.563  0.0073  0.7497  0.0489
 2125SOL    HW118011   1.744   2.164  15.576 -0.3898  0.0764  2.9462
 2125SOL    HW218012   1.746   2.041  15.487 -0.4651  1.7282 -0.2016
 2126SOL     OW18013   2.081   2.198   2.614 -0.3844  0.1345  0.2561
 2126SOL    HW118014   2.134   2.152   2.679 -2.3082 -1.3538  0.7588
 2126SOL    HW218015   2.001   2.146   2.613  0.0057 -0.4465 -0.1888
 2127SOL     OW18016   1.136   2.461  14.225  0.1832 -0.5115  0.1335
 2127SOL    HW118017   1.087   2.468  14.143  2.1115 -0.3162 -0.9885
 2127SOL    HW218018   1.063   2.475  14.285  1.1612 -1.3747  1.5225
 2128SOL     OW18019   3.580   3.190   4.919 -0.0214  0.0369  0.2195
 2128SOL    HW118020   3.487   3.213   4.922  0.1761  1.2726 -2.7814
 2128SOL    HW218021   3.597   3.212   4.827  0.8736  1.7207  0.7944
 2129SOL     OW18022   0.027   0.885   2.639  0.1512 -0.2353  0.9906
 2129SOL    HW118023   0.086   0.959   2.622  0.3209 -0.4182  0.7845
 2129SOL    HW218024   4.712   0.911   2.714  0.1205 -0.6811  1.1218
 2130SOL     OW18025   1.394   3.857   0.418 -0.1036  0.1484 -0.1322
 2130SOL    HW118026   1.380   3.830   0.327 -1.4691  1.5142 -0.3369
 2130SOL    HW218027   1.302   3.875   0.437 -0.3257 -1.7644  0.5714
 2131SOL     OW18028   4.063   3.606   0.226 -0.4274  0.0772  0.7545
 2131SOL    HW118029   4.029   3.549   0.294 -2.8840  0.2324 -0.3374
 2131SOL    HW218030   4.015   3.689   0.233 -2.4122 -1.1946  1.9407
 2132SOL     OW18031   3.768   1.417   1.841 -0.2720  0.3424  0.6985
 2132SOL    HW118032   3.795   1.505   1.864 -1.9803  1.1556 -0.4076
 2132SOL    HW218033   3.730   1.375   1.918 -0.3241 -1.1345 -0.1140
 2133SOL     OW18034   3.905   4.430  16.307 -0.1102  0.3966 -0.5418
 2133SOL    HW118035   3.927   4.351  16.357 -1.1262 -0.4682 -1.4750
 2133SOL    HW218036   3.837   4.457  16.369  1.6976  0.8265  1.2655
 2134SOL     OW18037   3.040   4.241   9.086 -0.4332  0.1993  0.7899
 2134SOL    HW118038   2.980   4.312   9.060 -1.9241 -1.3602 -0.0162
 2134SOL    HW218039   3.095   4.289   9.148  0.3184  0.3178  0.0215
 2135SOL     OW18040   4.251   3.335   5.905  0.3565 -0.6983  0.3068
 2135SOL    HW118041   4.282   3.369   5.989 -0.9822 -0.1433  0.5600
 2135SOL    HW218042   4.180   3.395   5.885 -1.0932 -1.9947  1.5801
 2136SOL     OW18043   0.712   1.372   8.116  0.5819  0.7004  0.2100
 2136SOL    HW118044   0.640   1.325   8.074 -0.9574  3.2413  0.0084
 2136SOL    HW218045   0.706   1.343   8.207 -3.3644  1.2267  0.0937
 2137SOL     OW18046   0.197   0.238   5.097  0.5546 -0.4715  0.1799
 2137SOL    HW118047   0.184   0.222   5.003 -1.0168 -1.6047  0.5968
 2137SOL    HW218048   0.136   0.178   5.139 -0.5679  0.1508 -0.5786
 2138SOL     OW18049   3.923   2.795   4.216  0.4738  0.4257  0.0407
 2138SOL    HW118050   3.915   2.870   4.157  1.4583  0.9078  0.5310
 2138SOL    HW218051   3.870   2.729   4.171  0.4949 -0.6645  1.6179
 2139SOL     OW18052   1.348   2.094   8.519  0.6575  0.7424 -0.1399
 2139SOL    HW118053   1.290   2.169   8.500  1.9656  1.8291  0.1543
 2139SOL    HW218054   1.378   2.132   8.602  1.8857 -2.8837  1.0432
 2140SOL     OW18055   0.159   1.003   1.542 -0.3144  0.0579 -0.0548
 2140SOL    HW118056   0.085   0.960   1.498  1.7163 -2.7661 -0.7187
 2140SOL    HW218057   0.228   0.939   1.528 -0.1510 -0.0215  1.1415
 2141SOL     OW18058   3.829   1.932   7.475  0.2983 -0.4595  0.2508
 2141SOL    HW118059   3.761   1.960   7.413  0.7735 -0.1498 -0.1301
 2141SOL    HW218060   3.892   1.896   7.412  0.1934 -0.9013  0.3942
 2142SOL     OW18061   2.288   2.623  11.029 -0.3687  0.3881  0.0771
 2142SOL    HW118062   2.222   2.603  11.095 -0.0844 -2.3301 -0.4296
 2142SOL    HW218063   2.364   2.604  11.083 -0.7820  0.9413  0.8425
 2143SOL     OW18064   2.237   1.511  15.171 -0.1156  0.4722 -0.2843
 2143SOL    HW118065   2.268   1.473  15.254 -0.3722 -0.7992 -0.7690
 2143SOL    HW218066   2.273   1.453  15.104 -1.0942  0.2486 -0.6103
 2144SOL     OW18067   2.415   2.665   3.977  0.3380  0.5580 -0.2199
 2144SOL    HW118068   2.413   2.577   3.939 -2.5266  1.5248 -2.3295
 2144SOL    HW218069   2.463   2.645   4.057  1.8914  0.6589 -1.1304
 2145SOL     OW18070   2.826   0.642   3.681 -0.0754 -0.0760  0.4942
 2145SOL    HW118071   2.734   0.616   3.679 -0.0020 -0.2788 -0.4438
 2145SOL    HW218072   2.839   0.713   3.617  1.5430 -1.5343 -0.7861
 2146SOL     OW18073   1.644   1.875   4.413 -0.3971 -0.2782 -0.1451
 2146SOL    HW118074   1.585   1.950   4.422 -0.9679 -0.5035 -1.9982
 2146SOL    HW218075   1.688   1.903   4.333  1.6353  0.7539  1.3297
 2147SOL     OW18076   2.260   4.687  12.185  0.3683 -0.1543  0.1240
 2147SOL    HW118077   2.294   4.597  12.180  1.8325  0.4207 -0.2228
 2147SOL    HW218078   2.332   0.004  12.214  1.9054 -1.4862 -1.0946
 2148SOL     OW18079   0.047   2.657  15.189 -0.3915  0.1973 -0.1270
 2148SOL    HW118080   0.066   2.613  15.272  0.9760  0.9851 -0.0202
 2148SOL    HW218081   0.087   2.597  15.125  0.2567  0.5352 -0.0383
 2149SOL     OW18082   4.617   4.263   9.576  0.0852 -0.2097  0.2613
 2149SOL    HW118083   4.690   4.225   9.626  1.6757  1.1829 -0.9785
 2149SOL    HW218084   4.550   4.272   9.644  0.7121  1.5298  0.6511
 2150SOL     OW18085   1.075   3.074   4.047 -0.4339  0.1452 -0.2665
 2150SOL    HW118086   1.098   2.982   4.060 -3.2005 -0.0905  2.9668
 2150SOL    HW218087   1.059   3.061   3.953  0.0725 -1.7751 -0.1006
 2151SOL     OW18088   3.360   2.204   7.008  0.4308 -0.0382  0.4385
 2151SOL    HW118089   3.422   2.132   7.010  1.4552  0.8307 -0.0998
 2151SOL    HW218090   3.286   2.149   6.982  0.7123 -0.6668  1.0027
 2152SOL     OW18091   2.455   1.204   7.872 -0.4906  0.1266 -0.0939
 2152SOL    HW118092   2.398   1.269   7.914  1.2192  0.1701  2.1528
 2152SOL    HW218093   2.387   1.137   7.878  0.9894 -1.6958 -4.4926
 2153SOL     OW18094   1.914   2.324   4.649 -0.1747  0.7498 -0.3634
 2153SOL    HW118095   1.905   2.320   4.744 -0.4871 -1.1748 -0.4861
 2153SOL    HW218096   1.940   2.415   4.638  1.2946  0.3011 -0.5222
 2154SOL     OW18097   2.674   1.189   8.776  0.0985 -0.5611  0.2971
 2154SOL    HW118098   2.767   1.170   8.781  0.7702  2.1071 -2.7110
 2154SOL    HW218099   2.663   1.267   8.830 -1.3562  1.7904 -3.4130
 2155SOL     OW18100   4.601   1.728  15.614  0.2841 -0.7685  0.3069
 2155SOL    HW118101   4.678   1.685  15.576 -0.0542 -1.4716  0.4043
 2155SOL    HW218102   4.566   1.646  15.649  0.1533 -0.2590  1.3558
 2156SOL     OW18103   0.437   1.441   4.247  0.4218 -0.2513 -0.4716
 2156SOL    HW118104   0.353   1.453   4.203  1.2655 -0.7079 -2.2301
 2156SOL    HW218105   0.452   1.518   4.301  1.0711  1.0889 -2.5865
 2157SOL     OW18106   0.838   1.492   9.952 -0.8607 -0.3490 -1.0006
 2157SOL    HW118107   0.798   1.579   9.950 -0.7901 -0.2714  0.4137
 2157SOL    HW218108   0.924   1.523   9.983 -0.0936 -2.3531 -1.0922
 2158SOL     OW18109   1.761   0.330   3.357 -0.3192 -0.0803  0.4939
 2158SOL    HW118110   1.736   0.344   3.266  0.1831 -0.4495  0.2981
 2158SOL    HW218111   1.794   0.240   3.352  0.7234  0.2461  1.5721
 2159SOL     OW18112   0.173   3.846   7.306  0.0516 -0.3974 -0.1255
 2159SOL    HW118113   0.105   3.790   7.269 -0.2230 -1.0061  1.2872
 2159SOL    HW218114   0.142   3.843   7.397  3.9718 -2.8152  1.1658
 2160SOL     OW18115   3.697   2.493   0.716  0.2496 -0.0144  0.0143
 2160SOL    HW118116   3.607   2.525   0.714 -0.2146 -1.2942  0.1068
 2160SOL    HW218117   3.688   2.422   0.652  0.6781 -0.3439  0.3182
 2161SOL     OW18118   2.765   4.646  10.747 -0.4527  0.1148  0.2246
 2161SOL    HW118119   2.823   4.637  10.823  0.5285 -0.9131 -0.6403
 2161SOL    HW218120   2.684   4.680  10.785 -0.0484  3.6674 -2.0958
 2162SOL     OW18121   3.894   3.812  10.697  0.2821 -0.2990  0.1546
 2162SOL    HW118122   3.847   3.737  10.661 -0.5149  1.1556 -1.8633
 2162SOL    HW218123   3.842   3.890  10.677  1.9298  0.6417 -0.4447
 2163SOL     OW18124   2.882   4.314  10.790  0.4608  0.2526  0.2628
 2163SOL    HW118125   2.856   4.405  10.806  3.1274  1.0429  0.0405
 2163SOL    HW218126   2.793   4.278  10.784  0.1298  0.7541  2.1746
 2164SOL     OW18127   0.623   2.131   8.394  0.1965 -0.1333 -0.6091
 2164SOL    HW118128   0.666   2.139   8.309  0.1947 -0.2260 -0.6191
 2164SOL    HW218129   0.531   2.132   8.368  0.0836 -0.9213 -0.2611
 2165SOL     OW18130   4.130   3.570   7.356 -0.3623  0.5759  0.7733
 2165SOL    HW118131   4.091   3.658   7.353 -0.3929  0.6049  2.1249
 2165SOL    HW218132   4.212   3.577   7.406  0.0904 -1.9068  0.3311
 2166SOL     OW18133   0.249   1.467  12.547 -0.0089  0.6791  0.0202
 2166SOL    HW118134   0.219   1.454  12.457 -1.2713  1.2866  0.3415
 2166SOL    HW218135   0.196   1.543  12.572  1.0023  0.5101  2.6674
 2167SOL     OW18136   0.876   2.097  17.735 -0.1789 -0.3760  0.1890
 2167SOL    HW118137   0.806   2.113  17.672  2.8185 -0.8567 -3.2330
 2167SOL    HW218138   0.904   2.188  17.746 -0.7769 -0.0108 -1.2555
 2168SOL     OW18139   2.830   4.528   7.725  0.4983  0.3656 -0.0572
 2168SOL    HW118140   2.892   4.585   7.770  2.3611 -3.9128  2.7925
 2168SOL    HW218141   2.874   4.520   7.641  1.0218  0.0260  0.2486
 2169SOL     OW18142   3.837   4.209   1.137  0.0011  0.0445  0.2916
 2169SOL    HW118143   3.843   4.303   1.154  0.1085  0.1596 -0.3978
 2169SOL    HW218144   3.745   4.184   1.147  0.3704 -1.5750 -0.4032
 2170SOL     OW18145   0.160   1.468   4.229 -0.5536  0.5994  0.3811
 2170SOL    HW118146   0.161   1.458   4.324  0.7536 -2.2971  0.0441
 2170SOL    HW218147   0.088   1.529   4.214 -0.7881 -0.0295 -1.0026
 2171SOL     OW18148   0.739   3.555   3.378 -0.8795 -0.3460  0.0161
 2171SOL    HW118149   0.809   3.588   3.321 -2.0596  1.9970 -0.1005
 2171SOL    HW218150   0.760   3.586   3.467  0.3577 -1.9803  0.2931
 2172SOL     OW18151   0.165   3.064   8.046 -0.2744  0.4891  0.0963
 2172SOL    HW118152   0.188   3.019   7.964 -1.2854  2.7627 -1.4330
 2172SOL    HW218153   0.251   3.085   8.084  1.3499  0.1291 -3.3527
 2173SOL     OW18154   0.140   2.806   5.592 -0.8500  0.2583 -0.5653
 2173SOL    HW118155   0.183   2.810   5.507  0.2802  0.2143  0.0045
 2173SOL    HW218156   0.171   2.881   5.644 -1.7015 -0.6750  1.2920
 2174SOL     OW18157   4.226   4.144   5.818 -0.8132 -0.4000 -0.3206
 2174SOL    HW118158   4.278   4.186   5.749  0.3352  1.3166  1.6030
 2174SOL    HW218159   4.214   4.060   5.774 -2.1340 -1.0774  1.3487
 2175SOL     OW18160   3.750   1.246   2.331  0.1897 -0.3684 -0.1000
 2175SOL    HW118161   3.822   1.231   2.270 -0.2183 -0.4963 -0.5465
 2175SOL    HW218162   3.742   1.157   2.365  2.4912  0.1004  1.7302
 2176SOL     OW18163   3.466   2.256   8.498 -0.4721 -0.3300  0.4345
 2176SOL    HW118164   3.459   2.237   8.405  0.2080  1.5393  0.0211
 2176SOL    HW218165   3.480   2.169   8.537  0.3503 -0.4223 -0.0737
 2177SOL     OW18166   3.534   3.414   9.817  0.0266  0.0609  0.5520
 2177SOL    HW118167   3.514   3.324   9.794 -0.8578  0.3948  0.0015
 2177SOL    HW218168   3.625   3.403   9.844  0.8557  0.3146 -2.1988
 2178SOL     OW18169   0.454   0.171   2.805  0.5626  0.1720 -0.2191
 2178SOL    HW118170   0.471   0.206   2.893  1.8503 -0.7034 -0.1118
 2178SOL    HW218171   0.413   0.245   2.761  1.4864 -0.3149 -1.9120
 2179SOL     OW18172   2.616   2.575   8.415  0.5301  0.5945  0.1236
 2179SOL    HW118173   2.711   2.571   8.424  0.6554  3.6060 -0.0666
 2179SOL    HW218174   2.591   2.485   8.436 -0.7622  1.0691  0.5930
 2180SOL     OW18175   3.813   1.679   2.592  0.0069 -0.2012  0.1923
 2180SOL    HW118176   3.781   1.682   2.683 -1.4149  0.3991 -0.3164
 2180SOL    HW218177   3.906   1.684   2.614 -0.0020  1.7569 -0.2130
 2181SOL     OW18178   3.887   4.509   4.801  0.2126 -0.2824 -0.2858
 2181SOL    HW118179   3.902   4.602   4.786  2.1292 -0.8014 -1.5037
 2181SOL    HW218180   3.799   4.500   4.838  0.0161  0.7790 -0.4964
 2182SOL     OW18181   4.036   4.696   5.401  0.6187  0.0885 -0.1103
 2182SOL    HW118182   3.979   4.628   5.436  0.2078  1.1357  1.2683
 2182SOL    HW218183   4.024   0.031   5.461  2.4876 -2.7104  3.6712
 2183SOL     OW18184   2.473   4.096  16.660  0.0494  0.1354  0.1064
 2183SOL    HW118185   2.487   4.113  16.566  0.4909  0.8727  0.3027
 2183SOL    HW218186   2.558   4.079  16.701  0.5034  0.9696 -0.4827
 2184SOL     OW18187   0.044   2.294  11.319 -0.2433 -0.5876  0.4016
 2184SOL    HW118188   0.136   2.297  11.344 -0.4327 -0.7204  1.1307
 2184SOL    HW218189   0.010   2.377  11.354  1.6996  0.5140 -0.3183
 2185SOL     OW18190   4.704   2.005   6.056  0.0582 -0.0427  0.0045
 2185SOL    HW118191   0.053   2.032   6.085 -0.3238  0.6441  0.5041
 2185SOL    HW218192   4.733   1.960   5.977  1.7239 -1.7847  1.5709
 2186SOL     OW18193   1.857   3.276   7.769 -0.1147 -0.0181 -0.2584
 2186SOL    HW118194   1.871   3.191   7.811  3.4331 -0.5987 -2.5585
 2186SOL    HW218195   1.803   3.246   7.696 -1.0485  1.2352 -0.0696
 2187SOL     OW18196   0.799   2.034   3.951  0.3697  0.1772  0.2061
 2187SOL    HW118197   0.811   1.958   3.893  0.6305  1.8896 -2.0076
 2187SOL    HW218198   0.705   2.050   3.948  0.5996  1.0688 -2.3473
 2188SOL     OW18199   4.011   4.664   2.102  0.0844  0.1141 -0.9118
 2188SOL    HW118200   3.961   4.703   2.173  1.0425  0.4547 -0.4249
 2188SOL    HW218201   4.072   4.605   2.147  1.4579  0.8045 -1.8511
 2189SOL     OW18202   0.233   0.416   0.306  0.8182  0.5623 -0.3301
 2189SOL    HW118203   0.276   0.416   0.220  0.9064  0.4981 -0.2868
 2189SOL    HW218204   0.293   0.477   0.349 -0.8317  1.0088  1.3441
 2190SOL     OW18205   0.348   2.563  14.815 -0.3132  0.4274 -0.2405
 2190SOL    HW118206   0.436   2.599  14.822  0.7110 -2.3914  1.5484
 2190SOL    HW218207   0.356   2.503  14.740 -2.0386  0.0339 -0.1153
 2191SOL     OW18208   4.147   3.600   5.032 -0.7429  0.3050 -0.5051
 2191SOL    HW118209   4.223   3.545   5.014  0.9091  2.5121 -0.2501
 2191SOL    HW218210   4.179   3.634   5.115 -0.5104  0.1399 -0.5287
 2192SOL     OW18211   3.920   0.483   6.069  0.0329  0.1620 -0.4306
 2192SOL    HW118212   3.864   0.512   5.997 -0.6789 -2.6352 -1.0175
 2192SOL    HW218213   4.010   0.491   6.037  0.4970 -0.1380  0.8002
 2193SOL     OW18214   2.321   4.596   4.793  0.6090 -0.3348  1.0458
 2193SOL    HW118215   2.372   4.517   4.812  0.1031 -1.1775 -1.0700
 2193SOL    HW218216   2.392   4.639   4.746  0.9538 -0.6076  1.3144
 2194SOL     OW18217   1.070   2.108   4.173 -0.1829  0.1638  0.8222
 2194SOL    HW118218   1.130   2.081   4.103 -0.5414 -1.8107  1.2789
 2194SOL    HW218219   1.077   2.204   4.172  2.9673 -0.0466  0.3679
 2195SOL     OW18220   2.321   0.015  11.209  0.2915  0.0893  0.4815
 2195SOL    HW118221   2.391   0.059  11.160 -0.3798 -0.0596 -0.6133
 2195SOL    HW218222   2.242   0.019  11.155 -0.2053 -1.0265  1.1224
 2196SOL     OW18223   1.963   2.255   6.362  0.0623  0.4476  0.2059
 2196SOL    HW118224   1.888   2.235   6.418  0.3497  1.0545  0.8055
 2196SOL    HW218225   2.035   2.205   6.402  0.2102 -0.0872 -0.7300
 2197SOL     OW18226   4.375   4.013   7.109  0.3380 -0.0663 -0.1022
 2197SOL    HW118227   4.406   4.016   7.018 -0.5760 -0.5753 -0.4343
 2197SOL    HW218228   4.450   4.050   7.156  0.4216 -0.9362  0.4608
 2198SOL     OW18229   1.770   3.312   8.711  0.3186 -0.5346  0.6023
 2198SOL    HW118230   1.795   3.220   8.701 -0.4652 -0.7772  0.9528
 2198SOL    HW218231   1.835   3.339   8.776  0.1569  1.5251 -0.0762
 2199SOL     OW18232   2.592   4.147  15.570 -0.4509 -0.4547 -0.6499
 2199SOL    HW118233   2.549   4.227  15.540 -2.0225 -0.4157  1.6663
 2199SOL    HW218234   2.530   4.077  15.548 -1.2820 -0.1452  0.7049
 2200SOL     OW18235   3.410   3.953   7.357  0.1998  0.0826  0.7448
 2200SOL    HW118236   3.429   3.891   7.287  1.8785 -0.5163  1.7107
 2200SOL    HW218237   3.315   3.958   7.353  0.3901  2.5627 -0.7444
 2201SOL     OW18238   0.881   2.183   9.901  0.4206 -0.0416  0.2472
 2201SOL    HW118239   0.939   2.229   9.962 -0.7218  0.4901  0.9304
 2201SOL    HW218240   0.925   2.100   9.885  1.3536  0.6159 -0.6106
 2202SOL     OW18241   0.702   3.894   5.379 -0.2990  0.0461 -0.7088
 2202SOL    HW118242   0.723   3.985   5.398  0.5388  0.6414 -4.4324
 2202SOL    HW218243   0.607   3.891   5.389 -0.3139  0.7487 -0.6095
 2203SOL     OW18244   2.235   0.471   2.388  0.0207  0.2468 -0.5824
 2203SOL    HW118245   2.313   0.418   2.370  0.4485  0.0167  1.9042
 2203SOL    HW218246   2.268   0.560   2.393  2.9423 -1.0598  3.1610
 2204SOL     OW18247   3.033   4.454  11.928  0.0525 -0.3048 -0.2003
 2204SOL    HW118248   2.965   4.411  11.979  0.5127  0.8353  1.3696
 2204SOL    HW218249   2.983   4.458  11.846 -0.6650  1.9547  0.3276
 2205SOL     OW18250   2.881   3.750   8.429 -0.2394  0.3922  0.2034
 2205SOL    HW118251   2.868   3.798   8.511 -0.5458 -2.5401  1.8348
 2205SOL    HW218252   2.793   3.733   8.395  0.8124  1.8092 -3.3084
 2206SOL     OW18253   3.327   3.401   8.735 -0.4223  0.5871 -0.3113
 2206SOL    HW118254   3.373   3.402   8.652  2.1367 -0.1023  1.1146
 2206SOL    HW218255   3.237   3.373   8.715 -0.2968 -1.0544  1.4573
 2207SOL     OW18256   4.665   1.553   6.700  0.0188 -0.3269 -0.6571
 2207SOL    HW118257   4.712   1.476   6.732  0.3690  0.2295  0.1731
 2207SOL    HW218258   4.669   1.543   6.605  0.1510  1.4581 -0.8395
 2208SOL     OW18259   0.209   4.192  16.794 -0.5936  0.4986 -0.8852
 2208SOL    HW118260   0.193   4.123  16.858  0.9487 -0.6213 -1.7170
 2208SOL    HW218261   0.301   4.218  16.799 -0.7407  0.5306  1.5035
 2209SOL     OW18262   1.161   2.027   4.752  0.1136 -0.6821  0.2872
 2209SOL    HW118263   1.236   2.008   4.696 -0.0477 -0.9124  0.1478
 2209SOL    HW218264   1.106   2.088   4.704  0.2785 -1.7975 -1.3062
 2210SOL     OW18265   4.014   1.743   5.920 -0.1265  0.4116  0.3483
 2210SOL    HW118266   4.080   1.784   5.976  0.2474  0.2422  0.0301
 2210SOL    HW218267   3.977   1.694   5.993 -1.1096  0.8549  0.1486
 2211SOL     OW18268   0.868   0.958   0.301 -0.4304  0.1672  0.1425
 2211SOL    HW118269   0.779   0.955   0.266 -0.4705  0.7595  0.1850
 2211SOL    HW218270   0.855   1.008   0.381  1.2350  0.5708  0.1634
 2212SOL     OW18271   2.847   3.164   3.217  0.2049 -0.1136 -0.0219
 2212SOL    HW118272   2.814   3.075   3.204  1.7520 -0.4698 -1.5894
 2212SOL    HW218273   2.777   3.216   3.256 -0.7819 -1.1702 -0.4114
 2213SOL     OW18274   1.364   1.505   0.011 -0.7942  0.0737  0.2750
 2213SOL    HW118275   1.390   1.595  17.747 -0.7241 -0.2098 -1.3328
 2213SOL    HW218276   1.375   1.463  17.677 -0.0576 -0.8065  0.7984
 2214SOL     OW18277   0.851   3.835   4.254 -0.0353  0.0950 -0.2691
 2214SOL    HW118278   0.926   3.893   4.240  0.2035 -0.3153 -0.6815
 2214SOL    HW218279   0.874   3.791   4.336 -0.1441 -0.0448 -0.3129
 2215SOL     OW18280   2.747   0.538   0.444  0.1400  0.2665  0.1534
 2215SOL    HW118281   2.833   0.562   0.411 -0.2558  0.5627 -0.6614
 2215SOL    HW218282   2.731   0.598   0.518  0.0933  3.6779 -2.6062
 2216SOL     OW18283   0.410   3.534   3.989 -0.4762  0.2577 -0.3135
 2216SOL    HW118284   0.372   3.591   4.056  1.5087 -1.1893  2.0820
 2216SOL    HW218285   0.443   3.467   4.049  2.1231  0.1711 -1.8479
 2217SOL     OW18286   3.030   4.010   4.514 -0.4532  0.5620  0.2144
 2217SOL    HW118287   3.048   4.073   4.584 -0.5894  2.4885 -1.5063
 2217SOL    HW218288   2.935   4.014   4.505 -0.3368  1.2250 -0.6505
 2218SOL     OW18289   1.456   0.616  17.629  0.2799  0.4651  0.6556
 2218SOL    HW118290   1.414   0.557  17.691  1.0202 -0.4323  0.3046
 2218SOL    HW218291   1.452   0.556  17.554 -1.5254 -0.0528  1.1670
 2219SOL     OW18292   4.415   1.428  13.166  0.1746 -0.1829 -0.3702
 2219SOL    HW118293   4.343   1.409  13.106 -0.7178  2.8006 -0.2531
 2219SOL    HW218294   4.454   1.342  13.176  0.6409  0.1603  0.8028
 2220SOL     OW18295   3.595   1.362  17.557  0.2014  0.1291 -0.1735
 2220SOL    HW118296   3.544   1.287  17.587  1.1810 -0.3552  0.3020
 2220SOL    HW218297   3.560   1.441  17.598  0.6416 -0.0481  0.5555
 2221SOL     OW18298   4.470   4.575   8.710  0.3951 -0.3896  0.1404
 2221SOL    HW118299   4.484   4.668   8.727  0.7872 -0.6019  0.9631
 2221SOL    HW218300   4.438   4.584   8.620 -0.4087  1.3342  0.6086
 2222SOL     OW18301   0.124   2.488  16.332 -0.3069 -0.3204 -0.4616
 2222SOL    HW118302   0.174   2.413  16.362  0.9022  0.8379  0.4286
 2222SOL    HW218303   0.123   2.488  16.236 -3.5430 -0.8564 -0.4032
 2223SOL     OW18304   1.355   2.479   3.706  0.0566  0.2713 -0.5401
 2223SOL    HW118305   1.385   2.423   3.777 -0.2352  0.8488  0.0444
 2223SOL    HW218306   1.317   2.421   3.640  1.3725 -2.1385  0.8460
 2224SOL     OW18307   2.118   2.668   9.189  0.1465  0.1367  0.0105
 2224SOL    HW118308   2.167   2.681   9.270 -0.0882 -2.3606  0.5623
 2224SOL    HW218309   2.134   2.575   9.170 -0.6793 -0.2750  1.3394
 2225SOL     OW18310   1.247   2.218   6.055  0.3986 -0.3225 -0.0249
 2225SOL    HW118311   1.322   2.270   6.084 -1.6436  2.7985 -0.3276
 2225SOL    HW218312   1.221   2.177   6.138 -1.0590 -1.7188 -1.1770
 2226SOL     OW18313   3.787   1.944   7.181 -0.1843 -0.0689  0.0224
 2226SOL    HW118314   3.868   1.893   7.178 -0.7448 -1.0201  0.9573
 2226SOL    HW218315   3.727   1.884   7.226 -0.4282  1.0436  1.1695
 2227SOL     OW18316   3.820   4.516  12.964 -0.4926  0.0389 -0.2452
 2227SOL    HW118317   3.910   4.548  12.967 -0.1828 -0.9895  0.9095
 2227SOL    HW218318   3.824   4.423  12.941 -2.3168 -0.2433  0.6117
 2228SOL     OW18319   2.608   3.343   9.113 -0.0699  0.2092  0.1451
 2228SOL    HW118320   2.533   3.284   9.120  0.1912 -0.0565  0.6577
 2228SOL    HW218321   2.589   3.413   9.176  1.0807  0.4136  0.2635
 2229SOL     OW18322   3.430   2.080  14.578 -0.4149 -0.2921 -0.1059
 2229SOL    HW118323   3.341   2.045  14.589  0.1811 -1.6275  0.4571
 2229SOL    HW218324   3.478   2.035  14.648 -0.6797  0.6520  0.6816
 2230SOL     OW18325   1.081   0.621   8.936  0.4514 -0.9351 -0.3310
 2230SOL    HW118326   1.152   0.592   8.994 -0.5336 -1.6419  0.5281
 2230SOL    HW218327   1.042   0.536   8.918  0.1272 -0.4037 -2.1155
 2231SOL     OW18328   4.446   4.523  12.430 -1.0312 -0.1349 -0.7541
 2231SOL    HW118329   4.429   4.442  12.478  1.9958 -1.3088 -1.6880
 2231SOL    HW218330   4.433   4.490  12.341 -1.9414  0.1246 -0.7154
 2232SOL     OW18331   1.256   0.921   8.776  0.1990  0.8877 -0.8281
 2232SOL    HW118332   1.177   0.866   8.771  1.6259 -1.3662  1.3546
 2232SOL    HW218333   1.329   0.868   8.743 -2.0371 -1.8149 -1.4470
 2233SOL     OW18334   2.296   1.748   4.111  0.1623  0.0995  0.2781
 2233SOL    HW118335   2.208   1.712   4.111  0.0840  0.2838  0.5935
 2233SOL    HW218336   2.273   1.841   4.102  1.9460  0.6821  1.5290
 2234SOL     OW18337   4.018   2.048   4.522 -0.3314 -0.0231  0.2920
 2234SOL    HW118338   4.055   2.088   4.600  0.8349  0.6095 -0.5964
 2234SOL    HW218339   4.056   2.105   4.455  0.2790 -1.1621 -0.3438
 2235SOL     OW18340   2.536   2.874  15.938  0.0756 -0.3657 -0.0331
 2235SOL    HW118341   2.497   2.957  15.967  2.1379  0.2654  0.9506
 2235SOL    HW218342   2.460   2.818  15.925  0.2066 -0.2851 -1.1792
 2236SOL     OW18343   0.273   1.838   7.492  0.3215 -0.3835  0.1880
 2236SOL    HW118344   0.236   1.879   7.570  0.7959  4.4048 -2.1473
 2236SOL    HW218345   0.192   1.814   7.447  0.5611  0.3141 -0.5983
 2237SOL     OW18346   4.588   3.872  10.462 -0.1895  0.4062 -0.4556
 2237SOL    HW118347   4.493   3.867  10.452 -0.4174  1.8510  0.8956
 2237SOL    HW218348   4.589   3.911  10.550  0.6552  0.4053 -0.4637
 2238SOL     OW18349   3.910   3.346  10.705 -0.1460 -0.9326  0.0698
 2238SOL    HW118350   4.003   3.350  10.726  0.6409 -2.2514 -3.2077
 2238SOL    HW218351   3.914   3.327  10.612  0.6520  0.2598 -0.1387
 2239SOL     OW18352   3.805   0.431   4.818 -0.8191  0.4040 -0.1871
 2239SOL    HW118353   3.812   0.527   4.819 -1.0143  0.4271 -1.0688
 2239SOL    HW218354   3.843   0.412   4.904 -1.3414 -0.4296 -0.1399
 2240SOL     OW18355   1.044   0.429  16.685 -0.8177 -0.2138  0.1055
 2240SOL    HW118356   0.973   0.493  16.688  1.0389  1.7809  1.3582
 2240SOL    HW218357   0.994   0.349  16.698  2.2819 -1.8559  1.9854
 2241SOL     OW18358   0.126   0.845  13.440  0.0126 -0.0357  0.1629
 2241SOL    HW118359   0.095   0.764  13.400  0.6424 -0.6936  1.0182
 2241SOL    HW218360   0.211   0.814  13.471 -0.0800 -1.2695 -0.8295
 2242SOL     OW18361   4.691   4.251   2.584 -0.3643  0.1319 -0.4401
 2242SOL    HW118362   4.597   4.243   2.570 -0.5537  0.1528  0.8359
 2242SOL    HW218363   4.712   4.172   2.632 -0.0500  1.2060  1.1785
 2243SOL     OW18364   4.193   0.006   2.683 -0.7968 -0.4449  0.3614
 2243SOL    HW118365   4.192   4.666   2.628 -1.1241 -0.6978  0.7235
 2243SOL    HW218366   4.282   0.001   2.717 -0.7125  2.5924  0.5609
 2244SOL     OW18367   3.929   4.431   4.173  0.6727 -0.5163  0.1870
 2244SOL    HW118368   4.009   4.474   4.143 -1.0373  3.1972  0.9308
 2244SOL    HW218369   3.966   4.385   4.248  0.0934  0.4850  1.0967
 2245SOL     OW18370   3.099   2.224   9.703 -0.8270  0.2795  0.2088
 2245SOL    HW118371   3.111   2.283   9.777  0.7029  0.0025  0.1991
 2245SOL    HW218372   3.037   2.160   9.738 -0.9732  0.4014  0.1724
 2246SOL     OW18373   0.459   3.587   3.479 -0.3812 -0.4847 -0.6899
 2246SOL    HW118374   0.550   3.559   3.476 -0.8667 -1.9848 -1.2758
 2246SOL    HW218375   0.476   3.661   3.538  2.6453 -1.4621 -0.3416
 2247SOL     OW18376   3.193   3.132   1.377 -0.0227  0.8253 -0.1003
 2247SOL    HW118377   3.107   3.143   1.418 -1.3219  2.0545 -3.1426
 2247SOL    HW218378   3.246   3.095   1.448 -0.5621 -1.0360 -0.6926
 2248SOL     OW18379   3.682   2.879   3.889 -0.2618  0.1128  0.2631
 2248SOL    HW118380   3.725   2.798   3.915  1.1518  0.2785 -1.6500
 2248SOL    HW218381   3.651   2.851   3.803  1.7474  1.0537 -0.7572
 2249SOL     OW18382   2.182   1.892   3.722 -0.3170 -0.0334  0.0197
 2249SOL    HW118383   2.249   1.911   3.656 -0.7393 -2.0372 -0.9894
 2249SOL    HW218384   2.242   1.873   3.794  0.7384  0.8898 -0.6192
 2250SOL     OW18385   0.342   0.474   0.087  0.0380 -0.9068 -0.2061
 2250SOL    HW118386   0.433   0.495   0.067  0.2688 -0.8738  0.8747
 2250SOL    HW218387   0.310   0.473  17.748 -2.0708 -2.7226  0.5592
 2251SOL     OW18388   3.770   1.668   5.788  0.0530  0.2418 -0.7771
 2251SOL    HW118389   3.746   1.747   5.836  1.2175  0.6424 -0.8405
 2251SOL    HW218390   3.864   1.683   5.803  0.1394 -1.8637  0.8619
 2252SOL     OW18391   1.225   2.304   5.436  0.1366  0.2100 -0.4377
 2252SOL    HW118392   1.272   2.386   5.418 -1.5932  1.1073 -0.9207
 2252SOL    HW218393   1.166   2.329   5.508  1.8805 -2.9829  2.0941
 2253SOL     OW18394   4.367   3.585   8.760 -0.5112  0.1777 -0.1055
 2253SOL    HW118395   4.422   3.562   8.685  0.5406 -0.5126  0.8643
 2253SOL    HW218396   4.347   3.509   8.814 -0.2276 -0.5905 -1.0753
 2254SOL     OW18397   0.845   1.034   2.116  0.1845 -0.5104  0.8212
 2254SOL    HW118398   0.828   0.962   2.055 -0.1648  0.1488  0.1439
 2254SOL    HW218399   0.904   1.090   2.066 -1.4900 -0.8049 -1.4657
 2255SOL     OW18400   0.916   3.495   8.310 -0.7029  0.1431 -0.3850
 2255SOL    HW118401   0.927   3.435   8.384 -0.1253  0.2983 -0.3414
 2255SOL    HW218402   1.003   3.534   8.311  0.1319 -1.6781 -2.4154
 2256SOL     OW18403   1.064   3.413  11.878  0.1323 -0.1568 -0.1116
 2256SOL    HW118404   1.143   3.391  11.928  1.0770  0.8962 -1.1422
 2256SOL    HW218405   1.016   3.332  11.892  2.6309 -1.3407  1.5852
 2257SOL     OW18406   2.166   3.180   9.309  0.5599  0.5890 -0.5153
 2257SOL    HW118407   2.153   3.099   9.359 -0.1146  1.1127  0.1406
 2257SOL    HW218408   2.257   3.169   9.280 -0.2211 -0.0091 -2.7225
 2258SOL     OW18409   1.633   3.682   2.009 -0.0565 -0.3254  0.0705
 2258SOL    HW118410   1.541   3.685   2.034 -0.4440  3.1224 -1.6674
 2258SOL    HW218411   1.664   3.772   2.024  0.4746 -0.1132 -2.2696
 2259SOL     OW18412   3.491   0.712  14.222 -0.4130  0.7345 -0.1720
 2259SOL    HW118413   3.546   0.634  14.227 -0.3330  0.6885 -1.7841
 2259SOL    HW218414   3.444   0.701  14.304  0.2937  1.0285  0.2657
 2260SOL     OW18415   4.417   0.743   4.399 -0.0737  0.3010  0.2329
 2260SOL    HW118416   4.378   0.772   4.481  1.9866  0.6206  1.0822
 2260SOL    HW218417   4.376   0.803   4.335  0.1835 -2.0321 -2.1030
 2261SOL     OW18418   2.280   1.249   2.062 -0.1223 -0.3547  0.0218
 2261SOL    HW118419   2.301   1.169   2.014  2.0628 -0.3821  1.0226
 2261SOL    HW218420   2.221   1.298   2.005 -1.8951 -0.7244  1.5324
 2262SOL     OW18421   2.905   2.047   4.064  0.4585 -0.7448  0.1111
 2262SOL    HW118422   2.846   1.977   4.092  1.6616 -2.3973 -1.3967
 2262SOL    HW218423   2.903   2.092   4.148  0.5603 -0.1306 -0.2201
 2263SOL     OW18424   3.170   1.777   9.138 -0.5546  0.4094 -0.2438
 2263SOL    HW118425   3.106   1.746   9.202 -2.1465  2.6412 -0.7482
 2263SOL    HW218426   3.241   1.800   9.198 -0.6284 -0.5164  0.2083
 2264SOL     OW18427   1.366   1.424   1.608 -0.2496 -0.0003  0.2403
 2264SOL    HW118428   1.283   1.389   1.577  1.5115 -2.5910 -1.5115
 2264SOL    HW218429   1.334   1.513   1.623 -1.3252 -0.0760 -1.6001
 2265SOL     OW18430   2.694   3.315  13.570 -0.6297  0.4640 -0.0384
 2265SOL    HW118431   2.713   3.240  13.514 -1.5231  0.2763 -0.0868
 2265SOL    HW218432   2.599   3.308  13.557 -0.5528  0.0544 -0.3850
 2266SOL     OW18433   0.798   3.175   1.628  0.2463 -0.0184  1.1117
 2266SOL    HW118434   0.787   3.102   1.567  0.3596 -1.0024  2.2793
 2266SOL    HW218435   0.730   3.237   1.601  0.4913  0.7493  2.2326
 2267SOL     OW18436   2.085   3.837   2.049  0.2601 -0.2972 -0.0523
 2267SOL    HW118437   2.172   3.807   2.073 -0.0475 -1.3747 -0.3086
 2267SOL    HW218438   2.064   3.890   2.126 -2.0848  0.7718 -1.3962
 2268SOL     OW18439   3.822   2.753  17.611  0.0102  0.0375 -0.2072
 2268SOL    HW118440   3.824   2.848  17.601  0.5521  0.2078  1.6539
 2268SOL    HW218441   3.842   2.742  17.704  0.2468 -0.7152 -0.3485
 2269SOL     OW18442   3.734   0.046   1.313 -0.2387  0.5888  0.2675
 2269SOL    HW118443   3.645   0.082   1.309 -1.0983 -1.8526 -2.4046
 2269SOL    HW218444   3.741   0.004   1.399  0.6795  3.4373  1.5782
 2270SOL     OW18445   0.352   4.318   4.118  0.1705  0.1789 -0.4096
 2270SOL    HW118446   0.360   4.316   4.023  0.4296 -2.3759 -0.3424
 2270SOL    HW218447   0.435   4.274   4.137 -0.0038  0.0482  0.0607
 2271SOL     OW18448   4.508   0.102   2.124  0.4370  0.2514 -0.1870
 2271SOL    HW118449   4.594   0.091   2.083  0.5370  1.0900 -0.1991
 2271SOL    HW218450   4.520   0.193   2.151  0.1009 -0.0220  0.8691
 2272SOL     OW18451   1.745   0.912   8.471 -0.2678 -0.0584  0.2585
 2272SOL    HW118452   1.826   0.929   8.423  0.3392 -2.5816  0.3594
 2272SOL    HW218453   1.727   0.998   8.510 -0.7273 -0.1210  0.1906
 2273SOL     OW18454   1.103   4.616   4.128  0.0123  0.1661 -0.2457
 2273SOL    HW118455   1.154   4.666   4.192  1.7628 -0.4768 -1.1648
 2273SOL    HW218456   1.105   4.526   4.159  1.1220  0.6634  1.1291
 2274SOL     OW18457   0.687   2.172  17.552  0.6739 -0.0538  0.4053
 2274SOL    HW118458   0.700   2.093  17.500  1.1098 -0.4876  1.1721
 2274SOL    HW218459   0.633   2.221  17.490 -1.4544 -2.0133  0.7283
 2275SOL     OW18460   3.015   4.654  12.131 -0.0636 -0.2112  0.0272
 2275SOL    HW118461   3.028   4.597  12.055 -0.3123  1.1582 -1.0303
 2275SOL    HW218462   2.997   4.737  12.088 -0.9253 -0.4497 -0.0760
 2276SOL     OW18463   4.510   4.322   2.199  0.1030  0.5436  0.3904
 2276SOL    HW118464   4.564   4.382   2.251 -0.4684  0.3536  1.2049
 2276SOL    HW218465   4.552   4.237   2.213  0.8621  0.6825 -1.1420
 2277SOL     OW18466   0.682   1.566   7.557  0.1652  0.5041 -0.0451
 2277SOL    HW118467   0.630   1.570   7.477  0.5713 -0.3577 -0.3517
 2277SOL    HW218468   0.610   1.582   7.619 -0.3154 -0.4317 -0.3611
 2278SOL     OW18469   3.524   2.722   6.667  0.6290 -0.2551 -0.0657
 2278SOL    HW118470   3.573   2.735   6.748  0.9076  1.1020 -0.4532
 2278SOL    HW218471   3.446   2.682   6.704  1.1223  0.1799  1.4427
 2279SOL     OW18472   4.623   1.600  13.551 -0.0293 -0.1076 -0.1648
 2279SOL    HW118473   4.690   1.560  13.606 -1.8656 -1.1470  1.3255
 2279SOL    HW218474   4.621   1.692  13.577 -1.4610  0.4957 -2.3839
 2280SOL     OW18475   2.101   2.909   6.231  0.4755  0.4272 -0.0243
 2280SOL    HW118476   2.186   2.896   6.188  0.6683  1.2007  0.1232
 2280SOL    HW218477   2.076   2.994   6.196  0.5328  0.6032  0.3730
 2281SOL     OW18478   1.140   1.044   0.407 -0.0087 -0.1020 -0.1573
 2281SOL    HW118479   1.116   1.022   0.317  1.5699  1.9395 -1.0838
 2281SOL    HW218480   1.072   1.004   0.461 -1.8206 -1.3943 -3.4124
 2282SOL     OW18481   0.497   4.591   5.579 -0.1748  0.0411 -0.2059
 2282SOL    HW118482   0.535   4.677   5.601  1.3902 -0.6613 -0.1735
 2282SOL    HW218483   0.425   4.600   5.518 -0.3797 -0.9860 -0.1187
 2283SOL     OW18484   2.053   3.880   5.517  0.4708  0.4946  0.3670
 2283SOL    HW118485   1.982   3.878   5.581  0.1582  2.4736  0.0817
 2283SOL    HW218486   2.088   3.968   5.532  3.8208 -0.7399 -0.1550
 2284SOL     OW18487   4.502   2.679   9.358  0.3895  0.4385 -0.1507
 2284SOL    HW118488   4.565   2.638   9.417  1.2678  0.0349 -1.3667
 2284SOL    HW218489   4.494   2.769   9.390  1.2515 -0.4148  2.4036
 2285SOL     OW18490   4.638   1.378  17.657 -0.4704 -0.0277  0.3564
 2285SOL    HW118491   4.716   1.432  17.669 -1.3564  1.3519 -0.0729
 2285SOL    HW218492   4.614   1.355  17.747 -3.7334  1.8038 -0.0639
 2286SOL     OW18493   3.941   2.991   0.418 -0.1690  0.5346  0.0114
 2286SOL    HW118494   3.867   2.962   0.471 -2.0076  2.7163 -1.3631
 2286SOL    HW218495   3.902   3.049   0.353 -0.1961 -1.6420 -1.8933
 2287SOL     OW18496   3.697   3.676   8.869 -0.5934 -0.7893 -0.4779
 2287SOL    HW118497   3.766   3.612   8.855  2.0371  2.2166 -1.3745
 2287SOL    HW218498   3.626   3.622   8.835 -0.7935  0.7692 -2.5553
 2288SOL     OW18499   0.728   2.057   7.624 -0.1466  0.6296  0.3401
 2288SOL    HW118500   0.757   1.969   7.650  1.4112  1.0404  0.0077
 2288SOL    HW218501   0.656   2.034   7.566 -0.4553  0.7081  0.6899
 2289SOL     OW18502   1.144   3.875   5.135 -0.2200 -0.1260  0.2152
 2289SOL    HW118503   1.176   3.937   5.070 -0.0398  0.2675  0.6780
 2289SOL    HW218504   1.171   3.922   5.214  1.3952 -1.1188  0.2581
 2290SOL     OW18505   0.056   1.083  14.164 -0.4058 -0.3653 -0.0561
 2290SOL    HW118506   0.016   1.168  14.143  1.4024  0.1532 -1.4141
 2290SOL    HW218507   0.024   1.067  14.253  1.4563  0.5074  0.7765
 2291SOL     OW18508   1.843   3.329   4.949 -0.0583  0.3372 -0.0044
 2291SOL    HW118509   1.888   3.369   4.875 -1.7200  1.6738 -0.2759
 2291SOL    HW218510   1.776   3.277   4.906  0.8510 -1.3551  0.5934
 2292SOL     OW18511   4.342   0.993  13.183  0.0384 -0.2559  0.2472
 2292SOL    HW118512   4.389   0.921  13.141  1.5538  1.5543 -1.1200
 2292SOL    HW218513   4.256   0.951  13.190 -1.6319  3.0600 -0.7957
 2293SOL     OW18514   2.860   0.715  12.452  0.1832  0.2087 -0.0844
 2293SOL    HW118515   2.768   0.698  12.471  0.6364 -0.2667  1.6467
 2293SOL    HW218516   2.853   0.760  12.367  0.0773  2.1059  0.9284
 2294SOL     OW18517   0.582   4.068   7.832  0.1612 -0.4862  0.3892
 2294SOL    HW118518   0.518   4.009   7.791  0.1350 -0.1319 -0.0783
 2294SOL    HW218519   0.641   4.004   7.873  0.9786 -0.3177 -0.5530
 2295SOL     OW18520   0.800   1.631   3.644 -0.2554 -0.0458 -0.2395
 2295SOL    HW118521   0.832   1.595   3.561  0.6679  0.0672  0.0706
 2295SOL    HW218522   0.710   1.645   3.614  0.2409  2.0659 -0.7697
 2296SOL     OW18523   1.434   2.788   6.090 -1.1982 -0.0359  0.5191
 2296SOL    HW118524   1.476   2.817   6.171  1.4081 -1.0015 -0.4838
 2296SOL    HW218525   1.507   2.806   6.030  0.7910 -1.8051  2.3781
 2297SOL     OW18526   4.524   1.168   8.226 -0.1475  0.2386  0.6114
 2297SOL    HW118527   4.475   1.239   8.184  0.5428  0.2323 -0.2268
 2297SOL    HW218528   4.454   1.105   8.208  0.3666 -0.5387  1.3191
 2298SOL     OW18529   2.219   1.338  14.157 -0.0146  0.4130 -0.3235
 2298SOL    HW118530   2.174   1.423  14.161  0.1263  0.3910  1.7897
 2298SOL    HW218531   2.312   1.359  14.167 -0.1286  0.4070  0.7344
 2299SOL     OW18532   4.413   0.566  14.264  0.3815 -0.1168 -0.1880
 2299SOL    HW118533   4.383   0.511  14.336 -2.3355  2.0621  0.3680
 2299SOL    HW218534   4.482   0.508  14.233  1.1365  0.0695  1.1135
 2300SOL     OW18535   1.721   3.744  10.929  0.5689  0.5279  0.3713
 2300SOL    HW118536   1.708   3.773  10.839  0.2955  0.3133  0.3425
 2300SOL    HW218537   1.810   3.773  10.949  1.0766  0.2874 -1.5054
 2301SOL     OW18538   0.984   0.666   6.694  0.4882 -0.6048 -0.2174
 2301SOL    HW118539   0.994   0.638   6.785  0.6781 -0.7855 -0.2922
 2301SOL    HW218540   0.892   0.645   6.678  0.6972  0.9656 -3.5043
 2302SOL     OW18541   2.500   3.289   2.415 -0.3508  0.1215 -0.6185
 2302SOL    HW118542   2.422   3.247   2.380  0.4110 -3.2847  1.7890
 2302SOL    HW218543   2.477   3.381   2.401  2.6782  0.9401 -0.2078
 2303SOL     OW18544   2.521   1.270   9.452 -0.3156 -0.3149  0.0070
 2303SOL    HW118545   2.551   1.214   9.382 -2.1632  0.3816 -1.3407
 2303SOL    HW218546   2.523   1.359   9.415 -1.8071 -0.8154 -1.2960
 2304SOL     OW18547   1.184   2.726   6.864 -0.1897  0.3044  0.5579
 2304SOL    HW118548   1.116   2.663   6.887 -1.3989  0.9466 -1.2237
 2304SOL    HW218549   1.264   2.682   6.890  0.4810 -0.5461 -2.8819
 2305SOL     OW18550   3.459   3.050   5.757  0.0329 -0.3879  0.0123
 2305SOL    HW118551   3.500   3.068   5.672 -1.6534  1.5614 -0.3973
 2305SOL    HW218552   3.367   3.040   5.735  0.3625  2.2370 -2.4841
 2306SOL     OW18553   3.971   3.438  13.773  0.3277 -0.4749 -0.3231
 2306SOL    HW118554   3.980   3.528  13.805  0.5800 -0.4822 -0.3750
 2306SOL    HW218555   3.910   3.445  13.699  0.7490  2.6320 -0.3819
 2307SOL     OW18556   0.701   1.235  15.579 -0.9050  0.1798 -0.4476
 2307SOL    HW118557   0.614   1.199  15.564 -1.7830  1.2043  2.1600
 2307SOL    HW218558   0.736   1.148  15.598 -2.8054 -0.4363  0.2196
 2308SOL     OW18559   3.419   1.707   6.843 -0.1272 -0.2783 -0.1568
 2308SOL    HW118560   3.353   1.776   6.845 -0.1213 -0.1786 -2.6984
 2308SOL    HW218561   3.363   1.632   6.826 -0.6245  0.0602 -0.0210
 2309SOL     OW18562   1.972   2.772   8.410  0.1020  0.0817 -0.3318
 2309SOL    HW118563   1.980   2.864   8.435  2.7167 -0.2549  0.0105
 2309SOL    HW218564   1.890   2.745   8.451  1.0948  0.1337  1.6839
 2310SOL     OW18565   3.785   4.422  16.022  0.5479 -0.2763 -0.6923
 2310SOL    HW118566   3.832   4.394  16.100  0.2589  2.0563  0.3203
 2310SOL    HW218567   3.713   4.463  16.070  1.6426  0.1284  0.5887
 2311SOL     OW18568   0.337   0.119   3.321 -0.0408  0.4283 -0.3311
 2311SOL    HW118569   0.394   0.189   3.354 -0.9700  0.0104  2.1791
 2311SOL    HW218570   0.312   0.158   3.238  4.2017  2.4509 -0.6551
 2312SOL     OW18571   3.411   1.184  17.636  0.1377 -0.0634  0.6157
 2312SOL    HW118572   3.401   1.152  17.726 -1.2712 -1.0357  0.1074
 2312SOL    HW218573   3.327   1.165  17.594 -0.6277  2.6653  0.9037
 2313SOL     OW18574   3.610   4.097   2.817 -0.8626 -0.4793 -0.0802
 2313SOL    HW118575   3.685   4.056   2.774 -1.2832  0.3278 -1.5730
 2313SOL    HW218576   3.613   4.189   2.791 -1.3492 -0.2025  0.8415
 2314SOL     OW18577   1.142   1.985  16.308 -0.4258 -0.0860 -0.2434
 2314SOL    HW118578   1.102   1.925  16.245 -0.3890 -0.3226 -0.0395
 2314SOL    HW218579   1.087   1.953  16.380 -0.2255  1.2862  0.5324
 2315SOL     OW18580   1.572   2.630   2.134  0.2546 -0.3247  0.1145
 2315SOL    HW118581   1.537   2.601   2.218 -0.3286 -0.5064 -0.1855
 2315SOL    HW218582   1.657   2.588   2.126  0.7311  0.4698  1.0036
 2316SOL     OW18583   4.120   1.970   2.969  0.2187  0.1687 -0.0131
 2316SOL    HW118584   4.198   1.963   3.024  0.7129  1.5849 -0.5250
 2316SOL    HW218585   4.146   1.910   2.899 -1.4599  0.8224 -1.2170
 2317SOL     OW18586   0.838   3.102   2.745  0.2926 -0.0282  0.1196
 2317SOL    HW118587   0.775   3.041   2.705  1.7287 -1.3706 -0.0873
 2317SOL    HW218588   0.819   3.174   2.685 -0.2917 -0.1992  0.0921
 2318SOL     OW18589   4.461   0.660   0.847  0.8609 -0.1605 -0.5720
 2318SOL    HW118590   4.454   0.583   0.902  0.0879 -1.6222 -2.7024
 2318SOL    HW218591   4.464   0.731   0.911  1.9675 -0.1121 -0.6867
 2319SOL     OW18592   1.823   3.363   2.967 -0.6823  0.0957 -0.4070
 2319SOL    HW118593   1.867   3.446   2.986 -2.9658  1.6685 -1.9531
 2319SOL    HW218594   1.732   3.392   2.959 -0.4946  0.1177 -2.6512
 2320SOL     OW18595   1.872   0.307   0.461  0.2120 -0.0607 -0.3859
 2320SOL    HW118596   1.789   0.355   0.465  0.1833 -0.0630 -0.9435
 2320SOL    HW218597   1.940   0.373   0.457 -1.5344  1.7309 -0.2874
 2321SOL     OW18598   2.008   3.111   5.001 -0.0834  0.3349  0.1679
 2321SOL    HW118599   2.103   3.127   5.000  0.1972 -1.3113  1.5935
 2321SOL    HW218600   1.976   3.201   4.995 -0.9240 -0.0502 -1.1574
 2322SOL     OW18601   0.128   4.672   3.670  0.1175  0.7930 -0.1211
 2322SOL    HW118602   0.114   4.654   3.577 -0.7252  2.9880 -0.4158
 2322SOL    HW218603   0.198   4.736   3.682  0.5557  0.2622  0.1724
 2323SOL     OW18604   2.808   0.207   6.536  0.0641 -0.0169 -0.3940
 2323SOL    HW118605   2.771   0.185   6.621 -0.8478 -1.6948 -1.2264
 2323SOL    HW218606   2.846   0.292   6.558  0.4867  0.2168 -2.0477
 2324SOL     OW18607   2.232   3.946   2.620 -0.0293  0.2938 -0.1195
 2324SOL    HW118608   2.315   3.912   2.653 -0.0808  0.2249 -0.0618
 2324SOL    HW218609   2.183   3.864   2.615 -0.8272  0.6839  1.3487
 2325SOL     OW18610   4.719   0.045   9.505  0.0573 -0.0313 -0.3532
 2325SOL    HW118611   0.017   4.736   9.581 -1.1781  0.1950  0.3662
 2325SOL    HW218612   4.693   0.129   9.541  0.5347  0.3380 -0.8780
 2326SOL     OW18613   2.162   3.906  10.055 -0.5890 -0.1895  0.3912
 2326SOL    HW118614   2.214   3.828  10.075 -0.4950 -0.0145  0.8408
 2326SOL    HW218615   2.154   3.898   9.960  2.4111  1.0957  0.0091
 2327SOL     OW18616   0.746   1.607   8.625 -0.5023  0.6702  0.1845
 2327SOL    HW118617   0.656   1.598   8.657 -0.2283 -1.1651  0.4600
 2327SOL    HW218618   0.765   1.541   8.558 -0.4091  0.1651  0.7093
 2328SOL     OW18619   2.088   1.287   4.236 -1.0304  0.3422  0.2428
 2328SOL    HW118620   2.041   1.356   4.281 -0.4052  0.8210  0.1617
 2328SOL    HW218621   2.034   1.212   4.260 -0.0127  0.1959  2.0520
 2329SOL     OW18622   3.118   4.246   4.650  0.1451 -0.2653  0.3868
 2329SOL    HW118623   3.194   4.304   4.657 -0.5510  0.4948  1.5112
 2329SOL    HW218624   3.048   4.299   4.612  2.3725  1.6773 -1.0556
 2330SOL     OW18625   3.811   0.921  16.443  0.1024  0.5325 -0.0036
 2330SOL    HW118626   3.872   0.926  16.517 -1.7698  1.7763  1.4353
 2330SOL    HW218627   3.865   0.858  16.395  1.1972  2.4050 -1.2358
 2331SOL     OW18628   3.848   4.623   5.779 -0.2441 -0.2754 -0.5413
 2331SOL    HW118629   3.796   4.565   5.834 -0.5197  0.5950  0.1219
 2331SOL    HW218630   3.810   4.709   5.800 -2.0264 -1.0251 -0.6825
 2332SOL     OW18631   3.894   1.916   5.113  1.0573 -0.2165 -0.0085
 2332SOL    HW118632   3.886   1.821   5.099  1.0669 -0.1113 -0.7324
 2332SOL    HW218633   3.868   1.917   5.205 -0.5110  0.4156 -0.4769
 2333SOL     OW18634   3.794   3.702   3.552  0.1142  0.0408 -0.2023
 2333SOL    HW118635   3.849   3.779   3.539  1.3945 -0.8567 -0.0863
 2333SOL    HW218636   3.795   3.704   3.648  0.9314 -1.4959 -0.1951
 2334SOL     OW18637   0.701   4.168   5.428  0.1651 -0.0413 -0.0396
 2334SOL    HW118638   0.690   4.254   5.467  0.5883  1.0861 -2.3914
 2334SOL    HW218639   0.794   4.160   5.406  0.3098 -1.3822  1.0844
 2335SOL     OW18640   1.708   1.429   1.271  0.1814  0.2526 -0.4971
 2335SOL    HW118641   1.623   1.463   1.241 -0.1634 -0.4416 -0.3133
 2335SOL    HW218642   1.704   1.483   1.351  1.1389 -0.8826  0.3174
 2336SOL     OW18643   1.974   3.565   2.104 -0.1224  0.1277 -0.0373
 2336SOL    HW118644   1.982   3.537   2.195  2.6480 -1.0243 -0.6303
 2336SOL    HW218645   2.022   3.648   2.109  0.6518 -0.3019 -0.3378
 2337SOL     OW18646   1.382   0.179   4.564  0.1429 -0.3666  0.2492
 2337SOL    HW118647   1.442   0.180   4.638  1.0529  0.3509 -0.5040
 2337SOL    HW218648   1.391   0.273   4.551  1.6007 -0.6006 -0.4680
 2338SOL     OW18649   1.032   4.551   5.191  0.1532 -0.3835 -0.1958
 2338SOL    HW118650   1.064   4.461   5.184  0.7225 -0.0654 -1.6470
 2338SOL    HW218651   1.101   4.598   5.144 -0.6636 -0.3782 -1.3910
 2339SOL     OW18652   0.472   3.258   3.010 -0.2277 -0.1508  0.1857
 2339SOL    HW118653   0.415   3.306   2.949 -0.2570 -0.3422  0.0642
 2339SOL    HW218654   0.427   3.273   3.093 -1.8927  0.0774 -0.7441
 2340SOL     OW18655   0.736   4.157   7.014  0.2823  0.0522 -0.7010
 2340SOL    HW118656   0.725   4.071   7.053 -0.6669  0.3413 -0.3052
 2340SOL    HW218657   0.778   4.202   7.088  0.6841 -0.0495 -0.8696
 2341SOL     OW18658   1.704   1.754   5.979 -0.1883 -0.7705 -0.0951
 2341SOL    HW118659   1.757   1.833   5.989 -3.6575  1.3301  1.6983
 2341SOL    HW218660   1.723   1.733   5.887  2.4216  0.9381  0.0499
 2342SOL     OW18661   1.301   2.165   7.629  0.1999 -0.5409  0.4874
 2342SOL    HW118662   1.231   2.211   7.675  1.3929  0.7162  1.0292
 2342SOL    HW218663   1.369   2.159   7.696 -1.3035  0.4049  2.0697
 2343SOL     OW18664   0.162   1.181   0.181  0.9902  0.2328  0.1547
 2343SOL    HW118665   0.159   1.225   0.266  2.0200  0.1355  0.2366
 2343SOL    HW218666   0.067   1.168   0.172  0.8314  0.4014  1.6474
 2344SOL     OW18667   3.171   2.823   2.608 -0.4678 -0.4136 -0.2992
 2344SOL    HW118668   3.122   2.798   2.686 -2.0550  2.2366 -0.4695
 2344SOL    HW218669   3.110   2.787   2.544  0.4550 -4.4168  1.0670
 2345SOL     OW18670   2.674   0.722   3.067 -0.5134 -0.2701  0.0230
 2345SOL    HW118671   2.747   0.730   3.128 -1.2476  1.3461  0.7126
 2345SOL    HW218672   2.710   0.759   2.986 -1.0688  0.6025  0.1686
 2346SOL     OW18673   2.994   2.102   0.624 -0.0040 -0.7638 -0.2103
 2346SOL    HW118674   2.992   2.051   0.706  0.1220  1.7971  1.3783
 2346SOL    HW218675   2.980   2.193   0.651  4.1833  0.0825 -0.8745
 2347SOL     OW18676   1.138   2.649   9.717  0.0072  0.0734  0.2510
 2347SOL    HW118677   1.067   2.587   9.734  0.8269 -1.3361 -1.4682
 2347SOL    HW218678   1.206   2.637   9.783  0.9861 -3.0714 -1.3497
 2348SOL     OW18679   0.982   3.127   8.190  0.3703 -0.6131  0.0242
 2348SOL    HW118680   1.046   3.104   8.122  0.9436  1.3581 -0.0948
 2348SOL    HW218681   0.920   3.181   8.142 -2.9478 -2.3158  2.4241
 2349SOL     OW18682   0.220   4.405   5.970  0.0476  0.0114  0.5286
 2349SOL    HW118683   0.301   4.412   5.920 -0.3139 -1.7990 -0.2874
 2349SOL    HW218684   0.209   4.310   5.970 -2.2609  0.2884  1.1355
 2350SOL     OW18685   2.019   0.529   0.512 -0.0990 -0.1968 -0.1868
 2350SOL    HW118686   2.094   0.550   0.456  0.5645 -1.1310  0.3452
 2350SOL    HW218687   2.057   0.488   0.590  0.2788 -0.4486 -0.5077
 2351SOL     OW18688   1.537   2.566  17.471  0.0086 -0.3655 -0.0761
 2351SOL    HW118689   1.481   2.496  17.438  0.9510 -0.6104 -1.1601
 2351SOL    HW218690   1.473   2.638  17.474 -1.1120 -1.2968 -1.1474
 2352SOL     OW18691   0.029   2.145   3.440  0.3794  0.4294  0.2709
 2352SOL    HW118692   0.070   2.083   3.501 -2.2245 -2.3516 -0.8041
 2352SOL    HW218693   0.102   2.202   3.415  1.5195 -1.1968 -0.1572
 2353SOL     OW18694   2.152   0.700   4.501 -0.0638 -0.1466  0.0087
 2353SOL    HW118695   2.166   0.668   4.412 -0.7920 -0.6791  0.0861
 2353SOL    HW218696   2.144   0.617   4.548  1.6673 -0.0208  0.5340
 2354SOL     OW18697   1.216   4.614   0.952  0.1392  0.2619  0.1128
 2354SOL    HW118698   1.265   4.532   0.958 -2.8100 -1.4880  0.2011
 2354SOL    HW218699   1.137   4.577   0.912  1.2645 -1.6290 -0.3396
 2355SOL     OW18700   2.464   1.338   4.076  0.4079 -0.9144  0.2741
 2355SOL    HW118701   2.374   1.320   4.052  0.5263 -0.3189 -0.5970
 2355SOL    HW218702   2.485   1.253   4.115  2.5704  0.0453  1.2445
 2356SOL     OW18703   1.428   4.291   6.058  0.8472  0.3291 -0.5102
 2356SOL    HW118704   1.452   4.349   6.130  1.3366  0.5424 -0.8434
 2356SOL    HW218705   1.364   4.235   6.101 -0.0067  0.1882 -1.9555
 2357SOL     OW18706   1.023   0.719   5.681 -0.4660 -0.5951 -0.9324
 2357SOL    HW118707   0.996   0.637   5.723 -1.6601 -0.9761 -2.4541
 2357SOL    HW218708   0.937   0.745   5.649  0.0654 -0.4355 -2.2308
 2358SOL     OW18709   4.111   4.430  16.753 -0.4845 -0.0802 -0.2501
 2358SOL    HW118710   4.186   4.455  16.699  1.2340 -1.5693  1.4228
 2358SOL    HW218711   4.121   4.335  16.753  1.6312  0.1284 -0.6052
 2359SOL     OW18712   0.436   0.492  15.174  0.0383  0.4820 -0.2251
 2359SOL    HW118713   0.415   0.439  15.097 -0.6688  0.3452  0.0572
 2359SOL    HW218714   0.373   0.452  15.235 -1.3145  1.2806 -1.0865
 2360SOL     OW18715   4.387   0.802   4.651 -0.4055  0.1015 -0.0560
 2360SOL    HW118716   4.365   0.813   4.744  0.8111  0.5903  0.1717
 2360SOL    HW218717   4.469   0.851   4.646 -0.2121 -0.3468 -1.1738
 2361SOL     OW18718   2.835   2.985  15.508 -0.6017  0.7717 -0.1389
 2361SOL    HW118719   2.790   2.931  15.573 -1.2865  0.6991 -0.6844
 2361SOL    HW218720   2.924   2.964  15.537 -1.6521 -0.8233  1.9330
 2362SOL     OW18721   1.297   0.894   5.107 -0.7243 -0.0933 -0.4408
 2362SOL    HW118722   1.334   0.831   5.168  1.7636  2.7900  0.9782
 2362SOL    HW218723   1.279   0.960   5.174 -1.3814 -0.2542 -0.4525
 2363SOL     OW18724   4.340   4.198   9.788  0.2418  0.3745 -0.0135
 2363SOL    HW118725   4.263   4.234   9.744  0.4146  0.0534 -0.5809
 2363SOL    HW218726   4.350   4.269   9.851 -2.4267 -1.0140  2.0106
 2364SOL     OW18727   0.919   1.639   7.483 -0.3179 -0.9273  0.1596
 2364SOL    HW118728   0.834   1.597   7.495 -0.3896 -0.9380 -0.3657
 2364SOL    HW218729   0.953   1.565   7.431 -0.8628 -3.5362  3.4843
 2365SOL     OW18730   3.915   3.026   3.573 -0.6013  0.0928  0.2342
 2365SOL    HW118731   3.958   3.077   3.504  3.1677  0.3710  2.7987
 2365SOL    HW218732   3.847   3.089   3.598  0.3731  1.9345 -1.7319
 2366SOL     OW18733   0.055   1.895   5.829 -0.5827  0.1993 -0.2473
 2366SOL    HW118734   0.074   1.968   5.769 -0.0096  0.3312  0.0986
 2366SOL    HW218735   0.020   1.828   5.770  1.0690  0.4932 -1.5693
 2367SOL     OW18736   4.194   0.847   9.204 -0.6058 -0.0765 -0.2624
 2367SOL    HW118737   4.195   0.940   9.227 -0.0498  0.4923 -2.6010
 2367SOL    HW218738   4.245   0.851   9.123 -0.0287  0.5207  0.1363
 2368SOL     OW18739   0.846   1.030  17.311 -0.3686  0.3096 -0.1456
 2368SOL    HW118740   0.826   1.018  17.218  0.7015 -1.8405 -0.1054
 2368SOL    HW218741   0.827   1.122  17.326 -0.1458  0.2922  0.2394
 2369SOL     OW18742   3.253   3.239   3.695 -0.1199  0.5926 -0.4416
 2369SOL    HW118743   3.245   3.230   3.790 -1.0927  0.8836 -0.4971
 2369SOL    HW218744   3.209   3.324   3.683  0.7378  0.7748 -2.3055
 2370SOL     OW18745   4.610   0.207   4.911 -0.2640  0.7713  0.1521
 2370SOL    HW118746   4.696   0.204   4.869 -1.0491 -0.4536 -1.3985
 2370SOL    HW218747   4.570   0.249   4.834  0.6980  0.7209 -0.3779
 2371SOL     OW18748   4.592   0.225   0.791  0.4404 -0.1178 -0.4499
 2371SOL    HW118749   4.533   0.259   0.724 -0.9687 -0.8924  0.3904
 2371SOL    HW218750   4.584   0.132   0.767 -0.6391  0.1597 -1.1680
 2372SOL     OW18751   0.795   3.970   3.383 -0.0010  0.2389  0.3540
 2372SOL    HW118752   0.801   3.987   3.289 -1.0298 -1.4153 -0.0127
 2372SOL    HW218753   0.700   3.961   3.390 -0.0185 -0.3224 -0.5767
 2373SOL     OW18754   3.249   1.328  13.694  0.1895 -0.1320  0.2293
 2373SOL    HW118755   3.174   1.388  13.683  0.9567  1.1782  2.1037
 2373SOL    HW218756   3.250   1.319  13.790  1.7419  1.5499  0.3494
 2374SOL     OW18757   0.418   3.805   7.935 -0.2362 -0.3464  0.1604
 2374SOL    HW118758   0.411   3.867   8.008  0.2979 -1.5878  1.2710
 2374SOL    HW218759   0.364   3.728   7.955 -1.0483  0.0848 -0.3595
 2375SOL     OW18760   0.611   1.408  14.190  0.6935 -0.5136  0.2744
 2375SOL    HW118761   0.637   1.498  14.174  1.6474 -0.7068  0.7451
 2375SOL    HW218762   0.548   1.388  14.120  0.1593 -0.0671  0.6324
 2376SOL     OW18763   4.167   1.213   8.261  0.7206  0.3899 -0.2505
 2376SOL    HW118764   4.123   1.276   8.204  0.6511 -0.7142 -1.4088
 2376SOL    HW218765   4.122   1.214   8.345 -0.2673 -0.3250 -0.7813
 2377SOL     OW18766   3.713   2.432   0.047 -0.0679 -0.0220 -1.0226
 2377SOL    HW118767   3.740   2.524   0.052  0.6788 -0.3674  1.2455
 2377SOL    HW218768   3.636   2.440   0.103 -0.3175  0.7766 -1.4765
 2378SOL     OW18769   3.848   0.932   7.499  0.1184 -0.4332 -0.3434
 2378SOL    HW118770   3.865   0.940   7.593  0.6126 -2.8160 -0.2282
 2378SOL    HW218771   3.903   0.857   7.475  0.3890  0.2863 -1.9224
 2379SOL     OW18772   3.459   3.956   8.684  0.3288  0.1827 -0.2367
 2379SOL    HW118773   3.475   3.973   8.777  0.9366 -1.2125 -0.0856
 2379SOL    HW218774   3.370   3.923   8.676  0.3045  0.0662  0.5281
 2380SOL     OW18775   3.418   4.676   7.123 -0.7005  0.6210 -0.0750
 2380SOL    HW118776   3.489   4.635   7.075 -0.3615  2.6410 -1.3095
 2380SOL    HW218777   3.390   0.002   7.058  0.0523  0.0648 -0.9444
 2381SOL     OW18778   2.192   2.664  13.310  0.4018  0.0504 -0.5584
 2381SOL    HW118779   2.143   2.742  13.340 -0.1171  0.2003 -1.7945
 2381SOL    HW218780   2.150   2.651  13.225 -0.1746 -0.6280 -0.1715
 2382SOL     OW18781   2.787   4.343   8.360  0.1240  0.1012  0.0289
 2382SOL    HW118782   2.835   4.426   8.357  1.3308 -0.5837  0.7873
 2382SOL    HW218783   2.856   4.283   8.386 -1.5100 -2.4764 -1.5559
 2383SOL     OW18784   2.394   1.875   2.046  0.2923 -0.0138  0.2901
 2383SOL    HW118785   2.464   1.900   1.986 -1.1661  1.5741 -0.7632
 2383SOL    HW218786   2.436   1.810   2.102 -0.8229  0.2586  1.4535
 2384SOL     OW18787   1.851   2.660  11.987 -0.7521 -0.5258 -0.1520
 2384SOL    HW118788   1.875   2.572  12.016  0.5814  0.4134  1.5668
 2384SOL    HW218789   1.920   2.665  11.920 -1.5325 -2.2495 -1.0918
 2385SOL     OW18790   3.979   2.373   7.666 -0.0698 -0.1204 -0.1069
 2385SOL    HW118791   4.016   2.285   7.663  0.5303  0.1393 -0.2956
 2385SOL    HW218792   3.958   2.379   7.573  0.4711  0.4548 -0.1874
 2386SOL     OW18793   3.224   4.301   8.425 -0.4941  0.1732  0.2229
 2386SOL    HW118794   3.292   4.275   8.362 -1.2669 -1.4056  0.0348
 2386SOL    HW218795   3.282   4.317   8.499 -0.1761  0.0146  0.0140
 2387SOL     OW18796   4.133   3.921   3.266 -0.0684  0.3120 -0.4281
 2387SOL    HW118797   4.227   3.903   3.254  0.0194  0.3170  0.2638
 2387SOL    HW218798   4.135   3.989   3.334  0.0227  0.2635 -0.3816
 2388SOL     OW18799   3.388   0.114   3.015 -0.4300 -0.1085 -0.0545
 2388SOL    HW118800   3.464   0.067   2.981  1.1371  1.3225  1.4569
 2388SOL    HW218801   3.432   0.199   3.026 -2.2075  0.8164  0.0002
 2389SOL     OW18802   3.991   1.319   4.512  0.1945 -0.2014 -0.3851
 2389SOL    HW118803   4.060   1.379   4.484  0.2347  0.1697  0.4997
 2389SOL    HW218804   3.914   1.372   4.533 -0.2662 -0.2906 -1.9034
 2390SOL     OW18805   1.788   1.885   5.379 -0.1184 -0.0635  0.3334
 2390SOL    HW118806   1.709   1.907   5.330  0.2929 -0.0402 -0.3217
 2390SOL    HW218807   1.838   1.967   5.373  0.0612 -0.3709 -2.3872
 2391SOL     OW18808   1.199   2.656   5.525 -0.3816  0.1758 -0.6346
 2391SOL    HW118809   1.231   2.738   5.488 -1.0277 -0.2081 -2.0334
 2391SOL    HW218810   1.154   2.684   5.604  1.8930  0.7989  0.4458
 2392SOL     OW18811   0.291   0.564   4.446 -0.2706 -0.6771  0.1503
 2392SOL    HW118812   0.313   0.492   4.387 -0.4795 -0.1158 -0.6133
 2392SOL    HW218813   0.296   0.633   4.379  0.1983 -3.0335 -2.2604
 2393SOL     OW18814   1.471   1.018   2.687 -0.2283  0.0894  0.0078
 2393SOL    HW118815   1.512   1.091   2.734  0.8163  1.1027 -2.5043
 2393SOL    HW218816   1.400   1.060   2.639 -1.3826 -0.5946  1.1316
 2394SOL     OW18817   0.005   4.573   3.113 -0.5294  0.1671 -0.0823
 2394SOL    HW118818   0.068   4.501   3.122  1.1315  1.4647 -1.3549
 2394SOL    HW218819   0.030   4.608   3.027 -2.7221 -0.5019 -0.9962
 2395SOL     OW18820   1.438   4.064  16.695 -0.4408  1.0006 -0.1462
 2395SOL    HW118821   1.459   4.055  16.602 -0.2052 -0.1011  0.0136
 2395SOL    HW218822   1.382   3.987  16.703  0.9940 -0.2016 -1.5506
 2396SOL     OW18823   3.418   1.266   8.297  0.0479 -0.1041 -0.5557
 2396SOL    HW118824   3.378   1.335   8.244 -1.2241 -0.2853  0.1666
 2396SOL    HW218825   3.341   1.211   8.308  0.1741 -0.0744  0.4701
 2397SOL     OW18826   2.231   2.144   9.072  0.3238  0.4517  0.5953
 2397SOL    HW118827   2.170   2.071   9.064 -1.6854  2.1076  1.0398
 2397SOL    HW218828   2.307   2.098   9.035  0.2511 -0.7728  1.9979
 2398SOL     OW18829   3.246   1.683   3.034 -0.3188  0.2209 -0.2224
 2398SOL    HW118830   3.161   1.696   3.076 -0.3741  0.3420 -0.3723
 2398SOL    HW218831   3.294   1.762   3.059 -0.5212  0.2387  0.1150
 2399SOL     OW18832   4.665   4.283  16.100  0.2005  0.7176 -0.0713
 2399SOL    HW118833   4.709   4.250  16.022  0.7579  2.4561 -0.4879
 2399SOL    HW218834   4.594   4.225  16.128  0.0251  0.5653 -0.8227
 2400SOL     OW18835   1.782   4.169   6.651 -0.9244  0.1965  0.3919
 2400SOL    HW118836   1.829   4.181   6.569  0.8126  1.6278  1.5886
 2400SOL    HW218837   1.761   4.076   6.656  2.8814 -0.6756  0.9441
 2401SOL     OW18838   4.171   4.383  12.488 -0.0888 -0.1895  0.0469
 2401SOL    HW118839   4.241   4.430  12.534  0.7993 -2.7603  1.2841
 2401SOL    HW218840   4.111   4.375  12.562  0.9316 -3.0170  0.5717
 2402SOL     OW18841   0.028   1.448   7.190  0.2599 -0.1772 -0.2803
 2402SOL    HW118842   0.113   1.404   7.184 -0.1377 -1.0510  0.4464
 2402SOL    HW218843   0.058   1.539   7.184  0.9559 -0.2518  1.8430
 2403SOL     OW18844   3.600   2.236   2.952  0.0599 -0.0448  0.4196
 2403SOL    HW118845   3.588   2.303   2.884  2.3300 -0.6126 -0.5622
 2403SOL    HW218846   3.580   2.296   3.024  0.7316  1.5146 -0.6811
 2404SOL     OW18847   3.077   1.933   6.311 -0.6205 -0.1999 -0.3383
 2404SOL    HW118848   3.145   1.993   6.342 -1.9607  1.4554 -0.6414
 2404SOL    HW218849   3.095   1.942   6.217  0.3860 -3.2275 -0.4432
 2405SOL     OW18850   2.466   1.575   0.878 -0.1169  0.2723  0.0105
 2405SOL    HW118851   2.512   1.591   0.960  0.8337 -1.4825 -0.1607
 2405SOL    HW218852   2.436   1.664   0.861  0.2559  0.0796 -1.6591
 2406SOL     OW18853   1.846   2.299  17.482  0.1235 -0.6851  0.0612
 2406SOL    HW118854   1.827   2.393  17.480  2.5202 -0.2068  0.3996
 2406SOL    HW218855   1.871   2.283  17.573 -0.0318 -1.7146 -0.0839
 2407SOL     OW18856   2.291   2.073   7.819 -0.3342 -0.3953  0.2932
 2407SOL    HW118857   2.282   2.084   7.725 -2.6099 -0.6481  0.4775
 2407SOL    HW218858   2.209   2.030   7.843  0.3668  0.5517  4.3101
 2408SOL     OW18859   4.124   1.232   1.922 -0.0210  0.0157 -0.3106
 2408SOL    HW118860   4.200   1.190   1.960  0.1129  1.5377  1.1115
 2408SOL    HW218861   4.157   1.287   1.851  0.3800  0.0796 -0.0759
 2409SOL     OW18862   1.586   1.313  13.899  0.3796  0.2085  0.4208
 2409SOL    HW118863   1.503   1.318  13.946  0.1552 -1.0945  0.1765
 2409SOL    HW218864   1.575   1.233  13.848  1.4880 -0.2845  0.9355
 2410SOL     OW18865   1.096   0.858   1.513  0.1630 -0.7693 -0.0037
 2410SOL    HW118866   1.021   0.854   1.573  0.6270  1.7674  0.7285
 2410SOL    HW218867   1.165   0.867   1.578  1.6475  0.4802 -1.7734
 2411SOL     OW18868   4.462   1.098   0.897  0.2506  0.2653  0.3133
 2411SOL    HW118869   4.463   1.105   0.801  0.5474 -1.8162  0.1817
 2411SOL    HW218870   4.541   1.150   0.911  2.0162 -2.0715 -1.1019
 2412SOL     OW18871   4.385   0.121  15.603 -0.3246  0.5788  0.0060
 2412SOL    HW118872   4.383   0.181  15.528  0.5040  0.9231  0.2604
 2412SOL    HW218873   4.478   0.124  15.624 -0.3030  0.4464 -0.0709
 2413SOL     OW18874   1.468   4.108   1.395  0.3195 -0.1010 -0.1053
 2413SOL    HW118875   1.382   4.145   1.375 -0.1739 -0.2153  1.8855
 2413SOL    HW218876   1.516   4.179   1.436 -0.1309 -0.0918  0.4036
 2414SOL     OW18877   3.395   2.000   9.618  0.0805 -0.0326 -0.8743
 2414SOL    HW118878   3.321   1.950   9.652  0.7953 -0.5755 -0.1107
 2414SOL    HW218879   3.403   2.065   9.688  0.3043 -0.2718 -0.6717
 2415SOL     OW18880   2.114   1.780   7.337  0.5508  0.5575 -0.6234
 2415SOL    HW118881   2.112   1.778   7.241  1.5171  1.0565 -0.6571
 2415SOL    HW218882   2.078   1.695   7.361 -0.5211  0.9997 -0.6598
 2416SOL     OW18883   2.702   0.427   3.908 -0.2423  0.1457 -0.8835
 2416SOL    HW118884   2.633   0.456   3.967  1.6389  0.1269  1.3144
 2416SOL    HW218885   2.665   0.458   3.825  0.6777 -0.7025 -1.6072
 2417SOL     OW18886   4.622   0.902   7.351  0.2862 -0.7595 -0.2645
 2417SOL    HW118887   4.594   0.990   7.325  1.1157 -0.3049  0.3841
 2417SOL    HW218888   4.539   0.857   7.335  0.5936 -0.8898 -1.4964
 2418SOL     OW18889   0.448   0.544   7.170 -0.5839 -0.4419  0.5705
 2418SOL    HW118890   0.482   0.462   7.206 -0.2600 -0.0486  1.1575
 2418SOL    HW218891   0.353   0.532   7.174 -0.4004 -2.2199 -0.3953
 2419SOL     OW18892   0.161   1.950  16.266 -0.3705  0.6869  0.2353
 2419SOL    HW118893   0.189   2.040  16.251 -0.0161  0.6114  0.4286
 2419SOL    HW218894   0.127   1.932  16.179  0.5809  2.3410 -0.4866
 2420SOL     OW18895   1.818   1.691   9.389  0.1989 -0.1087  0.1943
 2420SOL    HW118896   1.785   1.611   9.348 -0.8120  0.6007 -0.3936
 2420SOL    HW218897   1.910   1.695   9.364  0.7750 -1.4372  2.1305
 2421SOL     OW18898   4.212   4.213  16.223  0.0974 -0.2085  0.4617
 2421SOL    HW118899   4.130   4.177  16.189 -0.0175  1.6756 -1.2209
 2421SOL    HW218900   4.188   4.228  16.314  2.6758 -0.0597  1.1211
 2422SOL     OW18901   0.623   0.076   5.321 -0.0553 -0.0430 -0.2022
 2422SOL    HW118902   0.696   0.134   5.297  0.1614  0.0485  0.6962
 2422SOL    HW218903   0.682   0.005   5.350 -2.0066 -1.3242  0.6143
 2423SOL     OW18904   3.467   0.105   7.611 -0.0733 -0.0943  0.1917
 2423SOL    HW118905   3.375   0.100   7.638 -0.2942  1.2839 -0.3342
 2423SOL    HW218906   3.453   0.114   7.517 -1.0016  0.2101  0.3586
 2424SOL     OW18907   3.191   1.913   4.808  0.3188 -0.2364  0.3106
 2424SOL    HW118908   3.164   1.991   4.761 -0.7456 -0.2427  0.9285
 2424SOL    HW218909   3.259   1.885   4.746  0.5566  1.1775 -0.0734
 2425SOL     OW18910   3.444   4.354   8.185 -0.2815  0.8969  0.1748
 2425SOL    HW118911   3.521   4.372   8.131 -0.5758 -1.3926 -1.0436
 2425SOL    HW218912   3.417   4.271   8.144  1.5228  1.0954 -1.4269
 2426SOL     OW18913   1.663   4.019   5.610  0.3817 -0.3431  0.5243
 2426SOL    HW118914   1.729   4.036   5.677 -1.4466  1.5491  1.8280
 2426SOL    HW218915   1.623   4.105   5.597  1.2525  0.0663  0.6005
 2427SOL     OW18916   0.518   2.111   1.864  0.6485  0.8461  0.1791
 2427SOL    HW118917   0.511   2.028   1.816  0.6211  0.2022  1.3152
 2427SOL    HW218918   0.517   2.174   1.792 -2.3362 -0.6122 -1.0696
 2428SOL     OW18919   3.818   1.402   1.241  0.1161  0.3370 -0.0564
 2428SOL    HW118920   3.839   1.309   1.249  0.0326  0.1229 -2.3765
 2428SOL    HW218921   3.882   1.451   1.292 -0.3553 -2.5862  3.3876
 2429SOL     OW18922   0.456   1.830   7.171  0.2243 -0.8464  0.4364
 2429SOL    HW118923   0.469   1.925   7.167 -0.8249 -0.7326 -0.3572
 2429SOL    HW218924   0.518   1.800   7.104 -2.5313 -0.4710 -2.2658
 2430SOL     OW18925   0.075   3.701  11.284  0.3072 -0.0812 -0.0178
 2430SOL    HW118926   0.156   3.697  11.333  1.6088  0.9536 -2.0924
 2430SOL    HW218927   0.050   3.792  11.299 -1.7408 -0.5815 -0.3728
 2431SOL     OW18928   3.184   3.072   5.674  0.3686  0.1766 -0.3456
 2431SOL    HW118929   3.163   2.982   5.699  0.5256  0.3485  0.4174
 2431SOL    HW218930   3.102   3.121   5.671  1.0142  1.3106  0.3519
 2432SOL     OW18931   0.991   4.162  16.076  0.0920 -0.0326 -0.7431
 2432SOL    HW118932   1.057   4.196  16.015  1.9207  0.0450  1.2834
 2432SOL    HW218933   1.044   4.144  16.154 -2.4905 -2.2573  0.5077
 2433SOL     OW18934   0.784   2.427   1.925  0.3966 -0.0615 -0.6963
 2433SOL    HW118935   0.735   2.351   1.957 -1.7434  0.3960 -2.8747
 2433SOL    HW218936   0.863   2.388   1.887  0.2143 -0.4359 -0.6963
 2434SOL     OW18937   3.659   0.578   9.039 -0.1092 -0.3638  0.2849
 2434SOL    HW118938   3.708   0.616   9.112 -2.0600  0.5820  1.0790
 2434SOL    HW218939   3.604   0.520   9.091  0.6504 -0.0013  1.4788
 2435SOL     OW18940   3.007   1.889   5.154 -0.0017  0.1745 -0.1912
 2435SOL    HW118941   3.087   1.940   5.162 -1.9003  3.2235 -0.8194
 2435SOL    HW218942   3.032   1.831   5.081 -0.9618 -0.1090 -0.2927
 2436SOL     OW18943   1.465   0.744   8.742 -0.4796  0.3102  0.5799
 2436SOL    HW118944   1.423   0.658   8.739 -2.3102  1.1570  1.8086
 2436SOL    HW218945   1.558   0.722   8.741 -0.6065 -0.1288 -1.3495
 2437SOL     OW18946   2.687   3.632   5.668  0.0196 -0.0409 -0.2012
 2437SOL    HW118947   2.640   3.712   5.692 -1.8368 -1.5528  1.1782
 2437SOL    HW218948   2.632   3.592   5.600 -0.6795  1.3903 -0.4667
 2438SOL     OW18949   1.207   2.603   6.183  0.4119  0.2922 -0.2693
 2438SOL    HW118950   1.221   2.695   6.163  0.8486  0.5133  1.0437
 2438SOL    HW218951   1.299   2.577   6.173  0.2899 -0.1869 -0.1514
 2439SOL     OW18952   1.642   2.299   6.072  0.1616  0.7102 -0.3556
 2439SOL    HW118953   1.573   2.352   6.113  0.1260 -0.5716  1.2569
 2439SOL    HW218954   1.636   2.336   5.984  0.9387  0.9229 -0.3286
 2440SOL     OW18955   0.852   3.048  13.534 -0.1991 -0.0410  0.5955
 2440SOL    HW118956   0.858   2.991  13.610  0.3683 -0.1379  0.4750
 2440SOL    HW218957   0.907   3.000  13.473 -0.3718  1.5749 -0.8328
 2441SOL     OW18958   3.354   3.753   3.695  0.3773  0.3879  0.1762
 2441SOL    HW118959   3.322   3.725   3.609 -0.5071  1.1506  0.2608
 2441SOL    HW218960   3.419   3.683   3.706 -1.6917 -1.6492 -0.6318
 2442SOL     OW18961   4.714   1.576   6.141 -0.0945 -0.6021 -0.1954
 2442SOL    HW118962   0.022   1.492   6.136 -1.5133 -1.2840 -1.9505
 2442SOL    HW218963   0.030   1.636   6.090  1.3118 -1.6306  0.0828
 2443SOL     OW18964   2.624   0.236  15.229 -0.5120  0.2283 -0.0472
 2443SOL    HW118965   2.719   0.238  15.244 -0.5224  0.2977  0.0065
 2443SOL    HW218966   2.617   0.229  15.134  1.3842 -0.1726 -0.1539
 2444SOL     OW18967   1.176   3.177   5.716  0.3211 -0.7159 -0.0197
 2444SOL    HW118968   1.168   3.122   5.794 -0.5278 -0.2762  0.1997
 2444SOL    HW218969   1.087   3.211   5.708  0.9647  1.0116  0.1557
 2445SOL     OW18970   1.117   3.119   2.792 -0.1537 -0.0320 -0.0758
 2445SOL    HW118971   1.155   3.076   2.715  2.3365 -2.5231  2.5167
 2445SOL    HW218972   1.024   3.131   2.772 -0.6097 -0.8710  1.5117
 2446SOL     OW18973   4.468   4.178   4.069  0.1693  0.3958 -0.0082
 2446SOL    HW118974   4.539   4.136   4.021 -0.4582 -2.1823  1.3295
 2446SOL    HW218975   4.447   4.249   4.008 -3.0717 -0.2142  0.4061
 2447SOL     OW18976   3.627   3.894   6.523 -0.2516 -0.0616  0.2970
 2447SOL    HW118977   3.564   3.839   6.476 -1.2877 -0.0528  1.6684
 2447SOL    HW218978   3.668   3.944   6.452  0.2070 -0.0386  0.5782
 2448SOL     OW18979   4.554   4.669   5.231  0.4689  0.3268 -0.1835
 2448SOL    HW118980   4.577   4.603   5.165 -0.8534  0.7564 -1.0872
 2448SOL    HW218981   4.458   4.671   5.230  0.4724  0.8371  1.2138
 2449SOL     OW18982   3.900   0.451   0.921 -0.2094 -0.5052  0.0536
 2449SOL    HW118983   3.826   0.424   0.867 -0.8697  1.1595  0.1004
 2449SOL    HW218984   3.910   0.542   0.892  0.1408 -0.6756 -0.3685
 2450SOL     OW18985   2.649   3.046   6.659 -0.3445  0.2887 -0.5427
 2450SOL    HW118986   2.570   3.098   6.666 -2.3859 -2.7136 -1.1920
 2450SOL    HW218987   2.642   2.969   6.715 -1.0230  0.5473 -0.2795
 2451SOL     OW18988   2.710   2.543   9.193 -0.3888  0.4323 -0.1446
 2451SOL    HW118989   2.699   2.620   9.249  2.4317  1.4876 -1.0334
 2451SOL    HW218990   2.660   2.482   9.247  0.9133 -0.7541 -0.2820
 2452SOL     OW18991   4.565   1.199   7.575  0.2801 -0.3980 -0.1896
 2452SOL    HW118992   4.591   1.248   7.654 -0.7777 -2.0226  1.1606
 2452SOL    HW218993   4.555   1.267   7.509  1.4202 -0.1760 -0.1257
 2453SOL     OW18994   0.096   3.156  16.138  0.2582  0.1422 -0.2204
 2453SOL    HW118995   0.110   3.238  16.184  0.2856  0.0883 -0.1325
 2453SOL    HW218996   0.003   3.152  16.119 -0.0732 -2.3658  2.0151
 2454SOL     OW18997   0.543   1.330   3.604  0.2682 -0.0313 -0.7953
 2454SOL    HW118998   0.582   1.381   3.533  0.9596  2.8343  1.6228
 2454SOL    HW218999   0.492   1.397   3.650 -0.4204  0.0302 -1.6334
 2455SOL     OW19000   4.721   0.820  16.786 -0.0491 -0.2809 -0.2403
 2455SOL    HW119001   0.009   0.892  16.843  0.3240  0.1512 -0.9555
 2455SOL    HW219002   4.702   0.881  16.715 -1.3321  1.3398  1.5061
 2456SOL     OW19003   3.683   1.489   9.264  0.1601 -0.1159  0.3114
 2456SOL    HW119004   3.750   1.535   9.314 -0.9777 -1.0848  2.7463
 2456SOL    HW219005   3.630   1.562   9.232  1.4045  0.4398 -0.4665
 2457SOL     OW19006   3.507   3.701   3.455 -0.0997 -0.1735 -0.1041
 2457SOL    HW119007   3.602   3.708   3.439  0.1627  0.1256  1.5434
 2457SOL    HW219008   3.476   3.695   3.365 -1.6018  0.7359  0.3506
 2458SOL     OW19009   0.018   4.203   6.928  0.0736 -0.5083  0.4293
 2458SOL    HW119010   0.025   4.139   6.857 -2.1193 -1.3869  0.9947
 2458SOL    HW219011   4.668   4.184   6.962 -0.1755  2.0186  1.1278
 2459SOL     OW19012   0.749   3.472   7.808 -0.4441  0.0533 -0.1295
 2459SOL    HW119013   0.723   3.380   7.820 -0.8405 -0.0452 -1.8278
 2459SOL    HW219014   0.700   3.518   7.877  0.0156  1.1774 -0.5581
 2460SOL     OW19015   2.996   4.712   2.776 -0.0614  0.4063 -0.2896
 2460SOL    HW119016   3.070   0.034   2.784 -0.2795  0.5037  0.9548
 2460SOL    HW219017   2.981   4.725   2.682 -0.6323  0.3109 -0.2102
 2461SOL     OW19018   4.699   0.634   0.702 -0.9476 -0.0173 -1.0951
 2461SOL    HW119019   4.674   0.616   0.612 -1.5644  0.2565 -0.9781
 2461SOL    HW219020   4.615   0.654   0.743 -0.7244 -3.3017  0.9210
 2462SOL     OW19021   4.437   2.202   1.720 -0.2519 -0.0806  0.0805
 2462SOL    HW119022   4.474   2.285   1.749  1.7982 -1.3560  1.1616
 2462SOL    HW219023   4.397   2.226   1.637  0.1912  2.4197  0.5899
 2463SOL     OW19024   4.058   0.073   3.916  0.3047  0.0068  0.3163
 2463SOL    HW119025   4.131   0.018   3.889  1.4352  0.7016  1.9793
 2463SOL    HW219026   4.096   0.138   3.974  0.0842  3.1175 -3.0381
 2464SOL     OW19027   4.406   3.466   3.406 -0.2403  0.3532 -0.0389
 2464SOL    HW119028   4.383   3.514   3.485  1.2324  2.1721 -0.7113
 2464SOL    HW219029   4.495   3.501   3.398  0.7555 -2.4112 -1.1145
 2465SOL     OW19030   2.403   2.680  12.100 -0.1001  0.7810  0.1953
 2465SOL    HW119031   2.384   2.717  12.013 -0.3912 -0.4156 -0.2540
 2465SOL    HW219032   2.332   2.724  12.145 -0.9326 -0.9297  0.5498
 2466SOL     OW19033   0.432   3.579   4.494  0.3269  0.0788 -0.0753
 2466SOL    HW119034   0.492   3.514   4.533  1.3043  0.2101 -1.3613
 2466SOL    HW219035   0.353   3.526   4.487  0.2266  0.2691 -0.3687
 2467SOL     OW19036   4.345   0.063  10.397  0.4630  0.0039 -0.3764
 2467SOL    HW119037   4.370   0.079  10.488 -2.7494 -0.7158  0.6544
 2467SOL    HW219038   4.254   0.034  10.405  0.2323  0.5051 -1.1078
 2468SOL     OW19039   1.555   2.325   8.500 -0.0486  0.0666  0.1202
 2468SOL    HW119040   1.462   2.319   8.477 -0.2914  1.9164  0.6529
 2468SOL    HW219041   1.556   2.396   8.564 -2.5584  0.1484  0.0616
 2469SOL     OW19042   0.529   0.905   6.686  0.1374 -0.3220 -0.1662
 2469SOL    HW119043   0.441   0.881   6.657 -0.1882 -0.2737  0.7698
 2469SOL    HW219044   0.543   0.841   6.756  3.4275 -1.3968 -1.8438
 2470SOL     OW19045   0.345   3.047   9.249  0.3310 -0.8341 -0.2203
 2470SOL    HW119046   0.407   3.034   9.321 -1.2544 -2.8181  0.8062
 2470SOL    HW219047   0.279   3.100   9.294  2.3261  1.6944 -0.2755
 2471SOL     OW19048   4.396   0.716   6.976 -0.2143  0.4276  0.1820
 2471SOL    HW119049   4.358   0.628   6.980 -1.9126  1.2117  1.2881
 2471SOL    HW219050   4.421   0.718   6.883  0.0188  1.9092  0.2779
 2472SOL     OW19051   3.648   3.776  15.204  0.2219 -0.2481  0.6364
 2472SOL    HW119052   3.649   3.806  15.113  0.3980 -0.4038  0.5872
 2472SOL    HW219053   3.657   3.684  15.179 -1.5435 -0.0759 -0.6283
 2473SOL     OW19054   2.927   2.116   6.748  0.7499  0.0279 -0.1874
 2473SOL    HW119055   2.832   2.116   6.753  0.7546 -0.2180 -0.1155
 2473SOL    HW219056   2.945   2.144   6.658 -1.3491  0.0092 -0.5935
 2474SOL     OW19057   4.565   4.396   4.320 -0.0185 -0.2173  0.1775
 2474SOL    HW119058   4.621   4.440   4.256 -1.0490  0.7008 -0.1032
 2474SOL    HW219059   4.475   4.426   4.307  1.1980  2.5492 -1.6835
 2475SOL     OW19060   2.277   4.105   3.367 -1.4263  0.5366  0.3157
 2475SOL    HW119061   2.290   4.103   3.272 -0.6681  1.0569  0.4083
 2475SOL    HW219062   2.363   4.075   3.395 -1.7319  0.1575  0.8505
 2476SOL     OW19063   1.272   0.810   9.409  0.2104 -0.6344  0.0680
 2476SOL    HW119064   1.209   0.876   9.380  2.4659  1.1500 -0.7541
 2476SOL    HW219065   1.250   0.783   9.498 -0.1652  2.5114  0.9145
 2477SOL     OW19066   1.924   1.520   3.833 -0.4108 -0.3187  0.6797
 2477SOL    HW119067   1.859   1.580   3.870  1.3555  2.1111 -0.1545
 2477SOL    HW219068   1.892   1.431   3.849  0.7157 -1.1064 -1.4183
 2478SOL     OW19069   2.108   1.634   1.438  0.3152 -0.0853  0.4693
 2478SOL    HW119070   2.185   1.681   1.470 -0.3328  0.9234  0.5524
 2478SOL    HW219071   2.086   1.578   1.512  1.5831 -0.6491  0.4259
 2479SOL     OW19072   3.224   0.105  14.674 -0.2040  0.1796  0.0990
 2479SOL    HW119073   3.242   0.192  14.638  0.9961 -1.1633 -2.6168
 2479SOL    HW219074   3.159   0.125  14.741 -0.6914  2.5229 -1.0817
 2480SOL     OW19075   2.814   3.237   5.260  0.0992 -0.4505  0.1253
 2480SOL    HW119076   2.760   3.269   5.188 -2.4141 -4.0255  0.4406
 2480SOL    HW219077   2.755   3.218   5.333 -0.0872  3.0736  0.8948
 2481SOL     OW19078   0.825   1.219   9.521  0.1650  0.1062 -0.7237
 2481SOL    HW119079   0.904   1.259   9.485  0.3461 -0.6218 -1.1418
 2481SOL    HW219080   0.804   1.292   9.579  3.4854  0.4428  0.0549
 2482SOL     OW19081   2.601   3.847   9.979 -0.0792 -0.1682 -0.3473
 2482SOL    HW119082   2.562   3.779   9.923 -1.5817 -0.2088  0.7497
 2482SOL    HW219083   2.638   3.794  10.050 -1.6163 -0.2428  0.3865
 2483SOL     OW19084   1.200   0.654   2.061  0.2050 -0.0552 -0.1140
 2483SOL    HW119085   1.280   0.620   2.101  0.8038  1.5072  0.0219
 2483SOL    HW219086   1.228   0.643   1.970  0.5382  1.5830 -0.1994
 2484SOL     OW19087   0.988   1.766  17.605 -0.8510 -0.0175  0.0081
 2484SOL    HW119088   1.011   1.677  17.633  2.9350  0.6752 -0.9170
 2484SOL    HW219089   0.896   1.771  17.632 -0.3738 -0.8817  1.7774
 2485SOL     OW19090   0.341   2.161   3.753 -0.2668  0.2656 -0.1446
 2485SOL    HW119091   0.336   2.114   3.670  0.3879  1.6365 -0.9566
 2485SOL    HW219092   0.421   2.212   3.735 -0.9470  1.6292  0.6865
 2486SOL     OW19093   3.249   0.580   9.362  0.0846  0.1100  0.3299
 2486SOL    HW119094   3.155   0.583   9.345 -0.1213  3.2752  2.0657
 2486SOL    HW219095   3.283   0.623   9.284 -2.2023 -1.4417 -1.5494
 2487SOL     OW19096   0.080   3.411   2.418  0.1892  0.2028  0.1656
 2487SOL    HW119097   0.174   3.398   2.429  0.5042  0.6704 -1.8511
 2487SOL    HW219098   0.059   3.432   2.509  0.3905 -0.7722  0.4361
 2488SOL     OW19099   4.340   0.449   9.331  0.4019  0.1957 -0.0479
 2488SOL    HW119100   4.379   0.389   9.266 -0.0730 -1.2368  0.9793
 2488SOL    HW219101   4.257   0.479   9.294 -0.3545 -0.5925  1.0110
 2489SOL     OW19102   0.503   0.583   5.348  0.1219 -0.6281  0.3128
 2489SOL    HW119103   0.535   0.659   5.301 -3.3634  2.2878  2.6554
 2489SOL    HW219104   0.434   0.548   5.291  0.4813 -0.6688 -0.1021
 2490SOL     OW19105   4.707   3.417   7.118  0.2303  0.0113 -0.0907
 2490SOL    HW119106   4.636   3.354   7.129 -0.7588  1.3403  1.2101
 2490SOL    HW219107   0.016   3.354   7.064  1.2361  2.3463 -1.9496
 2491SOL     OW19108   1.515   1.285   7.192 -0.3073  0.3350  0.4888
 2491SOL    HW119109   1.489   1.353   7.131 -0.1533  0.3265  0.4129
 2491SOL    HW219110   1.609   1.294   7.208 -0.2500  0.7620 -0.1051
 2492SOL     OW19111   0.780   2.883   5.335  0.3209  0.4752 -0.1732
 2492SOL    HW119112   0.744   2.803   5.372 -0.2163  0.4703 -0.7038
 2492SOL    HW219113   0.872   2.860   5.322  0.0250  0.0126 -1.4651
 2493SOL     OW19114   4.334   1.986   4.256 -0.3070  0.0494  0.0319
 2493SOL    HW119115   4.257   2.033   4.287 -0.3442 -0.5635  0.8436
 2493SOL    HW219116   4.374   1.969   4.341  0.4932 -0.8124 -0.5190
 2494SOL     OW19117   2.641   0.128   2.547 -0.2776  0.0203  0.4692
 2494SOL    HW119118   2.547   0.145   2.546  0.0757  1.9650  0.7801
 2494SOL    HW219119   2.650   0.080   2.464 -0.4794  2.2160 -0.8030
 2495SOL     OW19120   0.541   2.163   6.065  0.1748 -0.2944  0.0753
 2495SOL    HW119121   0.453   2.161   6.027  0.5528  1.2476 -0.8730
 2495SOL    HW219122   0.574   2.090   6.013  2.1289 -0.1084  1.0445
 2496SOL     OW19123   0.354   2.829   4.779 -0.0315  0.6711 -0.3498
 2496SOL    HW119124   0.259   2.818   4.778 -0.2407  2.2423  1.9992
 2496SOL    HW219125   0.361   2.919   4.748 -0.0126  0.5476 -0.6943
 2497SOL     OW19126   3.753   1.190  15.793  0.3023 -0.0936  0.0627
 2497SOL    HW119127   3.775   1.163  15.882 -1.4655 -1.7741 -0.0012
 2497SOL    HW219128   3.703   1.269  15.813  0.1982 -0.1289 -0.0556
 2498SOL     OW19129   3.795   1.779   1.319  0.0531 -0.4782 -0.2549
 2498SOL    HW119130   3.782   1.766   1.413  0.6860 -1.3693 -0.2933
 2498SOL    HW219131   3.889   1.771   1.304  0.2985  0.6236  0.6946
 2499SOL     OW19132   0.480   3.383   5.215 -0.1305 -0.7969 -0.2980
 2499SOL    HW119133   0.564   3.411   5.178 -1.5745  3.7618 -0.0386
 2499SOL    HW219134   0.484   3.424   5.302 -0.0557 -0.7266 -0.3343
 2500SOL     OW19135   0.470   1.187   3.850 -0.9280  0.6742 -0.0966
 2500SOL    HW119136   0.473   1.222   3.761 -1.6582 -0.3819 -0.5346
 2500SOL    HW219137   0.404   1.243   3.891 -1.9819 -0.7412  0.1473
 2501SOL     OW19138   3.076   3.892   1.434 -0.3923 -0.1866  0.5234
 2501SOL    HW119139   3.001   3.845   1.470  0.5540 -1.1041  1.3170
 2501SOL    HW219140   3.046   3.903   1.344  1.5426  0.2909 -0.0658
 2502SOL     OW19141   0.671   2.367   5.929 -0.1709 -0.6085 -0.9218
 2502SOL    HW119142   0.597   2.314   5.957 -1.9844  2.9216  0.9531
 2502SOL    HW219143   0.643   2.453   5.959  0.1864 -0.4694 -0.9894
 2503SOL     OW19144   1.610   2.087   9.008 -0.1655 -0.3122  0.1787
 2503SOL    HW119145   1.679   2.042   9.057  1.7431  1.1211 -1.1891
 2503SOL    HW219146   1.580   2.154   9.070 -0.5310  0.5080 -0.8858
 2504SOL     OW19147   2.125   0.358   9.484  0.2859 -0.3170 -0.5135
 2504SOL    HW119148   2.081   0.425   9.433  0.2587  0.1401  0.0997
 2504SOL    HW219149   2.064   0.294   9.448 -1.2030 -0.3224  1.9785
 2505SOL     OW19150   0.898   3.183   6.874  0.9442  0.3637 -0.2597
 2505SOL    HW119151   0.886   3.255   6.812 -0.9173 -1.7549 -2.3400
 2505SOL    HW219152   0.973   3.202   6.931  1.7181 -0.1308 -1.1132
 2506SOL     OW19153   3.757   2.183  15.315  0.0594  0.4417  0.1854
 2506SOL    HW119154   3.701   2.114  15.279 -1.2610  1.0078  1.1490
 2506SOL    HW219155   3.801   2.208  15.233 -2.0708  1.0794 -0.7671
 2507SOL     OW19156   0.630   0.778   2.459 -0.0661 -0.2619 -0.8143
 2507SOL    HW119157   0.715   0.798   2.419 -0.8500  1.6030 -1.5858
 2507SOL    HW219158   0.644   0.780   2.554 -1.2501  0.0324 -0.6478
 2508SOL     OW19159   2.431   2.239   3.160  0.0533 -0.3014  0.2904
 2508SOL    HW119160   2.342   2.243   3.194 -0.0141 -0.5782  0.1473
 2508SOL    HW219161   2.445   2.333   3.153 -0.7658 -0.2681 -0.8503
 2509SOL     OW19162   4.006   3.443   0.012  0.0390  0.6954  0.1867
 2509SOL    HW119163   4.044   3.498   0.082  1.7551  1.6682 -1.4792
 2509SOL    HW219164   4.085   3.395  17.738 -1.6767 -2.2879  0.6235
 2510SOL     OW19165   3.944   1.398  15.432  0.4049 -0.1615  0.1716
 2510SOL    HW119166   3.939   1.425  15.340 -1.2019 -1.6182 -0.1458
 2510SOL    HW219167   4.017   1.450  15.467  0.0649  0.5417 -0.1535
 2511SOL     OW19168   2.223   3.819  13.101  0.1259  0.4081  0.2974
 2511SOL    HW119169   2.274   3.760  13.156  1.4670  2.2110  0.9580
 2511SOL    HW219170   2.294   3.874  13.068 -0.3934  0.7505 -0.2499
 2512SOL     OW19171   1.516   1.972  17.145  0.2898  0.5540  0.0901
 2512SOL    HW119172   1.542   1.978  17.236 -0.6250  0.7023  0.3455
 2512SOL    HW219173   1.427   2.008  17.148  0.0364 -0.0189 -0.5552
 2513SOL     OW19174   3.636   3.153  11.642  0.5064  0.3879  0.3987
 2513SOL    HW119175   3.589   3.077  11.675 -0.3827 -0.4086 -2.7434
 2513SOL    HW219176   3.610   3.138  11.551  0.1636  3.9183 -0.0867
 2514SOL     OW19177   0.350   3.898   3.775 -0.1915 -0.0664  0.2034
 2514SOL    HW119178   0.305   3.886   3.692  0.7140  1.5974 -0.5238
 2514SOL    HW219179   0.314   3.828   3.830 -0.5991  0.7336  0.9662
 2515SOL     OW19180   1.077   0.996   9.367 -0.2681 -0.1412 -0.2347
 2515SOL    HW119181   0.986   0.996   9.398  0.0150  0.9630  0.6017
 2515SOL    HW219182   1.067   0.996   9.271  1.0130  2.4000 -0.3678
 2516SOL     OW19183   2.808   2.418   7.925  0.5697  0.4817  0.4027
 2516SOL    HW119184   2.757   2.341   7.950  1.9426 -0.5265  0.0636
 2516SOL    HW219185   2.890   2.401   7.972  0.4056 -0.2065  0.4397
 2517SOL     OW19186   0.034   4.326   1.497 -0.2773 -0.0189 -0.7205
 2517SOL    HW119187   0.004   4.238   1.473  1.7630 -0.7843 -0.3953
 2517SOL    HW219188   0.079   4.313   1.580  0.3631 -1.9722 -1.3629
 2518SOL     OW19189   0.203   4.018   7.098  0.1964  0.5025 -0.0202
 2518SOL    HW119190   0.162   3.964   7.166  1.0884 -1.8559 -1.3850
 2518SOL    HW219191   0.145   3.996   7.025 -0.9951 -0.8357  1.3345
 2519SOL     OW19192   1.060   3.419   9.300  1.1621 -0.1459  0.2007
 2519SOL    HW119193   1.059   3.495   9.358  0.3713  0.0893 -0.1349
 2519SOL    HW219194   1.146   3.384   9.325  0.4182 -1.6591  0.6634
 2520SOL     OW19195   1.672   3.182   3.777  0.4338 -0.1515  0.4476
 2520SOL    HW119196   1.682   3.261   3.725  2.4522 -1.4200 -1.0592
 2520SOL    HW219197   1.581   3.194   3.805 -0.0432 -2.2413 -0.2092
 2521SOL     OW19198   1.195   0.838   7.959 -0.6195  0.1758  0.2989
 2521SOL    HW119199   1.155   0.879   7.882 -0.8183  3.8404  2.3339
 2521SOL    HW219200   1.166   0.893   8.032  0.7960 -0.3129  1.2184
 2522SOL     OW19201   1.327   1.476   7.075  0.0262  0.0636 -0.0898
 2522SOL    HW119202   1.259   1.410   7.060 -1.3949  1.5027 -0.0311
 2522SOL    HW219203   1.360   1.454   7.162 -2.5226 -2.7196  0.1946
 2523SOL     OW19204   1.159   1.695   2.939  0.0659  0.1817 -0.7136
 2523SOL    HW119205   1.167   1.778   2.984 -1.9295 -1.2072  2.1661
 2523SOL    HW219206   1.078   1.709   2.889  1.3149 -3.9525 -3.9476
 2524SOL     OW19207   2.746   1.601   7.683 -0.3483  0.0297 -0.3532
 2524SOL    HW119208   2.707   1.562   7.605  1.8744 -1.4838 -0.6805
 2524SOL    HW219209   2.834   1.566   7.691 -1.2379 -1.5669  2.4644
 2525SOL     OW19210   0.192   0.901   4.340 -0.6359 -0.1395 -0.2269
 2525SOL    HW119211   0.196   0.922   4.433 -0.2940 -0.8425 -0.0771
 2525SOL    HW219212   0.122   0.837   4.353 -0.0175 -0.0003  3.7051
 2526SOL     OW19213   0.398   0.350   4.010  0.2853 -0.0351  0.3001
 2526SOL    HW119214   0.434   0.347   3.921 -1.4313  1.9204 -0.4732
 2526SOL    HW219215   0.340   0.424   3.992 -0.5221 -0.9572 -0.9078
 2527SOL     OW19216   2.066   1.461   7.637  0.1904 -0.3344  0.0325
 2527SOL    HW119217   2.036   1.538   7.686  2.2819  0.1030  0.6292
 2527SOL    HW219218   2.014   1.476   7.558 -0.5818 -2.6509  0.1269
 2528SOL     OW19219   0.044   2.304   0.308 -1.0922 -0.1567  0.8341
 2528SOL    HW119220   0.045   2.399   0.316  0.3568 -0.0307 -0.9655
 2528SOL    HW219221   0.096   2.273   0.382  0.2140  1.5568  0.6109
 2529SOL     OW19222   3.500   3.557  15.266 -0.2081 -0.2537 -0.5521
 2529SOL    HW119223   3.407   3.562  15.287  0.2070 -2.0393  1.7085
 2529SOL    HW219224   3.493   3.479  15.211 -1.1879  0.0112 -0.7983
 2530SOL     OW19225   2.014   3.157   2.954  0.9917  0.0281  0.4905
 2530SOL    HW119226   2.051   3.233   2.908  0.7248 -0.2238 -0.1446
 2530SOL    HW219227   1.936   3.199   2.991  0.1115  0.1093 -1.4777
 2531SOL     OW19228   3.908   0.385   9.955 -0.0868  0.4027 -0.3142
 2531SOL    HW119229   3.854   0.459   9.983  0.8338  0.5055  1.1780
 2531SOL    HW219230   3.941   0.431   9.877 -0.0639  0.4360 -0.2848
 2532SOL     OW19231   4.259   3.007   9.522 -0.3866  0.1403  0.2459
 2532SOL    HW119232   4.246   3.084   9.467  3.7543 -0.1698 -1.1670
 2532SOL    HW219233   4.354   2.991   9.524 -0.8070 -2.3097  1.4216
 2533SOL     OW19234   2.408   4.097   6.403 -0.2972 -0.5403 -0.7124
 2533SOL    HW119235   2.466   4.153   6.452  2.1392 -2.5248 -1.3297
 2533SOL    HW219236   2.417   4.124   6.311  2.2654  1.4672  0.1555
 2534SOL     OW19237   1.559   3.203   1.500 -0.4354 -0.5765 -0.1726
 2534SOL    HW119238   1.600   3.267   1.442  2.4131 -2.1319  0.1048
 2534SOL    HW219239   1.592   3.233   1.584 -0.1797 -0.2469 -0.3898
 2535SOL     OW19240   1.510   2.579   4.749  0.1684  0.1463 -0.2711
 2535SOL    HW119241   1.470   2.499   4.783  0.7088 -0.0824 -0.1814
 2535SOL    HW219242   1.597   2.561   4.784  1.0642  2.6380 -1.2275
 2536SOL     OW19243   4.610   3.806   3.308  0.0028  0.3456  0.1421
 2536SOL    HW119244   4.615   3.740   3.377  0.9462  0.3786  0.0999
 2536SOL    HW219245   4.656   3.764   3.235  1.8258  1.7042  0.4995
 2537SOL     OW19246   0.622   2.405   3.952  0.3095 -0.1184  0.0689
 2537SOL    HW119247   0.549   2.368   4.001 -0.3820 -0.8594 -1.5461
 2537SOL    HW219248   0.618   2.364   3.866 -2.2184 -0.4655  0.3741
 2538SOL     OW19249   2.635   2.822   9.262  0.2370  0.3200  0.9239
 2538SOL    HW119250   2.649   2.879   9.337  0.0013 -0.9882  1.9751
 2538SOL    HW219251   2.544   2.802   9.286  0.7986 -2.2954  0.9569
 2539SOL     OW19252   1.794   2.634   5.926 -0.0873 -0.4164 -0.0879
 2539SOL    HW119253   1.747   2.556   5.897 -4.1212  2.2054 -0.5768
 2539SOL    HW219254   1.817   2.609   6.015 -2.3538  2.1387  1.2031
 2540SOL     OW19255   4.511   0.151   5.831  0.5907  0.4611  0.2790
 2540SOL    HW119256   4.571   0.089   5.789 -0.5875 -0.7853  0.4238
 2540SOL    HW219257   4.498   0.113   5.918  1.5052  1.8195  1.0022
 2541SOL     OW19258   0.890   1.036  14.714  0.2786  0.6017  0.0168
 2541SOL    HW119259   0.921   0.989  14.791  0.9750  0.7807 -0.1506
 2541SOL    HW219260   0.919   0.974  14.646 -3.1654 -0.2727 -0.6479
 2542SOL     OW19261   2.070   0.960   5.604  0.3916 -0.0614 -0.1195
 2542SOL    HW119262   2.082   0.928   5.514  0.3250 -3.3613  1.0476
 2542SOL    HW219263   2.071   1.055   5.594 -1.1066 -0.0487 -0.2472
 2543SOL     OW19264   3.670   2.869  14.976 -0.1926  0.3150  0.3708
 2543SOL    HW119265   3.655   2.885  15.069 -1.0556  1.8893 -0.0400
 2543SOL    HW219266   3.652   2.775  14.968  0.9590  0.2326 -1.3303
 2544SOL     OW19267   2.342   1.749   1.527  0.1047  0.3753  0.3858
 2544SOL    HW119268   2.307   1.824   1.576 -0.8134 -0.1228  0.5089
 2544SOL    HW219269   2.416   1.723   1.581  0.3691  1.6515  0.6259
 2545SOL     OW19270   4.099   1.955   8.720 -0.6768  0.2540  0.2676
 2545SOL    HW119271   4.022   1.999   8.685 -1.0361 -2.1244 -1.9530
 2545SOL    HW219272   4.081   1.866   8.689 -1.5925  0.6086 -0.2079
 2546SOL     OW19273   1.491   0.616   0.361 -0.1814 -0.1890 -0.3688
 2546SOL    HW119274   1.523   0.619   0.270 -0.9133 -1.2018 -0.6605
 2546SOL    HW219275   1.400   0.642   0.350 -1.2465 -2.7491  2.4525
 2547SOL     OW19276   0.686   3.116   4.832  0.7383 -0.3618 -0.1124
 2547SOL    HW119277   0.693   3.172   4.909 -1.9638 -0.7692  0.4118
 2547SOL    HW219278   0.602   3.151   4.803 -0.7804 -2.5265  1.7122
 2548SOL     OW19279   1.150   2.357   6.636  0.0438  0.1801 -0.4210
 2548SOL    HW119280   1.119   2.372   6.547 -1.9801 -1.2669  0.0453
 2548SOL    HW219281   1.071   2.326   6.680  0.9406 -0.2560  0.8990
 2549SOL     OW19282   3.200   0.365  13.839 -0.7511  0.5248 -0.2001
 2549SOL    HW119283   3.129   0.330  13.783 -0.1694 -1.9539  0.5972
 2549SOL    HW219284   3.211   0.450  13.797 -1.0049  1.4648  1.6586
 2550SOL     OW19285   1.519   2.870   5.345 -0.5025  0.1276 -0.2581
 2550SOL    HW119286   1.559   2.949   5.380  3.1734 -1.8842  0.1691
 2550SOL    HW219287   1.593   2.808   5.345 -0.4557  0.1848  0.1147
 2551SOL     OW19288   1.663   2.625  15.462  0.1243  0.0781 -0.3296
 2551SOL    HW119289   1.605   2.549  15.459  0.0472  0.0271  2.2275
 2551SOL    HW219290   1.722   2.583  15.399 -1.7933 -1.5940 -0.9992
 2552SOL     OW19291   0.833   1.010  14.318 -0.2679 -0.0699  0.9785
 2552SOL    HW119292   0.870   1.068  14.385 -1.6389  1.6082  0.3063
 2552SOL    HW219293   0.901   1.020  14.252 -0.9071  2.2719  0.6586
 2553SOL     OW19294   1.303   0.252   5.489  0.3949  0.6331 -0.3671
 2553SOL    HW119295   1.342   0.338   5.473  3.2433 -0.2975  1.4401
 2553SOL    HW219296   1.213   0.269   5.461  0.4083 -1.6424 -1.7605
 2554SOL     OW19297   3.928   0.624   8.905 -0.5462  0.0001  0.9313
 2554SOL    HW119298   3.931   0.546   8.961 -2.1977 -0.8141 -0.0993
 2554SOL    HW219299   3.841   0.622   8.866 -0.1776  1.3769  0.0365
 2555SOL     OW19300   0.895   2.659   7.999 -0.1028 -0.4915  0.1121
 2555SOL    HW119301   0.919   2.736   7.947  2.1047 -0.5306  1.0755
 2555SOL    HW219302   0.915   2.585   7.942  2.2724 -0.6923  1.1693
 2556SOL     OW19303   2.833   0.504   1.630 -0.0563 -1.2469  0.5751
 2556SOL    HW119304   2.786   0.489   1.712 -0.9167  1.7451  0.6329
 2556SOL    HW219305   2.921   0.536   1.650 -0.7526  1.4034 -0.5941
 2557SOL     OW19306   4.558   4.051   8.895  0.1045  0.4271 -0.4039
 2557SOL    HW119307   4.648   4.031   8.872 -0.5002 -1.3869 -1.1751
 2557SOL    HW219308   4.515   3.965   8.888 -0.0319  0.3513  1.1659
 2558SOL     OW19309   0.871   2.007   2.100  0.1611 -0.0811  0.2894
 2558SOL    HW119310   0.842   1.947   2.169  0.3310 -1.4012 -0.7631
 2558SOL    HW219311   0.791   2.058   2.088  1.2658  1.5863  0.1249
 2559SOL     OW19312   1.005   1.962   3.660  0.3418 -0.4374 -0.3241
 2559SOL    HW119313   1.011   2.054   3.686  0.0170 -0.2350 -0.9646
 2559SOL    HW219314   0.954   1.917   3.727  0.0640 -0.4332 -0.5305
 2560SOL     OW19315   3.972   1.489   6.999 -0.0430  0.6210 -0.8648
 2560SOL    HW119316   3.917   1.550   6.951  0.9272  2.9786  1.0247
 2560SOL    HW219317   4.033   1.452   6.935  1.7568  0.9532  0.6397
 2561SOL     OW19318   0.622   2.280   3.685  0.1805 -0.0243  0.3476
 2561SOL    HW119319   0.587   2.344   3.623  0.6428  0.0855  0.2009
 2561SOL    HW219320   0.659   2.219   3.621 -0.1635 -2.4952  2.5358
 2562SOL     OW19321   3.321   4.640  16.864 -0.1728 -0.2104  0.0966
 2562SOL    HW119322   3.371   4.712  16.903 -1.5039  0.6382  0.2292
 2562SOL    HW219323   3.247   4.637  16.924 -1.2384 -1.3249 -1.2730
 2563SOL     OW19324   1.435   1.739   2.757  0.9044  0.2346 -0.3558
 2563SOL    HW119325   1.411   1.669   2.817 -0.9812  0.6288 -0.6726
 2563SOL    HW219326   1.399   1.815   2.802  2.4312  0.5696  0.3198
 2564SOL     OW19327   1.290   2.693   8.084  0.5329  0.0792  0.2818
 2564SOL    HW119328   1.292   2.597   8.084 -0.2278  0.0624  0.3999
 2564SOL    HW219329   1.218   2.714   8.143 -0.7422  2.1770 -2.0260
 2565SOL     OW19330   3.390   1.661   4.712  0.1769  0.4737 -0.0373
 2565SOL    HW119331   3.386   1.690   4.803 -0.8238  0.1511  0.0177
 2565SOL    HW219332   3.425   1.574   4.734 -1.0502  0.3677  1.4932
 2566SOL     OW19333   2.232   1.751   5.826 -0.0367 -0.1247 -0.1236
 2566SOL    HW119334   2.178   1.791   5.758 -1.5121  2.5123  2.5750
 2566SOL    HW219335   2.250   1.832   5.874  2.7990 -2.1499  2.2243
 2567SOL     OW19336   0.688   0.644   6.380 -0.2199 -0.1492 -0.4154
 2567SOL    HW119337   0.735   0.674   6.303  0.5662  0.5803  0.3469
 2567SOL    HW219338   0.597   0.656   6.353 -0.2494  0.7046  0.0670
 2568SOL     OW19339   2.235   0.297   5.062  0.1595  0.2594 -0.1696
 2568SOL    HW119340   2.274   0.381   5.084  0.2152  0.1009  0.3322
 2568SOL    HW219341   2.210   0.264   5.148  0.5587 -0.3108 -0.2692
 2569SOL     OW19342   3.069   2.511  11.193 -0.2213  0.1321 -0.1962
 2569SOL    HW119343   3.015   2.469  11.259  0.6028 -0.7562 -0.0836
 2569SOL    HW219344   3.022   2.488  11.113  1.2281  0.9802 -1.3089
 2570SOL     OW19345   4.605   0.545   6.218 -0.2019  0.1814 -0.3614
 2570SOL    HW119346   4.641   0.461   6.246  0.5730  1.0416  1.1939
 2570SOL    HW219347   4.588   0.527   6.125 -0.3749  0.9454 -0.4781
 2571SOL     OW19348   1.154   1.075   8.499 -0.1118  0.1576  0.5160
 2571SOL    HW119349   1.242   1.040   8.489 -0.5314 -0.6791 -0.2565
 2571SOL    HW219350   1.173   1.160   8.537 -2.8263  1.1873 -0.4524
 2572SOL     OW19351   1.072   1.627   9.983  0.1966  0.0731 -0.0519
 2572SOL    HW119352   1.121   1.708   9.969 -0.1872  0.9686  3.6969
 2572SOL    HW219353   1.138   1.586  10.039  0.0957  0.6705  0.5135
 2573SOL     OW19354   2.691   4.689   9.676  0.2418  0.7697 -0.2284
 2573SOL    HW119355   2.717   4.715   9.588 -0.2596 -2.7668 -1.4121
 2573SOL    HW219356   2.767   4.716   9.727 -0.3827 -1.9786  2.1608
 2574SOL     OW19357   1.599   3.361  15.113 -0.4469 -0.2426 -0.5408
 2574SOL    HW119358   1.563   3.442  15.147 -0.0498 -0.7753  1.1202
 2574SOL    HW219359   1.643   3.329  15.192  0.0004 -0.8486 -1.0330
 2575SOL     OW19360   0.961   2.333   8.090  0.3295 -0.5682  0.0389
 2575SOL    HW119361   0.905   2.328   8.013  1.4501 -0.6425 -0.7824
 2575SOL    HW219362   0.933   2.251   8.130  0.2980 -1.2914 -1.4403
 2576SOL     OW19363   3.152   4.520  16.379 -0.4613 -0.2283  0.1549
 2576SOL    HW119364   3.184   4.582  16.444  0.5061 -1.2385  0.6417
 2576SOL    HW219365   3.067   4.495  16.414 -0.8305  0.0366 -0.5415
 2577SOL     OW19366   0.210   1.098   2.566 -0.0373 -0.0143 -0.0615
 2577SOL    HW119367   0.276   1.029   2.570 -0.2524 -0.2143  0.0561
 2577SOL    HW219368   0.254   1.174   2.605  0.3066  0.2864 -1.0489
 2578SOL     OW19369   1.575   0.091  11.462  0.1377 -0.4408  0.1399
 2578SOL    HW119370   1.554   0.164  11.521 -0.7988  0.2866 -1.1118
 2578SOL    HW219371   1.499   0.074  11.406  0.9011  0.7071 -1.2026
 2579SOL     OW19372   1.139   0.375  17.344 -0.1822 -0.4113  0.5419
 2579SOL    HW119373   1.184   0.420  17.272 -1.5762 -0.2643 -0.2449
 2579SOL    HW219374   1.109   0.293  17.305 -1.8329 -1.5296  4.1587
 2580SOL     OW19375   4.342   1.629  14.777 -0.2339 -0.7205 -0.0269
 2580SOL    HW119376   4.417   1.571  14.791 -0.5607 -0.4749  2.8015
 2580SOL    HW219377   4.383   1.696  14.723 -0.7707  0.1270  0.6283
 2581SOL     OW19378   2.413   1.210   8.532 -0.2870  0.4030  0.3896
 2581SOL    HW119379   2.402   1.219   8.626 -0.3335  2.4331  0.1827
 2581SOL    HW219380   2.434   1.117   8.530  2.8985  1.1183 -0.0396
 2582SOL     OW19381   2.135   4.345   0.089 -0.0221  0.3358  0.1493
 2582SOL    HW119382   2.141   4.250   0.077 -0.5252  0.5899 -2.2794
 2582SOL    HW219383   2.226   4.366   0.110  0.0500  0.6967 -0.4997
 2583SOL     OW19384   2.507   0.412   8.525 -0.1581 -0.1845  0.2279
 2583SOL    HW119385   2.445   0.430   8.454 -2.0830 -2.1120  1.4418
 2583SOL    HW219386   2.447   0.391   8.597 -0.2776  2.0374  0.7954
 2584SOL     OW19387   4.020   2.293  17.417 -0.2989 -0.0634 -0.2693
 2584SOL    HW119388   3.983   2.289  17.506  0.2070 -1.5023 -0.1164
 2584SOL    HW219389   4.053   2.381  17.399  0.3352  0.0069  1.2235
 2585SOL     OW19390   2.653   3.025   9.436  0.2581 -0.3794  0.3581
 2585SOL    HW119391   2.594   3.100   9.441 -1.0903 -1.3470 -1.3205
 2585SOL    HW219392   2.692   3.030   9.524  1.1968  0.8696 -0.1274
 2586SOL     OW19393   2.692   4.700   8.946 -0.1261 -0.0832 -0.5243
 2586SOL    HW119394   2.740   0.018   8.886  2.5951 -1.7199  0.1107
 2586SOL    HW219395   2.681   4.619   8.896 -0.3913 -0.3178 -0.0903
 2587SOL     OW19396   3.844   2.389   9.203 -0.6486  0.2503  0.1931
 2587SOL    HW119397   3.881   2.461   9.254 -1.2091  0.3983  0.3980
 2587SOL    HW219398   3.820   2.329   9.274 -3.0332  1.4372  0.4082
 2588SOL     OW19399   1.322   4.462   8.230 -0.0499 -0.5262  0.1390
 2588SOL    HW119400   1.244   4.442   8.282  0.0274 -0.7372  0.1729
 2588SOL    HW219401   1.343   4.377   8.190  1.6679 -0.6955  1.4275
 2589SOL     OW19402   2.361   1.341   9.663 -0.3241  0.0761 -0.3898
 2589SOL    HW119403   2.446   1.353   9.705 -0.1202 -0.5133 -0.6318
 2589SOL    HW219404   2.387   1.301   9.580  1.6721  0.8563 -0.1541
 2590SOL     OW19405   3.848   4.511  14.398  0.2027  0.2948 -0.4404
 2590SOL    HW119406   3.847   4.484  14.306 -1.8368 -1.4454  0.0932
 2590SOL    HW219407   3.934   4.551  14.410  0.5710  0.4425 -3.4926
 2591SOL     OW19408   3.945   3.959   3.650  0.2717 -0.4566  0.1217
 2591SOL    HW119409   3.901   3.940   3.733  1.5063 -1.2402  0.6128
 2591SOL    HW219410   3.891   4.029   3.616 -0.5242  0.3448  3.0063
 2592SOL     OW19411   4.280   4.650   9.302 -0.2226  0.1036  0.2860
 2592SOL    HW119412   4.329   4.718   9.348  0.7984 -0.4131 -0.0454
 2592SOL    HW219413   4.356   4.594   9.283 -1.1506 -1.6525  1.7611
 2593SOL     OW19414   3.222   2.851   6.193 -0.1892 -0.0194 -0.1768
 2593SOL    HW119415   3.257   2.764   6.172 -1.2669 -0.2385 -1.0497
 2593SOL    HW219416   3.289   2.879   6.255 -0.9869  1.1419  0.1702
 2594SOL     OW19417   3.841   3.567   3.159 -0.2182 -0.6722 -0.1002
 2594SOL    HW119418   3.913   3.572   3.222 -1.3842  0.4888  1.1531
 2594SOL    HW219419   3.863   3.640   3.102 -1.3316  1.1164  1.7572
 2595SOL     OW19420   3.006   2.696   7.619 -0.1566  0.3826 -0.2445
 2595SOL    HW119421   2.979   2.748   7.543  1.2457  0.5482 -0.6399
 2595SOL    HW219422   2.995   2.758   7.691  2.3667  2.7180 -1.8573
 2596SOL     OW19423   0.545   1.299   4.457  0.2034 -0.3890 -0.0108
 2596SOL    HW119424   0.492   1.304   4.378  0.8843  0.7056 -0.3982
 2596SOL    HW219425   0.629   1.326   4.423  0.7606 -1.7317  0.3026
 2597SOL     OW19426   2.923   2.777   6.746  0.2653  0.1166 -0.7775
 2597SOL    HW119427   2.964   2.692   6.727 -2.4251 -1.8001  1.8434
 2597SOL    HW219428   2.990   2.818   6.800 -1.2146 -1.5506  2.3515
 2598SOL     OW19429   2.598   2.270  13.399 -0.2427 -0.1459 -0.5939
 2598SOL    HW119430   2.536   2.339  13.422  1.8759  0.8008  2.1741
 2598SOL    HW219431   2.659   2.271  13.472 -1.8692  0.4406  0.7685
 2599SOL     OW19432   1.577   2.481  13.359  0.6350  0.0557 -0.1945
 2599SOL    HW119433   1.663   2.470  13.318  0.5510  0.8492 -0.5766
 2599SOL    HW219434   1.547   2.564  13.323 -0.1661 -0.6232 -1.0720
 2600SOL     OW19435   3.008   4.403   3.077  0.3167 -0.1711  0.1046
 2600SOL    HW119436   3.056   4.445   3.148  1.5740 -1.6443  0.1182
 2600SOL    HW219437   3.055   4.440   3.002  2.4567 -2.1763  0.4698
 2601SOL     OW19438   2.560   4.735   7.645 -0.1629  0.6519 -0.2800
 2601SOL    HW119439   2.584   0.001   7.553 -1.3995 -0.1618 -0.6306
 2601SOL    HW219440   2.545   4.641   7.638  0.4826  0.5750 -0.6267
 2602SOL     OW19441   1.450   1.761  17.364 -0.0705  0.0211 -0.1721
 2602SOL    HW119442   1.358   1.768  17.387 -0.3475 -0.8367 -1.0026
 2602SOL    HW219443   1.445   1.771  17.269  1.0472 -2.3291 -0.4961
 2603SOL     OW19444   2.966   0.047  16.856 -0.2757  0.3278  0.2839
 2603SOL    HW119445   2.922   0.098  16.925  0.7276  1.9263 -0.2604
 2603SOL    HW219446   3.019   4.719  16.900 -0.2603  0.1855  0.0454
 2604SOL     OW19447   4.273   1.225  10.831 -0.6823 -0.6892 -0.6732
 2604SOL    HW119448   4.316   1.171  10.766  0.1225 -1.2425  0.3208
 2604SOL    HW219449   4.314   1.197  10.913 -0.5572  0.2815 -0.3980
 2605SOL     OW19450   4.059   4.263   7.991 -0.1956 -0.0263 -0.0576
 2605SOL    HW119451   3.969   4.291   8.009 -0.0320  0.2559  0.3166
 2605SOL    HW219452   4.082   4.217   8.071  0.5848 -0.5952 -0.6024
 2606SOL     OW19453   3.920   2.985   3.060  0.4175 -0.5599 -0.2324
 2606SOL    HW119454   3.898   3.075   3.036  2.4677  0.4108  1.5042
 2606SOL    HW219455   3.836   2.954   3.095  0.8987 -1.1995  0.3623
 2607SOL     OW19456   0.182   3.741   4.590 -0.1231  0.1546 -0.5341
 2607SOL    HW119457   0.173   3.715   4.682  1.8593 -0.2487 -0.4591
 2607SOL    HW219458   0.255   3.683   4.571 -0.2767  0.8161 -3.0943
 2608SOL     OW19459   4.467   0.068   9.404  0.1952 -0.1869 -0.2326
 2608SOL    HW119460   4.554   0.034   9.426  0.2625 -0.7653 -1.4131
 2608SOL    HW219461   4.439   0.099   9.491  0.7391 -1.9713  0.5838
 2609SOL     OW19462   0.159   4.051  12.517 -0.0978  0.2296 -0.2808
 2609SOL    HW119463   0.241   4.018  12.552 -0.2439  0.4000  0.2129
 2609SOL    HW219464   0.099   4.028  12.587  0.8195  1.3290  0.8569
 2610SOL     OW19465   1.013   4.140   7.882 -0.2949 -0.3168  0.4480
 2610SOL    HW119466   0.994   4.233   7.893 -0.8166 -0.4416  0.6075
 2610SOL    HW219467   1.069   4.112   7.954  1.8306  0.9128 -0.7383
 2611SOL     OW19468   1.589   0.404   5.701 -0.1740 -0.0331 -0.1840
 2611SOL    HW119469   1.588   0.498   5.683  0.8839  0.2736  1.3060
 2611SOL    HW219470   1.637   0.360   5.631 -0.5495  0.7445 -0.9367
 2612SOL     OW19471   3.869   0.876   1.973  0.1632  0.9303  0.4965
 2612SOL    HW119472   3.943   0.867   2.033  0.7923 -1.1108 -0.5703
 2612SOL    HW219473   3.910   0.888   1.887 -2.2235  0.7456 -0.6776
 2613SOL     OW19474   3.131   1.730   6.493 -0.4789  0.2653 -0.5854
 2613SOL    HW119475   3.105   1.787   6.421 -1.1807  0.8718  0.1528
 2613SOL    HW219476   3.176   1.797   6.544 -1.7715 -0.6776  1.8255
 2614SOL     OW19477   2.892   2.664   6.388 -0.4146  0.5846  0.2202
 2614SOL    HW119478   2.833   2.702   6.453  1.5353  1.2148  1.6196
 2614SOL    HW219479   2.981   2.667   6.423  1.2937  2.8290 -4.3919
 2615SOL     OW19480   4.407   1.663  10.580 -0.3187 -0.3634  0.6225
 2615SOL    HW119481   4.378   1.572  10.585  0.4400 -0.6043  0.6488
 2615SOL    HW219482   4.452   1.681  10.662 -3.2185 -0.8601  2.3240
 2616SOL     OW19483   3.343   3.995   4.610 -0.9603  0.5397  0.1479
 2616SOL    HW119484   3.321   3.914   4.655 -0.9819  0.3871 -0.1344
 2616SOL    HW219485   3.257   4.034   4.592  0.3904  2.5342 -2.0095
 2617SOL     OW19486   4.571   0.447  17.543  0.0540 -0.3526 -0.0310
 2617SOL    HW119487   4.616   0.419  17.623  1.0777  0.3465 -0.3576
 2617SOL    HW219488   4.594   0.376  17.484 -1.0820 -1.0779  0.3970
 2618SOL     OW19489   0.906   0.960   0.590 -0.2906  0.0040  0.3073
 2618SOL    HW119490   0.901   0.881   0.643 -1.0686 -1.0953 -1.4211
 2618SOL    HW219491   0.977   1.007   0.635 -0.8020  0.2249  0.8933
 2619SOL     OW19492   3.280   1.158   3.106 -0.1693  0.1848 -0.3882
 2619SOL    HW119493   3.271   1.253   3.107 -1.7182  0.0094  1.0705
 2619SOL    HW219494   3.361   1.144   3.155  0.7086 -2.2432 -2.5052
 2620SOL     OW19495   3.678   4.348   1.591 -0.1719  0.1962  0.6224
 2620SOL    HW119496   3.645   4.259   1.600 -1.1700  0.4675 -0.3159
 2620SOL    HW219497   3.769   4.320   1.596  0.5251  2.2942 -0.0960
 2621SOL     OW19498   4.658   2.659   6.800 -0.0274  0.8756 -0.3876
 2621SOL    HW119499   4.727   2.679   6.864 -0.8828 -0.5421  0.9918
 2621SOL    HW219500   4.606   2.598   6.853  1.6781 -0.7781 -0.6078
 2622SOL     OW19501   3.588   1.064   7.127  0.0831  0.1539  0.2057
 2622SOL    HW119502   3.589   1.143   7.182  2.7434  0.2351  0.0372
 2622SOL    HW219503   3.635   0.995   7.173  2.8968  0.2925 -2.4965
 2623SOL     OW19504   2.441   3.420  13.328 -0.2677  0.1443 -0.3304
 2623SOL    HW119505   2.356   3.402  13.288 -1.9658  2.0850  2.3762
 2623SOL    HW219506   2.443   3.357  13.401 -0.4464 -2.0585 -2.2332
 2624SOL     OW19507   3.498   0.023   8.142 -0.1990  0.5376  0.0496
 2624SOL    HW119508   3.485   4.679   8.189  0.8627 -0.1449 -0.8547
 2624SOL    HW219509   3.508   0.078   8.219  1.6635 -1.7529  1.4192
 2625SOL     OW19510   0.008   0.094   1.434 -0.2030  1.1528  0.9735
 2625SOL    HW119511   4.708   0.007   1.447 -1.6527  1.4424 -1.4787
 2625SOL    HW219512   0.036   0.085   1.343 -3.0041  0.5546  0.1701
 2626SOL     OW19513   1.695   2.059  17.641 -0.3230 -0.7047  0.8128
 2626SOL    HW119514   1.707   2.132  17.701 -1.4081 -1.1238  1.5461
 2626SOL    HW219515   1.684   1.991  17.707  1.1244 -1.9086 -0.1856
 2627SOL     OW19516   0.967   0.396   8.817 -0.5789  0.3948  0.2169
 2627SOL    HW119517   1.009   0.310   8.814 -0.7813  0.3358 -0.9419
 2627SOL    HW219518   0.989   0.426   8.729  1.5756 -2.2664 -0.1454
 2628SOL     OW19519   2.155   4.075   4.987 -0.9719  0.0456  0.3302
 2628SOL    HW119520   2.073   4.027   4.997 -1.1746  0.8692  2.7002
 2628SOL    HW219521   2.193   4.069   5.075  1.2070 -0.9980 -0.6831
 2629SOL     OW19522   3.123   4.187   8.772 -0.6868  0.0575 -0.3158
 2629SOL    HW119523   3.105   4.214   8.863  0.1775  0.4710 -0.2699
 2629SOL    HW219524   3.174   4.266   8.754  1.4635 -0.6707  2.5804
 2630SOL     OW19525   1.629   0.605  14.235  0.1706  0.1239  0.2379
 2630SOL    HW119526   1.589   0.674  14.289 -0.6730  1.7158 -2.4083
 2630SOL    HW219527   1.720   0.609  14.265  0.3222  1.0013 -0.3227
 2631SOL     OW19528   1.802   2.153   5.313 -0.3240 -0.3566 -0.1420
 2631SOL    HW119529   1.897   2.165   5.323 -0.4038  1.3268 -1.2918
 2631SOL    HW219530   1.800   2.128   5.221  2.1603 -0.2673 -0.2293
 2632SOL     OW19531   0.352   2.295  17.658  0.8842  0.4739 -0.4031
 2632SOL    HW119532   0.411   2.262  17.726 -2.1465 -0.9569  1.4943
 2632SOL    HW219533   0.374   2.388  17.645  3.8416 -0.0935  0.6064
 2633SOL     OW19534   1.698   1.015   7.027  0.0348 -0.1912 -0.0158
 2633SOL    HW119535   1.759   1.001   7.098 -1.1745  0.5205  1.1624
 2633SOL    HW219536   1.630   0.951   7.048 -0.6446 -0.0012 -1.6242
 2634SOL     OW19537   1.997   3.404   4.709  0.0842 -0.5654  0.3406
 2634SOL    HW119538   2.031   3.379   4.624  0.9250  0.8691  0.2511
 2634SOL    HW219539   1.954   3.488   4.688  2.0508  0.2480 -0.4435
 2635SOL     OW19540   2.711   3.008   8.827  0.0556  0.1421  0.4714
 2635SOL    HW119541   2.779   2.944   8.805  0.5819  1.1266 -0.7717
 2635SOL    HW219542   2.695   3.054   8.744 -0.5706 -0.4076  0.2862
 2636SOL     OW19543   3.321   0.610   8.881 -0.3120 -0.1169 -0.2006
 2636SOL    HW119544   3.385   0.569   8.823 -0.2055  1.3483 -1.1271
 2636SOL    HW219545   3.366   0.694   8.893 -0.6496 -0.1241  1.0629
 2637SOL     OW19546   0.069   2.855   3.078 -0.1012 -0.3035  0.0694
 2637SOL    HW119547   0.121   2.934   3.063  0.1744 -0.4068  0.4854
 2637SOL    HW219548   4.732   2.884   3.026  0.0464 -0.9497 -0.5164
 2638SOL     OW19549   2.375   2.496  13.430  0.2053  0.0712 -0.1352
 2638SOL    HW119550   2.445   2.558  13.452  0.0204  0.1965  0.0929
 2638SOL    HW219551   2.316   2.546  13.374 -0.9854 -0.6278  0.5015
 2639SOL     OW19552   1.742   0.251  15.237 -0.5395  0.0014 -0.1174
 2639SOL    HW119553   1.815   0.227  15.295 -0.2326  3.9793  1.1447
 2639SOL    HW219554   1.790   0.274  15.158 -1.8267 -0.3031 -0.9734
 2640SOL     OW19555   2.500   4.244   6.149  0.0574  0.2839  0.1530
 2640SOL    HW119556   2.422   4.226   6.097 -0.9788  1.8472  1.1665
 2640SOL    HW219557   2.534   4.313   6.092 -1.5439 -0.0383 -1.1670
 2641SOL     OW19558   0.142   1.850   9.222 -0.2266  0.5942 -0.4288
 2641SOL    HW119559   0.170   1.867   9.132  0.7490  1.1658 -0.0055
 2641SOL    HW219560   0.223   1.850   9.272 -0.4356 -0.9547 -0.0761
 2642SOL     OW19561   1.275   2.730   4.955 -0.1816 -0.2718  0.0918
 2642SOL    HW119562   1.320   2.770   5.029 -0.5270  0.9610 -0.3711
 2642SOL    HW219563   1.267   2.638   4.981  0.6603 -0.7608 -1.4070
 2643SOL     OW19564   1.981   0.375   7.557  0.0349 -0.0824  0.3837
 2643SOL    HW119565   1.943   0.336   7.479  2.4653 -2.3847  0.3582
 2643SOL    HW219566   1.945   0.322   7.628  0.6797 -1.6465 -0.4553
 2644SOL     OW19567   2.599   1.783   8.627 -0.5312  0.1254  1.1620
 2644SOL    HW119568   2.548   1.861   8.646  0.7535  0.3046  3.9271
 2644SOL    HW219569   2.540   1.712   8.651 -1.9250  1.3482  1.2857
 2645SOL     OW19570   2.414   2.540   9.188 -0.2316  0.6118  0.5236
 2645SOL    HW119571   2.365   2.565   9.266 -3.3459 -2.2270 -0.5316
 2645SOL    HW219572   2.495   2.514   9.232  0.5266  2.7141  0.3688
 2646SOL     OW19573   2.403   3.112   6.286  0.2649  0.0804  0.4562
 2646SOL    HW119574   2.336   3.175   6.261 -0.1103  0.0176  1.2837
 2646SOL    HW219575   2.442   3.088   6.202 -0.1998 -0.5355  0.4129
 2647SOL     OW19576   3.646   0.857   2.822 -0.0838  0.1370 -0.0136
 2647SOL    HW119577   3.687   0.928   2.872 -1.1810  0.2248  0.7425
 2647SOL    HW219578   3.627   0.795   2.893 -0.1139 -1.4751 -1.4471
 2648SOL     OW19579   1.616   0.670   4.810 -0.1239  0.2285  0.7350
 2648SOL    HW119580   1.608   0.765   4.810  0.4620  0.2606 -2.0973
 2648SOL    HW219581   1.577   0.649   4.895  2.3294 -1.0328  1.5362
 2649SOL     OW19582   0.118   0.508   5.530  0.4058 -0.3411  0.9011
 2649SOL    HW119583   0.089   0.418   5.527  0.4521 -0.3092 -0.4838
 2649SOL    HW219584   0.071   0.546   5.456 -0.2509  0.3643  1.6746
 2650SOL     OW19585   2.975   2.959   3.644  0.5834 -0.0327  0.4469
 2650SOL    HW119586   2.920   2.880   3.644  0.7725 -0.1631  0.2617
 2650SOL    HW219587   3.014   2.979   3.559  2.2797 -3.7706  0.3591
 2651SOL     OW19588   2.441   0.287   7.346 -0.6946 -0.3765 -0.4304
 2651SOL    HW119589   2.449   0.195   7.320 -1.3981 -0.1607 -1.4195
 2651SOL    HW219590   2.523   0.315   7.305  0.1817 -2.3472 -0.0103
 2652SOL     OW19591   1.422   4.353  17.239  0.0212  0.4492  0.3223
 2652SOL    HW119592   1.348   4.331  17.296 -0.8494  1.4679 -0.4088
 2652SOL    HW219593   1.464   4.425  17.287  1.6213 -0.1468 -0.2110
 2653SOL     OW19594   4.668   3.109  14.340  0.1097 -0.1737  0.2275
 2653SOL    HW119595   0.017   3.097  14.377  0.5859 -1.3410 -1.2527
 2653SOL    HW219596   4.629   3.022  14.327 -0.0200 -0.1684  0.5797
 2654SOL     OW19597   1.678   2.388   5.236  0.0653  0.0518 -0.4193
 2654SOL    HW119598   1.697   2.320   5.301  2.2779  0.1379 -0.9957
 2654SOL    HW219599   1.762   2.431   5.249 -0.6860  0.8980  1.7029
 2655SOL     OW19600   2.209   0.895   5.337 -0.5993  0.0339  0.4251
 2655SOL    HW119601   2.299   0.903   5.369  0.2195  0.4938 -1.9835
 2655SOL    HW219602   2.186   0.984   5.310  1.9887  0.7246  0.4660
 2656SOL     OW19603   0.951   0.661   2.146  0.1336  0.1039 -0.1644
 2656SOL    HW119604   1.040   0.670   2.111  0.5134 -2.5975  0.0944
 2656SOL    HW219605   0.897   0.655   2.068  0.3063  1.2558 -0.3780
 2657SOL     OW19606   0.052   0.826   7.881  0.0784 -0.3861 -0.2568
 2657SOL    HW119607   0.080   0.915   7.861  2.4224 -1.2061 -0.5837
 2657SOL    HW219608   0.013   0.801   7.797  2.9311  3.6443 -2.7942
 2658SOL     OW19609   3.432   3.361   5.381  0.0532  0.2527  0.2992
 2658SOL    HW119610   3.485   3.335   5.306 -0.3996  0.4007 -0.0734
 2658SOL    HW219611   3.351   3.322   5.347  1.0008 -0.7633 -0.8094
 2659SOL     OW19612   0.110   2.079   5.661 -0.3948  0.0473  0.3957
 2659SOL    HW119613   0.130   2.084   5.568  0.1784 -1.5047  0.4487
 2659SOL    HW219614   0.198   2.103   5.692 -0.8770  2.9034 -0.3930
 2660SOL     OW19615   1.668   0.210   9.408  0.3337  0.3700  0.1610
 2660SOL    HW119616   1.640   0.181   9.321  0.2087 -3.3251  1.4241
 2660SOL    HW219617   1.763   0.218   9.396  0.1966  0.4326 -0.9445
 2661SOL     OW19618   0.998   4.075   2.581 -0.3069 -0.2310  0.4905
 2661SOL    HW119619   1.028   4.165   2.585 -2.2375  0.4410 -0.3852
 2661SOL    HW219620   0.935   4.081   2.509 -1.3787  1.4316  1.5730
 2662SOL     OW19621   4.333   0.781   0.634 -0.5037  0.0565  0.3559
 2662SOL    HW119622   4.370   0.739   0.712 -1.3280 -1.6361 -0.1671
 2662SOL    HW219623   4.400   0.751   0.573 -1.4330  0.0398 -0.6444
 2663SOL     OW19624   2.889   1.386  10.845  0.0502  0.0458 -0.5034
 2663SOL    HW119625   2.829   1.320  10.809  0.1512  0.6277 -1.7523
 2663SOL    HW219626   2.956   1.382  10.777 -0.7598 -2.7516 -1.1197
 2664SOL     OW19627   4.580   1.994   1.659 -0.2437  0.0358  0.3582
 2664SOL    HW119628   4.573   2.034   1.572  0.5108 -1.7670 -0.5408
 2664SOL    HW219629   4.514   2.047   1.703  1.1311  1.1586  1.0868
 2665SOL     OW19630   3.565   0.886   3.123 -0.2688 -0.6161 -0.1734
 2665SOL    HW119631   3.557   0.913   3.214  0.7465 -0.0703 -0.2428
 2665SOL    HW219632   3.580   0.794   3.143 -1.1412  0.0930  3.6403
 2666SOL     OW19633   2.264   0.783   7.149 -0.8259 -0.6298  0.5258
 2666SOL    HW119634   2.358   0.794   7.164 -1.2379  1.2119  1.8427
 2666SOL    HW219635   2.271   0.710   7.088  2.0422 -0.4369  0.6205
 2667SOL     OW19636   0.559   2.012  11.395  0.0565  0.3199 -0.0457
 2667SOL    HW119637   0.574   2.090  11.448  0.0198 -1.0386  1.9536
 2667SOL    HW219638   0.481   2.029  11.341 -0.1750 -0.9564 -0.1134
 2668SOL     OW19639   1.901   4.060   1.097 -0.4279  0.5276  0.1209
 2668SOL    HW119640   1.912   3.966   1.084 -0.2563  0.4688  0.6759
 2668SOL    HW219641   1.810   4.055   1.128 -1.0123 -1.2836 -1.9337
 2669SOL     OW19642   0.445   3.179   8.762  0.1323 -0.1607 -0.1138
 2669SOL    HW119643   0.450   3.092   8.723 -2.1563  0.7829 -2.5113
 2669SOL    HW219644   0.454   3.154   8.854  1.4851 -2.4141 -0.8638
 2670SOL     OW19645   2.540   1.946  15.052 -0.2679 -0.1323  0.3066
 2670SOL    HW119646   2.558   1.892  14.975  0.4677  0.1598  0.2747
 2670SOL    HW219647   2.602   2.014  15.025 -1.9668  0.6722 -1.5848
 2671SOL     OW19648   0.925   0.091   2.978  0.3562  0.0910  0.2655
 2671SOL    HW119649   0.964   0.019   3.027 -1.6682 -1.7722 -0.8376
 2671SOL    HW219650   1.000   0.122   2.927 -0.0642  2.0932  0.8649
 2672SOL     OW19651   3.321   3.923   6.156  0.6537  0.0381 -0.2746
 2672SOL    HW119652   3.370   3.843   6.177 -1.6448 -1.1454  0.5385
 2672SOL    HW219653   3.235   3.895   6.126  1.7606 -1.8443 -1.7002
 2673SOL     OW19654   1.195   1.094   0.935 -0.2685 -0.1171 -0.2365
 2673SOL    HW119655   1.287   1.069   0.927  0.2705  2.4439 -1.9050
 2673SOL    HW219656   1.196   1.136   1.021 -1.3004  0.0398 -0.3010
 2674SOL     OW19657   1.597   0.421   1.146  0.8631 -0.1540 -0.1387
 2674SOL    HW119658   1.677   0.465   1.175 -0.2533  0.9321  1.2910
 2674SOL    HW219659   1.570   0.479   1.075  0.3820  0.3586  0.4679
 2675SOL     OW19660   0.925   3.198  14.891  0.1247 -0.5935  0.1941
 2675SOL    HW119661   0.916   3.272  14.830 -4.2381 -0.2794  1.2807
 2675SOL    HW219662   0.849   3.184  14.946 -0.7917  1.7416 -0.4786
 2676SOL     OW19663   0.238   0.324  16.443  0.1749  0.4279 -0.0326
 2676SOL    HW119664   0.250   0.416  16.469  1.9216  1.4909 -4.5241
 2676SOL    HW219665   0.244   0.328  16.348  0.0493 -0.9120 -0.0959
 2677SOL     OW19666   2.572   1.117   5.626  0.2285  0.8010 -0.2386
 2677SOL    HW119667   2.621   1.061   5.686  1.0649  0.6956 -1.0108
 2677SOL    HW219668   2.583   1.196   5.678  0.0078  1.3336 -0.9965
 2678SOL     OW19669   2.705   1.403   6.987 -0.2374  0.5393  0.4624
 2678SOL    HW119670   2.734   1.312   6.996 -3.2427 -0.5821 -1.3123
 2678SOL    HW219671   2.770   1.452   7.040  0.6911 -0.1718 -0.0233
 2679SOL     OW19672   3.158   0.219   3.313  0.4457  0.0044  0.5448
 2679SOL    HW119673   3.079   0.222   3.367 -0.1184 -4.1120 -0.0356
 2679SOL    HW219674   3.129   0.209   3.222  1.9858  2.1483 -0.1661
 2680SOL     OW19675   3.826   1.832   8.591 -0.3226 -0.2465 -0.4406
 2680SOL    HW119676   3.854   1.741   8.600 -0.4496 -0.3064 -0.6371
 2680SOL    HW219677   3.758   1.814   8.526 -2.0742 -1.3336  1.6906
 2681SOL     OW19678   2.842   1.949   4.383  0.6857  0.5661  0.6662
 2681SOL    HW119679   2.758   1.964   4.427  0.4747  2.0356 -0.2499
 2681SOL    HW219680   2.889   2.027   4.410 -0.0864  1.0804  0.5187
 2682SOL     OW19681   4.158   3.968   8.900  0.0575 -0.0451 -0.0260
 2682SOL    HW119682   4.221   3.925   8.957 -1.1514 -1.6761  0.0421
 2682SOL    HW219683   4.085   3.967   8.961 -1.5982 -0.2541 -2.0161
 2683SOL     OW19684   1.686   1.932  15.364 -0.2562 -0.3555 -0.3547
 2683SOL    HW119685   1.757   1.910  15.304  0.0418 -0.0983 -0.0999
 2683SOL    HW219686   1.628   1.991  15.316 -0.6772  0.4133  1.0744
 2684SOL     OW19687   3.472   4.007   3.794 -0.0739 -0.1792  0.2460
 2684SOL    HW119688   3.430   3.939   3.846  2.6534 -2.2102 -0.2192
 2684SOL    HW219689   3.461   3.984   3.701 -1.3875 -1.5342  0.7335
 2685SOL     OW19690   0.476   2.063   5.145 -0.0609 -0.7842  0.1380
 2685SOL    HW119691   0.550   2.117   5.174 -1.4855  1.0095  0.4399
 2685SOL    HW219692   0.490   2.057   5.050 -1.5423 -1.6923 -0.0189
 2686SOL     OW19693   2.630   1.618   1.123 -0.0815 -0.6042 -0.1466
 2686SOL    HW119694   2.685   1.541   1.137 -0.2010 -0.8121 -0.8210
 2686SOL    HW219695   2.560   1.608   1.187  2.2462 -2.2217  2.1666
 2687SOL     OW19696   2.842   3.622   3.495  0.3074  0.5161  0.0288
 2687SOL    HW119697   2.873   3.712   3.480  3.0926  0.0277  2.6557
 2687SOL    HW219698   2.779   3.634   3.565  1.6009 -1.1525  1.4715
 2688SOL     OW19699   0.880   3.035   3.005  0.1969  0.4030  0.0019
 2688SOL    HW119700   0.945   2.966   2.992  0.5757  0.6335  0.6691
 2688SOL    HW219701   0.839   3.041   2.919  1.4841  2.1065 -0.4894
 2689SOL     OW19702   3.740   3.651   4.305 -0.0999 -0.6244  0.5730
 2689SOL    HW119703   3.647   3.669   4.313  0.0778  0.2542  0.6313
 2689SOL    HW219704   3.763   3.742   4.324  0.6380 -0.2749 -2.0023
 2690SOL     OW19705   2.129   1.296   8.450  0.4572 -0.0358 -0.1872
 2690SOL    HW119706   2.215   1.255   8.462 -0.5799 -2.1709 -0.0847
 2690SOL    HW219707   2.078   1.233   8.400  0.8674 -0.3566 -0.2015
 2691SOL     OW19708   2.963   2.384   8.368  0.5543 -0.3832  0.0781
 2691SOL    HW119709   2.945   2.321   8.437 -0.9869  0.0328  0.0551
 2691SOL    HW219710   3.053   2.414   8.384  0.3458  0.5031 -0.3850
 2692SOL     OW19711   1.991   0.978   4.053  0.4796  0.0589  0.6932
 2692SOL    HW119712   1.941   1.048   4.011  0.6461  0.0858  0.5433
 2692SOL    HW219713   1.925   0.909   4.053  1.1698 -0.6008  1.0411
 2693SOL     OW19714   2.320   0.006   3.863  0.2450  0.0551  0.0962
 2693SOL    HW119715   2.291   4.679   3.799  2.4279 -0.2107 -0.6126
 2693SOL    HW219716   2.373   4.696   3.925  0.2365  0.0241  0.0792
 2694SOL     OW19717   4.699   4.486   2.466 -0.0013 -0.5225 -0.4416
 2694SOL    HW119718   0.055   4.495   2.448 -0.5171 -0.3580 -3.0346
 2694SOL    HW219719   4.695   4.405   2.516 -1.5578  0.8195  1.5920
 2695SOL     OW19720   4.604   1.193  13.434  0.5150 -0.3787  0.1464
 2695SOL    HW119721   4.559   1.197  13.350  0.4783 -0.5131  0.1602
 2695SOL    HW219722   4.557   1.256  13.489  1.0843  0.3957 -0.2562
 2696SOL     OW19723   3.143   1.672   7.267  0.0819  0.7068 -0.2184
 2696SOL    HW119724   3.108   1.719   7.192  0.2260 -0.9297 -1.3031
 2696SOL    HW219725   3.233   1.705   7.269  0.8495 -1.2694 -2.7219
 2697SOL     OW19726   1.385   4.690   3.271  0.5630 -0.5862 -0.0624
 2697SOL    HW119727   1.406   0.012   3.343 -0.4757 -0.8061  0.4288
 2697SOL    HW219728   1.463   4.693   3.217  1.0568 -0.6851  0.6359
 2698SOL     OW19729   3.195   1.747   9.615 -0.6830 -0.4810 -1.0915
 2698SOL    HW119730   3.151   1.665   9.591  1.5446 -1.4220 -1.9406
 2698SOL    HW219731   3.286   1.719   9.611 -0.4669  0.1907 -0.8769
 2699SOL     OW19732   0.472   1.296  12.583  0.3224  0.0644  0.0807
 2699SOL    HW119733   0.389   1.336  12.560  0.3246 -0.6502 -1.1409
 2699SOL    HW219734   0.487   1.247  12.502  0.5134 -3.1407  2.0702
 2700SOL     OW19735   3.059   1.972  13.277 -0.1762 -0.3130 -0.3737
 2700SOL    HW119736   3.120   2.041  13.304  1.5552 -0.3252 -4.2427
 2700SOL    HW219737   3.120   1.900  13.289  0.0792  0.1320  0.9120
 2701SOL     OW19738   1.172   0.308   1.285  0.4735 -0.1253 -0.1585
 2701SOL    HW119739   1.259   0.347   1.286  0.4282  0.0765 -2.8391
 2701SOL    HW219740   1.190   0.224   1.242 -1.1314  0.0355 -1.1748
 2702SOL     OW19741   3.187   4.475  10.791 -0.1849 -0.2109 -0.0710
 2702SOL    HW119742   3.280   4.496  10.797 -0.2154 -0.4627  1.2176
 2702SOL    HW219743   3.163   4.460  10.882  3.5066 -0.5334  0.8740
 2703SOL     OW19744   4.100   1.272   9.639 -0.2619  0.2104 -0.0454
 2703SOL    HW119745   4.116   1.243   9.729  3.0957  0.9840 -0.3950
 2703SOL    HW219746   4.105   1.367   9.650  0.2354  0.0053  1.4776
 2704SOL     OW19747   1.048   4.609   9.217 -0.1558 -0.0744 -0.1969
 2704SOL    HW119748   1.116   4.592   9.282 -0.6727 -1.7259 -0.0890
 2704SOL    HW219749   0.970   4.611   9.272  0.0339  1.2547  0.0366
 2705SOL     OW19750   3.420   4.471   7.797 -0.5121  0.0474  0.1798
 2705SOL    HW119751   3.469   4.438   7.873 -1.6484 -2.3069 -0.1234
 2705SOL    HW219752   3.333   4.447   7.828  0.0520  0.5945  2.2121
 2706SOL     OW19753   1.496   4.642   5.183 -0.3016 -0.1808  0.3682
 2706SOL    HW119754   1.514   4.717   5.240  0.5121 -0.2725  0.2396
 2706SOL    HW219755   1.404   4.663   5.169 -0.9288 -1.5567  2.4484
 2707SOL     OW19756   0.902   3.512   2.691  0.2136 -0.1864  0.1254
 2707SOL    HW119757   0.882   3.526   2.783  2.1125 -1.6608  0.7676
 2707SOL    HW219758   0.913   3.604   2.665 -1.2224 -0.4753 -1.4570
 2708SOL     OW19759   2.834   3.374   8.181  0.2338  0.3027  0.4446
 2708SOL    HW119760   2.839   3.328   8.097 -0.4996 -0.0473  0.5966
 2708SOL    HW219761   2.904   3.329   8.228 -0.3310  1.1398  2.0782
 2709SOL     OW19762   0.204   4.259   5.713  0.0504 -0.3706  0.0953
 2709SOL    HW119763   0.259   4.330   5.746  1.4604 -1.3742 -0.1142
 2709SOL    HW219764   0.255   4.178   5.717  1.2082  0.4232  1.4742
 2710SOL     OW19765   2.814   3.137   8.578  0.3828 -0.5231 -0.4043
 2710SOL    HW119766   2.746   3.115   8.514 -0.1186  1.2077 -0.4654
 2710SOL    HW219767   2.817   3.232   8.568  1.7359 -0.7296 -2.0099
 2711SOL     OW19768   0.753   3.183   5.091  0.4865  0.2357  0.3838
 2711SOL    HW119769   0.846   3.183   5.111  0.2771  0.8452  1.3436
 2711SOL    HW219770   0.744   3.277   5.104 -0.4057  0.0465  1.1507
 2712SOL     OW19771   2.387   0.442  17.379  0.1037 -0.2107 -0.1415
 2712SOL    HW119772   2.371   0.351  17.405 -1.2683 -0.0365 -0.4276
 2712SOL    HW219773   2.301   0.471  17.352 -0.8019 -1.6438  1.1437
 2713SOL     OW19774   1.655   3.509  15.545  0.2078  0.1288 -0.0802
 2713SOL    HW119775   1.689   3.561  15.472 -0.1768 -2.6257 -2.1954
 2713SOL    HW219776   1.600   3.583  15.572  0.4388  0.6857 -1.1303
 2714SOL     OW19777   1.899   2.063   3.994 -0.3254  0.2275 -0.0381
 2714SOL    HW119778   1.915   2.002   3.922 -2.2247 -0.1813 -0.1195
 2714SOL    HW219779   1.855   2.139   3.955 -1.6743 -0.9912 -0.8962
 2715SOL     OW19780   2.092   0.702  15.697  0.1081  0.1447 -0.2158
 2715SOL    HW119781   2.045   0.784  15.711 -0.4791 -0.5451  1.9064
 2715SOL    HW219782   2.029   0.645  15.742  1.6805 -2.1599 -0.8964
 2716SOL     OW19783   2.335   3.592  16.061 -0.0487 -0.3302  0.0335
 2716SOL    HW119784   2.420   3.620  16.094 -0.1119  1.1055 -1.0194
 2716SOL    HW219785   2.330   3.602  15.966 -1.3207  0.1461  0.1484
 2717SOL     OW19786   4.464   1.946   1.212 -0.1187 -0.5675  0.1683
 2717SOL    HW119787   4.493   1.909   1.129 -2.4052  1.9478 -1.7505
 2717SOL    HW219788   4.370   1.957   1.197 -0.0363  0.9527  0.7215
 2718SOL     OW19789   4.220   1.559  16.276  0.5232 -0.1376 -0.5667
 2718SOL    HW119790   4.215   1.492  16.344 -1.6156 -0.5019 -1.1035
 2718SOL    HW219791   4.129   1.555  16.246  0.4758  1.6912 -0.6989
 2719SOL     OW19792   2.082   3.739   8.959 -0.1528  0.8566  0.0476
 2719SOL    HW119793   1.997   3.712   8.992 -0.3434  0.9821 -0.3333
 2719SOL    HW219794   2.064   3.788   8.878 -1.6588  0.0397 -0.1047
 2720SOL     OW19795   1.443   4.676   3.554 -0.0433 -0.0142 -0.1527
 2720SOL    HW119796   1.504   4.610   3.521 -1.4076 -0.5554 -1.5591
 2720SOL    HW219797   1.479   0.018   3.515  3.0602 -0.6639  1.3897
 2721SOL     OW19798   3.190   0.546  14.812  0.6013  0.3936  0.7025
 2721SOL    HW119799   3.267   0.602  14.822  1.4142 -0.4017 -1.1815
 2721SOL    HW219800   3.213   0.482  14.744  0.4296  1.3699 -0.2663
 2722SOL     OW19801   1.780   0.915   2.795  0.0398  0.6672 -0.3607
 2722SOL    HW119802   1.696   0.942   2.834  0.7730  0.7637  1.1690
 2722SOL    HW219803   1.770   0.820   2.790  2.0135  0.4531  0.0613
 2723SOL     OW19804   1.321   3.358  17.225  0.3180 -0.0854 -0.8268
 2723SOL    HW119805   1.244   3.399  17.264 -1.3196 -1.5838 -2.5026
 2723SOL    HW219806   1.325   3.277  17.275 -2.2999  0.3525  0.0863
 2724SOL     OW19807   2.127   1.698   6.183 -0.0985 -0.5223 -0.3273
 2724SOL    HW119808   2.149   1.633   6.116  1.9378  0.1309 -0.3103
 2724SOL    HW219809   2.046   1.737   6.151 -0.5899 -0.3973  1.0867
 2725SOL     OW19810   2.961   2.403   8.892  0.1897 -0.0081  0.0103
 2725SOL    HW119811   2.993   2.484   8.851  0.3574 -0.8391 -1.5019
 2725SOL    HW219812   3.021   2.344   8.848  0.0445  1.0603 -1.6292
 2726SOL     OW19813   2.497   0.960   8.580 -0.0739  0.3261 -0.1226
 2726SOL    HW119814   2.497   0.876   8.535 -0.1448  0.1505  0.2128
 2726SOL    HW219815   2.567   0.943   8.643  0.9860  1.0791 -1.0886
 2727SOL     OW19816   0.756   4.497   3.427  0.7963 -0.1861  0.6481
 2727SOL    HW119817   0.748   4.440   3.504 -0.3071 -1.4860 -0.4421
 2727SOL    HW219818   0.809   4.564   3.472  1.4892 -0.9706  1.0183
 2728SOL     OW19819   0.271   2.966   6.134 -0.2184  0.4529  0.1632
 2728SOL    HW119820   0.278   3.034   6.068  1.9450 -1.5736 -1.6972
 2728SOL    HW219821   0.343   2.984   6.195  0.1456 -1.5036  0.3161
 2729SOL     OW19822   4.216   2.202   9.471  0.0521  0.6015  0.3376
 2729SOL    HW119823   4.268   2.183   9.549 -0.5698  1.6388  0.9975
 2729SOL    HW219824   4.281   2.184   9.404  0.5640 -0.9031  1.2418
 2730SOL     OW19825   3.090   2.455   9.228 -0.4454  0.4168  0.3185
 2730SOL    HW119826   3.147   2.522   9.267 -2.5494  1.5001  1.5258
 2730SOL    HW219827   3.047   2.508   9.160  0.9232  0.1326 -0.7716
 2731SOL     OW19828   1.923   3.366   3.295  0.3134  0.3483 -0.0255
 2731SOL    HW119829   1.844   3.313   3.288  1.2736 -0.7349 -2.9801
 2731SOL    HW219830   1.961   3.327   3.374  0.1997  1.3741  0.5436
 2732SOL     OW19831   2.152   3.132   2.578  0.3514 -0.3004 -0.0202
 2732SOL    HW119832   2.155   3.057   2.638  0.6660 -2.8274 -3.2211
 2732SOL    HW219833   2.222   3.119   2.515  0.7245 -1.4205  0.6313
 2733SOL     OW19834   3.034   2.275   3.909 -0.8039 -0.3966  0.1821
 2733SOL    HW119835   3.061   2.331   3.982 -0.7532 -1.4419  0.9602
 2733SOL    HW219836   2.996   2.197   3.947 -0.3963  0.4386  2.3009
 2734SOL     OW19837   0.674   1.972   6.313 -0.0060 -0.2458  0.2197
 2734SOL    HW119838   0.585   1.937   6.311 -0.6707  1.5876 -2.7197
 2734SOL    HW219839   0.724   1.901   6.271 -2.5257 -2.2090  0.5579
 2735SOL     OW19840   4.294   3.841   9.107 -0.1721 -0.2182  0.8256
 2735SOL    HW119841   4.375   3.827   9.059  0.2162  0.3946  1.2997
 2735SOL    HW219842   4.316   3.795   9.187  0.3634  1.5546  1.7052
 2736SOL     OW19843   3.800   4.374  17.538  0.0704 -0.0737 -0.2673
 2736SOL    HW119844   3.781   4.449  17.481  0.3523  0.1144 -0.1133
 2736SOL    HW219845   3.895   4.381  17.551 -0.2530  1.1360  1.4270
 2737SOL     OW19846   4.555   1.720  11.703 -0.1379  0.3932 -0.1248
 2737SOL    HW119847   4.559   1.738  11.609  0.0748 -0.9228 -0.3688
 2737SOL    HW219848   4.552   1.625  11.707  0.0120  0.2554 -3.4721
 2738SOL     OW19849   1.478   1.050   6.014  0.7686  0.2324 -0.6051
 2738SOL    HW119850   1.434   1.015   6.092  0.3579  0.4035 -0.7637
 2738SOL    HW219851   1.516   0.971   5.976 -2.1650 -1.1494 -0.6403
 2739SOL     OW19852   0.120   2.822   3.339  0.0407 -0.0071 -0.5449
 2739SOL    HW119853   0.034   2.827   3.380  0.2048 -0.5881 -0.1290
 2739SOL    HW219854   0.091   2.814   3.248  2.0695 -1.1459 -1.0900
 2740SOL     OW19855   3.690   2.501  11.805 -0.9818  0.3423  0.0826
 2740SOL    HW119856   3.723   2.552  11.879 -2.4673  0.4423  0.6772
 2740SOL    HW219857   3.599   2.482  11.824 -1.3717  0.8391 -1.2791
 2741SOL     OW19858   3.586   0.169  16.150 -0.2398 -0.2836 -0.2317
 2741SOL    HW119859   3.546   0.082  16.146  2.1150 -1.4063  0.6095
 2741SOL    HW219860   3.608   0.173  16.057 -1.1634  0.7197 -0.4079
 2742SOL     OW19861   1.261   4.015   8.450  0.3187 -0.0457  0.1039
 2742SOL    HW119862   1.300   4.100   8.426  1.5263 -1.1361 -1.7595
 2742SOL    HW219863   1.202   3.991   8.379 -0.6088 -0.1419  0.8985
 2743SOL     OW19864   4.037   3.732   8.684 -0.2781 -0.5207  0.9272
 2743SOL    HW119865   4.050   3.699   8.595 -1.5689 -1.1974  0.9964
 2743SOL    HW219866   4.115   3.783   8.706 -0.2531 -0.6717  1.1891
 2744SOL     OW19867   4.309   3.290  13.580 -0.0040 -0.0889 -0.2979
 2744SOL    HW119868   4.301   3.198  13.554 -1.9347 -0.2714  0.9089
 2744SOL    HW219869   4.368   3.277  13.654 -1.3864  1.6365  1.0972
 2745SOL     OW19870   3.750   3.435   8.534  0.1245 -0.1694  0.0689
 2745SOL    HW119871   3.723   3.527   8.534  0.9451  0.0697 -0.4549
 2745SOL    HW219872   3.843   3.444   8.515 -0.2785 -2.7032 -2.9378
 2746SOL     OW19873   0.722   0.422   5.975 -0.0490  0.2396 -0.2154
 2746SOL    HW119874   0.691   0.379   6.055 -2.4421 -0.9181 -1.7766
 2746SOL    HW219875   0.641   0.418   5.925 -1.3843  0.3679  1.9581
 2747SOL     OW19876   3.628   1.815   0.514 -0.6410  0.6830  0.6295
 2747SOL    HW119877   3.691   1.788   0.447  0.5152 -1.2799  2.4878
 2747SOL    HW219878   3.669   1.893   0.550  0.6323 -0.6873  2.1961
 2748SOL     OW19879   4.026   1.325   1.494  0.0858 -0.0741 -0.3265
 2748SOL    HW119880   4.071   1.347   1.576 -0.1458 -0.2204 -0.1600
 2748SOL    HW219881   4.060   1.239   1.469  0.9234  0.8807 -2.4132
 2749SOL     OW19882   3.616   4.641   7.729  0.5339 -0.2382 -0.8193
 2749SOL    HW119883   3.543   4.594   7.768  0.3664  1.3646  0.7682
 2749SOL    HW219884   3.578   4.711   7.676  0.3537  0.1894 -0.1127
 2750SOL     OW19885   0.028   2.988  15.567 -0.2283 -0.5129  0.0716
 2750SOL    HW119886   0.044   3.050  15.495 -1.8173  0.1450  0.2904
 2750SOL    HW219887   4.706   2.920  15.538  3.2236 -2.1056 -3.5080
 2751SOL     OW19888   1.295   1.173  13.237  0.7155  0.0257  0.0589
 2751SOL    HW119889   1.348   1.094  13.251 -2.3323 -2.2602 -1.1313
 2751SOL    HW219890   1.342   1.211  13.163  0.6384  0.6785  0.3535
 2752SOL     OW19891   3.956   3.336   1.578  0.6802  0.8371 -0.3597
 2752SOL    HW119892   3.989   3.421   1.549  1.2151  0.2839 -1.3462
 2752SOL    HW219893   4.022   3.274   1.548  0.7253  0.7475 -0.0749
 2753SOL     OW19894   3.184   2.464   5.786 -0.1797 -0.0698  0.2716
 2753SOL    HW119895   3.228   2.549   5.777 -0.7931  0.2718  0.4199
 2753SOL    HW219896   3.216   2.411   5.713  0.4985 -0.3717  0.7894
 2754SOL     OW19897   3.788   3.122  16.012 -0.2604  0.3649 -0.2167
 2754SOL    HW119898   3.764   3.095  15.923 -2.5700  0.2291  0.4610
 2754SOL    HW219899   3.859   3.185  15.998  1.5513 -1.8129 -0.7738
 2755SOL     OW19900   3.341   1.408   9.734 -0.3709  0.6501  0.2694
 2755SOL    HW119901   3.385   1.324   9.741 -0.6272  0.5832  0.9900
 2755SOL    HW219902   3.380   1.463   9.801  0.5649 -0.4031  0.5844
 2756SOL     OW19903   2.165   0.664   4.078  0.3162 -0.1344 -0.0124
 2756SOL    HW119904   2.197   0.603   4.144  1.1366  1.6832  1.2568
 2756SOL    HW219905   2.174   0.748   4.123 -0.9800 -0.2886  0.5396
 2757SOL     OW19906   2.891   3.009   4.650 -0.0398 -0.1802  0.0324
 2757SOL    HW119907   2.923   2.951   4.581  0.8216 -0.6520  0.8361
 2757SOL    HW219908   2.821   2.958   4.690  1.0217 -2.0553 -0.4814
 2758SOL     OW19909   4.334   3.341  13.093 -0.2343  0.3883  0.0281
 2758SOL    HW119910   4.390   3.303  13.160  1.6756  1.9567 -0.6788
 2758SOL    HW219911   4.277   3.392  13.151 -0.1457 -1.5028  1.7565
 2759SOL     OW19912   4.108   1.618   7.427 -0.3637  0.0304 -0.0391
 2759SOL    HW119913   4.123   1.666   7.508 -0.4874  0.2606 -0.1530
 2759SOL    HW219914   4.076   1.535   7.460  1.4052 -0.4693  0.4352
 2760SOL     OW19915   2.691   2.766   8.189 -0.3500 -0.0885  0.3515
 2760SOL    HW119916   2.636   2.687   8.190 -0.5392  0.0534  1.5430
 2760SOL    HW219917   2.745   2.764   8.268  3.0567  0.1730 -1.9923
 2761SOL     OW19918   4.421   2.118  17.393  0.7986 -0.0244  0.4333
 2761SOL    HW119919   4.506   2.125  17.349 -0.3179  0.0541 -1.6882
 2761SOL    HW219920   4.428   2.178  17.466  1.8203  0.2761  0.0874
 2762SOL     OW19921   3.193   1.692   4.186 -0.0002  0.0301 -0.5900
 2762SOL    HW119922   3.157   1.758   4.128  0.5699  2.2893  1.6197
 2762SOL    HW219923   3.123   1.682   4.251 -0.1096  3.6689 -0.1763
 2763SOL     OW19924   2.100   2.518   7.356 -0.1226  0.0856  0.2209
 2763SOL    HW119925   2.183   2.517   7.307  1.4230 -0.3357  2.8524
 2763SOL    HW219926   2.089   2.424   7.370 -2.3255  0.4215  0.7167
 2764SOL     OW19927   3.409   1.047  12.406  0.2600  0.1342 -0.6547
 2764SOL    HW119928   3.319   1.014  12.406 -0.1974  1.3875  0.7437
 2764SOL    HW219929   3.396   1.136  12.441 -0.9497  0.0726 -0.9611
 2765SOL     OW19930   1.673   4.282   4.689 -0.1802  0.1473 -0.0418
 2765SOL    HW119931   1.704   4.372   4.683 -1.7706  0.6216 -1.1455
 2765SOL    HW219932   1.758   4.240   4.697 -0.0080  1.0553  2.8545
 2766SOL     OW19933   3.077   3.535   0.473  0.5169 -0.2458  0.0349
 2766SOL    HW119934   3.138   3.479   0.523  0.9790 -0.6417 -0.9745
 2766SOL    HW219935   3.093   3.617   0.520  1.2599 -0.4361  0.1159
 2767SOL     OW19936   1.770   0.208   4.655  0.1361 -0.6571 -0.0670
 2767SOL    HW119937   1.845   0.218   4.597  0.7579 -1.6848  0.5624
 2767SOL    HW219938   1.805   0.138   4.710 -1.0246  0.1715  1.7538
 2768SOL     OW19939   4.542   4.455  14.416  0.1480 -0.1595 -0.0591
 2768SOL    HW119940   4.477   4.477  14.482  0.1893  2.5493 -0.9141
 2768SOL    HW219941   4.500   4.374  14.388  0.0989 -0.3029  0.4316
 2769SOL     OW19942   3.160   3.774   6.972 -0.1038 -0.1422  0.2220
 2769SOL    HW119943   3.185   3.863   6.946 -0.7263 -0.3933 -1.2501
 2769SOL    HW219944   3.238   3.738   6.930 -0.7102 -0.7872 -0.3714
 2770SOL     OW19945   2.895   4.175   3.177 -0.7742  0.2960 -0.0524
 2770SOL    HW119946   2.856   4.234   3.242 -0.0862  0.5131  0.1532
 2770SOL    HW219947   2.953   4.238   3.135  0.9457 -0.2076  1.6000
 2771SOL     OW19948   0.860   1.681   1.809 -0.4538 -0.3936  0.5961
 2771SOL    HW119949   0.780   1.676   1.860  0.4077  2.2694  2.1941
 2771SOL    HW219950   0.841   1.615   1.742 -0.7654  0.3249 -0.0301
 2772SOL     OW19951   0.006   1.402  11.124 -0.1764 -0.1182  0.7714
 2772SOL    HW119952   0.002   1.489  11.163 -0.9265 -0.0777  0.6074
 2772SOL    HW219953   0.046   1.360  11.200 -0.5463  0.0449  1.0541
 2773SOL     OW19954   3.837   3.086  14.916  0.0749  0.1440 -0.0994
 2773SOL    HW119955   3.907   3.053  14.972 -1.4679  2.1762  3.0313
 2773SOL    HW219956   3.770   3.018  14.925  0.9499 -0.7019  0.0747
 2774SOL     OW19957   1.305   0.963   6.234  0.4725  0.1441 -0.2367
 2774SOL    HW119958   1.335   0.876   6.259  3.4861  1.0442 -0.7500
 2774SOL    HW219959   1.210   0.960   6.240  0.4600 -0.8253 -0.8053
 2775SOL     OW19960   2.086   4.551   4.639  0.7255  0.0620  0.1069
 2775SOL    HW119961   2.114   4.509   4.557 -1.9359 -2.5719  0.5650
 2775SOL    HW219962   2.165   4.584   4.683  0.9371 -0.8825  0.4408
 2776SOL     OW19963   0.049   0.357   4.206 -0.1966  0.2159  0.3451
 2776SOL    HW119964   0.061   0.451   4.198  3.0206 -0.3772 -1.8728
 2776SOL    HW219965   0.118   0.318   4.260 -0.1443 -1.6574 -1.0694
 2777SOL     OW19966   1.431   0.117  16.776  0.2632  0.0733  0.0877
 2777SOL    HW119967   1.405   0.189  16.719 -0.0701 -1.6932 -1.9939
 2777SOL    HW219968   1.342   0.081  16.783  0.9886 -2.0645 -1.6577
 2778SOL     OW19969   4.025   2.625   9.016  0.1250 -0.2060 -0.0502
 2778SOL    HW119970   4.070   2.695   8.968 -0.7926  0.3944 -0.0340
 2778SOL    HW219971   4.085   2.550   9.017 -0.1052 -0.3889 -0.1243
 2779SOL     OW19972   2.380   3.118  16.032  0.5582  0.2791  0.0716
 2779SOL    HW119973   2.369   3.182  15.962  1.9478 -1.3594 -1.6556
 2779SOL    HW219974   2.358   3.173  16.107  0.3272 -0.0300  0.2314
 2780SOL     OW19975   2.823   3.904   7.799  0.0020 -0.5492 -0.0802
 2780SOL    HW119976   2.761   3.955   7.849 -1.0447 -0.4394 -1.4884
 2780SOL    HW219977   2.777   3.820   7.803 -0.4822 -0.3163 -0.7673
 2781SOL     OW19978   0.534   2.301  15.724  0.0357 -0.1562 -0.0251
 2781SOL    HW119979   0.539   2.210  15.695  1.3025  0.5754 -2.0334
 2781SOL    HW219980   0.457   2.324  15.672 -0.6900 -3.0008 -0.2269
 2782SOL     OW19981   0.305   2.519   2.269 -0.1668 -0.4595  0.1446
 2782SOL    HW119982   0.228   2.508   2.213  0.7811 -1.2204 -1.0002
 2782SOL    HW219983   0.281   2.460   2.341  0.1098  0.3039  0.8573
 2783SOL     OW19984   4.566   3.877  13.739 -0.3687  0.1994 -0.0808
 2783SOL    HW119985   4.607   3.935  13.675 -2.2177  1.7904  0.1471
 2783SOL    HW219986   4.508   3.827  13.681 -0.9741  1.0832 -0.2487
 2784SOL     OW19987   2.149   3.877  16.311 -0.0819 -0.8572  0.6750
 2784SOL    HW119988   2.136   3.800  16.367 -0.0885 -0.8566  0.6743
 2784SOL    HW219989   2.060   3.871  16.278  0.6181 -0.4009 -1.2553
 2785SOL     OW19990   2.549   4.371   3.828 -0.1916 -0.1695  0.5840
 2785SOL    HW119991   2.486   4.301   3.844 -0.0900 -0.7443 -1.4193
 2785SOL    HW219992   2.565   4.400   3.917 -0.5744 -0.3719  0.7159
 2786SOL     OW19993   0.536   0.088   1.711  0.2792 -0.0684 -0.8626
 2786SOL    HW119994   0.562   0.169   1.754 -1.5841 -0.2317  0.5608
 2786SOL    HW219995   0.465   0.121   1.656 -1.1430 -2.1791 -0.3075
 2787SOL     OW19996   4.181   2.241  12.243  0.0610 -0.0576 -0.0343
 2787SOL    HW119997   4.172   2.211  12.152  0.3324 -1.7317  0.5020
 2787SOL    HW219998   4.135   2.325  12.246  0.2143  0.0044  0.4611
 2788SOL     OW19999   4.255   4.361   9.439 -0.6307 -0.0729  0.0454
 2788SOL    HW120000   4.292   4.274   9.423  1.3002  0.4441  1.6268
 2788SOL    HW220001   4.330   4.420   9.448 -0.2930 -0.2172 -1.8678
 2789SOL     OW20002   3.313   3.300   9.613  0.5686  0.2796  0.3548
 2789SOL    HW120003   3.397   3.255   9.608 -0.0237 -0.5999 -1.6293
 2789SOL    HW220004   3.336   3.349   9.692 -1.6435 -0.2164  1.3284
 2790SOL     OW20005   3.346   1.210   7.124  0.6821 -0.1034  0.0974
 2790SOL    HW120006   3.392   1.161   7.055 -1.0308 -0.2662 -0.9223
 2790SOL    HW220007   3.417   1.274   7.132  0.5668 -0.4081  3.5832
 2791SOL     OW20008   2.162   3.012  12.033  0.2407  0.9863 -0.7855
 2791SOL    HW120009   2.198   2.948  12.094 -1.1677 -1.5029 -2.5688
 2791SOL    HW220010   2.185   2.983  11.944 -0.9740  2.1015 -1.4640
 2792SOL     OW20011   3.378   1.625   5.274 -0.1414 -0.2765  0.2838
 2792SOL    HW120012   3.386   1.546   5.327  0.1200  0.8177  1.9148
 2792SOL    HW220013   3.284   1.642   5.278 -0.4831 -2.4835  1.5969
 2793SOL     OW20014   1.426   3.195   9.170 -0.6134  0.4293  0.1867
 2793SOL    HW120015   1.366   3.136   9.215  0.1652 -2.2495 -2.3049
 2793SOL    HW220016   1.420   3.274   9.225  0.8009  2.4451 -2.5447
 2794SOL     OW20017   3.742   0.399   8.677  0.4640 -0.4484 -0.1801
 2794SOL    HW120018   3.740   0.494   8.686 -0.9134 -0.4214 -0.7464
 2794SOL    HW220019   3.721   0.384   8.585 -0.3023  0.5828 -0.1705
 2795SOL     OW20020   3.629   2.562   5.911  0.1302  0.4092  0.0846
 2795SOL    HW120021   3.623   2.537   5.819 -0.0354  1.7743 -0.2787
 2795SOL    HW220022   3.570   2.637   5.911 -0.6327 -0.1811 -0.3913
 2796SOL     OW20023   1.058   4.491   8.355  0.5368  0.2622 -0.0715
 2796SOL    HW120024   1.023   4.445   8.432  0.5590  0.9497  0.3516
 2796SOL    HW220025   1.067   4.574   8.402  3.0854  0.6289 -1.2529
 2797SOL     OW20026   1.553   1.663  17.618 -0.2151 -0.0322 -0.1468
 2797SOL    HW120027   1.505   1.715  17.553  0.7946  0.8461 -0.1854
 2797SOL    HW220028   1.579   1.587  17.566 -0.1520 -0.7956  0.9898
 2798SOL     OW20029   2.478   1.494   5.031  0.2338 -0.4870  0.7648
 2798SOL    HW120030   2.409   1.543   4.985 -0.9249 -1.0076  1.9295
 2798SOL    HW220031   2.446   1.514   5.120 -3.2668 -1.8749 -0.1948
 2799SOL     OW20032   2.095   3.703   2.344  0.0380 -0.5296  0.3645
 2799SOL    HW120033   2.188   3.725   2.336 -0.4970  2.0045  1.0083
 2799SOL    HW220034   2.055   3.786   2.318  3.0072  1.1221  0.9275
 2800SOL     OW20035   1.390   1.840  12.240  0.5166 -0.3256  0.6341
 2800SOL    HW120036   1.379   1.922  12.288 -1.2931 -0.2039  0.0053
 2800SOL    HW220037   1.352   1.777  12.302  0.6611 -0.9429  0.0975
 2801SOL     OW20038   4.526   0.109  12.113  0.3577  0.5957  0.2043
 2801SOL    HW120039   4.588   0.179  12.091  0.0789  1.9807  3.6935
 2801SOL    HW220040   4.452   0.142  12.061  0.1202  1.3220  0.9912
 2802SOL     OW20041   3.230   3.256  14.976  0.1516 -0.2655 -0.3682
 2802SOL    HW120042   3.152   3.286  14.928 -0.5745 -1.5328  0.0081
 2802SOL    HW220043   3.194   3.182  15.025 -1.3031  1.2915  0.9082
 2803SOL     OW20044   0.374   1.359   9.240 -0.1779  0.3473 -0.1890
 2803SOL    HW120045   0.279   1.369   9.231 -0.3540 -0.0021  1.4103
 2803SOL    HW220046   0.392   1.280   9.189 -0.1563  1.1876 -1.5128
 2804SOL     OW20047   4.555   1.407  16.964  0.1426  0.1230  0.3536
 2804SOL    HW120048   4.517   1.337  16.910  1.3007  1.0241 -1.6327
 2804SOL    HW220049   4.484   1.458  17.003  0.3548  0.1567  0.6913
 2805SOL     OW20050   3.912   0.088   7.737 -0.5970  0.7684 -0.1915
 2805SOL    HW120051   3.824   0.123   7.749 -1.3377 -2.2281  3.5182
 2805SOL    HW220052   3.895   0.001   7.701 -0.5362  0.3808  0.7092
 2806SOL     OW20053   3.299   3.485   9.928  0.0899  0.3207  0.1971
 2806SOL    HW120054   3.395   3.477   9.930  0.2215  2.0946  0.4751
 2806SOL    HW220055   3.302   3.570   9.884  1.2006 -0.3580 -1.0603
 2807SOL     OW20056   2.585   2.530   0.898  0.4419  0.2293 -0.2032
 2807SOL    HW120057   2.676   2.560   0.908  0.1350  0.2251  2.5443
 2807SOL    HW220058   2.545   2.556   0.981 -2.5506 -0.8894 -1.3293
 2808SOL     OW20059   0.291   0.396   7.909 -0.3088 -0.8197 -0.0861
 2808SOL    HW120060   0.316   0.479   7.948 -0.5428 -0.0372 -1.6123
 2808SOL    HW220061   0.371   0.345   7.902  1.0677  1.3933 -0.1999
 2809SOL     OW20062   1.647   2.343   4.956 -0.1113 -0.0480 -0.0966
 2809SOL    HW120063   1.655   2.370   5.048 -0.2122 -0.0618 -0.0829
 2809SOL    HW220064   1.730   2.369   4.916 -0.6835  1.4183 -0.3637
 2810SOL     OW20065   2.171   2.416   6.214  0.2690 -0.0556  0.1485
 2810SOL    HW120066   2.094   2.359   6.212 -1.3103  2.0160  2.9420
 2810SOL    HW220067   2.202   2.393   6.302  1.2609 -0.6006 -0.3402
 2811SOL     OW20068   2.767   0.454   7.630  0.3711 -0.5974  0.0061
 2811SOL    HW120069   2.676   0.476   7.609 -0.0906  1.0267  3.6351
 2811SOL    HW220070   2.772   0.364   7.597  1.8162 -0.7445  0.6201
 2812SOL     OW20071   1.798   0.746  17.330 -0.1709  0.4545 -0.3057
 2812SOL    HW120072   1.834   0.676  17.276  2.3016  1.0293  0.6222
 2812SOL    HW220073   1.879   0.772  17.373 -0.2894 -1.9807  1.3539
 2813SOL     OW20074   0.498   4.473   3.291  0.3807  0.2330  0.3467
 2813SOL    HW120075   0.505   4.388   3.247 -2.9737  0.1416 -0.0749
 2813SOL    HW220076   0.580   4.476   3.340 -0.6600  0.4868  2.0633
 2814SOL     OW20077   1.568   2.867   8.736  0.0744 -0.2772 -0.1623
 2814SOL    HW120078   1.597   2.793   8.683  2.3061  0.2333  0.3173
 2814SOL    HW220079   1.535   2.923   8.666 -0.2398 -3.2338 -2.3691
 2815SOL     OW20080   4.470   0.713   3.860 -0.1179 -0.3634  0.1681
 2815SOL    HW120081   4.394   0.729   3.804 -1.4194  0.5668  2.2064
 2815SOL    HW220082   4.433   0.676   3.940 -0.3691  0.2845  0.3538
 2816SOL     OW20083   0.696   0.309   7.866  0.3840 -0.0396 -0.1979
 2816SOL    HW120084   0.698   0.214   7.882  1.4182  0.2060  1.0940
 2816SOL    HW220085   0.789   0.325   7.850  0.5370  0.4423  1.2192
 2817SOL     OW20086   4.388   3.401   5.038 -0.0631  0.1480 -1.2369
 2817SOL    HW120087   4.436   3.444   4.966 -3.0893  0.1430 -3.2343
 2817SOL    HW220088   4.415   3.454   5.113 -2.2586 -1.0515  0.3841
 2818SOL     OW20089   3.371   4.622  15.865  1.1831 -0.1509 -0.4454
 2818SOL    HW120090   3.328   4.544  15.898 -1.3370  1.3352 -0.2442
 2818SOL    HW220091   3.329   4.623  15.779  0.4711 -1.5921 -0.1169
 2819SOL     OW20092   0.177   0.558   7.194 -0.2199  0.1451 -0.5697
 2819SOL    HW120093   0.102   0.502   7.172 -0.3117  0.1531 -0.2794
 2819SOL    HW220094   0.152   0.590   7.281 -0.4752 -1.2651 -0.1162
 2820SOL     OW20095   1.188   0.773   9.674 -0.0313 -0.0846  0.1683
 2820SOL    HW120096   1.198   0.725   9.756 -2.1752 -1.1794 -0.2035
 2820SOL    HW220097   1.103   0.816   9.683 -0.5159 -0.6922 -1.5967
 2821SOL     OW20098   0.051   4.333   6.188  0.3199 -0.4728  0.5105
 2821SOL    HW120099   0.089   4.367   6.107 -0.1037 -1.1924  0.0108
 2821SOL    HW220100   0.039   4.417   6.231  1.3055 -0.2735  0.4044
 2822SOL     OW20101   2.609   1.888   1.497  0.0920 -0.2837 -0.4102
 2822SOL    HW120102   2.562   1.818   1.544 -2.6814  0.5250 -2.0022
 2822SOL    HW220103   2.555   1.962   1.526  1.2225  0.0737  0.7709
 2823SOL     OW20104   3.053   4.161   9.590 -0.5082  0.3241  0.0693
 2823SOL    HW120105   3.011   4.244   9.616 -0.5320  0.6942 -1.1502
 2823SOL    HW220106   3.102   4.195   9.516  1.0064 -0.2584  0.8135
 2824SOL     OW20107   3.795   0.580   5.421  0.1626 -0.4727  0.5303
 2824SOL    HW120108   3.841   0.542   5.497 -1.4156 -0.9063  1.2619
 2824SOL    HW220109   3.744   0.503   5.396  1.3617 -0.9292 -0.4781
 2825SOL     OW20110   3.540   2.337   9.566 -0.3953 -0.4640  0.2694
 2825SOL    HW120111   3.461   2.309   9.521 -0.4624  0.1204  0.0297
 2825SOL    HW220112   3.580   2.251   9.583  2.5245  1.1348  1.4339
 2826SOL     OW20113   1.963   1.313  16.425 -0.0500 -0.5350  0.2710
 2826SOL    HW120114   1.941   1.390  16.477 -2.9144 -0.7143 -0.6917
 2826SOL    HW220115   1.885   1.312  16.369  0.7988  1.7576 -0.9563
 2827SOL     OW20116   0.358   2.620   6.260 -0.3709  0.3764 -0.0692
 2827SOL    HW120117   0.354   2.560   6.334  0.2523 -1.0956 -1.2245
 2827SOL    HW220118   0.442   2.656   6.286  0.2825 -1.7476  0.7858
 2828SOL     OW20119   3.706   0.984   2.161 -0.1607  0.0734 -0.4385
 2828SOL    HW120120   3.771   0.949   2.100  1.5059  1.3668  0.5696
 2828SOL    HW220121   3.753   0.980   2.245 -0.2470 -0.0125 -0.3945
 2829SOL     OW20122   4.367   2.436   5.108 -0.2801  0.2893  0.1966
 2829SOL    HW120123   4.343   2.500   5.175 -0.2355 -0.0484  0.5367
 2829SOL    HW220124   4.403   2.497   5.043  2.3178 -1.4385  0.0035
 2830SOL     OW20125   1.429   0.390   2.421  0.7216 -0.4483 -0.1061
 2830SOL    HW120126   1.358   0.345   2.466  1.0245  0.2171  1.0168
 2830SOL    HW220127   1.471   0.432   2.496 -2.3237 -1.0741  1.9795
 2831SOL     OW20128   3.195   0.029   7.436 -0.0652 -0.4457 -0.5067
 2831SOL    HW120129   3.224   0.095   7.500  0.6966 -2.1732  0.9168
 2831SOL    HW220130   3.101   0.046   7.439 -0.0459  0.2764 -3.4798
 2832SOL     OW20131   1.418   2.360  13.798 -0.0346 -0.2918 -0.0532
 2832SOL    HW120132   1.373   2.305  13.862 -1.2945 -0.7267 -1.3141
 2832SOL    HW220133   1.343   2.412  13.770  0.1122  0.5325  1.1019
 2833SOL     OW20134   0.830   3.743   8.284 -0.2595 -0.1211 -0.2009
 2833SOL    HW120135   0.908   3.752   8.230 -0.4599  0.1199 -0.4500
 2833SOL    HW220136   0.838   3.649   8.302 -1.2933 -0.3665 -1.0013
 2834SOL     OW20137   1.274   0.581   4.263  0.4433  0.2350  0.0692
 2834SOL    HW120138   1.289   0.632   4.183  3.4268 -2.6945 -1.2641
 2834SOL    HW220139   1.187   0.548   4.242  0.3184 -0.9807  2.4215
 2835SOL     OW20140   2.140   2.739   3.491 -0.0577 -0.3192 -0.2651
 2835SOL    HW120141   2.118   2.706   3.578 -0.7121 -1.3562 -0.8215
 2835SOL    HW220142   2.156   2.831   3.514 -0.9316 -0.0630 -0.7194
 2836SOL     OW20143   3.767   4.631  17.402 -0.5669  0.6995  0.0143
 2836SOL    HW120144   3.686   4.668  17.439 -2.4202 -2.0320 -1.2824
 2836SOL    HW220145   3.799   4.706  17.351 -0.3461 -0.0872 -1.0045
 2837SOL     OW20146   1.079   0.553   7.522 -0.4396 -0.4700 -0.6154
 2837SOL    HW120147   1.046   0.464   7.518 -1.7849  0.0523 -1.0728
 2837SOL    HW220148   1.080   0.563   7.617 -0.6403 -1.0701 -0.5571
 2838SOL     OW20149   3.130   1.836  15.731 -0.4268  0.9071 -0.3760
 2838SOL    HW120150   3.086   1.770  15.785 -0.4012 -0.2991 -1.8568
 2838SOL    HW220151   3.149   1.900  15.800  1.0184 -1.6884  1.6439
 2839SOL     OW20152   3.057   3.382   9.554 -0.5170  0.3778 -0.5079
 2839SOL    HW120153   3.150   3.371   9.570 -0.0227  1.8352 -2.4755
 2839SOL    HW220154   3.035   3.292   9.528  0.2990  0.1662 -0.4461
 2840SOL     OW20155   2.566   3.954   9.334  0.5326  0.5167 -0.5201
 2840SOL    HW120156   2.577   3.993   9.421  0.8708  0.7660 -0.6794
 2840SOL    HW220157   2.585   3.861   9.348 -0.9283  0.2339 -0.4163
 2841SOL     OW20158   0.566   1.429   6.584  0.1706 -0.0776  0.0963
 2841SOL    HW120159   0.655   1.464   6.577 -0.7186  1.9584 -1.0483
 2841SOL    HW220160   0.575   1.363   6.652 -2.9112 -1.1688 -0.5461
 2842SOL     OW20161   0.498   0.898   3.587  0.1471 -0.6607  0.4584
 2842SOL    HW120162   0.565   0.924   3.650 -0.7473  0.7009  0.8288
 2842SOL    HW220163   0.451   0.978   3.563 -1.9872 -1.9644  0.3187
 2843SOL     OW20164   1.815   3.876   9.785 -0.0361  0.1059 -0.3141
 2843SOL    HW120165   1.806   3.885   9.880  1.0088  2.1240 -0.4196
 2843SOL    HW220166   1.846   3.786   9.790 -3.3295 -1.1999 -2.8915
 2844SOL     OW20167   1.443   0.650   9.275  0.1817 -0.0500 -0.0809
 2844SOL    HW120168   1.395   0.714   9.327 -0.4475 -0.7673  0.2131
 2844SOL    HW220169   1.417   0.688   9.190 -1.2863 -0.8433  0.0105
 2845SOL     OW20170   1.986   4.050   9.632 -0.4488 -0.2131 -0.5414
 2845SOL    HW120171   1.912   4.013   9.678 -0.3108 -0.6195 -0.6462
 2845SOL    HW220172   1.984   4.137   9.672  1.2206 -1.0678  1.4229
 2846SOL     OW20173   1.852   0.824   4.641 -0.1003 -0.1480 -0.3065
 2846SOL    HW120174   1.906   0.797   4.566  1.1845  0.2418  0.4738
 2846SOL    HW220175   1.865   0.918   4.639 -1.3927  0.0359 -0.2550
 2847SOL     OW20176   2.606   0.225  14.948  0.0191  0.3225 -0.3492
 2847SOL    HW120177   2.604   0.183  14.862  1.1773 -1.2603  0.3837
 2847SOL    HW220178   2.661   0.300  14.930  2.7677 -1.5491  0.2968
 2848SOL     OW20179   0.117   1.384   9.186 -0.1133 -0.3449 -0.5604
 2848SOL    HW120180   0.087   1.472   9.207  0.6313 -0.2780  0.2210
 2848SOL    HW220181   0.028   1.353   9.168 -0.4351  0.2792 -0.0322
 2849SOL     OW20182   3.851   1.845  11.016 -0.5469 -0.4271 -0.5851
 2849SOL    HW120183   3.923   1.901  10.985 -0.0842 -0.0506  1.1494
 2849SOL    HW220184   3.899   1.785  11.073  0.8674  0.1326 -1.1832
 2850SOL     OW20185   0.707   2.408   8.427 -0.0375 -0.2257  0.5162
 2850SOL    HW120186   0.655   2.457   8.364 -1.1167 -1.9931  0.0064
 2850SOL    HW220187   0.689   2.314   8.418  0.8033 -0.3340 -0.0587
 2851SOL     OW20188   0.555   1.912   4.238 -0.0238 -0.5191  0.2950
 2851SOL    HW120189   0.632   1.960   4.269  0.5125 -2.7972  2.4440
 2851SOL    HW220190   0.541   1.967   4.160  1.8199 -1.6266 -0.8297
 2852SOL     OW20191   1.530   1.759   5.024  0.4065  0.2041 -0.3390
 2852SOL    HW120192   1.556   1.786   5.112 -2.6473  0.3968  0.4942
 2852SOL    HW220193   1.499   1.841   4.984  0.7497 -0.1247 -1.2937
 2853SOL     OW20194   0.229   1.233  14.722 -0.4122 -0.6010  0.0115
 2853SOL    HW120195   0.220   1.169  14.652  1.6567  0.4250 -1.2125
 2853SOL    HW220196   0.322   1.236  14.747 -0.0821  0.4019 -1.3381
 2854SOL     OW20197   1.525   3.370  15.746  0.1637 -0.5266 -0.2998
 2854SOL    HW120198   1.583   3.297  15.768  1.0506  0.5394  0.8978
 2854SOL    HW220199   1.573   3.408  15.672  0.8770  1.8655  1.3925
 2855SOL     OW20200   2.161   1.453   3.480  0.5012 -0.1686  0.0294
 2855SOL    HW120201   2.140   1.535   3.524 -1.3846 -0.3494 -0.5330
 2855SOL    HW220202   2.133   1.391   3.548  0.1664  2.7284  2.5370
 2856SOL     OW20203   1.211   2.573  11.587  0.0640 -0.1785  0.0305
 2856SOL    HW120204   1.171   2.660  11.593 -0.3863 -0.2668 -1.4767
 2856SOL    HW220205   1.179   2.528  11.665 -1.4988 -0.2244 -0.6460
 2857SOL     OW20206   1.790   0.386   7.963 -0.0870 -0.2081 -0.4180
 2857SOL    HW120207   1.856   0.332   8.008  1.9110  1.8534 -0.8629
 2857SOL    HW220208   1.757   0.325   7.897  0.7719 -1.5778  0.4127
 2858SOL     OW20209   0.294   3.169   5.940 -0.0526  0.2231  0.2784
 2858SOL    HW120210   0.373   3.159   5.886 -0.2301  1.8601 -0.2809
 2858SOL    HW220211   0.329   3.234   6.000  1.6795  1.7005 -2.3380
 2859SOL     OW20212   2.082   1.670   0.786 -0.2426 -0.0007  0.7483
 2859SOL    HW120213   2.108   1.577   0.786 -2.2603 -0.5708  2.8635
 2859SOL    HW220214   2.086   1.693   0.878 -0.8134  1.4309  0.4059
 2860SOL     OW20215   2.841   3.567   5.147  0.0355  0.0398 -0.0109
 2860SOL    HW120216   2.758   3.520   5.135  0.3885 -0.5742  0.0114
 2860SOL    HW220217   2.804   3.645   5.189 -1.3583 -0.2484 -0.6874
 2861SOL     OW20218   3.151   3.835   4.356 -0.0282 -0.2077 -0.1863
 2861SOL    HW120219   3.119   3.902   4.417 -1.5546 -0.7220 -0.4307
 2861SOL    HW220220   3.173   3.891   4.282 -0.5182 -2.0191 -1.7072
 2862SOL     OW20221   2.135   1.942   1.398 -0.1036  0.1070 -0.9664
 2862SOL    HW120222   2.056   1.926   1.450 -0.1336  2.4640 -0.2959
 2862SOL    HW220223   2.138   2.037   1.409 -0.9789  0.1033 -0.6594
 2863SOL     OW20224   4.340   2.651   4.543 -0.5799  0.1355  0.4228
 2863SOL    HW120225   4.274   2.619   4.604  0.3114 -0.6787  0.9750
 2863SOL    HW220226   4.276   2.688   4.484  1.3076  0.8806 -1.1384
 2864SOL     OW20227   0.181   3.922  13.503  0.5223 -0.2654 -0.4596
 2864SOL    HW120228   0.249   3.980  13.537 -1.4415  1.7104  0.1125
 2864SOL    HW220229   0.199   3.928  13.409 -2.4009  1.1480 -0.9286
 2865SOL     OW20230   4.369   3.365   7.362 -0.3594  0.6774  0.3516
 2865SOL    HW120231   4.348   3.333   7.449  0.0749  1.4688  0.7379
 2865SOL    HW220232   4.459   3.331   7.356  0.5560  3.0451  1.0039
 2866SOL     OW20233   0.098   3.931  15.788  0.2839 -0.1373 -0.1238
 2866SOL    HW120234   0.017   3.898  15.826 -1.9253  0.5397 -4.2132
 2866SOL    HW220235   0.087   3.898  15.699 -2.3227  0.2956  0.0387
 2867SOL     OW20236   3.267   4.653   6.205  0.6385 -0.1336 -0.1109
 2867SOL    HW120237   3.178   4.630   6.232  2.1409 -1.6013  3.6376
 2867SOL    HW220238   3.278   0.001   6.244 -2.3555  1.5639 -3.0741
 2868SOL     OW20239   0.479   0.056  12.868  0.5596 -0.0028  1.0165
 2868SOL    HW120240   0.482   0.141  12.824 -2.3239  0.0664  0.9667
 2868SOL    HW220241   0.491   0.070  12.962 -2.1383  1.5143  1.1489
 2869SOL     OW20242   3.383   1.911   7.897  0.1387  0.3630  0.2839
 2869SOL    HW120243   3.431   1.832   7.871 -0.4510  0.2463 -0.4763
 2869SOL    HW220244   3.397   1.964   7.818  0.1228 -0.7915 -0.5113
 2870SOL     OW20245   1.081   1.751   2.548  0.4500  0.6025  0.5447
 2870SOL    HW120246   1.029   1.711   2.479  1.5598  0.7879 -0.3887
 2870SOL    HW220247   1.026   1.731   2.624 -1.9204  0.6487 -1.1836
 2871SOL     OW20248   4.494   0.434   6.835  0.5016  0.1602 -0.0890
 2871SOL    HW120249   4.512   0.363   6.896  0.3528  1.3236  1.3192
 2871SOL    HW220250   4.419   0.480   6.873 -0.0912  0.6404 -1.8374
 2872SOL     OW20251   2.565   3.513   6.494  0.0793  0.2408  0.0668
 2872SOL    HW120252   2.498   3.560   6.445  0.1711 -0.5659 -0.8498
 2872SOL    HW220253   2.585   3.450   6.424  0.8974 -0.2743  0.7665
 2873SOL     OW20254   3.183   4.179   7.486 -0.8740 -0.2063 -0.0293
 2873SOL    HW120255   3.243   4.249   7.513 -0.8682 -0.3760  0.4083
 2873SOL    HW220256   3.203   4.107   7.546  1.6747 -0.4303 -1.1211
 2874SOL     OW20257   1.117   2.588   3.908 -0.1339  0.1193  0.4683
 2874SOL    HW120258   1.032   2.623   3.880 -1.0979 -2.2563  0.4911
 2874SOL    HW220259   1.165   2.567   3.828 -0.5410 -1.7376  0.7053
 2875SOL     OW20260   0.323   3.302   2.478 -0.2941  0.3235  0.3378
 2875SOL    HW120261   0.275   3.230   2.436 -0.2322 -0.1106  1.0007
 2875SOL    HW220262   0.411   3.292   2.443 -0.2196  0.5446  0.4611
 2876SOL     OW20263   4.452   4.195   2.803  0.3950  0.2982 -0.5512
 2876SOL    HW120264   4.446   4.142   2.724  0.1983  0.2975 -0.5356
 2876SOL    HW220265   4.442   4.275   2.751 -0.2706  1.7546  1.8388
 2877SOL     OW20266   0.845   3.164   1.910 -0.1355  0.5400 -0.4790
 2877SOL    HW120267   0.901   3.241   1.925  1.3099 -0.5511 -0.3424
 2877SOL    HW220268   0.824   3.166   1.817 -0.9652  2.6489 -0.2457
 2878SOL     OW20269   2.232   3.389   4.834  0.2144  0.4179 -0.1492
 2878SOL    HW120270   2.144   3.395   4.796  0.5799 -1.5835 -1.3137
 2878SOL    HW220271   2.277   3.346   4.761  3.3092 -1.9495  3.1604
 2879SOL     OW20272   2.825   1.846   6.247 -0.2589  0.0826  0.2813
 2879SOL    HW120273   2.910   1.868   6.286 -0.1873 -0.8019  0.6335
 2879SOL    HW220274   2.782   1.931   6.243 -0.0339  0.1224 -1.0820
 2880SOL     OW20275   0.638   3.112   5.401 -0.1350  0.0259 -0.1800
 2880SOL    HW120276   0.699   3.054   5.354  1.0628  1.1272  0.0186
 2880SOL    HW220277   0.691   3.192   5.399 -1.8694  1.2202  1.8666
 2881SOL     OW20278   4.047   3.712   6.402  0.0948 -0.0923 -0.5832
 2881SOL    HW120279   4.013   3.717   6.491  2.1770 -1.0451  0.2449
 2881SOL    HW220280   3.987   3.645   6.368 -0.6565  0.0378  0.4747
 2882SOL     OW20281   1.613   0.661   4.516 -0.2194 -0.5333 -0.1469
 2882SOL    HW120282   1.688   0.715   4.494 -1.4966  0.9277 -0.9025
 2882SOL    HW220283   1.630   0.653   4.610 -1.2914  1.3854  0.1977
 2883SOL     OW20284   2.716   3.613  15.951  0.2423 -0.2876  0.6394
 2883SOL    HW120285   2.711   3.526  15.991  1.7160 -0.5717  0.2029
 2883SOL    HW220286   2.641   3.610  15.890 -2.6026  0.3593  4.0782
 2884SOL     OW20287   2.392   3.863   5.126  0.0674  0.0676  1.1411
 2884SOL    HW120288   2.485   3.884   5.130  0.6872 -2.1582 -1.7092
 2884SOL    HW220289   2.394   3.780   5.079 -3.0338  1.2200 -1.0691
 2885SOL     OW20290   1.159   1.914   3.230  0.1208 -0.7244 -0.4709
 2885SOL    HW120291   1.155   1.866   3.312  0.3399 -1.1814 -0.7309
 2885SOL    HW220292   1.251   1.927   3.208  0.1896  1.9300  1.3470
 2886SOL     OW20293   0.494   2.315  11.294 -0.1449 -0.3055 -0.3589
 2886SOL    HW120294   0.426   2.249  11.282  1.9310 -2.5659  0.3570
 2886SOL    HW220295   0.526   2.300  11.383 -0.6203 -1.1057 -0.3263
 2887SOL     OW20296   3.502   0.299   8.806  0.1122  0.0642 -0.1830
 2887SOL    HW120297   3.595   0.323   8.808 -0.2251  1.4940 -1.9628
 2887SOL    HW220298   3.481   0.319   8.898  1.6276 -2.4647  0.7212
 2888SOL     OW20299   0.395   3.859   9.034  0.4410 -0.5560 -0.3275
 2888SOL    HW120300   0.340   3.781   9.034  2.6327 -2.0834 -1.5610
 2888SOL    HW220301   0.472   3.829   9.082 -0.4314  0.7673  1.9062
 2889SOL     OW20302   1.066   2.463  12.437 -0.3343  0.1677  0.7285
 2889SOL    HW120303   1.047   2.376  12.471  0.2696 -0.5815 -0.8893
 2889SOL    HW220304   1.146   2.443  12.389 -0.3044  0.7959  0.5085
 2890SOL     OW20305   3.098   0.999   2.763 -0.4206  0.4044  0.2467
 2890SOL    HW120306   3.123   1.068   2.701 -3.6887  1.5235  0.1772
 2890SOL    HW220307   3.150   0.922   2.737  1.1887  1.7387 -0.5355
 2891SOL     OW20308   4.562   3.801   2.708 -0.2176  0.1179  0.4072
 2891SOL    HW120309   4.606   3.883   2.730 -1.5470  0.7895  0.5466
 2891SOL    HW220310   4.502   3.789   2.781  1.3656  3.6758  2.2987
 2892SOL     OW20311   4.524   0.477   5.020  0.0679  0.8449  0.2841
 2892SOL    HW120312   4.526   0.430   4.937  0.5780  0.6551  0.4017
 2892SOL    HW220313   4.543   0.404   5.078  1.2344 -1.1861 -2.6423
 2893SOL     OW20314   3.381   3.696   6.835  0.0350  0.1960 -0.4674
 2893SOL    HW120315   3.475   3.710   6.848 -0.0989  1.2499 -0.6979
 2893SOL    HW220316   3.387   3.601   6.818  0.5281  0.2937 -0.8532
 2894SOL     OW20317   2.305   1.990  11.320  0.2654  0.1408  0.0358
 2894SOL    HW120318   2.349   2.070  11.291  2.1308 -0.7132  0.5001
 2894SOL    HW220319   2.329   2.002  11.412  0.4837 -0.9499  0.1306
 2895SOL     OW20320   1.778   3.918   8.904 -0.6430  0.2052  0.2213
 2895SOL    HW120321   1.754   3.833   8.867 -0.4969  0.6564 -0.9184
 2895SOL    HW220322   1.839   3.950   8.838  0.5005 -3.9806 -0.7391
 2896SOL     OW20323   1.894   2.616   1.614  0.5237  0.0221 -0.6569
 2896SOL    HW120324   1.816   2.589   1.663 -1.9138  3.2547 -2.7565
 2896SOL    HW220325   1.861   2.590   1.528 -0.8123 -3.1503  0.8158
 2897SOL     OW20326   1.568   1.725   0.916 -0.3839 -0.1216 -0.1608
 2897SOL    HW120327   1.635   1.734   0.984  0.4310 -1.1274 -0.8336
 2897SOL    HW220328   1.512   1.803   0.916 -0.1611  0.0392  0.2553
 2898SOL     OW20329   4.479   4.002   7.725 -0.0915  0.0287 -0.4404
 2898SOL    HW120330   4.440   4.036   7.805  0.2368 -0.8285  0.0877
 2898SOL    HW220331   4.422   3.934   7.689  0.0409 -0.4247  0.2087
 2899SOL     OW20332   1.233   2.547   4.332  0.1481 -0.1480  0.1387
 2899SOL    HW120333   1.153   2.518   4.289  0.0145  0.0646  0.2431
 2899SOL    HW220334   1.217   2.545   4.426 -2.2070 -1.2400 -0.3126
 2900SOL     OW20335   2.305   1.724  17.144  0.0820 -0.0248 -0.1884
 2900SOL    HW120336   2.358   1.787  17.193  0.5365  2.0374 -3.3373
 2900SOL    HW220337   2.254   1.770  17.078 -2.0732  1.9646  2.8684
 2901SOL     OW20338   4.171   4.622   6.677 -0.4825  0.6714 -0.6635
 2901SOL    HW120339   4.186   4.583   6.591 -1.9394 -0.7003 -0.2991
 2901SOL    HW220340   4.242   4.581   6.727 -0.8501 -1.0491 -1.5315
 2902SOL     OW20341   1.995   3.641   5.740 -0.3624 -0.1800  0.2400
 2902SOL    HW120342   1.986   3.722   5.791  0.4893  0.1222 -0.1017
 2902SOL    HW220343   1.972   3.664   5.650  0.7681 -2.6326 -0.6475
 2903SOL     OW20344   4.116   3.061  15.637 -0.8658 -0.1908  0.1730
 2903SOL    HW120345   4.106   3.153  15.612 -2.6318 -0.1841  0.8423
 2903SOL    HW220346   4.108   3.066  15.732  0.8532  1.3421  0.2287
 2904SOL     OW20347   4.661   1.057  11.178  0.3550 -0.5096 -0.0917
 2904SOL    HW120348   4.705   1.096  11.253 -0.7938  0.2063  0.2245
 2904SOL    HW220349   4.700   0.970  11.184 -2.6376 -1.7872  0.8923
 2905SOL     OW20350   3.685   3.611  15.465  0.4152  0.0913 -0.1992
 2905SOL    HW120351   3.655   3.569  15.384  0.8751 -1.3422  0.3783
 2905SOL    HW220352   3.623   3.684  15.465 -1.7320 -1.7109  0.4972
 2906SOL     OW20353   2.938   0.653   5.792 -0.1222  0.3050 -0.0039
 2906SOL    HW120354   2.965   0.728   5.845 -1.2931 -1.9621  3.8023
 2906SOL    HW220355   2.937   0.696   5.707  0.1873 -1.0610 -0.7077
 2907SOL     OW20356   3.789   3.439   5.369  0.1238  0.2869 -0.1723
 2907SOL    HW120357   3.767   3.357   5.324  1.4015 -0.4391  0.5499
 2907SOL    HW220358   3.751   3.497   5.302 -0.4139  0.0987 -0.0360
 2908SOL     OW20359   2.313   4.279   2.847  0.1515  0.0505 -0.0622
 2908SOL    HW120360   2.219   4.300   2.845  0.3943  1.3954  2.0256
 2908SOL    HW220361   2.341   4.358   2.894 -2.1350 -1.4489  3.8584
 2909SOL     OW20362   4.582   3.813   5.296 -0.4591  0.8592  0.1736
 2909SOL    HW120363   4.567   3.719   5.281  2.5172  0.3455  0.2973
 2909SOL    HW220364   4.525   3.835   5.369 -1.1836 -0.4314  0.0069
 2910SOL     OW20365   2.284   3.999  11.474  0.1295  0.1656  0.5438
 2910SOL    HW120366   2.284   4.087  11.511 -1.3241 -0.3512  1.7747
 2910SOL    HW220367   2.211   3.960  11.523 -0.3103  2.2160  1.5064
 2911SOL     OW20368   3.806   4.227   3.011 -0.1412 -0.0228  0.0657
 2911SOL    HW120369   3.838   4.239   2.921 -1.2856 -1.3409 -0.5076
 2911SOL    HW220370   3.891   4.239   3.054  0.5216 -1.9196 -0.7403
 2912SOL     OW20371   3.725   0.659   7.936 -0.6846 -0.1149 -0.6739
 2912SOL    HW120372   3.720   0.727   8.003 -0.8437 -0.7370 -0.0469
 2912SOL    HW220373   3.811   0.625   7.961 -0.3881 -0.6119 -2.3478
 2913SOL     OW20374   4.270   1.769   4.679 -0.2184  0.0295 -0.0304
 2913SOL    HW120375   4.310   1.832   4.619  0.2674  0.4043  0.6914
 2913SOL    HW220376   4.190   1.758   4.627 -0.4878 -3.1436  1.0359
 2914SOL     OW20377   0.290   3.697   5.148  0.0514 -0.4842  0.3186
 2914SOL    HW120378   0.342   3.634   5.098 -0.6065  0.0591 -1.0301
 2914SOL    HW220379   0.307   3.780   5.103 -0.8216 -1.3697 -1.6418
 2915SOL     OW20380   3.777   0.436   1.163 -0.2719  0.0753  0.3586
 2915SOL    HW120381   3.704   0.497   1.154 -0.4870 -0.3264 -0.6215
 2915SOL    HW220382   3.827   0.457   1.084  1.1237 -0.8777  0.9781
 2916SOL     OW20383   0.500   1.683   4.383 -1.0325  0.7721  0.0189
 2916SOL    HW120384   0.583   1.650   4.350 -1.1055 -0.1756  0.7651
 2916SOL    HW220385   0.513   1.768   4.342 -0.1425 -0.0057 -1.3201
 2917SOL     OW20386   3.805   2.733  15.946 -0.0060 -0.0626 -0.1044
 2917SOL    HW120387   3.787   2.793  15.873 -2.7829  1.8587  2.1762
 2917SOL    HW220388   3.728   2.748  16.000  0.1375 -0.1152  0.1161
 2918SOL     OW20389   0.285   2.983   7.001 -0.6586 -0.4622 -0.3975
 2918SOL    HW120390   0.373   2.954   6.977 -0.3790 -1.8085  2.2673
 2918SOL    HW220391   0.309   3.068   7.039 -1.8287  0.2157 -1.1886
 2919SOL     OW20392   0.351   1.644   2.331 -0.0286  0.4945 -0.2291
 2919SOL    HW120393   0.275   1.701   2.343 -0.5465 -0.0537 -0.8919
 2919SOL    HW220394   0.310   1.561   2.306 -2.4558  1.2554  1.1532
 2920SOL     OW20395   3.130   2.758   3.100  0.0003 -0.1110  0.2278
 2920SOL    HW120396   3.184   2.802   3.166  2.4343 -0.2047 -1.6990
 2920SOL    HW220397   3.073   2.825   3.063 -0.1496  0.3026  1.2072
 2921SOL     OW20398   0.131   1.404  14.173 -0.1155 -0.0017 -0.6671
 2921SOL    HW120399   0.057   1.347  14.150 -1.8682  2.6799 -1.6556
 2921SOL    HW220400   0.119   1.481  14.117 -1.0244 -0.4996 -1.1734
 2922SOL     OW20401   3.281   1.197  15.922  0.1045 -0.0321 -0.2282
 2922SOL    HW120402   3.328   1.153  15.851  2.0339  2.6715 -0.6152
 2922SOL    HW220403   3.247   1.121  15.968 -1.3937  2.5504  2.9298
 2923SOL     OW20404   0.710   2.946  16.458  0.1006 -0.1455 -0.1996
 2923SOL    HW120405   0.677   3.022  16.411 -0.4610  0.2126  0.7832
 2923SOL    HW220406   0.634   2.890  16.443 -0.3171  0.5021 -0.4526
 2924SOL     OW20407   1.115   4.035  11.341 -0.2880  0.1056 -0.3254
 2924SOL    HW120408   1.135   4.118  11.298  1.0858 -0.0964 -0.0855
 2924SOL    HW220409   1.106   4.073  11.428  1.6075  0.7211 -0.3798
 2925SOL     OW20410   2.841   0.477   6.263 -0.0924 -0.0163  0.2485
 2925SOL    HW120411   2.759   0.506   6.303  0.8627 -0.8813  2.8278
 2925SOL    HW220412   2.829   0.511   6.174  1.5247  1.7009  0.6835
 2926SOL     OW20413   0.235   3.596   3.087 -0.3921  0.5424 -0.2691
 2926SOL    HW120414   0.321   3.623   3.055  0.1209 -0.7475  0.0484
 2926SOL    HW220415   0.257   3.595   3.180  0.7137 -0.5478 -0.5485
 2927SOL     OW20416   1.720   0.204   2.364 -0.4284  0.8284  0.5126
 2927SOL    HW120417   1.676   0.129   2.403  1.2422 -0.2705  0.2619
 2927SOL    HW220418   1.721   0.256   2.444 -1.3278  2.3499 -0.4457
 2928SOL     OW20419   2.984   1.701   9.882  0.2390 -0.2240  0.2727
 2928SOL    HW120420   2.952   1.651   9.957  1.2093 -1.0645  0.1405
 2928SOL    HW220421   2.906   1.712   9.827  1.1134 -3.3543 -1.6088
 2929SOL     OW20422   1.565   1.364   3.919 -0.4614 -0.2529  0.2507
 2929SOL    HW120423   1.574   1.366   3.823  0.3980 -1.9742  0.3069
 2929SOL    HW220424   1.609   1.287   3.955  1.2597  0.1613 -0.9750
 2930SOL     OW20425   3.889   4.140  16.732 -0.7669 -0.1993  0.4032
 2930SOL    HW120426   3.928   4.120  16.817 -0.1289  0.6091  0.3042
 2930SOL    HW220427   3.819   4.202  16.750 -0.9871 -0.0893 -0.8222
 2931SOL     OW20428   3.762   0.055   8.535  0.3940 -0.4476  0.1287
 2931SOL    HW120429   3.857   0.057   8.541  0.2982 -1.1397  1.8880
 2931SOL    HW220430   3.737   0.120   8.469 -1.0100 -1.7725 -0.6337
 2932SOL     OW20431   3.019   1.980   0.859 -0.7051  0.2078 -0.2015
 2932SOL    HW120432   2.960   1.904   0.859 -0.3273 -0.0807 -1.0775
 2932SOL    HW220433   2.972   2.022   0.931  0.4116  0.6260  0.2838
 2933SOL     OW20434   1.724   0.385  14.112  0.1239  0.0511  0.2280
 2933SOL    HW120435   1.748   0.322  14.181  0.6051 -1.5052 -1.3656
 2933SOL    HW220436   1.669   0.448  14.158 -3.0256 -3.0090  0.6831
 2934SOL     OW20437   3.539   1.785   5.600  0.0211 -0.1497  0.3698
 2934SOL    HW120438   3.565   1.768   5.690 -0.2699 -1.8186  0.1330
 2934SOL    HW220439   3.519   1.879   5.594 -0.3110 -0.2555 -0.2075
 2935SOL     OW20440   4.312   4.181   3.481  0.1045 -0.1507  0.2095
 2935SOL    HW120441   4.393   4.221   3.450  1.7601 -2.6175  1.3966
 2935SOL    HW220442   4.253   4.222   3.418  0.2381 -0.0747  0.1326
 2936SOL     OW20443   2.565   4.168   6.827  0.3216 -0.0167 -0.0975
 2936SOL    HW120444   2.549   4.095   6.886  0.2398 -1.0812 -1.4354
 2936SOL    HW220445   2.652   4.142   6.796  0.0773 -1.1199  0.1512
 2937SOL     OW20446   0.358   4.172   7.583  0.1047  0.1472 -0.0316
 2937SOL    HW120447   0.407   4.226   7.522  2.0956 -1.0054  0.5716
 2937SOL    HW220448   0.376   4.089   7.541 -3.7915 -1.6830  1.8364
 2938SOL     OW20449   2.462   0.558   6.210 -0.3185  0.0698 -0.3976
 2938SOL    HW120450   2.482   0.468   6.235  2.1467  1.1503  1.5459
 2938SOL    HW220451   2.366   0.551   6.210 -0.4973  2.3340 -0.3993
 2939SOL     OW20452   1.865   3.702   6.421  0.3942 -0.4381  0.1550
 2939SOL    HW120453   1.813   3.678   6.345  0.0447 -0.0794  0.2838
 2939SOL    HW220454   1.806   3.683   6.494 -0.2037  0.6950 -0.0414
 2940SOL     OW20455   4.088   0.850   2.621 -0.2238 -0.7988  0.2799
 2940SOL    HW120456   4.075   0.804   2.703 -1.3639 -0.3600  0.3548
 2940SOL    HW220457   4.021   0.919   2.625  0.3253 -0.1949 -0.8937
 2941SOL     OW20458   4.076   1.384   9.390  0.0649 -0.4515 -0.2128
 2941SOL    HW120459   4.112   1.344   9.469 -3.5719 -1.1828  1.0846
 2941SOL    HW220460   4.049   1.466   9.431 -0.9929 -0.2729 -1.2422
 2942SOL     OW20461   0.173   2.304   4.792  0.0660 -0.2462  0.2867
 2942SOL    HW120462   0.219   2.337   4.870  1.2143 -0.6170 -0.2399
 2942SOL    HW220463   0.183   2.387   4.745  0.4638  1.3021  3.0609
 2943SOL     OW20464   0.338   0.938   3.238  0.3361  0.1105  0.6439
 2943SOL    HW120465   0.368   1.025   3.212 -0.1310 -0.1411 -0.7483
 2943SOL    HW220466   0.270   0.969   3.297  1.7988 -0.2797  2.5254
 2944SOL     OW20467   2.816   2.717   2.277  0.4417 -0.3432 -0.2624
 2944SOL    HW120468   2.756   2.645   2.298 -0.7847  0.6404 -0.4220
 2944SOL    HW220469   2.796   2.786   2.341  0.7917  0.0065 -0.5271
 2945SOL     OW20470   1.362   1.433  17.405  0.3713  0.4096  0.4616
 2945SOL    HW120471   1.379   1.365  17.339  0.6648 -0.4060  1.3691
 2945SOL    HW220472   1.356   1.508  17.346  0.5823  0.1165  0.0662
 2946SOL     OW20473   2.076   1.893  16.982 -0.2800  0.2137  0.8613
 2946SOL    HW120474   2.084   1.862  16.892 -1.6778  1.4062  0.3335
 2946SOL    HW220475   2.003   1.955  16.981  0.0137  0.5894  2.2278
 2947SOL     OW20476   2.975   4.060   5.445  0.8184 -0.0059 -0.1525
 2947SOL    HW120477   3.019   3.992   5.496  1.2047  1.1005  1.0046
 2947SOL    HW220478   2.922   4.109   5.508  3.0985  1.1495  0.8682
 2948SOL     OW20479   2.945   0.766  11.440 -0.2526  0.1602  0.0090
 2948SOL    HW120480   2.962   0.747  11.532  3.1876  0.1572 -0.6560
 2948SOL    HW220481   3.003   0.840  11.420 -0.0726 -0.3664 -1.4472
 2949SOL     OW20482   4.343   2.169   5.747  0.2043 -0.0589 -0.2243
 2949SOL    HW120483   4.437   2.174   5.732  0.2854  0.3148  0.3912
 2949SOL    HW220484   4.344   2.239   5.812 -2.6492  0.0852 -0.2973
 2950SOL     OW20485   1.165   3.258   4.706 -0.6715 -0.5829 -0.9745
 2950SOL    HW120486   1.131   3.336   4.749  1.8988  0.7518 -1.3726
 2950SOL    HW220487   1.083   3.210   4.694 -0.9962 -0.2615 -0.0472
 2951SOL     OW20488   3.240   3.450   7.387  0.1084 -0.2265  0.2160
 2951SOL    HW120489   3.247   3.373   7.444 -1.4103 -1.9757 -1.9146
 2951SOL    HW220490   3.225   3.407   7.302 -1.1218 -0.8316  0.7529
 2952SOL     OW20491   1.921   0.185   6.029  0.5415  0.0707 -0.4945
 2952SOL    HW120492   1.993   0.213   6.085 -0.6969 -1.0285  1.6507
 2952SOL    HW220493   1.932   0.242   5.952  0.6561 -0.6221 -0.9837
 2953SOL     OW20494   1.177   4.053  16.471  0.3014  0.2344  0.3606
 2953SOL    HW120495   1.180   4.142  16.506 -1.0598  0.8096 -0.9482
 2953SOL    HW220496   1.168   3.995  16.546 -0.3217 -1.3709 -0.9363
 2954SOL     OW20497   4.051   1.172   5.012  0.1374 -0.1179  0.1429
 2954SOL    HW120498   4.036   1.078   5.022  0.3987  0.0251  1.9582
 2954SOL    HW220499   4.091   1.197   5.095  0.3568 -1.1373  0.3401
 2955SOL     OW20500   2.262   3.615   8.623 -0.5149 -0.1934 -0.1220
 2955SOL    HW120501   2.260   3.585   8.714 -1.0726 -2.0481 -0.7480
 2955SOL    HW220502   2.357   3.609   8.609 -0.8674 -2.3862 -1.5150
 2956SOL     OW20503   2.625   0.074  16.687 -0.5474  0.0040  0.1722
 2956SOL    HW120504   2.597   4.727  16.720  1.6298 -0.7862 -0.0595
 2956SOL    HW220505   2.551   0.123  16.725  1.2346  2.0679  1.0068
 2957SOL     OW20506   1.671   3.509   5.827  0.2390  0.5640 -0.3808
 2957SOL    HW120507   1.765   3.494   5.839  0.3743  1.6180 -0.1186
 2957SOL    HW220508   1.663   3.520   5.732 -0.9070  1.1630 -0.2170
 2958SOL     OW20509   4.202   2.591  11.010  0.4816 -0.1908  0.0554
 2958SOL    HW120510   4.199   2.680  10.973 -0.2517 -0.5752 -0.8380
 2958SOL    HW220511   4.295   2.585  11.029  0.2865 -1.2777  0.6368
 2959SOL     OW20512   4.387   1.450   9.443  0.2052 -0.4193 -0.0900
 2959SOL    HW120513   4.436   1.528   9.419 -0.5211 -0.2425 -1.0163
 2959SOL    HW220514   4.328   1.493   9.505  0.2582 -2.0754  1.1109
 2960SOL     OW20515   3.098   0.241  14.876 -0.0271 -0.5747 -0.4611
 2960SOL    HW120516   3.094   0.318  14.932  0.6550 -1.7755  1.2338
 2960SOL    HW220517   3.045   0.176  14.923  0.3519 -1.3256 -1.0720
 2961SOL     OW20518   1.947   3.853  15.233 -0.7576 -0.2977  0.2976
 2961SOL    HW120519   1.930   3.890  15.146  1.4546 -0.1234 -0.0514
 2961SOL    HW220520   2.040   3.833  15.225 -0.5532  0.7762  0.0795
 2962SOL     OW20521   4.638   4.396   5.052 -0.6887  0.1432 -0.3637
 2962SOL    HW120522   4.685   4.456   4.994 -2.3490  0.2069 -1.6392
 2962SOL    HW220523   4.561   4.373   5.000 -1.6809  0.2547  1.0476
 2963SOL     OW20524   3.175   4.543   2.879  1.0712  0.2325  0.0837
 2963SOL    HW120525   3.101   4.591   2.844  0.1431 -1.1204  0.1971
 2963SOL    HW220526   3.243   4.586   2.827  2.1154  0.7309  1.8585
 2964SOL     OW20527   1.022   0.421   5.776 -0.0444  0.3922 -0.0563
 2964SOL    HW120528   0.968   0.349   5.808 -1.7772  1.8336  0.2182
 2964SOL    HW220529   0.998   0.491   5.837 -1.2094  0.0397 -0.1140
 2965SOL     OW20530   0.413   3.701   4.253 -0.0702  0.1125 -0.0252
 2965SOL    HW120531   0.443   3.675   4.340 -0.1277 -1.6761 -0.5491
 2965SOL    HW220532   0.319   3.709   4.267 -0.0332  2.1161 -0.8941
 2966SOL     OW20533   0.476   3.028   8.107  0.0291  0.0938  0.1213
 2966SOL    HW120534   0.543   2.990   8.050  0.4427 -0.7490  1.1524
 2966SOL    HW220535   0.532   3.074   8.170  0.4239  1.0203 -0.9195
 2967SOL     OW20536   1.455   0.409   6.058 -0.0753  0.2381 -0.8835
 2967SOL    HW120537   1.509   0.335   6.084  0.5046  1.0293  0.1466
 2967SOL    HW220538   1.400   0.361   5.995 -1.5698  2.2048 -1.0834
 2968SOL     OW20539   1.466   2.496   1.911  0.3980 -0.2980  0.0432
 2968SOL    HW120540   1.423   2.419   1.947 -1.6102  0.1530 -1.3505
 2968SOL    HW220541   1.480   2.553   1.987 -1.8506  1.4286 -0.8229
 2969SOL     OW20542   2.158   0.102  10.613 -0.0109 -0.2770  0.3816
 2969SOL    HW120543   2.206   0.174  10.572  0.5639 -0.5711  0.5326
 2969SOL    HW220544   2.082   0.090  10.556 -0.8744 -1.1207  1.6887
 2970SOL     OW20545   4.009   2.394  13.079 -0.1905  0.1449  0.3055
 2970SOL    HW120546   3.939   2.441  13.125 -1.7907 -1.5144 -0.4242
 2970SOL    HW220547   4.022   2.456  13.008 -4.9857  0.7496 -0.0835
 2971SOL     OW20548   1.286   2.753   5.251 -0.6287  0.0006  0.5488
 2971SOL    HW120549   1.355   2.809   5.286  1.4132 -0.8301 -2.1068
 2971SOL    HW220550   1.324   2.673   5.287 -1.3817 -0.8422 -0.5211
 2972SOL     OW20551   2.609   0.348   2.090  0.0975  0.2218 -0.0425
 2972SOL    HW120552   2.571   0.352   2.178 -0.7261 -1.3247 -0.3218
 2972SOL    HW220553   2.531   0.353   2.035  0.5815 -0.0994 -0.7650
 2973SOL     OW20554   0.069   0.983   3.879  0.3418 -0.6385  0.2913
 2973SOL    HW120555   0.117   0.978   3.796  2.1628  0.6786  1.2687
 2973SOL    HW220556   0.101   1.071   3.899 -1.0543 -0.0689  0.0699
 2974SOL     OW20557   0.812   4.513   6.177 -0.4563 -0.6917  0.1125
 2974SOL    HW120558   0.881   4.576   6.156 -0.3923 -1.1035 -0.9101
 2974SOL    HW220559   0.743   4.561   6.224 -0.1033  0.8856 -0.9669
 2975SOL     OW20560   3.313   3.762  13.325  0.5760 -0.3278 -0.0079
 2975SOL    HW120561   3.384   3.801  13.273 -0.0620  0.8172 -0.0156
 2975SOL    HW220562   3.234   3.795  13.284  0.8530 -0.8472 -0.9389
 2976SOL     OW20563   2.897   1.941  13.484  0.0147 -0.1647  0.3309
 2976SOL    HW120564   2.805   1.925  13.465 -0.2396  4.0139 -1.9144
 2976SOL    HW220565   2.941   1.935  13.399 -1.5452 -0.6919 -0.4470
 2977SOL     OW20566   4.576   1.814   7.035  0.1187 -0.0864 -0.4972
 2977SOL    HW120567   4.647   1.840   6.976 -0.5704 -1.2514 -1.8410
 2977SOL    HW220568   4.622   1.835   7.116 -1.0170  0.5747 -0.0351
 2978SOL     OW20569   3.624   0.624   1.014  0.1724  0.2473  0.2958
 2978SOL    HW120570   3.672   0.706   1.005 -1.0479  1.3329  3.5579
 2978SOL    HW220571   3.534   0.652   0.998  0.3900  0.5585 -0.4027
 2979SOL     OW20572   0.415   3.093  15.442  0.0309  0.0975 -0.0483
 2979SOL    HW120573   0.360   3.073  15.518 -0.8881  1.1555 -0.4366
 2979SOL    HW220574   0.405   3.186  15.422 -1.7583 -0.3242 -1.1134
 2980SOL     OW20575   0.629   2.421  17.411  0.2361 -0.5094  0.5828
 2980SOL    HW120576   0.610   2.458  17.325 -1.0473 -1.6241  0.3857
 2980SOL    HW220577   0.724   2.414  17.400  0.4482  1.9555  0.8031
 2981SOL     OW20578   0.417   0.767   7.936 -0.0724 -0.2214 -0.8389
 2981SOL    HW120579   0.441   0.675   7.925  0.4946 -0.2339  0.4691
 2981SOL    HW220580   0.417   0.808   7.850  0.8376 -1.0361 -1.2410
 2982SOL     OW20581   2.473   2.511  12.286 -0.1207  0.5744 -0.4693
 2982SOL    HW120582   2.433   2.564  12.217  1.1648  0.7709 -1.0779
 2982SOL    HW220583   2.415   2.520  12.361  0.4170  3.5343 -0.4238
 2983SOL     OW20584   0.010   2.492  11.059  0.2443 -0.2515  0.5483
 2983SOL    HW120585   0.071   2.564  11.074 -0.6506  1.3642 -3.5541
 2983SOL    HW220586   0.067   2.438  11.005 -0.1593 -0.1477  0.0151
 2984SOL     OW20587   3.088   1.151   1.874 -0.3761 -0.1426 -0.2256
 2984SOL    HW120588   3.168   1.160   1.925  0.9808 -0.5208 -2.2779
 2984SOL    HW220589   3.062   1.243   1.867  1.4713  0.3051 -1.0649
 2985SOL     OW20590   4.491   1.893   2.168 -0.0210  0.0028 -0.7254
 2985SOL    HW120591   4.521   1.817   2.218 -0.7718 -0.1659 -0.5376
 2985SOL    HW220592   4.573   1.942   2.167 -0.8600  1.3724 -2.9454
 2986SOL     OW20593   2.591   1.292   4.920 -0.5016 -0.3215 -0.4118
 2986SOL    HW120594   2.673   1.281   4.969 -0.6827 -0.6155 -0.1762
 2986SOL    HW220595   2.554   1.369   4.964 -0.1579  0.6675 -1.8363
 2987SOL     OW20596   2.305   4.547  13.863  0.3236 -0.5231 -0.3323
 2987SOL    HW120597   2.336   4.579  13.948  0.1846  0.8472 -0.8052
 2987SOL    HW220598   2.235   4.608  13.841  1.6853  1.8281  1.9180
 2988SOL     OW20599   0.673   2.167   2.069  0.1286  0.0727 -0.4085
 2988SOL    HW120600   0.632   2.239   2.116 -0.2983 -1.6250  1.8114
 2988SOL    HW220601   0.605   2.135   2.011 -0.3096 -0.8271  0.6142
 2989SOL     OW20602   0.918   3.709   8.006  0.1474 -0.2062  0.2698
 2989SOL    HW120603   0.944   3.758   7.927 -0.3693  0.1795  0.3386
 2989SOL    HW220604   0.967   3.627   7.998  2.5370  1.1824  0.4940
 2990SOL     OW20605   3.144   3.137   4.227 -0.1468 -0.0514  0.3181
 2990SOL    HW120606   3.108   3.053   4.254 -1.1789  0.1708 -0.3740
 2990SOL    HW220607   3.149   3.125   4.133 -3.2920  0.0563  0.1507
 2991SOL     OW20608   1.980   1.042  13.614  0.0238 -0.1309 -0.0058
 2991SOL    HW120609   2.020   1.013  13.532 -0.8694  1.6349 -1.0776
 2991SOL    HW220610   1.978   1.135  13.590 -1.4280  0.0394  0.7366
 2992SOL     OW20611   4.230   1.469  10.142  0.0691  0.1540  0.1478
 2992SOL    HW120612   4.240   1.546  10.086  0.8025  1.4262  2.0035
 2992SOL    HW220613   4.201   1.515  10.221 -0.1643  1.1378 -0.5102
 2993SOL     OW20614   3.149   2.147   3.172  0.1745  0.1404 -0.1947
 2993SOL    HW120615   3.059   2.175   3.155  0.2334  0.6562  0.3312
 2993SOL    HW220616   3.177   2.102   3.093 -3.5709 -0.7697 -1.0326
 2994SOL     OW20617   1.203   1.790   2.174 -0.2576 -0.3975  0.3330
 2994SOL    HW120618   1.261   1.864   2.154 -1.4902  0.7190  0.8910
 2994SOL    HW220619   1.190   1.754   2.086  1.7411 -0.8156  0.2055
 2995SOL     OW20620   1.882   2.539   7.182 -0.4388  0.0836 -0.3571
 2995SOL    HW120621   1.942   2.518   7.253 -1.9246 -0.4567  0.7397
 2995SOL    HW220622   1.793   2.550   7.216 -0.5302 -1.1661 -0.1965
 2996SOL     OW20623   2.405   1.390   3.405 -0.0934  0.1585 -0.0663
 2996SOL    HW120624   2.435   1.470   3.447  2.1676 -0.1631 -1.0807
 2996SOL    HW220625   2.311   1.395   3.424 -0.6947  1.0508 -3.3761
 2997SOL     OW20626   1.704   1.558  10.293 -0.2804  0.2795  0.0888
 2997SOL    HW120627   1.730   1.546  10.385  0.3077 -0.1068 -0.1319
 2997SOL    HW220628   1.760   1.492  10.254  2.0276  0.9641  2.1947
 2998SOL     OW20629   2.222   1.446   4.837 -0.3854  0.2818  0.4139
 2998SOL    HW120630   2.216   1.539   4.858  2.3367  0.8219 -1.1987
 2998SOL    HW220631   2.212   1.435   4.743  1.1945 -1.0267  0.3805
 2999SOL     OW20632   1.723   4.528   6.361 -0.2252  0.3605  0.3986
 2999SOL    HW120633   1.804   4.579   6.348  0.8391 -2.1293 -2.6827
 2999SOL    HW220634   1.698   4.544   6.452 -1.3681 -0.3369  0.1979
 3000SOL     OW20635   2.851   4.674  11.552 -0.0201  0.7077  0.3461
 3000SOL    HW120636   2.872   4.626  11.632 -0.7333 -2.7485 -1.5639
 3000SOL    HW220637   2.762   4.700  11.575  0.2466  1.6766  0.2818
 3001SOL     OW20638   1.928   0.160  17.144  0.5045  0.1509 -0.5926
 3001SOL    HW120639   1.967   0.235  17.098  0.6474  0.0820 -0.5862
 3001SOL    HW220640   2.005   0.132  17.194 -1.9717 -1.5694  2.2319
 3002SOL     OW20641   0.112   2.391   2.899 -0.3881 -0.3878  0.4064
 3002SOL    HW120642   0.109   2.332   2.824  1.0826 -0.7671  0.6467
 3002SOL    HW220643   0.087   2.335   2.972  0.3677  0.8281  1.6077
 3003SOL     OW20644   3.122   1.413   8.976  0.2755 -0.0481  0.0468
 3003SOL    HW120645   3.183   1.460   8.919  3.2625 -3.0752  0.7878
 3003SOL    HW220646   3.045   1.470   8.976 -0.1578 -0.6411 -0.3709
 3004SOL     OW20647   1.019   4.490   5.896  0.3368  0.4175  0.3686
 3004SOL    HW120648   1.106   4.451   5.909  0.3043  0.8697  1.9523
 3004SOL    HW220649   1.038   4.566   5.951 -0.6261  1.3833 -0.6261
 3005SOL     OW20650   3.381   2.782   5.332  0.2277 -0.4597 -0.5699
 3005SOL    HW120651   3.456   2.824   5.290 -1.1085  0.1759 -2.3512
 3005SOL    HW220652   3.313   2.849   5.322  0.7277  0.2921  1.0871
 3006SOL     OW20653   3.684   2.840  11.566  0.2037 -0.0929 -0.0653
 3006SOL    HW120654   3.632   2.861  11.643  0.4320  1.0596 -0.2238
 3006SOL    HW220655   3.771   2.860  11.601  0.6312 -0.7694 -0.7419
 3007SOL     OW20656   4.263   0.298   8.096  0.1253 -0.0484 -0.1394
 3007SOL    HW120657   4.196   0.293   8.028 -0.4398 -1.7403  0.5324
 3007SOL    HW220658   4.234   0.367   8.155  1.3055  0.8466 -0.5896
 3008SOL     OW20659   2.542   1.631  16.714  0.3365 -0.4004 -0.0716
 3008SOL    HW120660   2.541   1.604  16.622  0.4635 -2.2016  0.4438
 3008SOL    HW220661   2.469   1.692  16.719  0.6874 -0.0680  0.9623
 3009SOL     OW20662   3.305   0.113   5.652  0.3252 -0.3048 -0.0921
 3009SOL    HW120663   3.221   0.067   5.654  0.0403  0.0378 -3.3270
 3009SOL    HW220664   3.355   0.057   5.593  1.2714  0.4545 -0.0166
 3010SOL     OW20665   4.285   4.048   5.361 -0.4004 -0.2211  0.5050
 3010SOL    HW120666   4.346   4.088   5.299 -0.2123 -0.0251  0.8193
 3010SOL    HW220667   4.201   4.050   5.315 -0.9302 -0.1143  1.4674
 3011SOL     OW20668   4.058   0.745  15.734 -0.3540  0.2886 -0.0304
 3011SOL    HW120669   4.055   0.649  15.739 -2.0901  0.3873  0.6412
 3011SOL    HW220670   3.970   0.769  15.761 -1.3995  0.0719 -3.3207
 3012SOL     OW20671   2.952   4.111   4.120  0.0341 -0.1219  0.6303
 3012SOL    HW120672   2.916   4.083   4.204 -2.0115  1.8028  0.3683
 3012SOL    HW220673   3.027   4.052   4.112 -0.6879 -1.1628  1.5794
 3013SOL     OW20674   3.095   0.124  12.510 -0.2823 -0.4127 -0.2113
 3013SOL    HW120675   3.090   0.198  12.571 -0.3965 -0.6382  0.0554
 3013SOL    HW220676   3.085   0.055  12.576 -0.0715  0.1337  0.3947
 3014SOL     OW20677   2.123   3.296  15.670 -0.5169  0.0426 -0.0137
 3014SOL    HW120678   2.100   3.224  15.611 -0.0781 -1.7552  1.9794
 3014SOL    HW220679   2.039   3.333  15.696 -0.4459 -0.5521  1.0475
 3015SOL     OW20680   3.929   0.357   9.456  0.0364 -0.0962 -0.2634
 3015SOL    HW120681   3.839   0.335   9.431 -0.3011  1.2226 -0.2419
 3015SOL    HW220682   3.969   0.383   9.373  3.0304  2.9180  2.1494
 3016SOL     OW20683   3.604   4.008   8.060 -0.0686  0.5068  0.1264
 3016SOL    HW120684   3.642   3.938   8.006 -1.6746 -1.6593  1.7890
 3016SOL    HW220685   3.681   4.038   8.108 -0.0526 -1.8626  1.6047
 3017SOL     OW20686   4.266   4.179  12.321 -0.3643 -0.2905  0.2283
 3017SOL    HW120687   4.207   4.228  12.377 -1.3873 -0.1879 -0.9348
 3017SOL    HW220688   4.302   4.112  12.380  0.9548  0.9258  0.7819
 3018SOL     OW20689   3.779   1.966   6.649  0.0424  0.8378  0.5052
 3018SOL    HW120690   3.807   2.029   6.583 -1.1543  1.0455  0.1980
 3018SOL    HW220691   3.846   1.994   6.712 -1.0883 -1.6987  2.7973
 3019SOL     OW20692   4.622   3.870  16.348 -0.2021  0.7295 -0.6828
 3019SOL    HW120693   4.548   3.865  16.287 -0.3872  2.5283 -0.6168
 3019SOL    HW220694   4.685   3.906  16.286  1.0814  2.1405  1.4672
 3020SOL     OW20695   0.578   1.136   1.171  0.1805  0.5800 -0.1511
 3020SOL    HW120696   0.498   1.186   1.187 -0.2060  0.7910 -2.7160
 3020SOL    HW220697   0.618   1.170   1.251  0.7479 -0.8643  0.1852
 3021SOL     OW20698   1.579   0.809   0.705  0.5177  0.4599 -0.2833
 3021SOL    HW120699   1.589   0.848   0.618 -1.5481  0.4113 -0.5449
 3021SOL    HW220700   1.529   0.731   0.681  0.2858  0.6731 -0.4866
 3022SOL     OW20701   4.011   1.129   7.725  0.0362 -0.7455  0.0951
 3022SOL    HW120702   3.932   1.179   7.704 -1.1321 -2.3903  0.5868
 3022SOL    HW220703   3.974   1.045   7.751 -2.9199 -0.2518 -2.6606
 3023SOL     OW20704   0.792   3.565  16.887  0.2784  0.2831  0.4475
 3023SOL    HW120705   0.808   3.619  16.965 -0.7216  0.9083  0.2177
 3023SOL    HW220706   0.705   3.593  16.858  0.3494 -1.6845 -1.6280
 3024SOL     OW20707   0.280   2.321  12.382 -0.6523  0.3961 -0.3495
 3024SOL    HW120708   0.313   2.411  12.395  0.2344 -0.3727  2.6453
 3024SOL    HW220709   0.228   2.314  12.462  0.8697 -0.4725  0.5636
 3025SOL     OW20710   1.632   0.911   8.225  0.2303 -0.4474 -0.6212
 3025SOL    HW120711   1.582   0.830   8.237 -0.0173 -0.2958 -0.6260
 3025SOL    HW220712   1.667   0.918   8.314  0.2972 -1.5411 -0.5599
 3026SOL     OW20713   3.364   3.744  13.603  0.3735 -0.3102 -0.0473
 3026SOL    HW120714   3.344   3.759  13.510 -0.7034 -0.7064  0.1190
 3026SOL    HW220715   3.279   3.748  13.648 -0.9832  0.9159 -2.6697
 3027SOL     OW20716   2.820   0.510   2.210 -0.4620  0.0422 -0.2908
 3027SOL    HW120717   2.773   0.578   2.258 -0.9443 -0.0321 -0.6453
 3027SOL    HW220718   2.750   0.460   2.167 -0.0766  0.2270 -1.1384
 3028SOL     OW20719   2.645   1.661   6.327 -0.1792 -0.0500 -0.4110
 3028SOL    HW120720   2.722   1.717   6.321  0.3454 -0.8642 -1.4694
 3028SOL    HW220721   2.591   1.732   6.358 -2.5034 -1.8429 -0.3596
 3029SOL     OW20722   4.647   4.491   1.132  0.3526 -0.3004  0.2246
 3029SOL    HW120723   4.729   4.497   1.180 -0.0867 -1.2064  1.0833
 3029SOL    HW220724   4.595   4.426   1.179  0.6827 -0.4666  0.3536
 3030SOL     OW20725   4.610   2.200   5.673 -0.0874  0.2533 -0.5349
 3030SOL    HW120726   4.622   2.245   5.757  1.3510  0.0021 -0.6068
 3030SOL    HW220727   4.703   2.190   5.651  0.1365 -1.9738  1.4466
 3031SOL     OW20728   1.829   2.787   2.393  0.1796  0.0929 -0.8042
 3031SOL    HW120729   1.863   2.750   2.474 -1.5096 -2.1743 -1.1491
 3031SOL    HW220730   1.809   2.708   2.344  0.2109  0.2001 -0.9899
 3032SOL     OW20731   0.410   2.512  10.935 -0.0854 -0.6670 -0.2276
 3032SOL    HW120732   0.484   2.452  10.925  0.7706  0.7110 -2.1130
 3032SOL    HW220733   0.348   2.439  10.940  0.0480 -0.8879 -1.6632
 3033SOL     OW20734   2.721   3.966   3.167  0.0299 -0.3528  0.1283
 3033SOL    HW120735   2.757   4.055   3.164 -0.3867 -0.2552 -2.1716
 3033SOL    HW220736   2.717   3.933   3.078  0.4860  4.2786 -1.5887
 3034SOL     OW20737   0.453   2.326   1.347  0.2656 -0.8199 -0.2432
 3034SOL    HW120738   0.534   2.376   1.349  0.7857 -1.5711 -2.3036
 3034SOL    HW220739   0.434   2.308   1.255 -1.6769 -2.2100  0.4334
 3035SOL     OW20740   1.933   4.179   1.554 -0.0445  0.3442 -0.7488
 3035SOL    HW120741   1.939   4.232   1.633  2.2014 -0.2213 -0.5333
 3035SOL    HW220742   2.006   4.211   1.501  0.2609  0.0954 -0.4835
 3036SOL     OW20743   1.282   1.149  12.188  0.0943 -0.0675  0.1469
 3036SOL    HW120744   1.254   1.160  12.097 -0.5462  0.2651  0.3847
 3036SOL    HW220745   1.254   1.225  12.240  1.2402 -0.1185  0.8274
 3037SOL     OW20746   0.201   1.972  12.480 -0.3517  0.3680 -0.0181
 3037SOL    HW120747   0.180   1.968  12.573  0.8336  3.2710  0.3947
 3037SOL    HW220748   0.120   1.933  12.447 -1.2125  0.0785  2.4493
 3038SOL     OW20749   0.982   1.413   4.506  0.1517  0.1829 -0.4581
 3038SOL    HW120750   1.078   1.416   4.501  0.0738  1.4182 -1.2148
 3038SOL    HW220751   0.982   1.319   4.525 -4.2038  0.6139  1.6560
 3039SOL     OW20752   4.266   4.322  15.767  0.4548  0.0495 -0.3869
 3039SOL    HW120753   4.284   4.408  15.728  2.4407 -0.5403 -0.8004
 3039SOL    HW220754   4.260   4.345  15.860  1.5789  0.5113 -0.4202
 3040SOL     OW20755   1.695   1.429   3.034 -0.6154  0.0011  0.0082
 3040SOL    HW120756   1.741   1.414   3.117 -2.2511  2.4718  1.3633
 3040SOL    HW220757   1.670   1.520   3.054 -0.7304 -0.5957  2.6516
 3041SOL     OW20758   1.209   2.699   2.086 -0.1692  0.4041  0.1268
 3041SOL    HW120759   1.257   2.631   2.135 -0.1404  0.4266  0.1296
 3041SOL    HW220760   1.145   2.735   2.147 -1.8174  0.0229 -1.3721
 3042SOL     OW20761   0.502   3.190   7.026 -0.6404 -0.6666  0.8850
 3042SOL    HW120762   0.582   3.159   7.069 -0.0791  0.1252  0.4118
 3042SOL    HW220763   0.458   3.241   7.095 -0.3872 -1.1723  1.4272
 3043SOL     OW20764   1.706   3.720   6.872  0.3974 -0.1788  0.3403
 3043SOL    HW120765   1.798   3.741   6.885 -0.2020  1.6526  1.7798
 3043SOL    HW220766   1.708   3.635   6.917  0.5336  0.9618  2.4930
 3044SOL     OW20767   0.062   2.813   7.015 -0.2656  0.0256  0.4452
 3044SOL    HW120768   0.148   2.854   7.014  0.6009 -1.7682  1.0319
 3044SOL    HW220769   0.074   2.768   7.099 -1.1757 -2.3487 -0.6948
 3045SOL     OW20770   2.195   3.264   9.667  0.2695 -0.4541 -0.1674
 3045SOL    HW120771   2.268   3.217   9.707 -0.6290  0.4784  2.6196
 3045SOL    HW220772   2.186   3.225   9.580  0.3399  0.0031 -0.3817
 3046SOL     OW20773   0.020   4.134   5.087 -0.0397  0.6388  0.4617
 3046SOL    HW120774   0.033   4.216   5.039  0.5822  0.5199  0.4175
 3046SOL    HW220775   0.092   4.154   5.147  0.5829 -0.9424  0.2373
 3047SOL     OW20776   0.150   4.424  16.963  0.4009 -0.1870  0.3592
 3047SOL    HW120777   0.075   4.473  16.930  0.7599  0.6931  0.8595
 3047SOL    HW220778   0.135   4.343  16.914 -0.0996 -0.6879  1.3475
 3048SOL     OW20779   1.100   4.201   6.596 -0.0635  0.0043 -0.1239
 3048SOL    HW120780   1.116   4.149   6.675  0.9274 -0.6319 -0.7494
 3048SOL    HW220781   1.029   4.152   6.554  1.1803 -1.8152 -0.1089
 3049SOL     OW20782   4.059   3.993   9.740 -0.3191 -0.2527  0.0492
 3049SOL    HW120783   4.082   3.907   9.705 -0.5234  0.1776 -1.1111
 3049SOL    HW220784   4.098   3.984   9.827 -0.4138 -0.9621  0.0199
 3050SOL     OW20785   0.459   3.523  17.684 -0.5367  0.1167  0.3398
 3050SOL    HW120786   0.368   3.526  17.653 -0.1255 -0.0765 -0.8842
 3050SOL    HW220787   0.478   3.602  17.733 -0.4789  0.1813  0.2143
 3051SOL     OW20788   2.780   0.724   8.508 -0.5235 -0.7283  0.6797
 3051SOL    HW120789   2.806   0.728   8.416 -0.8025  3.4200  0.8115
 3051SOL    HW220790   2.687   0.742   8.498 -0.3736 -1.0764 -1.3108
 3052SOL     OW20791   3.709   3.984  16.559  0.4065 -0.0556  0.3310
 3052SOL    HW120792   3.778   4.046  16.581 -0.8293  1.4714 -0.1277
 3052SOL    HW220793   3.703   3.918  16.628  0.2797  0.6192  0.9618
 3053SOL     OW20794   0.442   4.307  17.302 -0.1821 -0.2154 -0.1067
 3053SOL    HW120795   0.509   4.270  17.244  1.3481  2.1694  0.1497
 3053SOL    HW220796   0.364   4.300  17.247  0.4946 -0.1924 -1.0636
 3054SOL     OW20797   3.085   2.883   6.937 -0.2584 -0.0290  0.5262
 3054SOL    HW120798   3.154   2.832   6.980  0.4451  0.3571 -0.1450
 3054SOL    HW220799   3.086   2.958   6.997  1.8903  0.2846  0.1059
 3055SOL     OW20800   4.523   4.631   3.589 -0.3526  0.3572 -0.1690
 3055SOL    HW120801   4.505   4.703   3.649  1.9842  0.4844  0.3861
 3055SOL    HW220802   4.443   4.624   3.537  0.9181  0.1403 -2.0848
 3056SOL     OW20803   2.382   3.895   3.799  0.2567 -0.2390  0.2789
 3056SOL    HW120804   2.293   3.880   3.767  0.2944  1.5291 -0.6805
 3056SOL    HW220805   2.378   3.876   3.893  2.0932  4.0608  1.2221
 3057SOL     OW20806   0.558   0.219  10.264 -0.2887 -0.0936  0.2594
 3057SOL    HW120807   0.567   0.306  10.304 -0.0624 -0.4576  1.0024
 3057SOL    HW220808   0.516   0.170  10.335 -1.6895  0.1946 -0.3668
 3058SOL     OW20809   1.888   1.071   8.843 -0.0497  0.2358  0.4460
 3058SOL    HW120810   1.840   0.989   8.854 -1.7153  1.0858 -0.5599
 3058SOL    HW220811   1.979   1.056   8.870 -0.1350 -0.6957  0.2161
 3059SOL     OW20812   2.291   0.825   1.516 -0.2270 -0.5218  0.2343
 3059SOL    HW120813   2.294   0.911   1.472  1.4805 -1.8661 -2.2946
 3059SOL    HW220814   2.211   0.840   1.566 -0.0250 -2.4964  1.1223
 3060SOL     OW20815   0.479   3.094   1.662  0.6237 -0.5180 -0.4037
 3060SOL    HW120816   0.456   3.186   1.669  1.3867 -0.3680  0.1463
 3060SOL    HW220817   0.465   3.080   1.568  2.0300  1.1693 -0.8673
 3061SOL     OW20818   4.649   2.545   0.059 -0.2851 -0.5307 -0.1282
 3061SOL    HW120819   4.690   2.611   0.115 -0.6206 -2.5356  2.5135
 3061SOL    HW220820   4.729   2.504   0.026 -0.8071 -1.3234 -0.4165
 3062SOL     OW20821   2.376   2.729   8.199 -0.4516  0.7233  0.2304
 3062SOL    HW120822   2.443   2.665   8.175 -0.8273 -0.5608  2.6455
 3062SOL    HW220823   2.412   2.744   8.286  2.8539 -2.6527 -0.5466
 3063SOL     OW20824   3.672   1.437   8.184 -0.6382 -0.2226 -0.1610
 3063SOL    HW120825   3.625   1.407   8.262 -1.6927  0.9924 -0.3352
 3063SOL    HW220826   3.709   1.517   8.219 -0.6383 -1.1902  2.0895
 3064SOL     OW20827   1.913   1.263   5.207 -0.1905 -0.7163 -0.6390
 3064SOL    HW120828   2.002   1.268   5.240  0.2351  0.3428 -1.9716
 3064SOL    HW220829   1.933   1.236   5.117  0.6385 -1.1862 -0.3130
 3065SOL     OW20830   2.616   0.614   1.343  0.0847 -0.1988  0.3702
 3065SOL    HW120831   2.640   0.591   1.253 -1.9429  0.9303 -0.4630
 3065SOL    HW220832   2.607   0.706   1.318 -0.4468 -0.5385 -0.6977
 3066SOL     OW20833   2.310   3.120   2.938  0.2696  0.1847 -0.7379
 3066SOL    HW120834   2.220   3.120   2.905  1.1752  2.2216 -3.1121
 3066SOL    HW220835   2.365   3.148   2.866 -0.2075 -0.0428 -1.1899
 3067SOL     OW20836   2.201   0.286  12.177  0.4865  0.0012 -0.1823
 3067SOL    HW120837   2.231   0.241  12.256 -1.7612 -0.3753  0.4710
 3067SOL    HW220838   2.241   0.372  12.190 -1.3805  0.7732  0.4914
 3068SOL     OW20839   4.382   0.494   9.048  0.3635  0.3386 -0.2453
 3068SOL    HW120840   4.454   0.528   8.995 -1.5703  1.3023 -2.2541
 3068SOL    HW220841   4.316   0.551   9.007 -0.9889 -0.7407  0.4162
 3069SOL     OW20842   1.428   4.341   9.721 -0.0273  0.6985  0.2693
 3069SOL    HW120843   1.334   4.321   9.714  0.1425 -0.6344  1.6852
 3069SOL    HW220844   1.433   4.392   9.640 -3.2639 -0.9301 -0.9730
 3070SOL     OW20845   2.966   2.320   3.072 -0.4326  0.4863  0.2788
 3070SOL    HW120846   2.934   2.388   3.012 -0.1584  0.0666 -0.3516
 3070SOL    HW220847   3.012   2.379   3.131  0.3459 -1.6635  1.8168
 3071SOL     OW20848   3.949   4.051   6.214  0.3822 -0.3895  0.5257
 3071SOL    HW120849   3.866   4.020   6.180  0.7126 -0.0968 -0.5436
 3071SOL    HW220850   3.922   4.127   6.266 -0.0641 -0.6196  0.6316
 3072SOL     OW20851   1.321   2.283   3.516  0.6413  0.1024  0.2723
 3072SOL    HW120852   1.316   2.282   3.420 -1.2668  1.2709  0.3588
 3072SOL    HW220853   1.367   2.200   3.525  1.4912  0.4100 -1.0915
 3073SOL     OW20854   4.148   1.466   0.964 -0.2739  0.1554  0.2156
 3073SOL    HW120855   4.099   1.401   1.012  3.0136 -2.5058 -0.0151
 3073SOL    HW220856   4.230   1.449   1.011 -0.5835 -0.5685  0.4878
 3074SOL     OW20857   3.266   0.595   2.912  0.0637 -0.1282  0.5020
 3074SOL    HW120858   3.272   0.576   3.006 -1.3444 -4.6719 -0.3154
 3074SOL    HW220859   3.271   0.505   2.880 -3.9677 -0.1169 -0.1930
 3075SOL     OW20860   2.741   3.448   6.044  0.4189 -0.0290  0.4858
 3075SOL    HW120861   2.787   3.431   6.127  1.5403 -1.1859 -0.3775
 3075SOL    HW220862   2.812   3.427   5.984  1.3371  1.4609  1.0533
 3076SOL     OW20863   3.845   0.993   4.829 -0.2167 -0.2320  0.3790
 3076SOL    HW120864   3.837   1.089   4.835  2.9318  0.1909 -1.8224
 3076SOL    HW220865   3.905   0.992   4.754 -0.8373  0.5615 -0.1447
 3077SOL     OW20866   0.081   2.778  17.196 -0.0417 -0.7018  0.6849
 3077SOL    HW120867   0.086   2.759  17.102  1.5722 -0.0985  0.6575
 3077SOL    HW220868   0.119   2.698  17.234  0.1006 -0.6023  0.7529
 3078SOL     OW20869   1.619   0.685   3.998  0.2327 -0.0970 -0.1437
 3078SOL    HW120870   1.711   0.691   4.024 -1.0600  3.5425  3.6967
 3078SOL    HW220871   1.615   0.605   3.945 -4.7938 -1.2933  2.0570
 3079SOL     OW20872   4.576   2.688  17.377  0.1748  0.4362 -0.3771
 3079SOL    HW120873   4.638   2.616  17.365  0.4438  0.6291 -0.1301
 3079SOL    HW220874   4.624   2.756  17.329  0.6654  0.3237 -0.0468
 3080SOL     OW20875   1.554   0.991   2.003  0.3122 -0.3425 -0.6174
 3080SOL    HW120876   1.594   1.024   1.922 -1.4620 -2.1218 -2.1951
 3080SOL    HW220877   1.613   1.020   2.073 -3.1064  0.4773  1.9126
 3081SOL     OW20878   3.130   4.645  17.038 -0.1664  0.6036  0.1099
 3081SOL    HW120879   3.130   4.576  17.104  0.9020 -1.4217 -2.0126
 3081SOL    HW220880   3.091   4.711  17.096 -1.6258 -0.3528  0.2197
 3082SOL     OW20881   1.331   2.407  10.285  0.2155  0.5046  0.0821
 3082SOL    HW120882   1.317   2.412  10.190 -1.7597 -2.3740  0.2092
 3082SOL    HW220883   1.403   2.347  10.301 -0.6733 -0.5644  0.0260
 3083SOL     OW20884   3.751   3.382   3.868  0.4003  0.3322  0.2748
 3083SOL    HW120885   3.836   3.421   3.888  0.5480  0.9476 -1.5096
 3083SOL    HW220886   3.743   3.334   3.950 -2.3505  0.4509  0.0677
 3084SOL     OW20887   2.654   1.144   3.656  0.1646  0.0105  0.1411
 3084SOL    HW120888   2.695   1.104   3.733 -1.3816  0.5168  1.2304
 3084SOL    HW220889   2.560   1.130   3.669  0.4344 -1.7777  0.1614
 3085SOL     OW20890   4.555   3.218   4.337 -1.0185 -0.1340  0.3144
 3085SOL    HW120891   4.578   3.134   4.298 -0.3228  0.4466 -0.5057
 3085SOL    HW220892   4.509   3.264   4.267 -0.1473 -1.9566 -1.4314
 3086SOL     OW20893   0.939   4.539   4.497  0.3347 -1.0700  0.3654
 3086SOL    HW120894   0.989   4.481   4.439 -1.5082 -1.3538 -0.9624
 3086SOL    HW220895   0.999   4.574   4.562 -0.2773 -1.4950  1.1585
 3087SOL     OW20896   1.389   4.640   2.663  0.0035 -0.4118 -0.0928
 3087SOL    HW120897   1.426   4.690   2.735 -1.4710  1.3013 -0.5063
 3087SOL    HW220898   1.443   4.672   2.591 -0.8093 -2.2925 -1.5431
 3088SOL     OW20899   1.579   4.484   3.404 -0.0098 -0.1846 -0.4397
 3088SOL    HW120900   1.663   4.473   3.450  0.7105 -0.9247 -1.9167
 3088SOL    HW220901   1.593   4.433   3.323  2.6862  1.8543 -1.2783
 3089SOL     OW20902   1.184   3.195   6.665  0.2033 -0.1576  0.3549
 3089SOL    HW120903   1.190   3.229   6.754  0.7604 -2.2037  1.1075
 3089SOL    HW220904   1.117   3.252   6.628  1.6631  0.1758 -1.7731
 3090SOL     OW20905   3.431   4.398   6.370 -0.1984 -0.1973 -0.1253
 3090SOL    HW120906   3.357   4.455   6.347  0.1520  0.8516  1.3548
 3090SOL    HW220907   3.372   4.324   6.390 -1.2045  1.0502  1.5547
 3091SOL     OW20908   2.892   1.317  13.458 -0.1407  0.1771 -0.1956
 3091SOL    HW120909   2.939   1.387  13.503  0.5596 -2.3080  2.9189
 3091SOL    HW220910   2.959   1.249  13.452 -2.6109 -2.4826  1.9964
 3092SOL     OW20911   4.599   2.375   0.722 -0.4869 -0.3425 -0.2992
 3092SOL    HW120912   4.625   2.388   0.813  0.2766  4.1683 -1.1779
 3092SOL    HW220913   4.539   2.448   0.705  0.9251  1.2747  1.7240
 3093SOL     OW20914   2.872   4.210   5.898  0.0924  0.4460 -0.6636
 3093SOL    HW120915   2.801   4.260   5.938 -0.2300 -1.3248  0.9466
 3093SOL    HW220916   2.937   4.281   5.898  1.2555 -0.6306 -0.0504
 3094SOL     OW20917   3.528   2.725  12.025  0.1251 -0.2687 -0.1135
 3094SOL    HW120918   3.477   2.727  12.106 -2.2968  0.0354 -1.6427
 3094SOL    HW220919   3.603   2.676  12.061  0.9811  2.1057  1.3408
 3095SOL     OW20920   3.280   2.112   6.338  0.3898 -0.7748 -0.7741
 3095SOL    HW120921   3.375   2.120   6.342  0.4149 -1.1713 -0.6607
 3095SOL    HW220922   3.257   2.148   6.252  0.9453  0.4934 -0.4019
 3096SOL     OW20923   4.476   3.190  10.813 -0.1484 -0.5087 -0.3744
 3096SOL    HW120924   4.517   3.275  10.795 -0.4438  0.2996  2.7615
 3096SOL    HW220925   4.482   3.190  10.909 -1.1797 -2.0712 -0.3208
 3097SOL     OW20926   1.535   4.460   6.618  0.0065  0.0054  0.2407
 3097SOL    HW120927   1.630   4.449   6.624 -0.0877 -0.0371  1.5543
 3097SOL    HW220928   1.501   4.370   6.614  2.0838 -0.7903  0.6128
 3098SOL     OW20929   1.734   1.447   7.853 -0.0438  0.4514 -0.1224
 3098SOL    HW120930   1.662   1.384   7.855  0.2387  0.1304 -0.0369
 3098SOL    HW220931   1.713   1.502   7.777  0.4540 -0.4660 -0.9193
 3099SOL     OW20932   2.048   2.748   5.250 -0.5799 -0.5589 -0.2470
 3099SOL    HW120933   2.122   2.713   5.200 -1.5503 -1.1530 -1.2817
 3099SOL    HW220934   2.003   2.806   5.188 -1.9350  0.9999  2.2150
 3100SOL     OW20935   1.889   1.915   6.203  0.0602  0.4437 -0.0327
 3100SOL    HW120936   1.812   1.971   6.210  0.0128  0.2307  1.1457
 3100SOL    HW220937   1.954   1.972   6.160 -0.0362  1.6433  1.3937
 3101SOL     OW20938   2.833   0.892  12.211  0.1738 -0.0997 -0.3680
 3101SOL    HW120939   2.854   0.983  12.229 -0.5466  0.1787 -0.9449
 3101SOL    HW220940   2.739   0.903  12.198  0.1867 -0.9884 -1.2186
 3102SOL     OW20941   1.489   2.600  11.619  0.4195 -0.4271 -0.1607
 3102SOL    HW120942   1.493   2.590  11.714  1.5510  0.8577 -0.0843
 3102SOL    HW220943   1.396   2.582  11.605  0.2993 -0.3345  0.5321
 3103SOL     OW20944   0.065   1.069   2.299  0.1399  0.5200 -0.4069
 3103SOL    HW120945   4.722   1.095   2.342 -0.2823  0.4916 -1.1772
 3103SOL    HW220946   0.119   1.061   2.378 -1.3536 -0.8102  0.4802
 3104SOL     OW20947   1.981   0.255   4.500  0.1153  0.2366  0.1381
 3104SOL    HW120948   2.047   0.249   4.430 -0.6764 -2.1009 -0.4329
 3104SOL    HW220949   1.931   0.323   4.455  0.3335  0.1405 -0.2553
 3105SOL     OW20950   3.046   1.907   3.302  0.1579  0.4051  0.1323
 3105SOL    HW120951   3.041   1.918   3.397 -1.3408  1.6476 -0.0870
 3105SOL    HW220952   3.113   1.972   3.281 -1.1260  2.2534  1.7634
 3106SOL     OW20953   0.978   3.864   7.778  0.0348  0.4082 -0.1136
 3106SOL    HW120954   0.897   3.888   7.733 -1.3085 -2.2003  0.8836
 3106SOL    HW220955   1.007   3.950   7.808  0.0174  0.6209 -0.7169
 3107SOL     OW20956   0.250   0.748   8.950 -0.3497  0.2158 -0.1245
 3107SOL    HW120957   0.241   0.653   8.943  0.1448  0.1543  0.0498
 3107SOL    HW220958   0.159   0.772   8.961 -1.1393 -3.1191  0.5167
 3108SOL     OW20959   0.268   2.057   6.026 -0.4073  0.1251 -0.3269
 3108SOL    HW120960   0.210   2.133   6.016  0.5614  0.7870 -0.8988
 3108SOL    HW220961   0.302   2.052   5.937 -0.5317 -0.7776 -0.3204
 3109SOL     OW20962   2.295   4.668  10.801 -0.2869  0.2903 -0.4100
 3109SOL    HW120963   2.237   4.617  10.858 -0.4742  1.4529  0.4528
 3109SOL    HW220964   2.240   4.675  10.723 -1.1013  0.4417  0.1723
 3110SOL     OW20965   0.182   2.363   7.215  0.3199  0.4036 -0.4189
 3110SOL    HW120966   0.122   2.296   7.181  0.8883  0.4911 -1.5943
 3110SOL    HW220967   0.208   2.322   7.297 -0.4038 -1.4306 -1.0958
 3111SOL     OW20968   4.453   0.787   3.585  0.2037 -0.6628 -0.4097
 3111SOL    HW120969   4.359   0.771   3.592  0.2703 -0.1249  1.6942
 3111SOL    HW220970   4.485   0.764   3.672 -0.0949  0.6393  0.0490
 3112SOL     OW20971   0.809   1.411   3.816 -0.1864  0.0965  0.9079
 3112SOL    HW120972   0.763   1.474   3.760 -0.5482 -0.9594  0.0225
 3112SOL    HW220973   0.733   1.378   3.864 -1.4623 -0.4324 -1.4875
 3113SOL     OW20974   3.277   2.217  16.945  0.3177  0.1353 -0.1766
 3113SOL    HW120975   3.216   2.144  16.952 -0.5366  1.0013  1.4125
 3113SOL    HW220976   3.328   2.215  17.026  1.0757 -0.4230 -0.6686
 3114SOL     OW20977   2.330   4.398   5.411  0.0996 -0.2904 -0.4545
 3114SOL    HW120978   2.389   4.444   5.471  2.1078 -0.8015 -2.0324
 3114SOL    HW220979   2.242   4.409   5.447  1.2322  2.2786  1.5625
 3115SOL     OW20980   0.856   2.793  17.442  0.3156  0.2935  0.0819
 3115SOL    HW120981   0.812   2.807  17.358  0.8385  0.1093 -0.2227
 3115SOL    HW220982   0.841   2.879  17.483 -0.3529  1.5519 -2.7634
 3116SOL     OW20983   0.522   2.128  12.706 -0.2401 -0.1692  0.0563
 3116SOL    HW120984   0.522   2.037  12.676 -0.0022 -0.7756  1.8771
 3116SOL    HW220985   0.428   2.141  12.718  0.1987  1.4700  1.7865
 3117SOL     OW20986   1.677   1.726   4.640 -0.1158 -0.5432  0.0438
 3117SOL    HW120987   1.769   1.700   4.637  0.8136  2.7576 -0.0388
 3117SOL    HW220988   1.648   1.753   4.553 -1.0531 -1.3296  0.1137
 3118SOL     OW20989   1.972   1.195   5.896  0.4644 -0.3897 -0.0242
 3118SOL    HW120990   2.010   1.228   5.815  1.7175 -0.3415  0.5889
 3118SOL    HW220991   1.925   1.272   5.927  0.9739  0.0320 -0.3204
 3119SOL     OW20992   4.380   1.872   8.765 -0.4475 -0.0966  0.0175
 3119SOL    HW120993   4.435   1.898   8.692 -1.0788  0.6879 -0.1701
 3119SOL    HW220994   4.293   1.906   8.743 -1.9822 -2.8242  1.7226
 3120SOL     OW20995   3.957   1.655   4.286 -0.2716  1.2805  0.0229
 3120SOL    HW120996   4.045   1.622   4.305 -0.5184  0.5305 -0.1540
 3120SOL    HW220997   3.968   1.680   4.194  1.1959 -1.4527 -0.5510
 3121SOL     OW20998   1.378   2.605   4.067 -0.2528  0.1680  0.5282
 3121SOL    HW120999   1.369   2.526   4.014  2.7529  0.2560 -0.1221
 3121SOL    HW221000   1.345   2.580   4.153  0.2719 -1.4641  0.2418
 3122SOL     OW21001   2.432   3.642   8.272  0.4471 -0.1180  0.7007
 3122SOL    HW121002   2.352   3.681   8.236  1.6248  2.3023  0.7298
 3122SOL    HW221003   2.400   3.556   8.300  1.9679 -0.2366  2.0197
 3123SOL     OW21004   4.651   0.251  17.734 -0.0686  0.3046  0.1097
 3123SOL    HW121005   4.730   0.198  17.725 -0.2004 -0.1837  1.9587
 3123SOL    HW221006   4.586   0.185   0.006 -0.2601  0.7338  0.8055
 3124SOL     OW21007   3.973   0.096  13.989  0.7931 -1.0965  0.4538
 3124SOL    HW121008   4.020   0.017  13.962  0.5167 -0.4503 -1.9514
 3124SOL    HW221009   3.933   0.061  14.069  3.7647 -0.6567  2.1122
 3125SOL     OW21010   3.583   4.113   1.133 -0.7590 -0.7242  0.0535
 3125SOL    HW121011   3.561   4.041   1.192 -0.2079 -1.2869 -0.4364
 3125SOL    HW221012   3.590   4.064   1.051 -0.6628 -1.7808  0.6996
 3126SOL     OW21013   2.009   3.247  12.997 -0.7539  0.1969  0.2145
 3126SOL    HW121014   1.988   3.340  12.989  0.2580  0.4488  0.4566
 3126SOL    HW221015   1.954   3.208  13.064  0.3774  1.5124  1.9303
 3127SOL     OW21016   3.050   4.434   9.676  0.0307  0.6728  0.0798
 3127SOL    HW121017   3.066   4.525   9.651 -0.2611  1.2886  2.1001
 3127SOL    HW221018   3.142   4.420   9.699 -1.2924 -1.8604  3.7418
 3128SOL     OW21019   1.206   2.055   0.338 -0.3195 -0.3500 -0.0356
 3128SOL    HW121020   1.151   2.064   0.260  0.0609  0.8545 -0.1730
 3128SOL    HW221021   1.291   2.028   0.304  0.3578  2.0216 -0.2242
 3129SOL     OW21022   2.604   0.644   4.548 -0.1879 -0.0245  0.2579
 3129SOL    HW121023   2.541   0.619   4.616  0.9588  0.3474  1.4747
 3129SOL    HW221024   2.686   0.627   4.595  0.9318  3.4054 -0.4307
 3130SOL     OW21025   1.112   4.227   0.739  0.7155  0.0994  0.3173
 3130SOL    HW121026   1.148   4.224   0.650  1.5438 -1.8713  0.7203
 3130SOL    HW221027   1.145   4.155   0.792  0.7793 -0.6393 -0.7275
 3131SOL     OW21028   1.000   3.705   5.709 -0.7133 -0.0597  0.1546
 3131SOL    HW121029   0.931   3.646   5.679 -2.2090  1.7920 -0.0541
 3131SOL    HW221030   0.974   3.787   5.667 -2.2178 -0.1769  0.8468
 3132SOL     OW21031   4.419   0.223  14.172 -0.3253  0.2848  0.5668
 3132SOL    HW121032   4.494   0.274  14.141 -0.8605 -0.0710 -1.2963
 3132SOL    HW221033   4.348   0.256  14.118 -1.2011 -0.8410  1.0475
 3133SOL     OW21034   0.268   2.414   1.702  0.1275  0.7417 -0.0496
 3133SOL    HW121035   0.346   2.368   1.670  0.8504  1.6415  0.4491
 3133SOL    HW221036   0.315   2.490   1.734  1.7102  1.0375 -3.0375
 3134SOL     OW21037   3.758   3.281  13.829  0.4583 -0.1127 -0.2572
 3134SOL    HW121038   3.847   3.313  13.824  1.1004 -1.6317  1.3242
 3134SOL    HW221039   3.727   3.313  13.744 -0.5924 -0.2127  0.0793
 3135SOL     OW21040   1.393   0.229  10.125  0.3577 -0.3409  0.3244
 3135SOL    HW121041   1.483   0.210  10.098 -0.2730 -1.5705 -0.8554
 3135SOL    HW221042   1.356   0.149  10.090 -0.5582  0.2292  0.0038
 3136SOL     OW21043   3.590   2.323   4.289  0.0292  0.2115 -0.2615
 3136SOL    HW121044   3.576   2.317   4.383  1.3706 -1.8492 -0.1754
 3136SOL    HW221045   3.622   2.234   4.273  0.4313  0.4290 -0.6902
 3137SOL     OW21046   1.915   4.708   8.296 -0.0700 -0.1177 -0.3067
 3137SOL    HW121047   1.954   4.623   8.277  2.2518  0.5207  1.6849
 3137SOL    HW221048   1.856   4.718   8.221  1.3704 -0.2365 -1.4583
 3138SOL     OW21049   4.245   4.327   7.304 -0.2417 -0.2312  0.3427
 3138SOL    HW121050   4.177   4.385   7.337  0.0875 -0.6905  1.8336
 3138SOL    HW221051   4.204   4.241   7.318 -3.1934  1.3470  1.4807
 3139SOL     OW21052   1.586   3.986  13.087  0.8138  0.0641  0.1887
 3139SOL    HW121053   1.555   3.930  13.158 -3.5257  0.8581 -1.1032
 3139SOL    HW221054   1.511   4.032  13.051  0.8674 -0.5811 -0.7540
 3140SOL     OW21055   1.278   4.725  17.000 -0.4119 -0.0643 -0.0751
 3140SOL    HW121056   1.347   4.738  16.935 -0.4487  2.2316  0.3689
 3140SOL    HW221057   1.234   4.643  16.973 -1.0021 -0.0768  0.9468
 3141SOL     OW21058   2.397   0.811   6.342  0.5003 -0.1592  0.2116
 3141SOL    HW121059   2.462   0.819   6.411  3.3489 -2.1656 -2.2839
 3141SOL    HW221060   2.425   0.740   6.285  2.6715 -0.1496  1.2855
 3142SOL     OW21061   0.610   3.248  12.731  0.1483  0.1273 -0.0037
 3142SOL    HW121062   0.701   3.242  12.701  0.5449 -1.9769  1.6145
 3142SOL    HW221063   0.585   3.157  12.750  2.0334 -0.2473  0.7037
 3143SOL     OW21064   2.398   0.205   3.714 -0.2798  0.2758  0.2877
 3143SOL    HW121065   2.402   0.134   3.779  1.8510 -0.0476 -0.1906
 3143SOL    HW221066   2.303   0.218   3.720 -0.1696  0.8579  0.8619
 3144SOL     OW21067   1.233   3.013   5.505  0.8336  0.1433 -0.5864
 3144SOL    HW121068   1.194   3.068   5.574  1.0127  1.5422 -1.5845
 3144SOL    HW221069   1.212   3.061   5.425 -0.3223 -2.2545 -1.7183
 3145SOL     OW21070   0.118   1.764  14.461 -0.0543 -0.0313  0.4787
 3145SOL    HW121071   0.165   1.680  14.464 -0.3133 -0.1849  0.1669
 3145SOL    HW221072   0.029   1.732  14.449  0.0393 -0.1857  0.1911
 3146SOL     OW21073   4.002   2.898   9.559  0.0913 -0.5505 -0.1214
 3146SOL    HW121074   4.038   2.838   9.623  0.7030 -0.5658 -0.4789
 3146SOL    HW221075   4.075   2.956   9.536 -0.4046  0.8056  1.7141
 3147SOL     OW21076   0.935   4.202   4.840 -0.2119 -0.1194 -0.1518
 3147SOL    HW121077   1.020   4.159   4.826  0.0346  0.0219  0.9378
 3147SOL    HW221078   0.949   4.288   4.802 -3.4466  2.1880  3.9638
 3148SOL     OW21079   2.518   3.984   7.674 -0.3326 -0.6084  0.1861
 3148SOL    HW121080   2.422   3.973   7.679 -0.1211 -1.0075  3.2848
 3148SOL    HW221081   2.538   3.903   7.721 -0.0928  0.0275  1.1783
 3149SOL     OW21082   2.004   1.104   6.168 -0.1774 -0.1287  0.4662
 3149SOL    HW121083   2.013   1.199   6.166  0.8514 -0.2139  1.3261
 3149SOL    HW221084   1.987   1.085   6.075 -1.6349 -2.3167  1.1810
 3150SOL     OW21085   1.450   4.245   8.120 -0.3085 -0.1576 -0.2550
 3150SOL    HW121086   1.525   4.226   8.063 -0.5467  2.1345 -1.3275
 3150SOL    HW221087   1.458   4.173   8.182  2.2836  2.3646  2.3475
 3151SOL     OW21088   1.913   2.603   7.604 -0.2773  0.1585 -0.2455
 3151SOL    HW121089   1.964   2.601   7.685  2.1842 -0.7554 -1.8163
 3151SOL    HW221090   1.981   2.586   7.538  0.5093  2.4266 -0.0163
 3152SOL     OW21091   0.012   1.496   1.892 -0.2101 -0.1602 -0.0675
 3152SOL    HW121092   4.666   1.526   1.857 -0.2167  0.4563  0.4757
 3152SOL    HW221093   0.028   1.421   1.836 -2.3170 -1.6556  1.2983
 3153SOL     OW21094   2.605   2.487   1.180  0.1085 -0.4811 -0.0973
 3153SOL    HW121095   2.615   2.409   1.235  3.3742  0.4727  0.6418
 3153SOL    HW221096   2.520   2.514   1.216  0.4213 -1.2481  1.2523
 3154SOL     OW21097   1.361   3.277   4.492  0.4769 -0.2508 -0.2951
 3154SOL    HW121098   1.383   3.185   4.477  1.6972  0.2919 -1.8337
 3154SOL    HW221099   1.306   3.266   4.570 -0.2614  0.5274 -0.7144
 3155SOL     OW21100   3.253   3.044   8.523  0.1443 -0.2782  0.3210
 3155SOL    HW121101   3.178   3.064   8.578 -0.4575  0.3741 -0.7387
 3155SOL    HW221102   3.327   3.069   8.577  0.9079 -1.1122 -0.3264
 3156SOL     OW21103   3.841   1.481  13.813  0.1624  0.4938  0.7580
 3156SOL    HW121104   3.778   1.445  13.750  1.6957 -1.3900  0.2923
 3156SOL    HW221105   3.916   1.443  13.768 -0.0467 -0.1555  0.9657
 3157SOL     OW21106   0.975   2.930   2.070  0.2555  0.7752  0.3714
 3157SOL    HW121107   0.951   3.021   2.053 -0.9396  0.6485  1.4549
 3157SOL    HW221108   1.051   2.924   2.012  1.1981 -0.0728  1.6876
 3158SOL     OW21109   4.077   3.263   4.111 -0.0515  0.0152  0.5537
 3158SOL    HW121110   4.004   3.236   4.055 -0.2923  1.8827 -0.0436
 3158SOL    HW221111   4.027   3.319   4.170 -0.2761 -0.0483  0.4235
 3159SOL     OW21112   2.130   1.835   8.512  0.0943  0.4882 -0.2114
 3159SOL    HW121113   2.195   1.790   8.458 -0.7145 -3.5283  2.1689
 3159SOL    HW221114   2.063   1.851   8.446 -0.7346  0.0594  0.5182
 3160SOL     OW21115   4.519   2.665   2.278  0.0627  0.0233  1.1386
 3160SOL    HW121116   4.439   2.706   2.246 -1.5158 -2.9241  1.2726
 3160SOL    HW221117   4.538   2.727   2.347 -0.4376  1.3770  0.0560
 3161SOL     OW21118   0.333   1.038  10.283 -0.4353  0.4258 -0.2495
 3161SOL    HW121119   0.241   1.064  10.277 -0.6563 -0.4448 -0.6644
 3161SOL    HW221120   0.356   1.055  10.192  0.3111  1.5279  0.1529
 3162SOL     OW21121   4.496   3.549   9.606  0.1981 -0.6446 -0.3867
 3162SOL    HW121122   4.536   3.540   9.520 -0.5048  1.7205 -0.9788
 3162SOL    HW221123   4.423   3.489   9.594 -0.7417  0.8339 -2.1074
 3163SOL     OW21124   4.706   1.647  11.235  0.2082  0.0815  0.0906
 3163SOL    HW121125   4.619   1.645  11.275 -1.0310  0.0756 -2.6045
 3163SOL    HW221126   4.699   1.737  11.204 -1.0602  0.3787  1.2412
 3164SOL     OW21127   1.082   3.815   4.760 -0.0093  0.3973  0.3636
 3164SOL    HW121128   1.101   3.904   4.731 -1.5502  0.4566 -0.4838
 3164SOL    HW221129   1.080   3.838   4.853  0.1894 -0.9864  0.7046
 3165SOL     OW21130   3.141   2.440  16.583 -0.0138  0.2721  0.1565
 3165SOL    HW121131   3.206   2.411  16.519  1.1070  0.2352  1.3221
 3165SOL    HW221132   3.060   2.413  16.539  0.0882 -1.6022  1.1254
 3166SOL     OW21133   1.857   4.667   1.863  0.2520 -0.5139 -0.9966
 3166SOL    HW121134   1.921   4.655   1.793  0.0269 -2.4847 -0.8760
 3166SOL    HW221135   1.774   4.668   1.815 -0.7412 -1.5109  0.7081
 3167SOL     OW21136   2.983   2.246   5.834  0.7343  0.2959  0.2253
 3167SOL    HW121137   2.972   2.290   5.919 -1.3416  2.8889 -1.3508
 3167SOL    HW221138   3.021   2.321   5.788  0.1659 -0.4571 -1.4447
 3168SOL     OW21139   4.381   1.440   9.150 -0.0736  0.4592  0.1520
 3168SOL    HW121140   4.399   1.533   9.141  0.8548  0.3605  0.9650
 3168SOL    HW221141   4.338   1.432   9.235  0.1990  0.9865  0.3334
 3169SOL     OW21142   4.603   2.980   8.331  0.1358  0.0692 -0.1196
 3169SOL    HW121143   4.590   2.933   8.413 -1.1903  1.0769  0.2566
 3169SOL    HW221144   4.631   2.910   8.273  0.8409  0.3004 -0.0593
 3170SOL     OW21145   0.498   2.166   3.314  0.4871 -0.3887  0.5460
 3170SOL    HW121146   0.567   2.172   3.380  1.3907 -0.6204 -0.3824
 3170SOL    HW221147   0.521   2.096   3.252 -1.1810 -1.8518  1.5680
 3171SOL     OW21148   0.123   2.113   8.502 -0.5374  0.7477  0.3354
 3171SOL    HW121149   0.048   2.170   8.518 -1.4606 -0.1677 -0.7174
 3171SOL    HW221150   0.140   2.073   8.588 -0.0282 -1.6181 -0.8639
 3172SOL     OW21151   2.655   4.474   7.959 -0.0483  0.2198 -0.3071
 3172SOL    HW121152   2.673   4.384   7.984 -0.1710  0.4018  0.4336
 3172SOL    HW221153   2.688   4.489   7.870  0.1885  2.1399  0.1133
 3173SOL     OW21154   2.099   3.948  14.426  0.3586 -0.0242 -0.0641
 3173SOL    HW121155   2.003   3.955  14.431  0.2381 -0.4876 -1.8273
 3173SOL    HW221156   2.108   3.933  14.332  0.7953 -3.5191  0.5228
 3174SOL     OW21157   3.940   2.348  17.656 -0.5020  0.2221  0.2884
 3174SOL    HW121158   3.972   2.406  17.726  0.9630  0.0680 -0.2554
 3174SOL    HW221159   3.846   2.365  17.662 -0.3335  1.7796 -1.5507
 3175SOL     OW21160   3.384   3.351   1.429  0.0887 -0.0506  0.3470
 3175SOL    HW121161   3.392   3.332   1.335 -0.6011  0.7621  0.1326
 3175SOL    HW221162   3.422   3.270   1.465  1.7664  0.9967  0.9484
 3176SOL     OW21163   3.996   4.415  12.682  0.7689 -0.0938 -0.2232
 3176SOL    HW121164   3.959   4.359  12.749  1.3912  1.0332  1.0721
 3176SOL    HW221165   3.942   4.492  12.665 -0.6737 -0.8381  1.0186
 3177SOL     OW21166   0.183   4.584   1.845 -0.4499 -0.4915 -0.5544
 3177SOL    HW121167   0.152   4.653   1.787  1.7441  1.0785  0.1489
 3177SOL    HW221168   0.101   4.539   1.866 -0.4405 -1.0523 -1.6796
 3178SOL     OW21169   4.083   3.354   4.660  0.2870  0.5492 -0.5459
 3178SOL    HW121170   4.040   3.272   4.639  1.5447  0.0266 -1.1176
 3178SOL    HW221171   4.164   3.327   4.615  0.6692 -0.1853  0.5757
 3179SOL     OW21172   3.780   0.883   8.094  0.1522  0.3372 -0.2478
 3179SOL    HW121173   3.873   0.903   8.108  0.4167 -0.3291 -1.0371
 3179SOL    HW221174   3.744   0.970   8.112  1.5429  0.7406  0.6256
 3180SOL     OW21175   4.402   1.700   7.745  0.5568  0.5710  0.2555
 3180SOL    HW121176   4.437   1.676   7.660  1.8256  1.8318  0.4276
 3180SOL    HW221177   4.445   1.778   7.780  2.1832 -1.4930  2.8784
 3181SOL     OW21178   1.093   4.454   7.621 -0.7056 -0.2522  0.5625
 3181SOL    HW121179   1.056   4.401   7.692  0.7598 -2.6738 -0.4612
 3181SOL    HW221180   1.085   4.542   7.658  2.7594  0.7115 -0.9667
 3182SOL     OW21181   1.549   3.446   4.448  0.0628 -0.0925 -1.1352
 3182SOL    HW121182   1.482   3.383   4.474 -0.0615  1.7393  3.0821
 3182SOL    HW221183   1.500   3.512   4.399 -2.1950 -1.9452 -1.3792
 3183SOL     OW21184   2.533   3.305   8.462 -0.2576 -0.9712 -0.2709
 3183SOL    HW121185   2.453   3.330   8.415 -0.3518  0.2741  0.5388
 3183SOL    HW221186   2.571   3.237   8.406  1.1305  0.2577 -0.8038
 3184SOL     OW21187   0.479   3.053  15.894  0.3892 -0.3254 -0.0675
 3184SOL    HW121188   0.406   3.109  15.919 -0.2259 -0.6323 -1.1747
 3184SOL    HW221189   0.449   3.026  15.807  0.0296  0.4158 -0.1751
 3185SOL     OW21190   0.183   4.138   5.979  0.3320  0.0114 -0.1907
 3185SOL    HW121191   0.242   4.091   6.038 -1.5399 -0.6576  1.1160
 3185SOL    HW221192   0.102   4.088   5.981  1.0539 -1.2694 -2.7846
 3186SOL     OW21193   4.534   3.124   8.689  0.3289  0.0528  0.7329
 3186SOL    HW121194   4.526   3.188   8.760  2.5397  1.1592 -0.0164
 3186SOL    HW221195   4.510   3.039   8.726  1.4396 -2.2114 -3.7705
 3187SOL     OW21196   2.400   2.027  10.663 -0.1117 -0.0713  0.0925
 3187SOL    HW121197   2.333   2.050  10.728  1.0825  1.2037  0.8803
 3187SOL    HW221198   2.480   2.022  10.715  0.6312  1.9674 -0.8488
 3188SOL     OW21199   1.609   1.038   5.177  0.4188  0.4210 -0.5563
 3188SOL    HW121200   1.658   1.095   5.236  0.2246  1.1510 -1.0904
 3188SOL    HW221201   1.681   0.983   5.147  0.5986 -0.1505  0.9666
 3189SOL     OW21202   3.357   0.233  13.658  0.1011  0.3058  0.2151
 3189SOL    HW121203   3.397   0.163  13.709  3.5006 -0.3406 -3.3702
 3189SOL    HW221204   3.321   0.278  13.735 -0.9093  0.8087 -0.5527
 3190SOL     OW21205   1.250   3.475   5.779  0.0984 -0.9054 -0.3797
 3190SOL    HW121206   1.240   3.529   5.701  0.9110 -0.9127 -0.4868
 3190SOL    HW221207   1.314   3.531   5.824 -0.2782 -1.8351  1.3496
 3191SOL     OW21208   1.478   3.374   9.928  0.4637  0.2971  0.5791
 3191SOL    HW121209   1.383   3.368   9.916  0.3820  0.7000  1.0224
 3191SOL    HW221210   1.504   3.443   9.867  0.1812 -0.5719 -0.5290
 3192SOL     OW21211   3.844   4.566   7.614 -0.4295 -0.4170 -0.3806
 3192SOL    HW121212   3.767   4.593   7.663 -0.5391 -2.6506  0.7306
 3192SOL    HW221213   3.805   4.513   7.545 -2.2926 -0.1844  0.5131
 3193SOL     OW21214   3.374   0.803   1.919 -0.3919 -0.5535  0.4024
 3193SOL    HW121215   3.337   0.827   1.833 -0.1489  0.5320  0.5919
 3193SOL    HW221216   3.465   0.777   1.904  0.0544  0.5159  1.2682
 3194SOL     OW21217   3.266   4.733  12.303  0.3524  0.6023 -0.2250
 3194SOL    HW121218   3.197   4.706  12.242 -0.0369 -1.1550  0.9945
 3194SOL    HW221219   3.206   0.016  12.375 -0.0813 -1.0281 -0.1054
 3195SOL     OW21220   3.788   4.507   8.849 -0.4856 -0.1724 -0.4631
 3195SOL    HW121221   3.726   4.435   8.860 -0.0295 -0.2477  1.5640
 3195SOL    HW221222   3.867   4.471   8.889 -0.5454 -1.3772 -1.4241
 3196SOL     OW21223   0.969   1.895  11.436  0.3267  0.0951  0.2124
 3196SOL    HW121224   0.995   1.986  11.453  2.8236 -0.4917 -0.4794
 3196SOL    HW221225   0.911   1.882  11.512  0.4285 -2.9239 -0.2467
 3197SOL     OW21226   1.181   1.954   7.005 -0.4664 -0.5432 -0.5424
 3197SOL    HW121227   1.209   1.981   6.917 -1.3567  0.8611 -0.3919
 3197SOL    HW221228   1.088   1.949   6.983  0.1141  3.0242 -3.8537
 3198SOL     OW21229   4.681   1.299  12.844  0.2332  0.7662 -0.5308
 3198SOL    HW121230   4.708   1.229  12.904 -1.4322 -0.6823 -1.4941
 3198SOL    HW221231   0.015   1.328  12.789  0.7933  0.4909  0.0519
 3199SOL     OW21232   0.013   4.275  12.027  0.2091 -0.5015  0.3911
 3199SOL    HW121233   0.041   4.272  12.118  0.5680  0.6797  0.3173
 3199SOL    HW221234   0.098   4.280  11.983  0.4440  2.1081  1.1675
 3200SOL     OW21235   2.874   3.143  13.733 -0.1488 -0.4588  0.7439
 3200SOL    HW121236   2.814   3.191  13.676  0.3246  0.0289  0.6664
 3200SOL    HW221237   2.898   3.213  13.793 -0.3681 -1.5260  2.0789
 3201SOL     OW21238   3.032   2.718   9.060 -0.3606 -0.2865 -0.3484
 3201SOL    HW121239   2.939   2.718   9.040 -0.5204  1.2970  0.3666
 3201SOL    HW221240   3.053   2.810   9.042 -0.2297 -0.0121  1.2272
 3202SOL     OW21241   0.760   1.262   5.724  0.1711 -0.2809 -0.1519
 3202SOL    HW121242   0.776   1.275   5.631 -2.6935  1.7516 -0.3765
 3202SOL    HW221243   0.797   1.343   5.760 -0.8076  0.4525 -0.8078
 3203SOL     OW21244   0.225   1.584   0.214  0.2284 -0.4997  0.2482
 3203SOL    HW121245   0.289   1.633   0.162 -3.6083  1.0635 -3.0248
 3203SOL    HW221246   0.287   1.538   0.270  1.1154 -0.2715 -0.5396
 3204SOL     OW21247   4.192   3.422   5.463  0.2563  0.1869 -0.1786
 3204SOL    HW121248   4.113   3.427   5.517  0.4387  0.7724  0.0256
 3204SOL    HW221249   4.255   3.408   5.533 -0.7158 -1.9069  0.2806
 3205SOL     OW21250   4.469   4.560   6.759  0.1172  0.3410  0.2331
 3205SOL    HW121251   4.496   4.527   6.844 -0.6053 -0.2182  0.2459
 3205SOL    HW221252   4.528   4.510   6.703 -0.3595 -0.8409  0.7843
 3206SOL     OW21253   0.647   0.814  16.954  0.3416 -0.4610 -0.1689
 3206SOL    HW121254   0.695   0.802  16.872  3.6370  0.1125  1.6878
 3206SOL    HW221255   0.665   0.904  16.978 -1.1290  0.1074 -1.1941
 3207SOL     OW21256   2.116   2.870   4.334 -0.3638  0.2104 -0.1629
 3207SOL    HW121257   2.056   2.834   4.269 -0.5183 -1.7494  1.0666
 3207SOL    HW221258   2.170   2.796   4.362  3.2703  3.3909  1.3547
 3208SOL     OW21259   3.375   3.205   6.312  0.2478  0.6893 -0.2408
 3208SOL    HW121260   3.401   3.113   6.305  1.1413  1.2300 -3.8649
 3208SOL    HW221261   3.416   3.251   6.239 -0.7313 -1.3804 -2.0817
 3209SOL     OW21262   3.700   0.685   4.594  0.2501 -0.3615  0.2659
 3209SOL    HW121263   3.752   0.709   4.670 -0.8562 -1.6213  1.4049
 3209SOL    HW221264   3.630   0.626   4.622  0.0755 -0.1976  0.1860
 3210SOL     OW21265   3.983   1.699  11.215 -0.5736 -0.6135 -0.1867
 3210SOL    HW121266   3.990   1.759  11.290  0.8822 -2.4162  1.1350
 3210SOL    HW221267   4.047   1.637  11.251  0.3817  1.2686  1.4381
 3211SOL     OW21268   0.879   4.719  11.619 -0.6498 -0.1679 -0.4674
 3211SOL    HW121269   0.817   4.654  11.585  1.2556 -1.0219 -2.2881
 3211SOL    HW221270   0.842   0.062  11.584  0.6963  0.9395  0.6633
 3212SOL     OW21271   3.429   1.318   8.819 -0.1974  0.8168  0.5487
 3212SOL    HW121272   3.478   1.274   8.749  0.0632  0.7900  0.7497
 3212SOL    HW221273   3.501   1.371   8.852 -0.8004  1.2859  1.1024
 3213SOL     OW21274   0.886   4.687   2.632  0.6652 -0.0100 -0.2104
 3213SOL    HW121275   0.845   4.690   2.546 -1.9341 -0.6641  0.9925
 3213SOL    HW221276   0.845   0.027   2.670  1.8739  0.6922 -0.3641
 3214SOL     OW21277   1.052   2.068   8.397 -0.5352  0.5586  0.3182
 3214SOL    HW121278   1.145   2.058   8.414 -0.1938  2.4204 -0.4371
 3214SOL    HW221279   1.014   2.084   8.483  0.7606  1.3018  0.7412
 3215SOL     OW21280   2.616   1.736   5.002  1.0993 -0.0408 -0.3258
 3215SOL    HW121281   2.675   1.750   5.076  0.3111  1.3429  0.0303
 3215SOL    HW221282   2.587   1.647   5.021 -0.8695  0.5296 -0.6831
 3216SOL     OW21283   2.997   1.377  10.221 -0.2102 -0.0173 -0.3235
 3216SOL    HW121284   3.046   1.452  10.186  0.4048 -0.4415 -0.3713
 3216SOL    HW221285   2.949   1.371  10.138  0.4452 -1.1873 -0.6173
 3217SOL     OW21286   1.195   3.509   5.358  0.6305 -0.3334  0.6200
 3217SOL    HW121287   1.252   3.507   5.282 -0.0460 -0.2846  0.1112
 3217SOL    HW221288   1.141   3.432   5.338 -0.9521  0.2493  2.6229
 3218SOL     OW21289   1.568   2.359   1.447 -0.7493  0.5416 -0.0546
 3218SOL    HW121290   1.595   2.307   1.372 -1.8138 -1.4638  0.9440
 3218SOL    HW221291   1.473   2.350   1.453 -0.4554 -1.6119  1.1820
 3219SOL     OW21292   2.891   1.197   5.858 -0.3723  0.2960 -0.3011
 3219SOL    HW121293   2.867   1.118   5.809  2.5605 -1.1005  0.5107
 3219SOL    HW221294   2.821   1.254   5.828 -0.7917  0.1353  0.3976
 3220SOL     OW21295   2.452   0.419   2.842  0.2219  0.7531 -0.1976
 3220SOL    HW121296   2.541   0.426   2.875  0.3949 -1.4767 -0.1828
 3220SOL    HW221297   2.458   0.328   2.814 -0.8501  0.2827  1.0543
 3221SOL     OW21298   3.969   4.418   6.694 -0.0830 -0.4162  0.5181
 3221SOL    HW121299   3.933   4.477   6.629  0.2521 -0.0608  0.6558
 3221SOL    HW221300   4.025   4.487   6.731  1.9397 -2.2765  0.9833
 3222SOL     OW21301   2.144   2.462   2.817 -0.0282 -0.5073  0.0786
 3222SOL    HW121302   2.139   2.520   2.894  1.1644  1.6875 -1.5004
 3222SOL    HW221303   2.051   2.446   2.799 -0.8725  0.2003  3.6370
 3223SOL     OW21304   0.699   1.308  17.603  0.2249 -0.2152  0.1133
 3223SOL    HW121305   0.752   1.288  17.680 -0.4505 -2.0383  0.0874
 3223SOL    HW221306   0.611   1.283  17.629 -0.3896  0.8509 -0.9385
 3224SOL     OW21307   0.509   0.901   2.139 -0.6169  0.1794 -0.4343
 3224SOL    HW121308   0.551   0.979   2.174  0.1030 -0.4278  0.0635
 3224SOL    HW221309   0.435   0.896   2.200  0.1194 -0.3052  0.4373
 3225SOL     OW21310   3.294   3.620   5.094  0.1600  0.1364  0.2891
 3225SOL    HW121311   3.355   3.666   5.152 -1.0702  0.2973  1.4699
 3225SOL    HW221312   3.234   3.692   5.073 -1.4575 -1.4223 -0.5165
 3226SOL     OW21313   2.565   3.727   4.830 -0.0232 -0.0263 -0.2704
 3226SOL    HW121314   2.637   3.786   4.808  0.2296 -0.8306 -1.6364
 3226SOL    HW221315   2.579   3.652   4.772 -1.6137  0.5006 -1.3329
 3227SOL     OW21316   2.129   1.187  10.393 -0.1592 -0.4749  0.1230
 3227SOL    HW121317   2.172   1.257  10.342  2.0129 -0.9189  1.3620
 3227SOL    HW221318   2.057   1.234  10.434 -0.9990 -2.4415  0.8896
 3228SOL     OW21319   1.476   2.533   5.563 -1.2267  0.2151  0.1823
 3228SOL    HW121320   1.456   2.450   5.606 -0.9546 -0.7436 -1.5432
 3228SOL    HW221321   1.429   2.599   5.614  0.1230 -0.6441  2.5628
 3229SOL     OW21322   0.744   4.304   4.182  0.3356 -0.7082 -0.3997
 3229SOL    HW121323   0.691   4.232   4.147  1.3246 -1.3964 -0.4756
 3229SOL    HW221324   0.710   4.306   4.272  0.8413 -1.5855 -0.1793
 3230SOL     OW21325   2.202   4.659   5.748 -0.3767 -0.3889 -0.2850
 3230SOL    HW121326   2.180   4.576   5.791 -1.4378 -0.2870 -0.6334
 3230SOL    HW221327   2.238   4.631   5.664  0.6226  2.6182 -0.8420
 3231SOL     OW21328   4.051   2.731   4.711  0.1992  0.1688 -0.1071
 3231SOL    HW121329   4.129   2.765   4.755 -0.2049  0.5946  0.2730
 3231SOL    HW221330   4.079   2.722   4.620  3.7737 -2.6140  1.2466
 3232SOL     OW21331   0.208   4.732   6.676  0.2384  0.2596 -0.1770
 3232SOL    HW121332   0.141   4.673   6.642 -0.0048  1.0338 -1.0340
 3232SOL    HW221333   0.284   4.678   6.659 -0.9078 -1.8015  1.2928
 3233SOL     OW21334   2.400   1.824   1.271  0.0707  0.0634 -0.4583
 3233SOL    HW121335   2.358   1.823   1.357  0.9966 -2.0686 -0.0506
 3233SOL    HW221336   2.483   1.867   1.290  0.7214 -0.6969 -1.6014
 3234SOL     OW21337   1.450   0.331   1.385 -0.6936 -0.0214 -0.4339
 3234SOL    HW121338   1.442   0.402   1.450  1.0824 -1.3451  1.2217
 3234SOL    HW221339   1.500   0.373   1.315 -1.0638  0.7850 -0.2226
 3235SOL     OW21340   2.719   0.084   6.849  0.4739 -0.6617  0.4454
 3235SOL    HW121341   2.647   0.147   6.848  0.3168 -0.8371  0.4830
 3235SOL    HW221342   2.701   0.041   6.765 -2.9725  0.2459  0.7001
 3236SOL     OW21343   3.065   3.431   0.813 -0.3544 -0.8050 -0.2211
 3236SOL    HW121344   3.025   3.487   0.879 -1.1559 -1.6818  0.0455
 3236SOL    HW221345   2.988   3.391   0.772  0.5855 -3.6363  0.7386
 3237SOL     OW21346   0.064   1.321  11.738  0.1046 -0.0398  0.5385
 3237SOL    HW121347   0.156   1.322  11.766  0.9828 -1.0106 -2.4080
 3237SOL    HW221348   0.034   1.240  11.780 -0.9784 -0.2591 -0.6789
 3238SOL     OW21349   0.393   2.318   4.088  0.0473  0.1119  0.3076
 3238SOL    HW121350   0.363   2.398   4.131  0.5273  0.2807  0.3288
 3238SOL    HW221351   0.358   2.250   4.145  0.1785  3.3176  4.2603
 3239SOL     OW21352   1.744   0.540   3.536  0.4469 -0.8621 -0.0334
 3239SOL    HW121353   1.756   0.468   3.474  0.4367 -0.5717 -0.3745
 3239SOL    HW221354   1.690   0.598   3.483  1.0763 -0.8912 -0.7108
 3240SOL     OW21355   0.669   0.579  11.997  0.3821 -0.1150  0.0965
 3240SOL    HW121356   0.666   0.493  11.954 -0.4543  0.2930 -0.6466
 3240SOL    HW221357   0.754   0.612  11.966  0.2660 -1.5099 -1.6954
 3241SOL     OW21358   2.357   2.391   7.507 -0.4424 -0.4263 -0.4048
 3241SOL    HW121359   2.282   2.335   7.526 -0.6826  0.3939  1.0977
 3241SOL    HW221360   2.402   2.334   7.445 -1.9299 -0.0785 -1.8089
 3242SOL     OW21361   3.330   2.304  10.021 -0.1445  0.2818 -0.3683
 3242SOL    HW121362   3.354   2.257  10.100 -0.4176 -2.0494 -1.6736
 3242SOL    HW221363   3.354   2.396  10.033 -0.4660  0.3106  0.0298
 3243SOL     OW21364   0.845   4.287   1.507  0.3542 -0.0427  0.0595
 3243SOL    HW121365   0.781   4.271   1.437 -0.2871 -1.3860  0.9620
 3243SOL    HW221366   0.878   4.376   1.492  0.3277 -0.1564 -0.6915
 3244SOL     OW21367   2.256   4.483  16.008 -0.0903  0.0651 -0.0083
 3244SOL    HW121368   2.238   4.396  16.044  2.4393  0.2042  1.6527
 3244SOL    HW221369   2.316   4.461  15.937  1.7013  1.4111  1.1007
 3245SOL     OW21370   2.852   0.183   5.542  0.2255 -0.2277 -0.1565
 3245SOL    HW121371   2.923   0.171   5.605 -0.3611  1.2181  0.7633
 3245SOL    HW221372   2.858   0.278   5.531  0.1543  0.1288  2.9677
 3246SOL     OW21373   3.248   2.851   3.677 -0.2174  0.1266  0.4492
 3246SOL    HW121374   3.263   2.868   3.770  0.0608  1.0745  0.2292
 3246SOL    HW221375   3.173   2.909   3.672  1.0713  1.7550 -0.1759
 3247SOL     OW21376   1.112   3.879   6.427 -0.0180  0.1448  0.3894
 3247SOL    HW121377   1.037   3.938   6.415 -0.8190 -1.1395 -0.9031
 3247SOL    HW221378   1.103   3.859   6.520  0.4083 -0.3191  0.3290
 3248SOL     OW21379   0.223   3.562  14.799 -0.5204  0.5825 -0.0460
 3248SOL    HW121380   0.165   3.488  14.785 -0.8175  0.4534  1.7795
 3248SOL    HW221381   0.314   3.536  14.784  0.0317  0.8050  2.8415
 3249SOL     OW21382   3.638   2.936   4.797  0.3965  0.1182  0.0672
 3249SOL    HW121383   3.719   2.898   4.831  0.0902 -0.2613  0.3784
 3249SOL    HW221384   3.646   3.022   4.838 -1.3783  0.4689 -0.3283
 3250SOL     OW21385   4.355   1.611   2.400 -0.5294  0.1098  0.6101
 3250SOL    HW121386   4.445   1.584   2.380 -0.7905 -0.2179 -0.1142
 3250SOL    HW221387   4.302   1.545   2.356 -1.8300  1.3738  0.2758
 3251SOL     OW21388   1.904   4.452  12.539 -0.5313  0.6339  0.4577
 3251SOL    HW121389   1.810   4.470  12.529 -0.6981 -0.3088  0.3763
 3251SOL    HW221390   1.905   4.401  12.620 -0.5741  0.7530  0.5346
 3252SOL     OW21391   0.848   3.829   9.436  0.2215 -0.5108 -0.2733
 3252SOL    HW121392   0.901   3.909   9.445  0.0737 -0.4308 -0.1022
 3252SOL    HW221393   0.770   3.853   9.485 -0.7462 -0.7204 -1.7278
 3253SOL     OW21394   1.722   3.253   6.805  0.1433 -0.2659  0.0826
 3253SOL    HW121395   1.797   3.201   6.835  0.1798 -0.0302  0.3989
 3253SOL    HW221396   1.663   3.179   6.806  0.9843 -0.9421 -0.1690
 3254SOL     OW21397   2.009   4.261  10.679 -0.3987 -0.0049 -0.3107
 3254SOL    HW121398   1.928   4.227  10.641 -0.7264 -1.1447  1.3795
 3254SOL    HW221399   2.065   4.193  10.640  1.7702  0.5874  1.7478
 3255SOL     OW21400   1.948   2.381   3.382  0.1806 -0.2242  0.0008
 3255SOL    HW121401   2.029   2.359   3.336 -0.0938 -1.7601  0.2633
 3255SOL    HW221402   1.887   2.405   3.313  0.7633  2.8585  0.5611
 3256SOL     OW21403   1.072   0.513   7.105  0.8330  0.7731  0.3881
 3256SOL    HW121404   1.006   0.571   7.141 -2.7118 -2.5179 -0.7468
 3256SOL    HW221405   1.031   0.481   7.024  1.6016 -2.0668  1.1012
 3257SOL     OW21406   1.914   3.344   6.615 -0.3324 -0.3656  0.1845
 3257SOL    HW121407   1.852   3.330   6.544  0.9880  2.0966 -1.4324
 3257SOL    HW221408   1.843   3.348   6.680 -0.0531  0.8830  0.4059
 3258SOL     OW21409   0.305   2.377  15.574  0.0944  0.2330 -0.3792
 3258SOL    HW121410   0.306   2.365  15.479 -1.3508 -1.8492 -0.1437
 3258SOL    HW221411   0.264   2.463  15.570  0.6178  0.4621 -0.8009
 3259SOL     OW21412   4.731   2.544   4.938  0.3292 -0.6683  0.0073
 3259SOL    HW121413   0.046   2.464   4.934 -0.6253 -1.2898 -0.1474
 3259SOL    HW221414   0.023   2.582   5.020  0.3781  0.6024 -0.5969
 3260SOL     OW21415   3.656   0.265   8.318 -0.5750 -0.2890 -0.0864
 3260SOL    HW121416   3.583   0.288   8.260 -0.2054  2.0760  0.3933
 3260SOL    HW221417   3.610   0.280   8.400  0.5076  1.1509  0.2460
 3261SOL     OW21418   3.029   3.767  10.465  0.1383 -0.0200  0.3535
 3261SOL    HW121419   3.090   3.751  10.394  1.0082 -3.3290  1.8838
 3261SOL    HW221420   3.013   3.861  10.454  1.5605  0.3063  1.0469
 3262SOL     OW21421   1.239   4.236   9.315  0.2370 -0.0260  0.0006
 3262SOL    HW121422   1.180   4.250   9.241  0.0169 -1.2207 -0.0610
 3262SOL    HW221423   1.307   4.195   9.261 -0.8610 -1.0099 -0.6529
 3263SOL     OW21424   3.019   1.044   4.698 -0.0833 -0.0846 -0.1640
 3263SOL    HW121425   2.997   0.951   4.706 -0.5823  0.0373 -0.0941
 3263SOL    HW221426   3.057   1.060   4.611 -0.9753 -1.8376 -0.8901
 3264SOL     OW21427   2.770   3.765   4.516  0.0483  0.1400  0.7023
 3264SOL    HW121428   2.845   3.793   4.463  0.5338  2.8750  2.8409
 3264SOL    HW221429   2.736   3.715   4.442  1.2462  1.7179 -0.9026
 3265SOL     OW21430   4.518   0.450   7.313 -0.6576 -0.2056  0.6118
 3265SOL    HW121431   4.557   0.363   7.304 -0.3248  0.1895 -1.5864
 3265SOL    HW221432   4.428   0.422   7.332 -1.0110 -0.5833 -1.6207
 3266SOL     OW21433   0.636   4.553   7.379  0.9767  0.0527 -0.3209
 3266SOL    HW121434   0.606   4.608   7.307  1.1030  1.0979  0.4258
 3266SOL    HW221435   0.731   4.551   7.370  0.8839  0.3040 -1.3445
 3267SOL     OW21436   2.194   2.983   7.172 -0.3952  0.4537 -0.1114
 3267SOL    HW121437   2.189   2.925   7.247 -2.0289  2.5840  1.4250
 3267SOL    HW221438   2.239   2.925   7.110  0.3627  0.2903  0.5980
 3268SOL     OW21439   0.779   2.574   8.914  0.4934  0.1492  0.3477
 3268SOL    HW121440   0.831   2.550   8.991  1.9676 -1.0292 -1.0050
 3268SOL    HW221441   0.828   2.540   8.839 -1.1566 -0.4867 -0.4490
 3269SOL     OW21442   2.087   1.590   6.479 -0.1170  0.1744 -0.6859
 3269SOL    HW121443   2.033   1.522   6.519 -0.2850  0.1111 -1.0191
 3269SOL    HW221444   2.025   1.654   6.446 -1.6156 -1.2704 -0.6500
 3270SOL     OW21445   4.649   4.050   7.499 -0.6478 -0.7136 -0.2210
 3270SOL    HW121446   4.713   4.102   7.547 -0.1175 -1.0064 -0.6081
 3270SOL    HW221447   4.602   4.032   7.581  1.5513 -0.0014  1.1905
 3271SOL     OW21448   0.221   1.022   5.541  0.1360 -0.3044 -0.3910
 3271SOL    HW121449   0.251   0.952   5.599 -0.1455  0.1511  0.2962
 3271SOL    HW221450   0.297   1.075   5.517  1.8753 -1.9731  1.4439
 3272SOL     OW21451   0.028   2.596   1.720 -0.0046  0.6945 -0.1530
 3272SOL    HW121452   0.066   2.615   1.805  0.3471 -2.0592  0.3024
 3272SOL    HW221453   0.077   2.524   1.680  1.8731  0.7530  2.0589
 3273SOL     OW21454   0.382   4.636   3.488 -0.6896  0.6342  0.5978
 3273SOL    HW121455   0.371   4.564   3.426 -0.6491 -0.6908  2.1125
 3273SOL    HW221456   0.351   4.703   3.428  3.0962  3.0318  1.2914
 3274SOL     OW21457   3.849   0.756   7.145  1.1361 -0.5996 -0.3003
 3274SOL    HW121458   3.879   0.842   7.116 -1.8529  0.2408 -0.9034
 3274SOL    HW221459   3.757   0.769   7.171  1.9689  3.8453  0.3710
 3275SOL     OW21460   1.639   2.014   2.957 -0.5312 -0.2840  0.0451
 3275SOL    HW121461   1.632   2.083   2.891 -1.1600 -0.6293 -0.2440
 3275SOL    HW221462   1.721   1.970   2.934  0.6404  1.7094  0.3920
 3276SOL     OW21463   2.963   0.873   8.877  0.0663 -0.1494  0.0215
 3276SOL    HW121464   3.010   0.889   8.795 -1.7064 -2.3418 -1.4044
 3276SOL    HW221465   2.963   0.964   8.907 -0.9466 -1.2235  3.1929
 3277SOL     OW21466   1.864   2.648   1.984 -0.3610  0.4444  0.1481
 3277SOL    HW121467   1.829   2.727   1.942 -2.0484  0.2428  1.1642
 3277SOL    HW221468   1.917   2.699   2.045 -0.0523 -0.1083  0.3437
 3278SOL     OW21469   3.080   3.853   7.844  0.1571  0.3926 -0.2153
 3278SOL    HW121470   3.064   3.791   7.915 -1.1952  1.8297  0.7309
 3278SOL    HW221471   2.993   3.891   7.834  0.9308  2.1003 -0.4716
 3279SOL     OW21472   0.280   3.944   3.171 -0.3668  0.4132  0.1696
 3279SOL    HW121473   0.221   3.899   3.110  0.1114  1.0685 -0.7669
 3279SOL    HW221474   0.216   4.002   3.213 -2.7782 -1.9301 -0.2092
 3280SOL     OW21475   2.148   3.269   4.039 -0.4101  0.0779 -0.1310
 3280SOL    HW121476   2.103   3.244   4.120 -1.5187  0.1207 -0.7444
 3280SOL    HW221477   2.084   3.326   3.997  0.5881  0.7532 -0.7435
 3281SOL     OW21478   3.421   3.019  14.877 -0.0007  0.0372  0.1243
 3281SOL    HW121479   3.413   2.966  14.956 -0.1081 -0.1786 -0.0307
 3281SOL    HW221480   3.395   3.104  14.911  0.0998 -0.6798  2.0086
 3282SOL     OW21481   1.811   1.498  13.174 -0.1330 -0.0480 -0.5864
 3282SOL    HW121482   1.824   1.591  13.156 -1.6699  0.3386  0.3430
 3282SOL    HW221483   1.902   1.467  13.174  0.8130  2.7994 -0.1289
 3283SOL     OW21484   1.946   3.054   8.807  0.4440  0.4026 -1.3296
 3283SOL    HW121485   2.037   3.085   8.812  0.1964  0.8711  0.2209
 3283SOL    HW221486   1.940   2.986   8.874  2.6627  1.6537  0.1431
 3284SOL     OW21487   2.538   4.442   9.376 -0.3528 -0.2996 -0.1885
 3284SOL    HW121488   2.624   4.402   9.387 -0.1188  0.2395 -0.0274
 3284SOL    HW221489   2.512   4.438   9.468  0.5504 -0.1903  0.0699
 3285SOL     OW21490   0.154   0.542   4.878  0.1206  0.0893  0.0585
 3285SOL    HW121491   0.124   0.575   4.962 -2.2139 -0.8652 -0.4164
 3285SOL    HW221492   0.157   0.627   4.834  0.9688  0.7989  1.4880
 3286SOL     OW21493   1.357   4.333   5.342 -0.1749  0.3295 -0.0607
 3286SOL    HW121494   1.349   4.425   5.368 -1.7587  0.8473 -2.3085
 3286SOL    HW221495   1.312   4.287   5.413  0.8007 -1.5708 -0.6711
 3287SOL     OW21496   0.790   4.080   2.432 -0.3473 -0.8427 -0.1173
 3287SOL    HW121497   0.794   4.170   2.400 -2.3845 -0.5537  0.4057
 3287SOL    HW221498   0.732   4.031   2.374 -0.2703  0.6147 -1.4349
 3288SOL     OW21499   0.131   1.215   9.499 -0.2287 -0.1801  0.0788
 3288SOL    HW121500   0.150   1.125   9.470  1.7864  0.7116 -1.3322
 3288SOL    HW221501   0.045   1.230   9.459 -0.4590 -0.0120  0.6361
 3289SOL     OW21502   1.134   3.611   0.477  0.1976  0.0263 -0.4291
 3289SOL    HW121503   1.074   3.594   0.550 -0.1600  0.7732 -0.5565
 3289SOL    HW221504   1.191   3.668   0.528 -1.4564 -0.8305  2.3848
 3290SOL     OW21505   3.620   3.654   2.971  0.4759  0.3658  0.6694
 3290SOL    HW121506   3.528   3.676   2.988 -0.1867 -2.5975  0.7735
 3290SOL    HW221507   3.667   3.732   3.001 -0.1556  0.6695  0.8712
 3291SOL     OW21508   0.460   3.456   8.806  0.3846 -0.2443  0.2397
 3291SOL    HW121509   0.499   3.504   8.733  0.7905 -2.0186 -0.6982
 3291SOL    HW221510   0.432   3.373   8.769  0.3888  0.1751 -0.6986
 3292SOL     OW21511   3.017   0.086   4.817 -0.2229 -0.3381 -0.3134
 3292SOL    HW121512   3.092   0.079   4.757 -0.9638  1.9160 -1.5263
 3292SOL    HW221513   3.027   0.179   4.841  1.3637 -0.6242  0.1271
 3293SOL     OW21514   1.757   2.615   5.589 -0.1258 -0.3900 -0.1515
 3293SOL    HW121515   1.726   2.697   5.629 -0.5925 -0.4088 -0.4746
 3293SOL    HW221516   1.676   2.570   5.613 -0.6687 -0.8333 -2.8717
 3294SOL     OW21517   2.572   0.172   5.456 -0.5698 -0.2954  0.0927
 3294SOL    HW121518   2.501   0.143   5.514  1.0164  0.2446  2.3083
 3294SOL    HW221519   2.645   0.174   5.518  2.1500  1.4705 -3.2095
 3295SOL     OW21520   1.732   0.863   0.932  0.0960  0.5950  0.2813
 3295SOL    HW121521   1.782   0.935   0.894 -1.6001  0.7380 -1.6541
 3295SOL    HW221522   1.680   0.832   0.858 -0.7627 -0.3240  1.2741
 3296SOL     OW21523   0.432   2.919   8.700 -0.0863 -0.0844 -0.1033
 3296SOL    HW121524   0.489   2.870   8.759  1.3654  1.6112 -0.0972
 3296SOL    HW221525   0.367   2.855   8.673 -1.1233  2.0539 -2.6326
 3297SOL     OW21526   3.943   2.225   5.556 -0.9433 -0.4433  0.3589
 3297SOL    HW121527   4.018   2.172   5.528 -2.5681 -3.4392  1.6826
 3297SOL    HW221528   3.974   2.293   5.615  3.5250 -2.5477  0.3792
 3298SOL     OW21529   1.978   0.709   3.000 -0.3399  0.0374  0.5624
 3298SOL    HW121530   1.902   0.743   2.952  0.9558  1.5953 -0.3669
 3298SOL    HW221531   1.934   0.673   3.077 -1.3696 -0.9939 -0.4940
 3299SOL     OW21532   4.176   3.067   2.545 -0.2169  0.2833 -0.3195
 3299SOL    HW121533   4.221   2.983   2.530 -0.6963 -0.0387  0.0141
 3299SOL    HW221534   4.171   3.073   2.641  0.6816 -1.3277 -0.1529
 3300SOL     OW21535   2.452   1.778   6.758  0.1083  0.6416 -0.0312
 3300SOL    HW121536   2.431   1.723   6.682  0.1189  1.6713 -0.7844
 3300SOL    HW221537   2.522   1.720   6.787  0.5304  2.6405  3.0005
 3301SOL     OW21538   3.730   3.023  16.254  0.5107 -0.6960 -0.2272
 3301SOL    HW121539   3.697   2.935  16.236 -2.3079  0.1191  1.1169
 3301SOL    HW221540   3.749   3.053  16.165 -0.9001  1.0209  0.0506
 3302SOL     OW21541   4.692   3.220   3.394  0.5773 -0.5696  0.0665
 3302SOL    HW121542   0.004   3.210   3.314  1.2523 -0.2928  0.4574
 3302SOL    HW221543   4.725   3.301   3.432 -1.0983 -0.6892  1.7757
 3303SOL     OW21544   1.968   2.056   2.295  0.2993 -0.2521  0.1938
 3303SOL    HW121545   2.024   2.134   2.294 -0.0253 -0.0195  0.1565
 3303SOL    HW221546   2.033   1.995   2.329  1.7402  0.6841 -0.8937
 3304SOL     OW21547   1.583   4.489  15.420  0.0842  0.2226  0.2560
 3304SOL    HW121548   1.593   4.574  15.376  0.8737  0.7262  1.3968
 3304SOL    HW221549   1.554   4.425  15.355  2.8057 -0.2067 -0.4963
 3305SOL     OW21550   3.720   4.285  11.042 -0.3289 -0.3078  0.3183
 3305SOL    HW121551   3.789   4.238  11.088  0.1797  1.1619  1.0391
 3305SOL    HW221552   3.769   4.344  10.985  0.6063  1.5052  2.9972
 3306SOL     OW21553   0.993   1.710   0.176  0.4704  0.2991 -0.2702
 3306SOL    HW121554   0.959   1.632   0.219  0.1356  1.5418  1.7301
 3306SOL    HW221555   1.029   1.665   0.100 -1.9336 -0.7827 -0.7608
 3307SOL     OW21556   1.652   0.240   3.109 -0.6399 -0.4980  0.1791
 3307SOL    HW121557   1.692   0.269   3.028 -0.6572 -1.1518 -0.0672
 3307SOL    HW221558   1.625   0.149   3.095  0.8528 -0.9308  0.0878
 3308SOL     OW21559   0.272   3.489  10.038 -0.6551  0.0271  0.1766
 3308SOL    HW121560   0.312   3.413  10.080 -0.1389  0.6775  0.8689
 3308SOL    HW221561   0.300   3.566  10.089  0.0058  0.0129 -0.1767
 3309SOL     OW21562   0.755   1.761   9.995  0.3243  0.1002 -0.0362
 3309SOL    HW121563   0.838   1.805   9.976  0.3763  0.4646  1.0353
 3309SOL    HW221564   0.732   1.793  10.082 -1.2327 -2.5918  0.5500
 3310SOL     OW21565   3.974   2.881  16.279  0.2635  0.5627  0.3965
 3310SOL    HW121566   3.961   2.849  16.368  1.2373 -2.1786 -0.4728
 3310SOL    HW221567   3.888   2.923  16.269 -0.1345 -0.6680 -1.2358
 3311SOL     OW21568   1.358   1.973   2.922  0.5152 -0.3424 -0.4487
 3311SOL    HW121569   1.303   1.990   2.846  0.0058 -0.0771 -0.0203
 3311SOL    HW221570   1.448   1.982   2.890  0.7317 -3.1868 -0.6601
 3312SOL     OW21571   1.138   2.815   9.507 -0.4109  0.2999 -0.5644
 3312SOL    HW121572   1.046   2.791   9.503 -0.5729  1.0092 -1.0612
 3312SOL    HW221573   1.159   2.761   9.583  1.0983  0.5290 -0.8027
 3313SOL     OW21574   0.354   3.699  10.240 -0.5897  0.2716 -0.1789
 3313SOL    HW121575   0.267   3.705  10.280 -0.5115 -1.6048  0.2454
 3313SOL    HW221576   0.406   3.699  10.320 -2.0759 -0.5708  0.7854
 3314SOL     OW21577   4.629   1.961   3.087  0.4647 -0.2443  0.3126
 3314SOL    HW121578   4.651   1.912   3.166  0.0174 -1.3141 -0.2257
 3314SOL    HW221579   4.534   1.967   3.098  0.2841  0.6646 -1.8886
 3315SOL     OW21580   0.716   2.728   3.120 -0.5014  0.0050  0.6063
 3315SOL    HW121581   0.765   2.809   3.105 -0.1767  0.2433  3.0940
 3315SOL    HW221582   0.788   2.666   3.128 -0.8590 -0.8836 -2.9427
 3316SOL     OW21583   4.600   1.029   6.591  0.2796 -0.0533 -0.4248
 3316SOL    HW121584   4.523   0.974   6.574  0.6070  0.3171 -3.1033
 3316SOL    HW221585   4.571   1.115   6.561  0.2498  0.1562  0.2185
 3317SOL     OW21586   3.617   0.510   7.741 -0.4782 -0.0519 -0.2353
 3317SOL    HW121587   3.535   0.540   7.780  0.2550 -0.1327  1.3859
 3317SOL    HW221588   3.681   0.562   7.790 -0.5090  0.1245 -0.3839
 3318SOL     OW21589   1.667   0.892   7.845 -0.1701 -0.0704 -0.2445
 3318SOL    HW121590   1.576   0.910   7.820 -0.4670  1.3612  1.9651
 3318SOL    HW221591   1.661   0.801   7.874  2.3840  0.2801  1.3751
 3319SOL     OW21592   0.977   4.404   7.884 -0.0640 -0.3592 -0.4286
 3319SOL    HW121593   0.964   4.408   7.979 -0.1022 -1.4402 -0.3859
 3319SOL    HW221594   0.923   4.482   7.868 -0.7057 -0.5116  0.9728
 3320SOL     OW21595   3.831   4.719   4.117  0.0405 -0.0081  0.1009
 3320SOL    HW121596   3.886   4.701   4.040 -1.1095  0.9516 -0.9349
 3320SOL    HW221597   3.882   0.054   4.151  0.9582 -0.3611 -0.4897
 3321SOL     OW21598   3.013   3.709   8.724 -0.2609  0.2577  0.7029
 3321SOL    HW121599   2.994   3.622   8.760 -2.5831  0.2734 -0.5143
 3321SOL    HW221600   2.925   3.744   8.711  0.4173  2.0368  0.9415
 3322SOL     OW21601   1.576   3.818   9.620 -0.1437 -0.0446 -0.3971
 3322SOL    HW121602   1.648   3.822   9.683  1.5284 -0.4442 -2.3083
 3322SOL    HW221603   1.622   3.854   9.544  1.6143 -1.5925 -0.0496
 3323SOL     OW21604   3.214   2.801   3.982  0.5672  0.2770  0.4633
 3323SOL    HW121605   3.295   2.811   4.032  0.8972 -1.0130  0.1814
 3323SOL    HW221606   3.179   2.890   3.993  0.5324 -0.0081  2.5426
 3324SOL     OW21607   0.996   0.685   0.377  0.3070 -0.1455 -0.2754
 3324SOL    HW121608   0.913   0.730   0.361  0.2977  0.2026  0.7553
 3324SOL    HW221609   0.980   0.636   0.457 -0.6552 -0.9966 -0.9865
 3325SOL     OW21610   0.241   0.846   1.808  0.2879  0.1897  0.6491
 3325SOL    HW121611   0.240   0.778   1.740  1.1284  0.6357  0.1806
 3325SOL    HW221612   0.318   0.897   1.783  0.9777 -0.4825  1.4321
 3326SOL     OW21613   3.967   0.276  17.635 -0.0650 -0.0956  0.9597
 3326SOL    HW121614   3.914   0.346  17.675  0.6412  1.4244 -0.7807
 3326SOL    HW221615   4.040   0.269  17.696  0.1415  1.1409  0.8502
 3327SOL     OW21616   2.863   0.784  16.147  0.1558  0.2685  0.6202
 3327SOL    HW121617   2.895   0.763  16.235 -1.1442 -4.2437 -0.0318
 3327SOL    HW221618   2.903   0.715  16.094  0.4475 -0.2637  1.5226
 3328SOL     OW21619   3.755   0.565   3.767 -0.2099  0.1209 -0.6405
 3328SOL    HW121620   3.834   0.519   3.794 -1.1805 -1.6912 -0.8514
 3328SOL    HW221621   3.686   0.498   3.771 -0.4246  0.4512  1.0064
 3329SOL     OW21622   3.263   1.511   8.774 -0.3295  0.0586  0.1408
 3329SOL    HW121623   3.232   1.477   8.690 -0.9956  0.6825  0.1318
 3329SOL    HW221624   3.316   1.436   8.798  1.6216  1.8243  1.3716
 3330SOL     OW21625   0.600   1.631   2.211 -0.5651  0.5999  0.8040
 3330SOL    HW121626   0.520   1.661   2.253 -0.1800  1.3285  1.0178
 3330SOL    HW221627   0.615   1.560   2.273 -0.5955 -0.0517  0.0654
 3331SOL     OW21628   2.832   4.040  10.081  0.0730 -0.6053  0.0016
 3331SOL    HW121629   2.775   3.984  10.028  3.3238 -2.3752 -1.5468
 3331SOL    HW221630   2.797   4.126  10.058  0.4050 -0.8301 -1.3398
 3332SOL     OW21631   1.326   1.517   3.526  0.8183 -0.1549  0.3166
 3332SOL    HW121632   1.374   1.574   3.465 -2.5427  2.6273  0.2420
 3332SOL    HW221633   1.291   1.454   3.463  0.2023 -1.3764  1.8781
 3333SOL     OW21634   1.305   2.356   8.396 -0.3252  0.0888 -0.2868
 3333SOL    HW121635   1.324   2.372   8.304 -0.1930 -0.8992 -0.4259
 3333SOL    HW221636   1.212   2.377   8.404  0.3011  1.5742  3.4125
 3334SOL     OW21637   4.291   1.043  17.471  0.0340 -0.0972  0.1574
 3334SOL    HW121638   4.311   1.104  17.542  0.5443 -1.0418  0.8222
 3334SOL    HW221639   4.380   1.009  17.464  0.2864  1.3077 -3.2614
 3335SOL     OW21640   0.218   0.785   5.710 -0.9061  0.6345  0.1826
 3335SOL    HW121641   0.153   0.716   5.696  1.3717 -1.3664 -0.7485
 3335SOL    HW221642   0.186   0.802   5.799 -1.1275 -0.1063  0.2476
 3336SOL     OW21643   4.490   4.292  11.942 -0.3187  0.1464  1.0685
 3336SOL    HW121644   4.484   4.319  12.034  0.4735  0.3572  1.0646
 3336SOL    HW221645   4.586   4.281  11.940 -0.5520 -1.6941 -0.0796
 3337SOL     OW21646   3.400   0.968   7.536 -0.4633  0.5742  0.1927
 3337SOL    HW121647   3.339   0.955   7.463  0.2267 -0.1430 -0.2485
 3337SOL    HW221648   3.416   0.877   7.559  1.2519  1.2146  1.5027
 3338SOL     OW21649   0.435   2.693   4.265 -0.0651  0.5420  0.1692
 3338SOL    HW121650   0.489   2.676   4.188  0.4240 -2.6675  1.2115
 3338SOL    HW221651   0.359   2.637   4.250  0.9562 -0.7287 -0.2803
 3339SOL     OW21652   2.193   4.728   3.476 -0.8317 -0.0914 -0.1299
 3339SOL    HW121653   2.149   0.038   3.545  2.2856  3.1816 -0.3951
 3339SOL    HW221654   2.283   0.013   3.502 -0.4666  1.3527 -2.7330
 3340SOL     OW21655   2.556   4.072   9.830  0.4253 -0.3142  0.7256
 3340SOL    HW121656   2.563   4.015   9.906  2.0240 -1.9348 -0.6574
 3340SOL    HW221657   2.603   4.148   9.864  1.8197 -0.8522  0.0018
 3341SOL     OW21658   2.410   3.412  10.711 -0.5598  0.6454  0.4682
 3341SOL    HW121659   2.373   3.361  10.783 -1.5196 -1.6045 -1.6177
 3341SOL    HW221660   2.383   3.498  10.744  1.6260  1.3072  0.5257
 3342SOL     OW21661   0.956   2.531   6.815  0.1602  0.0154  0.3922
 3342SOL    HW121662   0.912   2.476   6.750  4.0538 -0.6017 -1.7042
 3342SOL    HW221663   0.948   2.482   6.897 -2.6909 -1.9689 -1.0499
 3343SOL     OW21664   2.792   3.467   9.679 -0.3477 -0.2174 -0.2306
 3343SOL    HW121665   2.879   3.445   9.645 -0.2716  2.6602 -1.9182
 3343SOL    HW221666   2.800   3.560   9.701  0.9523 -0.3505 -0.1346
 3344SOL     OW21667   0.916   2.381   1.190 -0.3501  0.1833 -0.5482
 3344SOL    HW121668   0.950   2.433   1.118 -1.4094  0.6038 -0.7461
 3344SOL    HW221669   0.895   2.458   1.244 -1.1697 -1.7298  1.8620
 3345SOL     OW21670   2.964   0.284   7.354 -0.2225  0.3997  0.2489
 3345SOL    HW121671   2.889   0.250   7.403  1.3789 -1.0131  1.7081
 3345SOL    HW221672   2.924   0.367   7.328 -1.3598 -0.1673  0.2120
 3346SOL     OW21673   3.055   2.582   6.039 -0.3687  0.1943  0.2021
 3346SOL    HW121674   3.076   2.573   5.946 -0.2851 -3.6561  0.5650
 3346SOL    HW221675   3.140   2.584   6.081  0.6285  0.4884 -1.8307
 3347SOL     OW21676   2.758   3.220  15.436 -0.2290  0.7034 -0.5646
 3347SOL    HW121677   2.781   3.133  15.470  0.6471  1.4650  0.8018
 3347SOL    HW221678   2.842   3.260  15.411  1.0467 -1.1566  0.6832
 3348SOL     OW21679   4.556   2.356   5.468  0.3801 -0.1295 -0.1435
 3348SOL    HW121680   4.561   2.306   5.550  1.8219  0.2173 -0.0175
 3348SOL    HW221681   4.608   2.303   5.408  0.0263  0.0968 -0.6508
 3349SOL     OW21682   2.714   3.339  15.997 -0.4868 -0.7817 -0.7373
 3349SOL    HW121683   2.705   3.290  15.915 -0.8646 -0.7614 -0.7058
 3349SOL    HW221684   2.726   3.269  16.062  1.9521 -0.7472 -1.1570
 3350SOL     OW21685   3.687   1.673  17.477  0.1053 -1.0460 -0.0322
 3350SOL    HW121686   3.766   1.672  17.530  0.8749 -0.8554 -1.1707
 3350SOL    HW221687   3.624   1.648  17.544 -1.0285 -0.3799 -0.8360
 3351SOL     OW21688   0.300   0.484   5.177 -1.0987 -0.4349  0.2028
 3351SOL    HW121689   0.349   0.479   5.095 -0.9903 -0.7422  0.2869
 3351SOL    HW221690   0.275   0.394   5.197 -0.2624 -0.6399  0.3096
 3352SOL     OW21691   1.110   1.881   1.641  0.2004 -0.0342 -0.5798
 3352SOL    HW121692   1.133   1.970   1.613  1.0093  0.1619  0.7472
 3352SOL    HW221693   1.041   1.893   1.706  0.8495  2.0540 -0.2775
 3353SOL     OW21694   0.820   1.111  16.707 -0.2611 -0.0495 -0.4119
 3353SOL    HW121695   0.802   1.135  16.798  1.1116 -1.5551  0.2565
 3353SOL    HW221696   0.838   1.195  16.664 -0.9226  1.3607  2.0470
 3354SOL     OW21697   3.792   4.163   3.534 -0.4678 -0.4061  0.2868
 3354SOL    HW121698   3.826   4.233   3.589 -0.4993 -0.6679  0.6395
 3354SOL    HW221699   3.699   4.185   3.538 -0.2558  0.7798 -1.5002
 3355SOL     OW21700   3.584   2.662  10.073  0.1766 -0.2957  0.2726
 3355SOL    HW121701   3.520   2.595  10.095  0.1569 -0.2370  0.3944
 3355SOL    HW221702   3.554   2.684   9.985 -0.2391 -1.4763  0.1179
 3356SOL     OW21703   2.535   1.729   2.229 -0.0545 -0.4437 -0.3466
 3356SOL    HW121704   2.628   1.743   2.249 -0.6548  0.9734  1.5165
 3356SOL    HW221705   2.501   1.710   2.316  1.2309 -3.1486 -0.4337
 3357SOL     OW21706   0.106   0.934   7.133 -0.3161  0.2555 -0.1228
 3357SOL    HW121707   0.050   0.954   7.058 -0.1660 -1.0912 -0.5840
 3357SOL    HW221708   0.043   0.904   7.199 -1.9887  1.9475 -0.9642
 3358SOL     OW21709   0.949   4.409  15.325  0.3755 -0.1835 -0.4082
 3358SOL    HW121710   0.914   4.332  15.281  0.2970  0.9734 -2.3971
 3358SOL    HW221711   1.036   4.428  15.288 -0.1680  2.5344 -0.3408
 3359SOL     OW21712   0.938   3.520   6.942 -0.2575 -0.3068 -0.1915
 3359SOL    HW121713   0.998   3.470   6.998  0.4794 -0.4963 -1.1482
 3359SOL    HW221714   1.008   3.580   6.916  0.2285 -1.2495 -1.0597
 3360SOL     OW21715   2.669   0.215  16.445  0.2015 -0.1278 -0.1979
 3360SOL    HW121716   2.666   0.149  16.514 -1.1996 -1.4184 -1.5049
 3360SOL    HW221717   2.642   0.170  16.365  1.6029 -1.6269  0.1647
 3361SOL     OW21718   4.725   1.193  15.632  0.2045  0.0578  0.0604
 3361SOL    HW121719   4.725   1.275  15.583 -0.2833 -1.3360 -2.2628
 3361SOL    HW221720   4.631   1.177  15.636 -0.3424  3.4472  0.9577
 3362SOL     OW21721   3.552   2.498   8.545  0.3627 -1.3214 -0.6745
 3362SOL    HW121722   3.516   2.412   8.523  0.2181 -1.8981  1.8055
 3362SOL    HW221723   3.549   2.494   8.641 -2.3042  2.2086 -0.5828
 3363SOL     OW21724   2.384   0.257   3.187 -0.6352  0.1072  0.0480
 3363SOL    HW121725   2.394   0.237   3.280 -1.0173 -0.5612 -0.0597
 3363SOL    HW221726   2.331   0.337   3.195  0.9729  1.1536  0.1973
 3364SOL     OW21727   3.548   2.113   5.919  0.0542  0.5116  0.3036
 3364SOL    HW121728   3.479   2.071   5.971  0.9005 -0.1418  0.9038
 3364SOL    HW221729   3.632   2.107   5.964  0.4145 -0.4705 -0.5027
 3365SOL     OW21730   0.219   3.126  10.206 -0.4840  0.2315 -0.1849
 3365SOL    HW121731   0.181   3.044  10.237 -1.4733  0.0142 -1.9433
 3365SOL    HW221732   0.139   3.154  10.162 -0.5008  1.6283  0.7507
 3366SOL     OW21733   1.962   1.797   5.665 -1.0608 -0.2674 -0.0248
 3366SOL    HW121734   1.897   1.735   5.634 -1.1126 -1.7931  3.1370
 3366SOL    HW221735   1.911   1.869   5.702  0.7133  1.4842 -0.9761
 3367SOL     OW21736   0.999   3.436  14.760 -0.1554 -0.3201  0.0718
 3367SOL    HW121737   1.056   3.438  14.683 -0.6497  0.0836 -0.2870
 3367SOL    HW221738   0.987   3.531  14.770 -2.6463 -0.8540  2.1762
 3368SOL     OW21739   1.303   4.625   5.728  0.2565 -0.5366  0.4812
 3368SOL    HW121740   1.366   4.654   5.794  0.1532  1.1360 -0.1549
 3368SOL    HW221741   1.232   4.689   5.724 -1.1757 -2.0254  2.0262
 3369SOL     OW21742   3.658   1.162  11.954  0.0171 -0.1814  0.5049
 3369SOL    HW121743   3.751   1.176  11.973  0.4562 -2.0938 -0.1926
 3369SOL    HW221744   3.656   1.070  11.982  0.1145 -0.2321  0.3491
 3370SOL     OW21745   3.873   1.845  10.076 -0.1802  0.5697 -0.0102
 3370SOL    HW121746   3.816   1.785  10.124 -0.2468 -1.4508 -2.6174
 3370SOL    HW221747   3.821   1.870   9.999  0.8662 -0.0854 -0.9396
 3371SOL     OW21748   0.953   2.241   5.370 -0.1902 -0.4163 -0.5503
 3371SOL    HW121749   0.929   2.328   5.338  2.5615 -0.5202 -2.9915
 3371SOL    HW221750   1.044   2.265   5.386 -1.0889  1.8537  1.1968
 3372SOL     OW21751   2.672   1.078   9.639  0.1221  0.2305  0.4575
 3372SOL    HW121752   2.746   1.135   9.658 -0.4377  0.2659  2.4614
 3372SOL    HW221753   2.638   1.124   9.562  0.7897  1.4659  0.9041
 3373SOL     OW21754   0.416   4.316   1.819  0.0929  0.4921 -0.1507
 3373SOL    HW121755   0.434   4.287   1.730 -0.2243 -1.4284  0.4264
 3373SOL    HW221756   0.440   4.409   1.818  1.7049  0.0810  2.6105
 3374SOL     OW21757   4.528   0.272  10.891  0.7051  0.1283  0.2373
 3374SOL    HW121758   4.565   0.356  10.918 -2.2638  1.6472 -0.4901
 3374SOL    HW221759   4.441   0.283  10.929  0.4911  0.9740 -0.5259
 3375SOL     OW21760   1.749   1.704   1.108  0.5438  0.3141 -0.7166
 3375SOL    HW121761   1.762   1.612   1.130  0.0345  0.7619  1.4067
 3375SOL    HW221762   1.832   1.744   1.133 -0.4239  0.6054  2.0730
 3376SOL     OW21763   0.566   4.499   1.545 -0.1413 -0.1158 -0.1370
 3376SOL    HW121764   0.621   4.550   1.604  2.8485 -2.7817 -0.6706
 3376SOL    HW221765   0.572   4.415   1.590 -1.1618 -2.2419 -3.9191
 3377SOL     OW21766   1.502   4.149   9.480  0.2339  0.0827 -0.1726
 3377SOL    HW121767   1.521   4.096   9.402 -0.4987  0.5925 -0.6973
 3377SOL    HW221768   1.417   4.187   9.456  0.2594  1.3869  1.7965
 3378SOL     OW21769   0.392   1.278   9.521 -0.1046 -0.4264 -0.3454
 3378SOL    HW121770   0.413   1.328   9.443 -1.3038 -0.1193 -0.4680
 3378SOL    HW221771   0.297   1.279   9.533  0.2767  2.3353  2.5992
 3379SOL     OW21772   0.273   2.813  13.690 -0.3700  0.7622 -0.5305
 3379SOL    HW121773   0.219   2.892  13.692 -2.7877 -0.9308  0.5540
 3379SOL    HW221774   0.257   2.789  13.599 -3.3998  3.4321 -0.7053
 3380SOL     OW21775   3.790   0.662  13.913 -0.2729  0.5968  0.1128
 3380SOL    HW121776   3.763   0.752  13.933 -2.4523  0.4341 -2.1218
 3380SOL    HW221777   3.757   0.668  13.823 -0.7389 -0.7407  0.2033
 3381SOL     OW21778   0.950   4.212   3.408 -0.5615  0.7290 -0.3142
 3381SOL    HW121779   0.907   4.128   3.426 -1.0612  1.2741  0.9884
 3381SOL    HW221780   0.904   4.268   3.470  0.8315 -0.2448  1.5850
 3382SOL     OW21781   0.398   4.275   0.596 -0.4182 -0.2854 -0.0793
 3382SOL    HW121782   0.428   4.266   0.687 -0.4166 -0.4827 -0.1012
 3382SOL    HW221783   0.369   4.366   0.602 -0.6698 -0.4148  0.7097
 3383SOL     OW21784   1.400   0.281   9.503  0.1800 -0.0325 -0.0480
 3383SOL    HW121785   1.405   0.211   9.567  0.7971  1.9382  2.0767
 3383SOL    HW221786   1.481   0.260   9.455 -0.7631  0.6015 -1.9197
 3384SOL     OW21787   0.908   4.272  15.593  0.3538  0.2921  0.0168
 3384SOL    HW121788   0.940   4.325  15.666 -0.5867  0.5443  0.2468
 3384SOL    HW221789   0.916   4.335  15.521  0.6656  1.2553  0.9075
 3385SOL     OW21790   1.496   4.404   2.807 -0.0133  0.3423 -1.1930
 3385SOL    HW121791   1.484   4.321   2.760  0.6544 -1.1070  1.1849
 3385SOL    HW221792   1.435   4.466   2.768  0.5471  2.7929  1.7881
 3386SOL     OW21793   4.164   2.787  15.610 -0.5998  0.2551 -0.5414
 3386SOL    HW121794   4.118   2.760  15.690 -0.0091  0.8397 -0.0089
 3386SOL    HW221795   4.160   2.882  15.617  1.5862  0.2729  0.3844
 3387SOL     OW21796   0.102   0.633   4.208  0.2391 -0.4420 -0.3243
 3387SOL    HW121797   0.050   0.661   4.283  0.8552 -0.6046  0.1612
 3387SOL    HW221798   0.065   0.694   4.145 -0.8490 -1.9122 -1.1012
 3388SOL     OW21799   1.701   3.059  15.482  0.4184  0.9822 -0.0429
 3388SOL    HW121800   1.733   2.973  15.457 -0.0804  0.6567  0.4660
 3388SOL    HW221801   1.664   3.035  15.567 -0.1704 -0.4431 -0.7136
 3389SOL     OW21802   1.710   2.400   4.012  0.2854  0.0525  0.0722
 3389SOL    HW121803   1.706   2.495   4.010 -1.8523 -0.0448 -1.1933
 3389SOL    HW221804   1.754   2.379   3.930 -0.7084  1.0107 -0.7116
 3390SOL     OW21805   1.234   0.646   0.631  0.6572 -0.0007  0.0167
 3390SOL    HW121806   1.172   0.636   0.558 -0.2371 -0.2333  0.8087
 3390SOL    HW221807   1.217   0.736   0.658 -2.0048 -0.6701  0.6226
 3391SOL     OW21808   3.934   0.907   9.684  0.0371  0.2460  0.1744
 3391SOL    HW121809   3.979   0.946   9.609  0.0674 -0.1225 -0.0003
 3391SOL    HW221810   3.972   0.819   9.687 -0.8552 -0.1425 -0.0651
 3392SOL     OW21811   3.512   1.603  17.654  0.3831  0.6123  0.3878
 3392SOL    HW121812   3.484   1.674  17.712  1.1240 -1.3458  3.1422
 3392SOL    HW221813   3.427   1.560  17.645 -0.2524  2.2083 -1.3550
 3393SOL     OW21814   2.267   2.556   6.588 -0.5532 -0.1490  0.3951
 3393SOL    HW121815   2.311   2.583   6.668 -3.4558  2.3096  1.1900
 3393SOL    HW221816   2.273   2.639   6.540 -1.1292  0.2936  1.0918
 3394SOL     OW21817   2.428   1.539   7.817 -0.6407 -0.0788  0.0932
 3394SOL    HW121818   2.524   1.536   7.827 -0.4498 -1.9024 -2.4289
 3394SOL    HW221819   2.397   1.479   7.884 -1.7490 -1.3869 -1.5807
 3395SOL     OW21820   1.207   4.236  10.104 -0.3297 -0.0118 -0.5225
 3395SOL    HW121821   1.145   4.170  10.136 -1.2243  2.5829  3.0480
 3395SOL    HW221822   1.281   4.176  10.095 -0.4141 -0.3375  0.9446
 3396SOL     OW21823   0.239   4.562   4.161 -0.5483  0.3145  0.8430
 3396SOL    HW121824   0.287   4.481   4.144  0.4842  0.8713  1.0835
 3396SOL    HW221825   0.173   4.553   4.092  0.3605 -3.5937  0.4801
 3397SOL     OW21826   1.076   1.147  14.005  0.5387  0.2697 -0.5828
 3397SOL    HW121827   1.143   1.079  13.993  0.2454 -0.1940  0.3933
 3397SOL    HW221828   1.085   1.158  14.100  3.3822  0.5040 -0.8701
 3398SOL     OW21829   4.450   0.155  10.651  0.1610 -0.1650  0.3527
 3398SOL    HW121830   4.482   0.197  10.731  0.6839  1.0770 -0.5145
 3398SOL    HW221831   4.496   0.215  10.592 -1.4101  1.0770  0.3946
 3399SOL     OW21832   3.050   1.507  16.942 -0.1625  0.1139  0.4533
 3399SOL    HW121833   3.068   1.414  16.924 -2.9242 -0.7441  2.1778
 3399SOL    HW221834   2.992   1.498  17.018  0.4230  1.0869  1.0145
 3400SOL     OW21835   4.610   3.358   1.727  0.1987 -0.1615  0.0681
 3400SOL    HW121836   4.661   3.290   1.771  1.0827  0.3275 -0.2049
 3400SOL    HW221837   4.595   3.411   1.805 -3.6614  0.3977 -1.0273
 3401SOL     OW21838   2.257   3.166   2.312  0.7219 -0.4666  0.3295
 3401SOL    HW121839   2.245   3.141   2.220  0.1253  0.7180  0.0861
 3401SOL    HW221840   2.181   3.222   2.323  0.1737 -1.4792  1.5995
 3402SOL     OW21841   4.085   2.211   1.324 -0.4382 -0.2474  0.0344
 3402SOL    HW121842   4.094   2.233   1.231 -1.1277  3.2984  0.8003
 3402SOL    HW221843   4.004   2.160   1.323  0.0056 -0.9355 -0.4286
 3403SOL     OW21844   0.816   0.968   2.874  0.3821  0.0435  0.2939
 3403SOL    HW121845   0.892   1.004   2.921  1.3978 -2.5050  0.5709
 3403SOL    HW221846   0.792   0.890   2.924  2.6586 -2.6210 -2.8634
 3404SOL     OW21847   2.513   3.194   3.493 -0.3044  0.7996  0.4156
 3404SOL    HW121848   2.490   3.120   3.548  1.2304 -0.0130 -0.0292
 3404SOL    HW221849   2.595   3.224   3.532  0.5265  1.7017 -1.9610
 3405SOL     OW21850   0.865   0.929   5.923 -0.0919  0.0713 -1.0065
 3405SOL    HW121851   0.806   0.997   5.890  0.1247  1.8538  2.2833
 3405SOL    HW221852   0.926   0.926   5.850  0.6775 -0.7878 -0.3287
 3406SOL     OW21853   0.940   2.980   3.786  0.2447 -0.2425  0.0250
 3406SOL    HW121854   0.847   2.984   3.765 -0.0926  1.0442  1.8252
 3406SOL    HW221855   0.979   3.011   3.703 -1.4807  0.8519 -0.3763
 3407SOL     OW21856   3.093   0.248   5.078  0.1682 -0.6045 -0.2233
 3407SOL    HW121857   3.030   0.175   5.073  1.4561 -1.6074 -1.5238
 3407SOL    HW221858   3.094   0.281   4.989  1.6640  1.2534  0.5023
 3408SOL     OW21859   0.089   2.664   8.039 -0.1924  0.7189  0.0562
 3408SOL    HW121860   0.086   2.740   8.097  0.4774  2.9226 -2.7911
 3408SOL    HW221861   0.162   2.626   8.087  0.8072  2.4116 -0.1382
 3409SOL     OW21862   1.765   4.535  10.815  0.1017 -0.3415 -0.5006
 3409SOL    HW121863   1.798   4.616  10.776  0.2149  0.2800  0.8677
 3409SOL    HW221864   1.735   4.483  10.741  0.0765  1.2378 -1.6151
 3410SOL     OW21865   2.640   2.914   4.208  0.4401 -0.3200  0.3446
 3410SOL    HW121866   2.663   2.992   4.258  0.7301 -0.1167 -0.1087
 3410SOL    HW221867   2.546   2.931   4.199  0.7444  0.9272 -0.4120
 3411SOL     OW21868   3.508   0.358  12.491  0.4142  0.5151  0.0379
 3411SOL    HW121869   3.446   0.358  12.419  0.6010 -0.0574 -0.1263
 3411SOL    HW221870   3.564   0.429  12.460 -0.2164 -0.0642 -2.3889
 3412SOL     OW21871   3.011   2.075   8.360  0.4835 -0.3635  0.0913
 3412SOL    HW121872   2.923   2.047   8.336  0.0100  0.9888  0.2945
 3412SOL    HW221873   2.994   2.121   8.442  1.7829 -0.5572  0.4763
 3413SOL     OW21874   2.049   4.325  14.599 -0.0625  0.0248 -0.5791
 3413SOL    HW121875   2.100   4.256  14.557  1.4582 -0.6041  2.3383
 3413SOL    HW221876   1.977   4.279  14.643 -0.6468  1.3870 -0.1185
 3414SOL     OW21877   1.489   2.419   7.683  0.6280 -0.2402  0.8000
 3414SOL    HW121878   1.523   2.444   7.597  2.2574 -4.0386  0.3526
 3414SOL    HW221879   1.494   2.324   7.688 -0.1010 -0.1903  2.4172
 3415SOL     OW21880   3.204   4.567   3.481  0.1975 -1.2918 -0.0871
 3415SOL    HW121881   3.197   4.624   3.558  0.6499 -0.7902 -0.4189
 3415SOL    HW221882   3.163   4.487   3.514  0.2665 -0.5677  1.7716
 3416SOL     OW21883   2.059   0.441   2.163 -0.8832 -0.1410 -0.1498
 3416SOL    HW121884   2.102   0.436   2.248 -1.7780  0.2242  0.3246
 3416SOL    HW221885   2.133   0.452   2.103  0.7477  0.3442  1.9486
 3417SOL     OW21886   3.401   2.549   6.465  0.0143 -0.0161  0.2604
 3417SOL    HW121887   3.431   2.619   6.523  2.1652 -2.4971  2.0951
 3417SOL    HW221888   3.450   2.476   6.500  1.8410  0.8638 -0.4594
 3418SOL     OW21889   2.374   4.379   9.152  0.4481  0.2863 -0.1061
 3418SOL    HW121890   2.362   4.285   9.163  2.0454 -0.0214 -1.0289
 3418SOL    HW221891   2.422   4.406   9.230  1.8774 -1.8988 -0.2496
 3419SOL     OW21892   0.879   4.244  15.126 -0.9624 -0.5902 -0.0025
 3419SOL    HW121893   0.954   4.203  15.167  0.2256 -1.6973 -3.2517
 3419SOL    HW221894   0.803   4.210  15.172 -1.9712  1.4057 -0.1567
 3420SOL     OW21895   0.543   0.715   6.869  0.2996 -0.1370  0.4402
 3420SOL    HW121896   0.465   0.751   6.911  0.9683 -0.9681  2.3726
 3420SOL    HW221897   0.616   0.699   6.929  0.2181 -1.6414  0.1415
 3421SOL     OW21898   3.232   3.693   8.124  0.1428  0.0048  0.5009
 3421SOL    HW121899   3.234   3.629   8.052  0.0790 -1.1755  1.5348
 3421SOL    HW221900   3.172   3.653   8.187 -0.3900 -1.4034 -0.8907
 3422SOL     OW21901   0.974   1.021  16.501  0.0509 -0.0228  0.7125
 3422SOL    HW121902   0.926   1.030  16.583  1.0162  1.5416  1.0999
 3422SOL    HW221903   0.939   0.935  16.475 -0.3438  0.3077  0.1422
 3423SOL     OW21904   0.397   1.566   6.916  0.1346  0.1484 -0.0500
 3423SOL    HW121905   0.444   1.488   6.944 -3.3339 -1.6338  0.8567
 3423SOL    HW221906   0.380   1.548   6.823 -0.9534 -0.6187  0.3006
 3424SOL     OW21907   0.359   4.248   2.582  0.3319  0.4530 -0.5824
 3424SOL    HW121908   0.288   4.243   2.517 -0.5398  1.0168  0.3162
 3424SOL    HW221909   0.374   4.162   2.620  2.2850  1.1760  0.2742
 3425SOL     OW21910   1.478   0.162   3.418 -0.2520 -0.0493  0.1165
 3425SOL    HW121911   1.564   0.184   3.455 -0.4580  1.9108 -0.5765
 3425SOL    HW221912   1.431   0.245   3.424  0.4669  0.4733 -1.6441
 3426SOL     OW21913   1.292   0.830   4.125  0.3375  0.4815  0.2368
 3426SOL    HW121914   1.334   0.867   4.204 -0.2709  0.9735  0.3275
 3426SOL    HW221915   1.205   0.866   4.139 -0.5458 -1.8056  0.4528
 3427SOL     OW21916   0.914   4.035   6.318  0.0062 -0.5190 -0.1180
 3427SOL    HW121917   0.929   4.117   6.271 -1.1409 -1.1737 -1.6060
 3427SOL    HW221918   0.819   4.027   6.310  0.1368  0.1806 -2.2069
 3428SOL     OW21919   3.718   3.744  10.206  0.4465  0.6866  0.2430
 3428SOL    HW121920   3.676   3.708  10.284  1.0194 -0.4298  0.0376
 3428SOL    HW221921   3.678   3.685  10.142 -1.1635  0.6881  1.2577
 3429SOL     OW21922   2.563   0.404  15.822 -0.2873  0.5432  0.2443
 3429SOL    HW121923   2.525   0.482  15.782 -0.4152  1.3419  1.9275
 3429SOL    HW221924   2.557   0.343  15.748  0.9494  1.3759 -0.5513
 3430SOL     OW21925   0.901   0.682   9.268 -0.6896  0.0213 -0.0463
 3430SOL    HW121926   0.823   0.722   9.231  0.1577  1.1832 -0.5542
 3430SOL    HW221927   0.968   0.712   9.207  0.6488 -0.8251  0.9762
 3431SOL     OW21928   1.245   0.699   0.308  0.1905  0.6645  0.6985
 3431SOL    HW121929   1.245   0.790   0.278 -1.2416  1.5185  3.2207
 3431SOL    HW221930   1.152   0.694   0.334  0.0449 -1.2505 -0.1772
 3432SOL     OW21931   1.783   4.529   9.102 -0.4559 -0.1855 -0.0044
 3432SOL    HW121932   1.809   4.438   9.090  0.2296 -0.0416  0.3480
 3432SOL    HW221933   1.755   4.545   9.012 -1.6435  0.3651  0.4619
 3433SOL     OW21934   1.961   3.648   4.621  0.0413 -0.1490 -0.4504
 3433SOL    HW121935   1.986   3.651   4.528  0.7185 -1.1135 -0.3009
 3433SOL    HW221936   1.910   3.728   4.632 -0.3235 -0.7038  1.7757
 3434SOL     OW21937   1.899   4.334   9.706 -0.6394  0.2232  0.3747
 3434SOL    HW121938   1.814   4.293   9.720 -1.1077  1.8058  2.1847
 3434SOL    HW221939   1.878   4.427   9.696  0.1519  0.4494  0.8068
 3435SOL     OW21940   4.668   0.279  10.546  0.0472  0.1363 -0.1580
 3435SOL    HW121941   4.688   0.209  10.485 -2.4201 -1.3165  0.7097
 3435SOL    HW221942   4.611   0.337  10.494 -2.6264 -1.5024  0.9457
 3436SOL     OW21943   2.672   1.985  13.169 -0.2517 -0.0842 -0.1523
 3436SOL    HW121944   2.693   1.980  13.262 -0.1770  1.3500 -0.0891
 3436SOL    HW221945   2.684   1.894  13.141  2.8658  0.2637  0.1278
 3437SOL     OW21946   4.525   1.984  17.035 -0.2895  0.0211 -0.1314
 3437SOL    HW121947   4.526   2.019  16.945 -2.5289  0.9184  0.1879
 3437SOL    HW221948   4.497   2.063  17.082  1.8969 -0.1235  1.3966
 3438SOL     OW21949   3.599   4.088   4.504  0.3093  0.7214  0.4867
 3438SOL    HW121950   3.513   4.068   4.540  0.8670 -0.7198  1.0004
 3438SOL    HW221951   3.599   4.183   4.520 -2.4494  0.5351  1.5295
 3439SOL     OW21952   0.019   3.681   8.878  0.2467 -0.1957  0.0702
 3439SOL    HW121953   4.730   3.592   8.897  0.5283  0.3592  3.0788
 3439SOL    HW221954   0.107   3.675   8.916  0.2599 -1.7962 -0.2432
 3440SOL     OW21955   1.365   4.026   2.531  0.1812 -0.2800  0.1993
 3440SOL    HW121956   1.411   4.071   2.601 -0.0533  2.0507 -1.1365
 3440SOL    HW221957   1.303   3.972   2.580  2.3417 -1.8521  1.1723
 3441SOL     OW21958   2.465   4.492   2.980  0.0882  0.0875  0.2154
 3441SOL    HW121959   2.459   4.449   3.065 -0.6025 -0.1621  0.0439
 3441SOL    HW221960   2.439   4.581   3.005  0.1809 -0.0652  0.8526
 3442SOL     OW21961   4.220   4.117   4.716  0.3140 -0.1414 -0.3035
 3442SOL    HW121962   4.183   4.031   4.737  0.9617 -0.1429  0.8328
 3442SOL    HW221963   4.153   4.158   4.661  0.5997 -2.1387 -2.1382
 3443SOL     OW21964   3.737   4.310   5.064 -0.2611 -0.1374 -0.0054
 3443SOL    HW121965   3.685   4.375   5.017  1.0320 -0.5631 -2.0188
 3443SOL    HW221966   3.774   4.271   4.985  0.8053  1.1513 -0.1539
 3444SOL     OW21967   0.336   4.424   4.451  0.3023  0.0178 -0.3033
 3444SOL    HW121968   0.324   4.333   4.480  0.2752 -0.7179 -2.6016
 3444SOL    HW221969   0.322   4.416   4.356 -0.1713 -0.7046 -0.1744
 3445SOL     OW21970   0.466   2.491   5.345 -0.1888 -0.4477 -0.1110
 3445SOL    HW121971   0.492   2.460   5.258 -0.6564 -1.4712  0.1129
 3445SOL    HW221972   0.405   2.422   5.373 -0.2975 -0.5161 -0.5182
 3446SOL     OW21973   1.204   2.582   4.602  0.5909  0.2344 -0.0906
 3446SOL    HW121974   1.270   2.644   4.634  0.2495  1.0105 -0.9038
 3446SOL    HW221975   1.157   2.552   4.680  2.4489  0.5802  1.1543
 3447SOL     OW21976   3.218   3.427  11.615  0.0755 -0.3260  0.0992
 3447SOL    HW121977   3.239   3.361  11.681  0.2380 -1.6290 -1.2615
 3447SOL    HW221978   3.188   3.497  11.672  0.3293 -0.1601  0.0306
 3448SOL     OW21979   4.419   3.067  15.124  0.2939  0.0775  0.0842
 3448SOL    HW121980   4.357   3.073  15.051 -0.1771 -0.7902  0.4256
 3448SOL    HW221981   4.408   3.153  15.164 -0.3519  1.4054 -2.9491
 3449SOL     OW21982   0.780   3.380   9.282 -0.0931  0.0283  0.3899
 3449SOL    HW121983   0.730   3.442   9.230  0.7426 -1.8211 -2.6188
 3449SOL    HW221984   0.870   3.411   9.287  0.2766 -1.0634  0.5416
 3450SOL     OW21985   2.275   2.573   9.416  0.2783 -0.4158  0.3641
 3450SOL    HW121986   2.257   2.584   9.510  2.2792  0.0312  0.6966
 3450SOL    HW221987   2.334   2.498   9.424  1.8177  0.7166 -0.3987
 3451SOL     OW21988   2.613   4.647  15.496 -1.0077  0.4852 -0.3995
 3451SOL    HW121989   2.621   4.708  15.423 -1.4679  0.3767 -0.5422
 3451SOL    HW221990   2.680   4.582  15.474  1.4091  3.1628 -0.8805
 3452SOL     OW21991   1.337   2.097  17.567 -0.0878  0.4225  0.9117
 3452SOL    HW121992   1.244   2.101  17.543 -0.0180  0.9502  0.7288
 3452SOL    HW221993   1.340   2.061  17.656 -1.1724 -0.9807  0.3811
 3453SOL     OW21994   0.614   1.316   2.752  0.0517  0.4201  0.3283
 3453SOL    HW121995   0.658   1.399   2.733  0.2128  1.1064  3.7164
 3453SOL    HW221996   0.682   1.255   2.724 -0.6648  0.4910 -1.6293
 3454SOL     OW21997   4.536   1.588   1.763 -0.2902  0.0217 -0.4147
 3454SOL    HW121998   4.547   1.639   1.683 -0.0968  0.2019 -0.2709
 3454SOL    HW221999   4.480   1.653   1.805 -0.6881  0.0751 -1.0134
 3455SOL     OW22000   2.416   1.191   8.807 -0.2653 -0.3446 -0.4861
 3455SOL    HW122001   2.399   1.103   8.841 -0.3930  0.1041  0.6284
 3455SOL    HW222002   2.507   1.172   8.787 -0.0293 -0.4227  0.6148
 3456SOL     OW22003   0.912   0.450   6.906  0.1634  0.1779 -0.1664
 3456SOL    HW122004   0.939   0.389   6.838 -1.0858 -0.5814  0.0131
 3456SOL    HW222005   0.839   0.405   6.950 -0.3044  1.1806  0.0872
 3457SOL     OW22006   2.513   0.407  16.580 -0.1619  0.4017  0.5385
 3457SOL    HW122007   2.541   0.478  16.521  2.0658  0.3989  1.5979
 3457SOL    HW222008   2.569   0.342  16.538 -1.0815 -2.1180  3.2917
 3458SOL     OW22009   2.738   4.595   8.583 -0.0636 -0.3996  0.4718
 3458SOL    HW122010   2.750   4.649   8.506  1.0909  1.7091  2.1277
 3458SOL    HW222011   2.819   4.544   8.572  0.1433  0.5825 -2.3487
 3459SOL     OW22012   1.311   1.341   0.600 -0.1068  0.0279 -0.4957
 3459SOL    HW122013   1.385   1.368   0.545  3.0245  1.0974  4.2125
 3459SOL    HW222014   1.338   1.250   0.604 -0.2616 -0.0229 -0.6268
 3460SOL     OW22015   0.380   0.640   9.638 -0.7464 -0.4422  0.5790
 3460SOL    HW122016   0.355   0.588   9.715 -2.4783 -1.0244 -0.3795
 3460SOL    HW222017   0.303   0.625   9.583 -0.6327 -0.5777  0.4587
 3461SOL     OW22018   2.078   3.122   6.979 -0.6213  0.1555  0.2731
 3461SOL    HW122019   2.130   3.077   7.045  0.4755  0.9275 -0.0632
 3461SOL    HW222020   2.142   3.167   6.923 -0.1637 -0.7353  0.0835
 3462SOL     OW22021   4.163   2.125   6.866 -0.1886 -0.0473  0.1500
 3462SOL    HW122022   4.236   2.159   6.918 -0.9003 -0.0267  1.1408
 3462SOL    HW222023   4.210   2.062   6.812  1.0918  0.4716  0.6629
 3463SOL     OW22024   0.615   0.917  12.229  0.3528  0.1928 -0.2025
 3463SOL    HW122025   0.671   0.843  12.254 -1.0196 -1.4202 -1.8959
 3463SOL    HW222026   0.559   0.858  12.179  0.0973 -0.4874  0.8907
 3464SOL     OW22027   0.082   1.949  16.561  0.4747 -0.6952 -0.5496
 3464SOL    HW122028   0.138   1.931  16.486 -1.1583  0.3294 -2.0195
 3464SOL    HW222029   0.003   1.908  16.525  1.9659 -1.9668 -2.3575
 3465SOL     OW22030   3.043   1.996   3.562 -0.2352  0.1775  0.0416
 3465SOL    HW122031   3.028   1.974   3.654 -0.8588 -2.2095 -0.6098
 3465SOL    HW222032   3.119   2.053   3.573 -0.5136  0.7066 -0.8162
 3466SOL     OW22033   2.285   3.779   4.820 -0.5078 -0.0480 -0.3340
 3466SOL    HW122034   2.269   3.852   4.880 -0.7490 -0.4121  0.0446
 3466SOL    HW222035   2.376   3.756   4.839  0.4627  1.6265 -2.9568
 3467SOL     OW22036   4.246   2.023   7.716 -0.2051  0.2016  0.8789
 3467SOL    HW122037   4.209   1.940   7.687 -0.2495  0.0749  1.3134
 3467SOL    HW222038   4.171   2.055   7.765 -1.0328  0.9361 -0.8549
 3468SOL     OW22039   3.139   3.340   3.931 -0.0536 -0.2208  0.2883
 3468SOL    HW122040   3.201   3.404   3.966  1.1549 -1.2779  0.1196
 3468SOL    HW222041   3.079   3.396   3.883 -1.5174 -1.3500  0.8088
 3469SOL     OW22042   4.275   3.548   9.131  0.0743  0.6790 -0.0968
 3469SOL    HW122043   4.199   3.605   9.121 -0.6110  0.2730  2.8297
 3469SOL    HW222044   4.282   3.483   9.061  0.9229 -1.6450  2.1821
 3470SOL     OW22045   0.612   3.099   0.568  0.7657  0.4906  0.0320
 3470SOL    HW122046   0.582   3.097   0.659  0.1895  2.4285 -0.1211
 3470SOL    HW222047   0.587   3.009   0.545  1.0917 -0.5575  3.7464
 3471SOL     OW22048   2.339   3.528   2.327  0.0005 -0.0589 -0.4515
 3471SOL    HW122049   2.244   3.523   2.317 -0.3076  0.9245  1.8215
 3471SOL    HW222050   2.340   3.550   2.420  0.9493 -4.0449  0.4673
 3472SOL     OW22051   3.845   0.267   7.462 -0.1247 -0.2636  0.0162
 3472SOL    HW122052   3.818   0.358   7.458  0.1118 -0.2258 -0.8007
 3472SOL    HW222053   3.857   0.264   7.557 -0.5775  0.8895  0.1102
 3473SOL     OW22054   1.026   4.514   1.903 -0.4687  0.0777  0.0780
 3473SOL    HW122055   0.992   4.578   1.966 -3.0692  0.2308 -1.5259
 3473SOL    HW222056   1.103   4.491   1.956 -0.5312  0.9802  0.5606
 3474SOL     OW22057   0.172   0.793   6.801 -0.1975 -0.3721  0.1648
 3474SOL    HW122058   0.208   0.798   6.712 -0.2709  1.5349  0.2403
 3474SOL    HW222059   0.114   0.717   6.799  0.4721 -0.9085  0.9772
 3475SOL     OW22060   1.853   1.310   2.207  0.2591  0.6688 -0.0803
 3475SOL    HW122061   1.917   1.267   2.265 -0.8041 -3.1521 -1.7241
 3475SOL    HW222062   1.898   1.376   2.155 -1.2740  0.0115 -2.2174
 3476SOL     OW22063   3.700   3.917   5.319  0.5296  0.1619  0.0542
 3476SOL    HW122064   3.763   3.851   5.348  0.3277 -0.3437 -0.6479
 3476SOL    HW222065   3.747   3.954   5.244 -0.4656  2.2668  0.4887
 3477SOL     OW22066   0.244   3.882   3.536 -0.5448 -0.1916 -0.3580
 3477SOL    HW122067   0.169   3.934   3.508  0.2859  1.6187  0.7413
 3477SOL    HW222068   0.226   3.803   3.485  0.3147 -0.5852 -0.0533
 3478SOL     OW22069   2.473   1.493   3.678 -0.0265 -0.3077  0.6705
 3478SOL    HW122070   2.381   1.520   3.686  0.3515  1.2519 -0.2810
 3478SOL    HW222071   2.509   1.537   3.755  0.2695  1.8643 -0.7123
 3479SOL     OW22072   3.615   1.266   5.080  0.6920  0.4624 -0.3228
 3479SOL    HW122073   3.697   1.298   5.119 -1.9351  4.0084  2.2990
 3479SOL    HW222074   3.629   1.243   4.988 -0.7664 -2.0337  0.0912
 3480SOL     OW22075   4.128   4.484   8.205 -0.2288 -0.4974  0.7916
 3480SOL    HW122076   4.140   4.494   8.300  1.4089  0.1076  0.5081
 3480SOL    HW222077   4.074   4.561   8.188  2.0393  0.7395 -0.7194
 3481SOL     OW22078   2.021   0.663   5.980  0.0129  0.6678  0.0013
 3481SOL    HW122079   1.992   0.690   6.067 -0.0014  0.9071 -0.0759
 3481SOL    HW222080   2.044   0.751   5.949  0.0348  0.6948  0.0932
 3482SOL     OW22081   0.897   0.913  15.267  0.2639 -1.0441 -0.3901
 3482SOL    HW122082   0.864   0.876  15.349  1.0437  0.5456  0.6443
 3482SOL    HW222083   0.835   0.983  15.246 -0.6062 -1.6878  0.0535
 3483SOL     OW22084   0.642   1.531   0.636  0.1312 -0.0999  0.1855
 3483SOL    HW122085   0.609   1.451   0.595 -1.8529  1.7815 -1.9152
 3483SOL    HW222086   0.719   1.541   0.580  0.0891 -0.4619  0.0606
 3484SOL     OW22087   0.658   1.167  10.089  0.0978 -0.3801 -0.4599
 3484SOL    HW122088   0.638   1.104  10.020 -0.1222  0.3707 -1.0793
 3484SOL    HW222089   0.593   1.231  10.060 -1.0166 -1.9713 -1.4826
 3485SOL     OW22090   1.973   4.292   9.429  0.1536 -0.1180 -0.1252
 3485SOL    HW122091   1.921   4.267   9.505  2.2295 -2.1314  0.6164
 3485SOL    HW222092   2.060   4.275   9.464  1.2396  2.0853 -1.7241
 3486SOL     OW22093   3.036   3.230   8.293  0.7289  0.2558  0.4513
 3486SOL    HW122094   3.125   3.226   8.260  0.1290 -2.1590 -0.9164
 3486SOL    HW222095   3.004   3.143   8.268  0.6795 -0.0185  1.4890
 3487SOL     OW22096   1.235   1.975  15.304 -0.0875 -0.0189 -0.1534
 3487SOL    HW122097   1.302   1.915  15.273 -0.6225 -0.5216 -0.3427
 3487SOL    HW222098   1.199   1.922  15.375 -0.5175  0.9925  0.3844
 3488SOL     OW22099   3.659   4.404   4.151 -0.0503  0.0392 -0.0003
 3488SOL    HW122100   3.752   4.426   4.154  0.1523 -0.6728 -1.2006
 3488SOL    HW222101   3.651   4.322   4.102  1.0135 -0.1965  0.2261
 3489SOL     OW22102   2.203   2.920   8.201  0.6321 -0.4103  0.0398
 3489SOL    HW122103   2.126   2.867   8.180  0.1875  1.0621 -2.1346
 3489SOL    HW222104   2.275   2.858   8.213  1.0522 -0.0255 -0.4473
 3490SOL     OW22105   0.868   0.318   1.834 -0.5265 -0.1268  0.1948
 3490SOL    HW122106   0.825   0.306   1.750  1.2566 -1.5158 -0.4967
 3490SOL    HW222107   0.951   0.276   1.812  0.9777  2.3061  1.1304
 3491SOL     OW22108   3.388   4.101   9.564  0.1577  0.7534 -0.2439
 3491SOL    HW122109   3.332   4.048   9.621 -2.0828  0.5220 -2.7008
 3491SOL    HW222110   3.466   4.046   9.565 -0.7402 -0.5644 -2.3422
 3492SOL     OW22111   3.722   4.650   3.775 -0.0152  0.0763  0.4474
 3492SOL    HW122112   3.678   4.571   3.744 -0.9449  0.6847  0.2157
 3492SOL    HW222113   3.697   4.642   3.867  0.5073 -0.8759  0.5022
 3493SOL     OW22114   3.107   0.468   8.857 -0.5016  0.2432 -0.0905
 3493SOL    HW122115   3.180   0.528   8.845  0.7550 -1.1675  0.4841
 3493SOL    HW222116   3.060   0.484   8.776  1.3691  0.9269 -1.0396
 3494SOL     OW22117   2.348   4.611   1.843  0.0747 -0.3710 -0.6305
 3494SOL    HW122118   2.291   4.567   1.905 -0.0114 -0.6926 -0.9370
 3494SOL    HW222119   2.433   4.571   1.864 -0.4485 -0.4577  1.2863
 3495SOL     OW22120   1.604   1.713  13.254  0.2111 -0.2751 -0.1121
 3495SOL    HW122121   1.686   1.731  13.208  0.4614  0.0416  0.4566
 3495SOL    HW222122   1.551   1.789  13.228 -0.3968  0.1904  2.4870
 3496SOL     OW22123   2.732   4.439   6.008  0.0070  0.1227 -1.1266
 3496SOL    HW122124   2.805   4.494   6.035 -1.6078  1.6564  0.1744
 3496SOL    HW222125   2.681   4.485   5.942 -2.0196 -2.3411 -1.2838
 3497SOL     OW22126   0.590   3.379   9.841  0.5213 -0.1469  0.1220
 3497SOL    HW122127   0.591   3.395   9.936  1.0781 -2.2500  0.4822
 3497SOL    HW222128   0.680   3.399   9.814  0.0185  2.2983  0.2960
 3498SOL     OW22129   0.691   1.298  11.366  0.4163  0.5343  0.1232
 3498SOL    HW122130   0.688   1.373  11.306  2.2186 -0.0646 -0.7107
 3498SOL    HW222131   0.666   1.233  11.301 -0.6611 -1.6577  2.7356
 3499SOL     OW22132   2.885   0.447   5.541 -0.3811  0.4243 -0.6765
 3499SOL    HW122133   2.918   0.455   5.631 -0.3147 -0.4517 -0.6162
 3499SOL    HW222134   2.873   0.538   5.516 -2.3608  0.4786  0.3996
 3500SOL     OW22135   3.153   4.682   9.600 -0.1647  0.4421  0.0219
 3500SOL    HW122136   3.249   4.675   9.601  0.0256  3.0881  0.3467
 3500SOL    HW222137   3.142   0.032   9.634  2.6193  1.9172 -2.9341
 3501SOL     OW22138   0.552   4.146   4.070 -0.5392 -0.3430  0.0733
 3501SOL    HW122139   0.527   4.112   3.984  2.1616 -0.8702 -0.5116
 3501SOL    HW222140   0.535   4.061   4.113  0.1122 -0.5625 -0.1012
 3502SOL     OW22141   0.906   4.692   1.072 -0.4724 -0.1964  0.1418
 3502SOL    HW122142   0.880   4.610   1.031 -3.7077  0.6139  0.5929
 3502SOL    HW222143   0.966   4.647   1.132 -0.4707  0.1981  0.4385
 3503SOL     OW22144   4.227   1.447   8.575 -0.0385  0.1675  0.4602
 3503SOL    HW122145   4.282   1.440   8.654 -0.3825 -0.7956  0.6130
 3503SOL    HW222146   4.291   1.452   8.504 -1.4229 -0.2937 -0.8174
 3504SOL     OW22147   4.541   3.856   6.683  0.3169 -0.2730  0.2992
 3504SOL    HW122148   4.589   3.777   6.706 -0.4396 -0.8789 -0.2377
 3504SOL    HW222149   4.455   3.819   6.701 -0.2463 -0.0805 -2.0302
 3505SOL     OW22150   2.764   3.614   3.229  0.4574 -0.5120 -0.3589
 3505SOL    HW122151   2.762   3.709   3.217  1.6257 -0.2807  1.2704
 3505SOL    HW222152   2.791   3.600   3.319 -1.1635  1.8011  0.4947
 3506SOL     OW22153   0.688   4.691   8.255  0.2407 -0.2174  0.2305
 3506SOL    HW122154   0.725   0.007   8.325 -0.0120  1.3646 -0.8739
 3506SOL    HW222155   0.608   4.651   8.292  0.4797 -1.4543 -0.5833
 3507SOL     OW22156   2.932   0.758   7.967 -0.3988 -0.5418 -0.4696
 3507SOL    HW122157   2.933   0.692   7.898 -0.9525 -0.5315 -0.4869
 3507SOL    HW222158   2.836   0.762   7.972 -0.2838  1.0024  0.6332
 3508SOL     OW22159   0.968   3.900   3.593  0.3873  0.0151  0.0791
 3508SOL    HW122160   0.941   3.982   3.635  0.8783  1.1394 -1.7738
 3508SOL    HW222161   0.909   3.901   3.517 -0.0305  1.6665  0.4152
 3509SOL     OW22162   3.996   3.684   9.063  0.2030 -0.5245  0.3866
 3509SOL    HW122163   4.023   3.733   8.986 -0.9433 -0.7383 -0.1561
 3509SOL    HW222164   3.957   3.604   9.028 -2.9678  0.7955  0.9222
 3510SOL     OW22165   4.433   2.523   4.317  0.4183 -0.3835  0.0354
 3510SOL    HW122166   4.397   2.590   4.260  1.9606 -0.2929 -0.8144
 3510SOL    HW222167   4.429   2.566   4.403  1.4280 -1.8441  0.8170
 3511SOL     OW22168   0.017   4.636   7.283  0.2812 -0.7431  0.2975
 3511SOL    HW122169   0.021   4.545   7.311  0.3571 -0.9909 -0.5304
 3511SOL    HW222170   4.673   4.663   7.324 -0.1993 -1.8500  0.0416
 3512SOL     OW22171   0.208   0.516   2.094 -0.5317  0.1278  0.2872
 3512SOL    HW122172   0.164   0.520   2.009 -1.4439  0.8608  0.7904
 3512SOL    HW222173   0.177   0.436   2.136 -1.8912 -0.3851 -1.6626
 3513SOL     OW22174   0.974   0.068   6.743  0.2270  0.0578  0.2588
 3513SOL    HW122175   1.056   0.017   6.740 -0.2281 -0.6215 -0.8581
 3513SOL    HW222176   0.922   4.733   6.774  1.5772 -1.3143 -0.6803
 3514SOL     OW22177   0.401   1.593   7.962  0.5936  0.9018  0.1408
 3514SOL    HW122178   0.420   1.515   7.910 -0.7110  1.0152 -0.5112
 3514SOL    HW222179   0.477   1.646   7.940  2.9619 -2.0846  1.1771
 3515SOL     OW22180   1.923   3.570   8.635  0.8630  0.3475  0.0432
 3515SOL    HW122181   1.984   3.591   8.564  0.9138 -0.3952 -0.1296
 3515SOL    HW222182   1.900   3.479   8.618 -3.1566  1.7925 -2.4499
 3516SOL     OW22183   1.549   0.348   5.050  0.5683  0.2913 -0.4026
 3516SOL    HW122184   1.473   0.404   5.031  0.8366 -0.0393 -2.5375
 3516SOL    HW222185   1.575   0.395   5.129 -0.4106 -0.5898  0.4422
 3517SOL     OW22186   3.696   3.804  14.949  0.1443  0.3442  0.0461
 3517SOL    HW122187   3.733   3.716  14.942 -3.0304 -1.0862  0.9580
 3517SOL    HW222188   3.604   3.790  14.926  0.7733 -1.1303 -1.5957
 3518SOL     OW22189   1.420   3.298   6.240  0.0531 -0.3036  0.5010
 3518SOL    HW122190   1.512   3.310   6.218  0.3395  0.9697  2.3996
 3518SOL    HW222191   1.374   3.291   6.156  3.1416 -1.8608 -1.0463
 3519SOL     OW22192   2.726   1.353   1.753  0.3042 -0.1877 -0.7287
 3519SOL    HW122193   2.761   1.408   1.823  1.7545 -2.1969  0.1070
 3519SOL    HW222194   2.811   1.315   1.729  0.3853  0.0436 -0.8108
 3520SOL     OW22195   1.876   1.314   0.209  0.4205  0.6430  0.3518
 3520SOL    HW122196   1.861   1.255   0.283 -2.2350 -0.8232 -1.3550
 3520SOL    HW222197   1.821   1.265   0.148  0.9539  0.8179 -0.2774
 3521SOL     OW22198   1.376   0.415   4.037 -0.6015  0.5218 -0.1559
 3521SOL    HW122199   1.418   0.476   3.976 -0.7795 -0.0443 -0.8478
 3521SOL    HW222200   1.453   0.396   4.091 -0.5096 -0.0550 -0.4911
 3522SOL     OW22201   4.661   0.295   6.648 -0.6283  0.1967 -0.2217
 3522SOL    HW122202   4.616   0.357   6.705 -1.7141 -1.0349  0.2554
 3522SOL    HW222203   4.728   0.266   6.710 -0.1020 -1.0193 -1.3517
 3523SOL     OW22204   1.435   1.967  10.489 -0.1567 -0.2501  0.3964
 3523SOL    HW122205   1.394   1.982  10.575  1.9398  0.5406  1.2594
 3523SOL    HW222206   1.408   1.878  10.467  1.2664 -0.9065  1.2733
 3524SOL     OW22207   2.859   3.802  14.117  0.3790  0.2352  0.1872
 3524SOL    HW122208   2.929   3.847  14.071  0.0513  0.2961 -0.2456
 3524SOL    HW222209   2.908   3.728  14.153 -0.9487 -0.7824 -0.0654
 3525SOL     OW22210   0.099   1.000   9.846  0.2212  0.4287  0.1468
 3525SOL    HW122211   0.180   0.975   9.801 -0.4089 -2.3755  0.6130
 3525SOL    HW222212   0.043   0.923   9.837  0.9439 -0.1147  0.3183
 3526SOL     OW22213   3.855   4.065   8.168  0.1992  0.2776 -0.4726
 3526SOL    HW122214   3.900   4.004   8.228 -0.9320  0.6032  0.7140
 3526SOL    HW222215   3.823   4.121   8.239 -0.4091 -1.1558  0.3845
 3527SOL     OW22216   1.134   1.430  14.237  0.3648  0.3523  0.3780
 3527SOL    HW122217   1.045   1.434  14.201  0.5029 -0.2557 -0.0369
 3527SOL    HW222218   1.136   1.525  14.246 -2.9838  0.4850 -0.2322
 3528SOL     OW22219   4.270   2.691   9.788 -0.2399 -0.3819 -0.7882
 3528SOL    HW122220   4.260   2.642   9.706 -0.0584 -3.2805  0.9282
 3528SOL    HW222221   4.206   2.763   9.780 -1.1255 -1.2197 -1.3583
 3529SOL     OW22222   0.023   0.735   0.223 -0.3401 -0.3786 -0.1276
 3529SOL    HW122223   0.006   0.658   0.278  2.7883 -0.5597  0.5596
 3529SOL    HW222224   0.040   0.805   0.286  0.0924 -0.2698 -0.3708
 3530SOL     OW22225   0.148   0.047   8.937 -0.5966 -0.0733  0.6627
 3530SOL    HW122226   0.098   4.727   8.995  1.6241  0.2798  2.9290
 3530SOL    HW222227   0.078   0.064   8.874 -0.4901 -0.5597  0.4118
 3531SOL     OW22228   0.482   3.565  16.310  0.5955  0.1230 -0.0496
 3531SOL    HW122229   0.417   3.634  16.300  1.8715  1.6460  2.3541
 3531SOL    HW222230   0.438   3.502  16.366 -0.0899  0.6709  0.0241
 3532SOL     OW22231   0.150   4.480   5.226  0.6143 -0.3820 -0.0825
 3532SOL    HW122232   0.075   4.425   5.250  0.7113  0.0780  1.2529
 3532SOL    HW222233   0.176   4.445   5.140  0.8717 -1.8251  0.5838
 3533SOL     OW22234   4.604   2.177   8.628 -0.0035  0.1843 -0.0761
 3533SOL    HW122235   4.546   2.101   8.617  3.6806 -2.0972 -4.1168
 3533SOL    HW222236   4.558   2.246   8.581 -0.8342 -0.3721 -0.0774
 3534SOL     OW22237   0.488   3.495   7.920 -0.1300 -0.4110 -0.4998
 3534SOL    HW122238   0.399   3.514   7.949 -0.8883 -0.7587 -2.6439
 3534SOL    HW222239   0.526   3.451   7.996 -0.4575 -0.2976 -0.2689
 3535SOL     OW22240   3.922   0.635   6.292 -0.2305 -0.5605 -0.0581
 3535SOL    HW122241   3.918   0.590   6.207  0.4228 -1.7363  0.5338
 3535SOL    HW222242   3.836   0.676   6.296  0.1000  0.2976 -1.4817
 3536SOL     OW22243   3.056   2.785   5.020 -0.0807 -0.4557 -0.2532
 3536SOL    HW122244   3.124   2.754   4.960 -0.2918  0.2172 -0.8478
 3536SOL    HW222245   2.992   2.714   5.008  1.6170 -2.0620  0.2777
 3537SOL     OW22246   4.490   3.879   8.193  0.5761  0.3073 -0.2679
 3537SOL    HW122247   4.549   3.911   8.125  0.4106  0.5624 -0.2899
 3537SOL    HW222248   4.539   3.821   8.250 -1.2098 -0.9918 -0.0428
 3538SOL     OW22249   0.850   1.262  16.406 -0.3627  0.2654 -0.5029
 3538SOL    HW122250   0.784   1.216  16.354  2.0336 -2.5637 -1.0476
 3538SOL    HW222251   0.911   1.189  16.412 -2.0051 -1.2163 -1.8964
 3539SOL     OW22252   0.800   2.586   0.583 -0.2986 -0.3333  0.1422
 3539SOL    HW122253   0.755   2.566   0.665  2.1713  0.6572  1.7148
 3539SOL    HW222254   0.767   2.512   0.531 -0.5313  0.6589 -1.1403
 3540SOL     OW22255   1.774   3.325   9.049 -0.0881 -0.3028 -0.0158
 3540SOL    HW122256   1.807   3.406   9.087 -3.6575 -0.0850  2.5714
 3540SOL    HW222257   1.854   3.272   9.046  0.5219  0.7507 -2.3184
 3541SOL     OW22258   1.069   2.267   0.938  0.6235 -0.5831 -0.0818
 3541SOL    HW122259   1.078   2.348   0.888 -3.3479 -0.0429  0.0011
 3541SOL    HW222260   1.163   2.251   0.946  1.1292  1.8230 -1.3860
 3542SOL     OW22261   4.010   3.278   5.628  0.1228 -0.4246  0.1981
 3542SOL    HW122262   3.969   3.343   5.686  1.8169  1.4271 -0.6828
 3542SOL    HW222263   3.977   3.196   5.666  0.3500 -0.5095  0.2077
 3543SOL     OW22264   0.153   1.869   8.303  0.0217  0.5124 -0.0296
 3543SOL    HW122265   0.199   1.834   8.380 -0.7957  0.0331  0.2496
 3543SOL    HW222266   0.065   1.844   8.331  0.5034  1.1660  2.0631
 3544SOL     OW22267   4.697   3.989   6.420 -0.4568 -0.0627 -0.8182
 3544SOL    HW122268   4.662   4.068   6.380 -0.9639 -0.7097 -1.6475
 3544SOL    HW222269   4.616   3.973   6.468 -0.1775  1.4185  0.1543
 3545SOL     OW22270   1.500   2.611   3.470 -0.5557 -0.9188 -0.2526
 3545SOL    HW122271   1.470   2.570   3.552  0.0700 -0.3825  0.2354
 3545SOL    HW222272   1.416   2.654   3.452  0.6461  0.9395 -1.2711
 3546SOL     OW22273   1.704   3.235  14.696 -0.0388 -0.8708  0.1358
 3546SOL    HW122274   1.617   3.236  14.657 -0.1318 -1.2035  0.3412
 3546SOL    HW222275   1.741   3.153  14.664 -1.5930 -2.0446  1.3624
 3547SOL     OW22276   3.101   2.104   6.971 -0.6858 -0.1672 -0.2189
 3547SOL    HW122277   3.034   2.136   7.030 -2.0361 -0.0433 -1.8397
 3547SOL    HW222278   3.053   2.105   6.889  0.4422 -0.9928 -0.8875
 3548SOL     OW22279   0.330   0.766   3.021 -0.2802  0.4097 -0.0058
 3548SOL    HW122280   0.338   0.815   3.103 -2.8834  1.9421 -0.6752
 3548SOL    HW222281   0.320   0.831   2.952  1.3817  1.5270  0.8011
 3549SOL     OW22282   0.849   2.370   6.607 -0.2475 -0.3974 -0.1244
 3549SOL    HW122283   0.811   2.421   6.536  1.1654 -0.3946 -0.8804
 3549SOL    HW222284   0.835   2.282   6.571 -0.8931  0.3287 -1.6045
 3550SOL     OW22285   0.559   0.028   4.536 -0.4087 -0.4912  0.6457
 3550SOL    HW122286   0.561   0.038   4.631 -0.1339 -1.9358  0.8009
 3550SOL    HW222287   0.553   4.673   4.515 -1.8893 -0.7232  2.0715
 3551SOL     OW22288   1.503   3.941   9.016  0.4118 -0.0670 -0.2981
 3551SOL    HW122289   1.475   3.855   8.985 -0.2823  0.7878 -2.0368
 3551SOL    HW222290   1.581   3.963   8.964  0.7627 -2.1379 -0.6878
 3552SOL     OW22291   2.517   2.726  10.079  0.2920 -0.1368  0.2753
 3552SOL    HW122292   2.574   2.784  10.131 -1.2763  1.1269  0.5938
 3552SOL    HW222293   2.521   2.652  10.139  0.5517 -0.5624 -0.2660
 3553SOL     OW22294   4.430   0.791   9.315  0.6890  0.0156  0.0394
 3553SOL    HW122295   4.444   0.697   9.300  0.4163 -0.2562  1.4846
 3553SOL    HW222296   4.334   0.800   9.310  0.4669 -1.6274  1.1209
 3554SOL     OW22297   2.403   1.776  11.175  0.6535 -0.0035  0.3359
 3554SOL    HW122298   2.382   1.844  11.240  0.6795  0.4376 -0.1213
 3554SOL    HW222299   2.318   1.733  11.167  0.5711 -0.0256  1.2509
 3555SOL     OW22300   3.395   2.751   2.774 -0.1525  0.4186 -0.0643
 3555SOL    HW122301   3.430   2.840   2.773  0.7601  0.0743  0.8923
 3555SOL    HW222302   3.308   2.768   2.737 -0.2515 -2.6229 -1.2174
 3556SOL     OW22303   1.960   2.565  14.398  0.4512  0.0435 -0.3759
 3556SOL    HW122304   2.018   2.603  14.464  0.1771  0.0305 -0.1254
 3556SOL    HW222305   1.968   2.472  14.416  0.5021  0.2292  0.5649
 3557SOL     OW22306   2.349   0.354  14.296  0.3393  0.5145 -0.0348
 3557SOL    HW122307   2.413   0.424  14.290  1.2615 -0.3114  0.2135
 3557SOL    HW222308   2.278   0.397  14.343  0.9106  0.1240  1.1811
 3558SOL     OW22309   0.940   2.512   7.135  0.3906  0.2174  0.4316
 3558SOL    HW122310   0.877   2.464   7.189  0.4043  0.2748  0.4980
 3558SOL    HW222311   1.023   2.494   7.178  1.0741  2.3287 -0.0417
 3559SOL     OW22312   0.183   1.272   4.034  0.4160 -0.0246  0.3299
 3559SOL    HW122313   0.156   1.349   4.085 -1.5908 -0.4456 -0.0962
 3559SOL    HW222314   0.218   1.216   4.103  1.4862 -0.3159 -0.4562
 3560SOL     OW22315   0.839   1.152   7.911  0.6436  0.1050  0.1960
 3560SOL    HW122316   0.807   1.228   7.861  2.1645  0.7684  0.2110
 3560SOL    HW222317   0.790   1.080   7.874 -1.0734  0.8345  1.0636
 3561SOL     OW22318   3.621   0.640   3.259 -0.1965  0.1149 -0.0037
 3561SOL    HW122319   3.619   0.561   3.312 -0.9908  0.6686  0.7944
 3561SOL    HW222320   3.607   0.700   3.332 -0.6133 -1.4863  1.2286
 3562SOL     OW22321   3.710   0.041   7.974 -0.0345 -0.0551 -0.5274
 3562SOL    HW122322   3.630   0.049   8.026  0.8743 -0.8049  0.9858
 3562SOL    HW222323   3.683   0.017   7.885  2.5598  1.2916 -1.6885
 3563SOL     OW22324   1.305   0.197  15.327 -0.1576  0.3229  0.3634
 3563SOL    HW122325   1.348   0.272  15.286 -1.1386  1.3298  1.1819
 3563SOL    HW222326   1.381   0.160  15.371  0.8781  0.9114 -0.9227
 3564SOL     OW22327   0.760   2.379   5.506  0.3901 -0.1058  0.6937
 3564SOL    HW122328   0.707   2.341   5.575  0.9109  1.2226  1.8346
 3564SOL    HW222329   0.842   2.330   5.503  1.4144  1.7013 -0.7990
 3565SOL     OW22330   4.492   2.199   7.223 -0.3162  0.5795  0.2206
 3565SOL    HW122331   4.406   2.157   7.212 -0.4753  1.3755 -1.6351
 3565SOL    HW222332   4.534   2.153   7.296 -2.1179  0.3098  1.0940
 3566SOL     OW22333   1.012   0.556   5.360 -0.0809 -0.1564 -0.5398
 3566SOL    HW122334   1.046   0.481   5.409 -1.2382 -0.7099 -0.5778
 3566SOL    HW222335   0.921   0.565   5.387  0.6022  0.7314  1.4656
 3567SOL     OW22336   2.706   3.576  11.717 -0.1390 -0.2223 -0.2529
 3567SOL    HW122337   2.691   3.595  11.624  0.4643 -1.7092 -0.6461
 3567SOL    HW222338   2.744   3.659  11.746 -4.3057  1.1742  1.2191
 3568SOL     OW22339   1.658   4.737   0.245  0.4807 -0.7937 -0.8752
 3568SOL    HW122340   1.660   0.093   0.229  1.3353 -0.0952  3.1279
 3568SOL    HW222341   1.733   4.716   0.189  2.0159  0.3646  0.7317
 3569SOL     OW22342   1.350   2.063   4.477 -0.1209 -0.8724  0.0080
 3569SOL    HW122343   1.418   2.101   4.422  0.3754 -3.6006 -1.2460
 3569SOL    HW222344   1.343   2.145   4.527 -2.8504 -1.6049  0.7985
 3570SOL     OW22345   0.588   2.477   0.169 -0.4547  0.4973  0.2850
 3570SOL    HW122346   0.497   2.476   0.200 -0.4549  1.2000  0.3085
 3570SOL    HW222347   0.581   2.389   0.132 -1.5494  1.4418 -1.7604
 3571SOL     OW22348   0.621   3.850  10.664 -0.0778  0.3885 -0.6747
 3571SOL    HW122349   0.565   3.827  10.590 -0.2633 -4.3418  0.8936
 3571SOL    HW222350   0.573   3.926  10.697 -0.2120  0.3019 -0.6708
 3572SOL     OW22351   1.546   0.883   7.508  0.2804  0.1791 -0.5058
 3572SOL    HW122352   1.467   0.926   7.542  0.1610  0.3407 -0.9814
 3572SOL    HW222353   1.541   0.799   7.552 -0.7325  0.3302 -0.3244
 3573SOL     OW22354   4.396   3.853   5.521  0.1645  0.3364 -0.3309
 3573SOL    HW122355   4.351   3.863   5.605  0.6444  3.2537 -0.4272
 3573SOL    HW222356   4.352   3.925   5.475 -0.8773  0.2939  0.5972
 3574SOL     OW22357   0.052   3.257   4.975  0.2949  0.5243  0.2805
 3574SOL    HW122358   0.131   3.301   5.004  0.9329 -0.9497  0.7688
 3574SOL    HW222359   0.028   3.299   4.893  0.2106 -2.7961 -1.4018
 3575SOL     OW22360   1.268   0.934   0.118  0.2720 -0.3215  0.2985
 3575SOL    HW122361   1.323   0.949   0.040 -1.8558  3.0880 -0.5159
 3575SOL    HW222362   1.186   0.892   0.091  0.6131  0.0610 -1.3561
 3576SOL     OW22363   3.267   0.512   3.166 -0.0726  0.0799  0.2877
 3576SOL    HW122364   3.228   0.472   3.244 -2.7328  1.2134 -0.4799
 3576SOL    HW222365   3.243   0.603   3.184 -0.6829  0.0337 -0.3199
 3577SOL     OW22366   1.468   3.224   8.299  0.4026  0.2609  0.0294
 3577SOL    HW122367   1.407   3.247   8.229  1.7765  0.5581 -1.0633
 3577SOL    HW222368   1.410   3.223   8.376 -1.7910 -2.4341 -1.6778
 3578SOL     OW22369   3.583   0.830   9.226 -0.1489  0.7335  0.2618
 3578SOL    HW122370   3.648   0.771   9.264 -0.2176 -0.7471 -1.9476
 3578SOL    HW222371   3.638   0.894   9.181  2.1883  0.0668  2.1712
 3579SOL     OW22372   1.751   3.592   3.219 -0.0039 -0.8295  0.0546
 3579SOL    HW122373   1.789   3.513   3.258  0.2312 -0.0197  1.4771
 3579SOL    HW222374   1.774   3.656   3.287 -0.4641  1.1303 -1.6312
 3580SOL     OW22375   0.332   0.843   7.006  0.4115  0.1012  0.0501
 3580SOL    HW122376   0.280   0.797   7.071  0.3011  0.7107  0.3932
 3580SOL    HW222377   0.273   0.831   6.931  1.1943 -0.2502 -0.5146
 3581SOL     OW22378   3.747   2.833   5.121  0.1399 -0.1766  0.6315
 3581SOL    HW122379   3.766   2.759   5.179  1.0396  1.9043  2.9860
 3581SOL    HW222380   3.766   2.786   5.040 -1.2482  3.0021 -1.5176
 3582SOL     OW22381   2.639   3.289   5.057 -0.4342 -0.1494 -0.0433
 3582SOL    HW122382   2.686   3.330   4.985 -1.8537  1.5123 -0.0310
 3582SOL    HW222383   2.551   3.326   5.050 -0.3338  0.6266  2.7109
 3583SOL     OW22384   3.502   4.041   6.708 -0.3040 -0.3018  0.1316
 3583SOL    HW122385   3.538   3.983   6.640  1.4794  0.3906  0.4742
 3583SOL    HW222386   3.580   4.046   6.763 -0.2984  1.5527 -0.0662
 3584SOL     OW22387   2.056   2.702   8.721 -0.1208  0.2885  0.4794
 3584SOL    HW122388   1.970   2.719   8.683 -0.5040 -0.1472  1.1606
 3584SOL    HW222389   2.105   2.768   8.672 -1.6449  1.9588  1.2226
 3585SOL     OW22390   3.795   2.086   7.986  0.2260  0.0724  0.0193
 3585SOL    HW122391   3.772   2.036   7.907 -0.1546 -0.8215  0.7030
 3585SOL    HW222392   3.785   2.174   7.950 -1.2543 -0.5108 -1.0021
 3586SOL     OW22393   0.935   2.919   7.831 -0.6824  0.2672  0.0321
 3586SOL    HW122394   0.915   2.959   7.746 -0.2921  1.2609  0.4086
 3586SOL    HW222395   1.023   2.888   7.811 -1.8561 -2.6283 -0.7273
 3587SOL     OW22396   0.954   2.525   5.335  0.3920  0.3659 -0.6077
 3587SOL    HW122397   0.878   2.537   5.392 -0.0887  0.3544 -1.2428
 3587SOL    HW222398   1.008   2.594   5.373 -1.2101  1.0419  0.4321
 3588SOL     OW22399   1.044   1.837  11.968  0.0250 -0.3681  0.0529
 3588SOL    HW122400   0.967   1.824  11.912  0.6132  0.3322 -0.9252
 3588SOL    HW222401   1.034   1.784  12.047 -1.4766  3.5099  2.4452
 3589SOL     OW22402   3.398   2.179  10.256  0.1985 -0.0030 -0.2677
 3589SOL    HW122403   3.316   2.190  10.303  1.1811 -0.5773  1.6064
 3589SOL    HW222404   3.448   2.248  10.299 -0.9576  2.0915 -2.2416
 3590SOL     OW22405   1.018   2.238  11.000 -0.0389  0.0685  0.4738
 3590SOL    HW122406   1.076   2.251  11.074 -0.5305  0.0019  0.8689
 3590SOL    HW222407   0.997   2.146  11.016 -0.6857  0.1404  0.0628
 3591SOL     OW22408   4.530   2.757   8.503  0.0681  0.1072  0.4768
 3591SOL    HW122409   4.596   2.694   8.531 -0.4927  0.5546  2.7780
 3591SOL    HW222410   4.502   2.777   8.592 -1.8207  1.2358 -0.3743
 3592SOL     OW22411   4.534   4.090   4.371 -0.1083 -0.0262  0.1751
 3592SOL    HW122412   4.510   4.165   4.426  1.8194  0.9130 -0.2759
 3592SOL    HW222413   4.593   4.139   4.314  1.0426  0.2102  1.5683
 3593SOL     OW22414   3.745   2.649   7.287  0.4669  0.1837 -0.7627
 3593SOL    HW122415   3.815   2.708   7.313 -0.4830 -0.4615  3.3192
 3593SOL    HW222416   3.661   2.695   7.286  0.8298  0.8395 -0.8537
 3594SOL     OW22417   3.347   4.304   9.229 -0.0696  0.0970 -0.1426
 3594SOL    HW122418   3.350   4.322   9.323 -0.6678  0.0512 -0.1130
 3594SOL    HW222419   3.340   4.209   9.225 -2.1149  0.2531 -0.5157
 3595SOL     OW22420   3.145   2.305  13.185 -0.3648 -0.1537  0.3109
 3595SOL    HW122421   3.197   2.237  13.226  1.1332  0.3572 -0.7741
 3595SOL    HW222422   3.195   2.310  13.104 -0.1335  1.2792  0.5345
 3596SOL     OW22423   0.553   4.374   6.133 -0.0060 -0.1744  0.0832
 3596SOL    HW122424   0.492   4.433   6.088  3.7661  2.3125 -1.7372
 3596SOL    HW222425   0.637   4.419   6.129 -0.4136  0.7057  1.3724
 3597SOL     OW22426   3.401   3.012   3.935 -0.0037 -0.2478 -0.0901
 3597SOL    HW122427   3.411   2.998   4.029  1.1156 -0.9428 -0.3136
 3597SOL    HW222428   3.494   3.011   3.911 -0.0241 -0.2167 -0.1702
 3598SOL     OW22429   2.610   1.576   8.885  0.0646 -0.2759  0.1836
 3598SOL    HW122430   2.544   1.550   8.948 -0.8985  1.1631 -0.2295
 3598SOL    HW222431   2.565   1.555   8.804 -1.3486  0.0413  0.8992
 3599SOL     OW22432   0.682   3.864   8.003  0.5176  0.1219 -0.3639
 3599SOL    HW122433   0.599   3.832   7.969 -0.4104  0.7908  1.2215
 3599SOL    HW222434   0.739   3.789   8.016 -0.3361 -0.3496  0.7186
 3600SOL     OW22435   1.200   4.564   7.288 -0.5590 -0.0689 -0.3328
 3600SOL    HW122436   1.239   4.650   7.303 -1.2840  0.1410  0.3286
 3600SOL    HW222437   1.272   4.501   7.282 -0.9063 -0.3883 -1.2925
 3601SOL     OW22438   0.429   4.405   5.794 -0.1313  0.1494 -0.2671
 3601SOL    HW122439   0.496   4.337   5.792 -0.5522 -0.3203  2.0695
 3601SOL    HW222440   0.448   4.447   5.710  0.9638  1.4622  0.6468
 3602SOL     OW22441   4.233   4.285   2.308  0.6959  0.0792 -0.1866
 3602SOL    HW122442   4.194   4.372   2.300 -0.9409 -0.5693  0.7528
 3602SOL    HW222443   4.320   4.287   2.269  1.5284  0.7326  1.7443
 3603SOL     OW22444   3.199   2.220   3.590  0.1177  0.0475  0.3927
 3603SOL    HW122445   3.121   2.275   3.585 -0.2709 -0.5644 -0.2785
 3603SOL    HW222446   3.245   2.237   3.508  0.1584  1.0510  0.6317
 3604SOL     OW22447   4.691   4.408   3.630  0.0576 -0.4339  0.2326
 3604SOL    HW122448   0.046   4.422   3.617 -0.2072 -0.2978 -1.4286
 3604SOL    HW222449   4.651   4.494   3.620  1.7245  0.4842  1.5060
 3605SOL     OW22450   2.698   4.641   9.211 -0.5751  0.8205 -0.1360
 3605SOL    HW122451   2.706   4.680   9.124 -2.7450 -0.0435 -0.7349
 3605SOL    HW222452   2.705   4.548   9.189 -1.6803  0.8705 -0.7117
 3606SOL     OW22453   0.454   1.517   0.342 -0.1539  0.4369 -0.5356
 3606SOL    HW122454   0.492   1.472   0.418  1.0289 -2.6124 -2.9235
 3606SOL    HW222455   0.534   1.529   0.291 -0.1088  1.6267 -0.1814
 3607SOL     OW22456   3.662   3.582  17.095  0.7189  0.0136  0.3343
 3607SOL    HW122457   3.717   3.614  17.166 -0.1406 -0.9993  1.4378
 3607SOL    HW222458   3.611   3.659  17.068  0.5279 -0.0194  0.6073
 3608SOL     OW22459   3.561   1.339   5.607  0.0426 -0.1775 -0.3663
 3608SOL    HW122460   3.604   1.259   5.636 -0.3315 -0.6134 -1.0222
 3608SOL    HW222461   3.504   1.365   5.680  1.2641  0.0619  0.5154
 3609SOL     OW22462   1.141   2.902  17.199 -0.0883  0.0854  0.0753
 3609SOL    HW122463   1.055   2.862  17.183 -0.6627  0.4643  2.1773
 3609SOL    HW222464   1.162   2.871  17.287  1.8797 -2.3236 -1.2712
 3610SOL     OW22465   4.722   1.212  15.894  0.3350 -0.1621  0.1778
 3610SOL    HW122466   4.643   1.264  15.878 -0.2773 -1.4962 -1.1190
 3610SOL    HW222467   0.003   1.199  15.801 -0.9455 -0.2324 -0.0883
 3611SOL     OW22468   3.754   0.581  11.570 -0.0744 -0.0009  0.1645
 3611SOL    HW122469   3.769   0.545  11.657 -0.7214 -1.0764 -0.1699
 3611SOL    HW222470   3.782   0.503  11.522 -0.3999  0.4890 -0.8158
 3612SOL     OW22471   1.764   0.250   5.488 -0.3991 -0.1110 -0.6000
 3612SOL    HW122472   1.823   0.279   5.558  0.7413 -1.5305 -0.9730
 3612SOL    HW222473   1.820   0.202   5.426 -0.0361  0.4389 -0.6959
 3613SOL     OW22474   1.333   1.620   7.745  0.0005 -0.2355  0.4271
 3613SOL    HW122475   1.279   1.601   7.821  1.2851 -0.3634  1.2980
 3613SOL    HW222476   1.341   1.530   7.712  0.6650  0.0170 -0.1199
 3614SOL     OW22477   3.721   2.858   0.514 -0.2007  0.7796 -0.5221
 3614SOL    HW122478   3.684   2.802   0.445  0.4417  1.3770 -1.3356
 3614SOL    HW222479   3.642   2.872   0.567 -1.3320 -1.8823 -1.4772
 3615SOL     OW22480   4.637   0.975  13.596  0.0400  0.2450  0.0127
 3615SOL    HW122481   4.669   1.049  13.544  1.1155  0.9299  1.6178
 3615SOL    HW222482   4.704   0.909  13.583  1.7101  1.4975  2.2547
 3616SOL     OW22483   3.649   4.359   9.379 -0.4705 -0.2486  0.6555
 3616SOL    HW122484   3.720   4.401   9.429  0.7532 -0.8229 -0.5943
 3616SOL    HW222485   3.603   4.441   9.364  2.1444  1.3778  1.4548
 3617SOL     OW22486   2.299   0.089   6.661 -0.1130  0.0358  0.8694
 3617SOL    HW122487   2.229   0.050   6.609  0.6532 -0.0842 -0.0658
 3617SOL    HW222488   2.327   0.014   6.714  0.6740  0.1071  0.5525
 3618SOL     OW22489   2.991   2.870   7.826 -0.0699 -0.4857  0.3145
 3618SOL    HW122490   2.925   2.821   7.875 -0.4024 -0.8336 -0.4781
 3618SOL    HW222491   3.027   2.934   7.887 -0.3271 -2.4429  2.5640
 3619SOL     OW22492   4.267   2.750   8.405 -0.1687  0.0737 -1.0837
 3619SOL    HW122493   4.355   2.768   8.438 -0.6272  2.6801 -1.3210
 3619SOL    HW222494   4.223   2.740   8.490  1.0605 -1.1626 -0.5857
 3620SOL     OW22495   0.361   0.449   8.516  0.6531 -0.2017 -0.5020
 3620SOL    HW122496   0.365   0.539   8.548 -0.7029  0.0447 -0.9924
 3620SOL    HW222497   0.444   0.416   8.550  0.7863  2.1223  1.4456
 3621SOL     OW22498   1.364   2.414   1.169 -0.4286  0.1351 -0.2783
 3621SOL    HW122499   1.390   2.498   1.208 -0.6310  1.2386 -2.5401
 3621SOL    HW222500   1.310   2.378   1.239  1.2198  0.9825  1.4089
 3622SOL     OW22501   3.832   3.298   9.053  0.7867  0.0093 -0.0058
 3622SOL    HW122502   3.818   3.349   8.973 -0.7872  0.3190  0.4657
 3622SOL    HW222503   3.757   3.327   9.105  0.6670 -1.0680  0.4221
 3623SOL     OW22504   2.284   0.847   4.950  0.3773 -0.2262  0.1189
 3623SOL    HW122505   2.311   0.927   4.903  1.1333 -0.8626 -0.5216
 3623SOL    HW222506   2.190   0.860   4.962  0.8474  0.8491  2.5897
 3624SOL     OW22507   2.135   0.873  16.513  0.2321  0.0817 -0.1323
 3624SOL    HW122508   2.114   0.954  16.558 -2.5501  0.6464 -2.4482
 3624SOL    HW222509   2.113   0.889  16.421  0.2254 -0.8563 -0.3024
 3625SOL     OW22510   2.710   2.876  11.543  0.1259  0.7285  0.2983
 3625SOL    HW122511   2.775   2.930  11.498  0.4219  0.4083  0.3381
 3625SOL    HW222512   2.754   2.869  11.628  1.1397 -4.9644 -0.6434
 3626SOL     OW22513   3.099   3.113   7.082 -0.2844 -0.6133 -0.4475
 3626SOL    HW122514   3.141   3.119   7.168 -1.6020  1.4916  0.0660
 3626SOL    HW222515   3.032   3.180   7.066  0.0244 -0.3675 -0.7117
 3627SOL     OW22516   1.639   2.027   6.161  0.1166 -0.2101  0.2600
 3627SOL    HW122517   1.603   2.115   6.167 -1.5533 -0.8161 -0.7893
 3627SOL    HW222518   1.648   2.023   6.066  1.5862 -0.4176  0.4121
 3628SOL     OW22519   4.316   3.828   7.615  0.3262 -0.6781 -0.3631
 3628SOL    HW122520   4.233   3.798   7.651 -0.7059  0.4801 -1.7987
 3628SOL    HW222521   4.337   3.768   7.544  0.3572  1.2363 -1.9692
 3629SOL     OW22522   2.184   3.652   7.634 -0.3695  0.5451 -0.5112
 3629SOL    HW122523   2.171   3.673   7.727 -1.1459  0.4006 -0.5936
 3629SOL    HW222524   2.137   3.569   7.633 -0.3786  0.5433 -0.0727
 3630SOL     OW22525   4.591   3.456  17.011 -0.1381  0.3642 -0.6030
 3630SOL    HW122526   4.614   3.479  17.101  3.7492  1.0767 -1.7576
 3630SOL    HW222527   4.496   3.457  17.019 -0.0861 -1.8918  0.2084
 3631SOL     OW22528   4.481   1.590   6.002  0.0749 -0.2946  0.4192
 3631SOL    HW122529   4.412   1.574   6.066 -1.4260  0.4222 -1.0202
 3631SOL    HW222530   4.551   1.592   6.067  1.9482 -0.6754 -1.5750
 3632SOL     OW22531   1.637   2.379   0.419 -0.5202 -0.0416 -0.3699
 3632SOL    HW122532   1.667   2.325   0.346 -0.0488 -1.6773  1.0464
 3632SOL    HW222533   1.657   2.470   0.397  4.1802 -1.1223 -0.6324
 3633SOL     OW22534   3.203   0.911   6.946 -0.0362  0.3710 -0.1812
 3633SOL    HW122535   3.198   0.987   6.888  0.6743 -0.0674 -0.8040
 3633SOL    HW222536   3.282   0.872   6.908 -0.2737  0.1286 -0.4256
 3634SOL     OW22537   4.519   2.268   6.692 -0.1872 -0.2592 -0.3439
 3634SOL    HW122538   4.554   2.347   6.651  0.7599 -0.9042 -0.7691
 3634SOL    HW222539   4.595   2.210   6.680 -0.0371 -0.3001  0.7862
 3635SOL     OW22540   1.889   0.083   1.482 -0.0887 -0.2265  0.4397
 3635SOL    HW122541   1.814   0.142   1.485  0.2916  0.1745  1.7953
 3635SOL    HW222542   1.950   0.123   1.544  0.8123  0.7602 -1.0663
 3636SOL     OW22543   0.064   0.031   5.231  1.0442  0.7461  0.0585
 3636SOL    HW122544   4.715   4.731   5.243  0.2885  2.0325 -1.3067
 3636SOL    HW222545   0.113   4.687   5.230 -0.1700  0.0242 -0.2410
 3637SOL     OW22546   4.651   3.991  13.521  0.2771 -0.4645  0.4118
 3637SOL    HW122547   0.005   3.985  13.499  0.3099  1.6022  0.0354
 3637SOL    HW222548   4.623   3.916  13.467  0.4112 -0.7789  0.7774
 3638SOL     OW22549   2.478   3.609  15.092 -0.2594  0.0936 -0.1984
 3638SOL    HW122550   2.394   3.634  15.053 -0.1105  1.0635  0.1096
 3638SOL    HW222551   2.469   3.514  15.102 -0.9563 -0.1018 -2.7132
 3639SOL     OW22552   0.029   2.141   8.841  0.0731  0.1869 -0.0214
 3639SOL    HW122553   0.041   2.046   8.840  2.4291  0.4595  1.9128
 3639SOL    HW222554   4.696   2.156   8.779 -0.1196  1.6455  0.5420
 3640SOL     OW22555   1.559   0.682   6.794 -0.3919 -1.0679 -0.1443
 3640SOL    HW122556   1.540   0.612   6.857 -1.9212 -2.7113 -2.4225
 3640SOL    HW222557   1.644   0.707   6.830  0.1845 -3.6411  0.2982
 3641SOL     OW22558   4.298   0.849  15.821  0.0520  0.5727  0.0574
 3641SOL    HW122559   4.224   0.791  15.804 -1.2020  1.7682  1.3926
 3641SOL    HW222560   4.246   0.904  15.879  0.9186  0.1547  1.2231
 3642SOL     OW22561   3.491   1.903   6.622 -0.5888  0.3066 -0.3629
 3642SOL    HW122562   3.501   1.810   6.644 -0.7115 -0.1076 -2.0126
 3642SOL    HW222563   3.575   1.935   6.654 -1.1579  1.4730 -0.0646
 3643SOL     OW22564   1.390   4.534   4.505  0.5687  0.6860 -0.1433
 3643SOL    HW122565   1.396   4.438   4.512 -0.6697  0.5017 -1.5863
 3643SOL    HW222566   1.326   4.541   4.434  1.4517  1.6762 -0.8257
 3644SOL     OW22567   1.385   0.967   1.220 -1.0222  0.1033 -0.2656
 3644SOL    HW122568   1.478   0.951   1.206 -1.4348 -1.8030 -0.8463
 3644SOL    HW222569   1.355   0.901   1.158 -2.2509  0.7061 -0.3186
 3645SOL     OW22570   0.209   3.886   8.108  0.0512 -0.4583  0.3539
 3645SOL    HW122571   0.255   3.910   8.189  1.5231 -0.0645 -0.6166
 3645SOL    HW222572   0.164   3.809   8.144 -2.5644 -0.0481 -2.0666
 3646SOL     OW22573   1.329   4.377   6.828  0.5385 -0.2527  0.0509
 3646SOL    HW122574   1.323   4.363   6.922  2.2796 -0.1765  0.1782
 3646SOL    HW222575   1.421   4.352   6.817  0.5557 -0.2422  0.1690
 3647SOL     OW22576   0.254   3.159   8.407  0.0479  0.0386  0.6379
 3647SOL    HW122577   0.161   3.143   8.423 -0.2211  1.4270  0.4911
 3647SOL    HW222578   0.281   3.067   8.400  1.2696  0.3806  0.8135
 3648SOL     OW22579   4.277   0.882   9.740  0.0369  0.6893 -0.3888
 3648SOL    HW122580   4.321   0.916   9.662 -0.6490  0.4634 -0.8710
 3648SOL    HW222581   4.242   0.956   9.789  0.0576  0.3578  0.1292
 3649SOL     OW22582   1.393   3.275   2.573 -0.7405 -0.3477  0.5009
 3649SOL    HW122583   1.322   3.211   2.565 -0.2205 -0.7837 -0.5833
 3649SOL    HW222584   1.458   3.238   2.515  0.1446  0.9544  0.6616
 3650SOL     OW22585   3.180   0.465   7.375  0.2837 -0.0874  0.3735
 3650SOL    HW122586   3.267   0.469   7.334  0.8073 -1.5309  1.3263
 3650SOL    HW222587   3.168   0.370   7.372  1.0600 -0.1751  0.0327
 3651SOL     OW22588   4.481   3.140   3.038 -0.4772  0.0774 -0.0167
 3651SOL    HW122589   4.472   3.190   2.957 -0.6868 -1.0467 -0.6895
 3651SOL    HW222590   4.497   3.048   3.015 -1.1327 -0.0109 -0.1282
 3652SOL     OW22591   4.131   4.115   7.039  0.0717  0.0039  0.1204
 3652SOL    HW122592   4.077   4.112   7.118  0.7019 -2.3951  0.4581
 3652SOL    HW222593   4.195   4.054   7.076 -1.5075 -1.5629  0.2838
 3653SOL     OW22594   0.603   3.027  10.196  0.3829  0.0308  0.0279
 3653SOL    HW122595   0.651   3.049  10.276  1.6580  1.2608 -1.0781
 3653SOL    HW222596   0.554   3.108  10.189  1.3142  0.7063  1.3393
 3654SOL     OW22597   2.047   3.669   8.052  0.2159 -1.0216 -0.6503
 3654SOL    HW122598   2.043   3.724   7.974  2.2736 -1.8708 -1.3365
 3654SOL    HW222599   2.123   3.615   8.032  0.9258  0.0729 -0.8861
 3655SOL     OW22600   3.172   2.189   8.751  0.6641 -0.2244 -0.4676
 3655SOL    HW122601   3.159   2.097   8.730 -2.0948 -0.5084  2.4907
 3655SOL    HW222602   3.162   2.182   8.846 -3.0790  0.7603 -0.8307
 3656SOL     OW22603   4.697   3.323  12.014  0.2418  0.6497 -0.1899
 3656SOL    HW122604   4.685   3.372  12.095 -2.2341 -1.2838  0.6126
 3656SOL    HW222605   0.031   3.265  12.038  1.1353  1.3707 -1.1157
 3657SOL     OW22606   0.438   1.782   5.729 -0.1817  0.3614  0.0463
 3657SOL    HW122607   0.505   1.824   5.676  1.4341 -3.2730 -0.7709
 3657SOL    HW222608   0.360   1.797   5.677  1.1795  3.0807 -1.1875
 3658SOL     OW22609   1.042   2.458   4.797 -0.3293  0.2702  0.3689
 3658SOL    HW122610   1.011   2.391   4.736 -1.9215  0.8019  0.6031
 3658SOL    HW222611   0.998   2.433   4.878 -0.3496 -2.2675 -0.4339
 3659SOL     OW22612   0.623   3.434   6.275 -0.5401  0.3910 -0.1183
 3659SOL    HW122613   0.614   3.441   6.370  1.1037  1.2162 -0.0260
 3659SOL    HW222614   0.680   3.360   6.255 -0.8309 -0.0320  0.6115
 3660SOL     OW22615   4.033   1.253   8.499  0.2436  0.2732 -0.3690
 3660SOL    HW122616   4.080   1.335   8.511 -0.7095  0.7609  0.0388
 3660SOL    HW222617   4.050   1.209   8.582  0.6442 -0.9839 -1.1195
 3661SOL     OW22618   2.283   0.328   8.734 -0.6105  0.0359 -0.0706
 3661SOL    HW122619   2.249   0.298   8.819  4.8447  0.5700  2.2952
 3661SOL    HW222620   2.255   0.256   8.679  0.4654 -1.3902  1.2549
 3662SOL     OW22621   1.975   4.195   9.978 -0.1285 -1.0493 -0.0060
 3662SOL    HW122622   2.069   4.182   9.967 -0.0518 -0.2432 -0.2746
 3662SOL    HW222623   1.967   4.267   9.916  1.7821  0.4252  1.4702
 3663SOL     OW22624   4.118   1.110   3.860 -0.8816 -0.3891  0.1157
 3663SOL    HW122625   4.067   1.072   3.788 -1.7860  1.1216 -0.0571
 3663SOL    HW222626   4.157   1.035   3.904 -1.6001 -0.6767  0.2547
 3664SOL     OW22627   0.226   3.924   2.816 -0.4720  0.8713 -0.1706
 3664SOL    HW122628   0.294   3.925   2.749  1.6855 -3.6850  1.8980
 3664SOL    HW222629   0.237   3.834   2.848  2.0811  1.6694  1.2049
 3665SOL     OW22630   2.439   1.431   7.039  0.6376  0.2906 -0.7262
 3665SOL    HW122631   2.525   1.414   6.999  1.1724  3.0568 -0.7600
 3665SOL    HW222632   2.441   1.526   7.046  0.5258  0.3094 -0.9586
 3666SOL     OW22633   2.491   3.432  10.466  0.0323 -0.1170 -0.2511
 3666SOL    HW122634   2.475   3.432  10.560  2.1091  0.0223  0.1165
 3666SOL    HW222635   2.586   3.443  10.460  0.1847 -1.5824 -0.7162
 3667SOL     OW22636   4.118   1.697   9.082  0.1363  0.1438 -0.0301
 3667SOL    HW122637   4.069   1.779   9.086  2.6771  1.7979 -3.1835
 3667SOL    HW222638   4.052   1.644   9.127 -0.0154  0.3102 -0.0568
 3668SOL     OW22639   4.580   1.170   9.747 -0.0134  0.1587  0.1138
 3668SOL    HW122640   4.644   1.129   9.804 -1.7929 -1.1790  1.1662
 3668SOL    HW222641   4.517   1.102   9.722  1.3846 -0.5317 -1.5074
 3669SOL     OW22642   3.717   2.929   9.629 -0.6421 -0.3350 -0.4569
 3669SOL    HW122643   3.788   2.909   9.568 -0.8756  1.6373 -1.3931
 3669SOL    HW222644   3.705   2.845   9.673 -1.2918 -0.0719 -0.1276
 3670SOL     OW22645   2.803   2.044   8.845  0.3141  0.4067  0.3882
 3670SOL    HW122646   2.803   2.058   8.939 -4.6814 -1.6431  0.6335
 3670SOL    HW222647   2.854   1.963   8.837  0.4709  0.5178  0.2556
 3671SOL     OW22648   1.519   4.533  17.432 -0.1423 -0.5916 -0.2535
 3671SOL    HW122649   1.436   4.579  17.444  0.5526  0.3355  0.9170
 3671SOL    HW222650   1.516   4.464  17.498 -0.1563  0.9924  1.3867
 3672SOL     OW22651   4.195   0.060   7.619  0.4080 -0.1743 -0.3945
 3672SOL    HW122652   4.212   4.724   7.677  0.7539  1.2919  1.4234
 3672SOL    HW222653   4.110   0.083   7.657 -0.7790 -0.6386 -2.7917
 3673SOL     OW22654   0.498   0.667   2.001 -0.4625  0.1875  0.2690
 3673SOL    HW122655   0.515   0.749   2.048 -1.1868 -1.3545  3.2785
 3673SOL    HW222656   0.408   0.689   1.976 -0.6290  0.0518  0.7447
 3674SOL     OW22657   0.748   2.102   8.674 -0.2705 -0.2321 -0.2489
 3674SOL    HW122658   0.691   2.123   8.600  0.3886  2.0071 -0.1104
 3674SOL    HW222659   0.780   2.018   8.642 -0.1566 -0.7418  1.2101
 3675SOL     OW22660   3.374   1.730   8.897 -0.2781  0.2143  0.3477
 3675SOL    HW122661   3.285   1.757   8.918 -0.7256 -1.7586  0.9615
 3675SOL    HW222662   3.361   1.656   8.838  0.5330  0.9767 -0.7921
 3676SOL     OW22663   0.685   2.502  14.555  0.5457  0.1773 -0.1394
 3676SOL    HW122664   0.638   2.419  14.564  0.1676  0.7732  3.3899
 3676SOL    HW222665   0.654   2.520  14.466  0.6785  0.7331 -0.0764
 3677SOL     OW22666   2.460   4.513   8.158  0.2189  0.2817  0.7451
 3677SOL    HW122667   2.497   4.487   8.074  0.1288 -1.6793  1.3162
 3677SOL    HW222668   2.488   4.605   8.156 -0.7080  0.5346 -0.4435
 3678SOL     OW22669   0.071   4.650   3.939 -0.4438  0.2656 -0.0462
 3678SOL    HW122670   0.087   4.643   3.845 -0.0186  1.9894 -0.0985
 3678SOL    HW222671   0.072   0.004   3.964 -0.0622 -0.2176  1.7278
 3679SOL     OW22672   1.447   4.517   4.799  0.1275  0.2794 -0.0598
 3679SOL    HW122673   1.448   4.606   4.834 -1.7447  1.2354 -2.4351
 3679SOL    HW222674   1.477   4.535   4.710 -0.5777  1.0158 -0.1423
 3680SOL     OW22675   3.056   1.936   5.543 -0.1465 -0.5811  0.1685
 3680SOL    HW122676   3.127   1.874   5.560  1.5770  1.7388  1.3054
 3680SOL    HW222677   3.101   2.020   5.539  0.4887 -0.8199  2.4182
 3681SOL     OW22678   2.205   4.104   6.145 -0.0334  0.3291 -0.5469
 3681SOL    HW122679   2.238   4.076   6.231 -0.0316 -1.1369 -1.0190
 3681SOL    HW222680   2.256   4.038   6.097 -3.2386 -0.7277 -2.4568
 3682SOL     OW22681   0.861   4.270   0.427  0.0814  0.2666  0.4330
 3682SOL    HW122682   0.858   4.365   0.441 -0.7420  0.2955  0.1153
 3682SOL    HW222683   0.776   4.256   0.384  0.3935  2.0743 -0.8258
 3683SOL     OW22684   4.419   0.289   0.590 -0.3730 -0.5474 -0.3550
 3683SOL    HW122685   4.428   0.244   0.505  2.5104 -0.7435  0.0758
 3683SOL    HW222686   4.330   0.324   0.579 -0.1226  0.5408  1.2118
 3684SOL     OW22687   0.758   0.827  15.723  0.1573  0.1999 -0.0324
 3684SOL    HW122688   0.836   0.780  15.692 -0.1724 -0.7843  0.6372
 3684SOL    HW222689   0.788   0.916  15.700 -0.6551  0.4789 -0.0123
 3685SOL     OW22690   0.729   1.642  11.485  0.1737  0.3511 -0.5056
 3685SOL    HW122691   0.686   1.564  11.519  4.7379 -1.9080  0.1654
 3685SOL    HW222692   0.680   1.714  11.525  0.5617  1.8412 -2.6430
 3686SOL     OW22693   4.708   3.691   3.066 -0.2404  0.4015 -0.2383
 3686SOL    HW122694   4.665   3.623   3.014 -0.6351  1.1622 -0.9008
 3686SOL    HW222695   0.063   3.669   3.070  0.1538  2.1547  0.1922
 3687SOL     OW22696   4.712   1.918  10.205  0.0167  0.3907 -0.1523
 3687SOL    HW122697   4.671   1.928  10.119 -0.6812  1.7690  0.3367
 3687SOL    HW222698   4.654   1.853  10.244  2.9506 -1.3449  1.3361
 3688SOL     OW22699   2.871   0.910  14.138  0.4312 -0.5010 -0.0696
 3688SOL    HW122700   2.865   1.004  14.121 -1.7531 -0.7959 -0.9315
 3688SOL    HW222701   2.787   0.890  14.097  0.8792  0.0973 -1.2940
 3689SOL     OW22702   3.144   0.534   7.018  0.0396  0.8801  0.8256
 3689SOL    HW122703   3.137   0.466   7.086  3.1192  0.5750  0.8608
 3689SOL    HW222704   3.056   0.570   7.020  0.3108  1.5909  0.0778
 3690SOL     OW22705   4.143   3.508   1.434  0.1667  0.1283 -0.0106
 3690SOL    HW122706   4.082   3.456   1.381  0.2529  0.0950 -0.0781
 3690SOL    HW222707   4.190   3.569   1.377  0.9032 -0.0812  0.3737
 3691SOL     OW22708   0.164   1.419   8.926  0.0308  0.6202 -0.3177
 3691SOL    HW122709   0.071   1.396   8.922 -0.1091  1.0760  0.2352
 3691SOL    HW222710   0.175   1.400   9.019  0.2954 -0.3677 -0.5494
 3692SOL     OW22711   0.264   4.268   7.229  0.1897  0.3043 -0.8269
 3692SOL    HW122712   0.181   4.284   7.275 -0.3440 -1.6115 -1.0969
 3692SOL    HW222713   0.248   4.184   7.186 -1.0484  0.0085  0.1758
 3693SOL     OW22714   0.729   0.367   3.413 -0.3080 -0.4120  0.3475
 3693SOL    HW122715   0.708   0.289   3.361  1.9462 -1.4777  1.0544
 3693SOL    HW222716   0.763   0.327   3.493  0.6783 -1.8917 -0.7994
 3694SOL     OW22717   2.979   2.328   6.102 -0.3612  0.1444 -0.1498
 3694SOL    HW122718   2.990   2.419   6.129  0.1649 -0.0583  0.3193
 3694SOL    HW222719   2.898   2.310   6.151  0.4545 -0.4567  0.9749
 3695SOL     OW22720   3.497   2.046   5.644  0.1884  0.1419  0.1100
 3695SOL    HW122721   3.547   2.121   5.611  0.6990 -0.1860  0.1271
 3695SOL    HW222722   3.478   2.078   5.732 -0.6571 -1.5574  0.5524
 3696SOL     OW22723   4.574   1.473   5.772 -0.2553  0.4567 -0.1648
 3696SOL    HW122724   4.608   1.395   5.816  1.3997  0.4304 -1.4774
 3696SOL    HW222725   4.520   1.504   5.845  0.5730  1.7337 -0.1009
 3697SOL     OW22726   1.634   1.104   1.772 -0.7819  0.1536 -0.1072
 3697SOL    HW122727   1.576   1.114   1.697 -1.1183  1.5801  0.3274
 3697SOL    HW222728   1.715   1.147   1.743 -1.5889  2.4882  1.1214
 3698SOL     OW22729   0.138   3.128   7.274  0.5303 -0.8557 -0.3271
 3698SOL    HW122730   0.213   3.094   7.322 -0.3605 -2.6207 -0.1898
 3698SOL    HW222731   0.100   3.184   7.342 -0.4772  2.9495 -4.0156
 3699SOL     OW22732   4.300   0.033   6.062 -0.0794 -0.2621  0.1703
 3699SOL    HW122733   4.250   0.057   6.141  0.5708 -0.8488  0.7622
 3699SOL    HW222734   4.249   0.065   5.988  1.5191 -0.8142 -1.1606
 3700SOL     OW22735   0.182   1.916   2.011 -0.0874 -0.1735  0.0651
 3700SOL    HW122736   0.102   1.950   1.972 -0.6503 -0.3629  1.0669
 3700SOL    HW222737   0.204   1.862   1.935 -1.5575 -0.6053 -0.0435
 3701SOL     OW22738   2.668   0.269   4.242  0.6248  0.0113 -0.4216
 3701SOL    HW122739   2.753   0.225   4.234 -0.8925 -2.8755 -0.8189
 3701SOL    HW222740   2.628   0.254   4.157  4.0155 -2.5185 -1.6068
 3702SOL     OW22741   1.095   4.486   1.616 -0.0764  0.9224  0.2718
 3702SOL    HW122742   1.093   4.537   1.698  0.3470 -0.2232  1.0009
 3702SOL    HW222743   1.154   4.418   1.649 -0.3407  0.3591 -0.4418
 3703SOL     OW22744   1.931   2.412  12.023 -0.8948 -0.3477 -0.1068
 3703SOL    HW122745   1.861   2.347  12.036  2.0016 -3.6785 -1.3040
 3703SOL    HW222746   1.981   2.360  11.960 -0.2059 -0.2666  0.3761
 3704SOL     OW22747   2.754   4.119   4.327  0.3859  0.1158  0.5111
 3704SOL    HW122748   2.802   4.161   4.399  0.6781  0.1956  0.2665
 3704SOL    HW222749   2.743   4.196   4.272  1.9121  1.1864  1.6973
 3705SOL     OW22750   0.629   3.196   2.082  0.1073  0.4448  0.0507
 3705SOL    HW122751   0.579   3.133   2.030  0.6108 -0.6884  0.9127
 3705SOL    HW222752   0.717   3.195   2.044  1.2358 -2.7439  2.7516
 3706SOL     OW22753   0.632   2.627  14.059  0.4711 -0.5751  0.3598
 3706SOL    HW122754   0.579   2.691  14.013  1.4831  0.0196  0.0270
 3706SOL    HW222755   0.624   2.550  14.002  0.4566 -0.2487 -0.0789
 3707SOL     OW22756   2.296   1.469   0.676  0.1728 -0.1885 -0.3670
 3707SOL    HW122757   2.302   1.375   0.693 -2.5278 -0.7500 -2.5023
 3707SOL    HW222758   2.366   1.501   0.733  0.7832  0.0284 -1.2344
 3708SOL     OW22759   0.702   0.605  12.382 -0.0172  0.3809 -0.2561
 3708SOL    HW122760   0.795   0.587  12.365  0.2144  0.4432  0.9863
 3708SOL    HW222761   0.688   0.585  12.474 -0.6302  0.1871 -0.3912
 3709SOL     OW22762   3.975   2.497   3.224 -0.1537  0.3586 -0.2080
 3709SOL    HW122763   4.040   2.564   3.246 -0.2171  0.2354  0.3624
 3709SOL    HW222764   3.965   2.447   3.306  2.6619  2.8122  1.6296
 3710SOL     OW22765   1.052   1.293   5.524  0.2159 -0.0798 -0.3551
 3710SOL    HW122766   1.006   1.234   5.465 -0.0228  0.0993 -0.3489
 3710SOL    HW222767   1.030   1.382   5.497 -1.7614 -0.4646  0.0061
 3711SOL     OW22768   1.167   1.753   7.556  0.4821  0.4714 -0.0703
 3711SOL    HW122769   1.229   1.728   7.624  0.2032 -1.2493 -0.4418
 3711SOL    HW222770   1.096   1.689   7.554 -0.8437  1.9476 -0.9391
 3712SOL     OW22771   1.656   4.182  10.988 -0.2175 -0.8939  0.0203
 3712SOL    HW122772   1.605   4.263  10.985  0.6416 -0.4186 -1.8420
 3712SOL    HW222773   1.594   4.115  10.961 -0.5894 -0.8864  0.8537
 3713SOL     OW22774   2.493   1.027  12.751  0.5906 -0.1607 -0.1259
 3713SOL    HW122775   2.569   0.970  12.766 -0.2041 -1.5258 -1.3302
 3713SOL    HW222776   2.434   0.997  12.820 -1.1218  0.6011 -1.2597
 3714SOL     OW22777   0.441   1.659   2.839  0.2648 -0.3993  0.0967
 3714SOL    HW122778   0.412   1.742   2.802  1.6402 -0.2468 -0.6349
 3714SOL    HW222779   0.511   1.642   2.775  1.1807  2.0970  0.4553
 3715SOL     OW22780   3.653   4.711   6.260  0.3371  0.1925  0.6207
 3715SOL    HW122781   3.594   0.001   6.191  0.7268 -0.6763 -0.0735
 3715SOL    HW222782   3.605   0.005   6.336  0.8508  0.5340  0.7987
 3716SOL     OW22783   1.001   4.074   9.143  0.8428  0.2962  0.3437
 3716SOL    HW122784   1.011   3.982   9.122 -0.2860  0.2495  0.0130
 3716SOL    HW222785   0.982   4.105   9.055  2.0717 -1.5750 -0.5602
 3717SOL     OW22786   1.396   2.537   6.914  0.3378 -0.0816 -0.5185
 3717SOL    HW122787   1.488   2.520   6.932  0.7127  1.8660 -0.5514
 3717SOL    HW222788   1.358   2.449   6.919  1.9745 -0.6799  1.4898
 3718SOL     OW22789   4.193   0.438   7.721 -0.3053 -0.1109  0.5341
 3718SOL    HW122790   4.156   0.522   7.748  0.4112  0.1011  0.8764
 3718SOL    HW222791   4.135   0.371   7.756  0.0927 -0.5398  0.3770
 3719SOL     OW22792   2.410   4.120   5.379 -0.1144  0.0060 -0.1625
 3719SOL    HW122793   2.438   4.211   5.380 -0.3676  0.0565  1.7749
 3719SOL    HW222794   2.488   4.067   5.365 -1.3403 -1.7994 -0.1746
 3720SOL     OW22795   2.357   2.350   7.911 -0.2348 -0.1334  0.4633
 3720SOL    HW122796   2.304   2.339   7.990 -1.0920 -0.3504 -0.1390
 3720SOL    HW222797   2.342   2.265   7.870 -2.1195  0.5629 -0.2948
 3721SOL     OW22798   4.228   1.221   0.220  0.0129 -0.4001  0.3177
 3721SOL    HW122799   4.165   1.294   0.216  2.4683  1.7460  1.1571
 3721SOL    HW222800   4.296   1.254   0.278  2.5975 -3.8262 -0.7511
 3722SOL     OW22801   2.127   2.606   7.088  0.1141  0.0608 -0.2466
 3722SOL    HW122802   2.033   2.611   7.071 -0.3549  0.4607  2.4508
 3722SOL    HW222803   2.144   2.513   7.079  0.9544  0.1900  0.0055
 3723SOL     OW22804   2.157   2.996   9.526 -0.2294  0.0023  0.8879
 3723SOL    HW122805   2.215   2.958   9.593 -1.9202 -0.9633  1.8237
 3723SOL    HW222806   2.070   2.988   9.565 -1.1055  0.7392 -0.9200
 3724SOL     OW22807   3.259   0.662  12.510 -0.4865  0.1210  0.3391
 3724SOL    HW122808   3.321   0.716  12.558 -0.3986 -1.2453  1.7504
 3724SOL    HW222809   3.276   0.664  12.416 -0.9193 -0.5364  0.2450
 3725SOL     OW22810   3.955   4.276   6.389 -0.4748  0.4164 -0.1344
 3725SOL    HW122811   3.889   4.291   6.457  1.3081  1.4941  1.3677
 3725SOL    HW222812   3.955   4.350   6.328  0.8423 -1.6006 -2.5613
 3726SOL     OW22813   1.393   4.494   9.176 -0.7600 -0.2534 -1.0727
 3726SOL    HW122814   1.415   4.538   9.094  3.5837 -2.8568 -1.3373
 3726SOL    HW222815   1.312   4.447   9.153 -0.6117 -0.2121 -1.6995
 3727SOL     OW22816   3.675   2.523   7.053  0.2132  0.2981 -0.0769
 3727SOL    HW122817   3.635   2.602   7.017 -0.0830  0.6836  1.0984
 3727SOL    HW222818   3.741   2.561   7.110  1.1924 -1.0702 -0.2879
 3728SOL     OW22819   3.542   1.369   7.193 -0.9265 -0.2665  0.0633
 3728SOL    HW122820   3.601   1.419   7.138 -1.2848 -0.1307 -0.1999
 3728SOL    HW222821   3.538   1.418   7.275  1.0660  0.1186 -0.0931
 3729SOL     OW22822   3.178   1.111   6.718 -0.8384  0.2486 -0.1646
 3729SOL    HW122823   3.255   1.095   6.663 -0.3364  1.6606  0.1230
 3729SOL    HW222824   3.119   1.089   6.647 -0.9258 -0.5833  0.1669
 3730SOL     OW22825   1.638   0.876   1.187 -0.9165  0.0544 -0.0950
 3730SOL    HW122826   1.696   0.815   1.233 -0.0456  0.1218 -1.1152
 3730SOL    HW222827   1.685   0.887   1.104  1.1727 -0.8666  0.9616
 3731SOL     OW22828   4.591   4.241   3.455  0.3722  0.4785  0.3317
 3731SOL    HW122829   4.629   4.153   3.451 -2.4443 -0.6457 -1.9079
 3731SOL    HW222830   4.642   4.280   3.525 -0.0528 -0.6714  1.2834
 3732SOL     OW22831   3.795   3.463   9.912  0.4459 -0.2939  0.0347
 3732SOL    HW122832   3.866   3.517   9.947 -0.9399  0.4613  1.6397
 3732SOL    HW222833   3.837   3.433   9.831  1.1393  1.4342 -0.2558
 3733SOL     OW22834   3.263   2.539   5.253  0.2727 -0.0750  0.6439
 3733SOL    HW122835   3.281   2.529   5.160  0.0247 -1.1427  0.7151
 3733SOL    HW222836   3.323   2.613   5.265 -1.2574  1.1555  0.7923
 3734SOL     OW22837   0.478   3.197   3.811 -0.2976 -0.3854 -0.1352
 3734SOL    HW122838   0.419   3.181   3.737 -2.0944 -0.9365  1.4303
 3734SOL    HW222839   0.418   3.249   3.864 -2.2913  0.8917 -3.5694
 3735SOL     OW22840   0.739   1.362  12.705  0.2035  0.3571 -0.6302
 3735SOL    HW122841   0.674   1.420  12.744  1.4170  0.3348  1.3946
 3735SOL    HW222842   0.682   1.287  12.689  0.2109  0.3174 -0.4682
 3736SOL     OW22843   2.513   0.077   8.452  0.5418  0.4740  0.4075
 3736SOL    HW122844   2.495   0.011   8.520  0.4997 -2.1198 -2.1440
 3736SOL    HW222845   2.422   0.105   8.446  0.5525  0.8015  1.6526
 3737SOL     OW22846   0.080   4.521   8.678  0.2645  0.2979  0.0974
 3737SOL    HW122847   4.723   4.530   8.676  0.3952  1.4568 -1.2321
 3737SOL    HW222848   0.094   4.428   8.692  3.7630  0.7542 -0.2643
 3738SOL     OW22849   3.028   0.325   2.577 -0.1432  0.1755 -0.0523
 3738SOL    HW122850   3.063   0.401   2.531  0.5857  1.2896  2.3402
 3738SOL    HW222851   2.944   0.315   2.533 -0.7352 -0.6463  1.2628
 3739SOL     OW22852   2.483   2.723   3.162 -0.2582  0.0881  0.0797
 3739SOL    HW122853   2.405   2.776   3.146  0.7845  1.7181  0.3928
 3739SOL    HW222854   2.455   2.661   3.229  0.0369  0.6887  0.7562
 3740SOL     OW22855   4.625   2.738   9.985 -0.1090 -0.5680  0.5803
 3740SOL    HW122856   4.593   2.727  10.074  0.8414  1.6222  1.1850
 3740SOL    HW222857   4.669   2.818  10.012  1.8354 -1.7591  0.9811
 3741SOL     OW22858   1.330   0.521  13.711 -0.3854  0.3215 -0.4373
 3741SOL    HW122859   1.244   0.484  13.690  0.4775 -1.6258 -0.5690
 3741SOL    HW222860   1.353   0.477  13.792 -0.7886 -1.0378 -1.0652
 3742SOL     OW22861   3.816   1.355   7.943  0.1867 -0.0858 -0.0829
 3742SOL    HW122862   3.745   1.343   7.880 -0.5439 -0.2239  0.7682
 3742SOL    HW222863   3.760   1.364   8.020 -1.1673 -5.0331 -0.4328
 3743SOL     OW22864   4.368   0.763   6.709  0.2536 -0.2482  0.1696
 3743SOL    HW122865   4.387   0.794   6.621 -0.8676  0.7809  0.2946
 3743SOL    HW222866   4.299   0.828   6.723  0.5915  0.3090 -0.7645
 3744SOL     OW22867   0.115   3.015   5.776 -0.6681 -0.5370  0.2100
 3744SOL    HW122868   0.064   2.984   5.851 -2.1309 -0.6324 -0.8280
 3744SOL    HW222869   0.167   3.084   5.817 -0.7372  0.2400 -1.0077
 3745SOL     OW22870   1.681   3.095   9.239  0.7908  0.0733  0.1282
 3745SOL    HW122871   1.719   3.146   9.167 -0.1175  0.4227 -0.1110
 3745SOL    HW222872   1.592   3.131   9.238  0.0410 -1.7667  0.4152
 3746SOL     OW22873   0.330   4.297   9.215 -0.0068  0.0269  0.1397
 3746SOL    HW122874   0.407   4.243   9.196 -0.4725 -0.1882 -1.1819
 3746SOL    HW222875   0.278   4.234   9.265 -3.3562  3.2263  0.6809
 3747SOL     OW22876   2.410   4.353   0.142  0.3558 -0.9881  0.3638
 3747SOL    HW122877   2.474   4.351   0.212 -1.2457  0.8331  1.8788
 3747SOL    HW222878   2.456   4.304   0.073  1.3480  1.2309 -0.5360
 3748SOL     OW22879   1.324   0.865  14.838 -0.1423  0.6250 -0.1940
 3748SOL    HW122880   1.346   0.775  14.862 -4.2070 -0.1140  0.7368
 3748SOL    HW222881   1.357   0.860  14.748  2.3585  3.7637  0.5601
 3749SOL     OW22882   0.200   2.706  16.469 -0.0866 -0.0985 -0.3808
 3749SOL    HW122883   0.181   2.767  16.398  0.2223 -0.4991 -0.8018
 3749SOL    HW222884   0.174   2.628  16.421  1.2361  1.2525 -3.2477
 3750SOL     OW22885   0.672   3.150  16.062 -0.5707 -0.5298  0.5348
 3750SOL    HW122886   0.603   3.118  16.004  1.5800 -1.5951 -1.4541
 3750SOL    HW222887   0.710   3.213  16.000  2.8611 -0.9415  2.1893
 3751SOL     OW22888   2.005   0.897   5.851 -0.3762 -0.3099 -0.3340
 3751SOL    HW122889   2.025   0.912   5.758  1.3949  0.0605  0.1274
 3751SOL    HW222890   1.986   0.984   5.887  2.7504  0.2117 -0.0166
 3752SOL     OW22891   2.850   1.548   5.878 -0.0064 -0.3730 -0.1178
 3752SOL    HW122892   2.824   1.639   5.867  0.5463 -0.2455 -0.3779
 3752SOL    HW222893   2.839   1.528   5.971 -2.4886  0.5083 -0.2320
 3753SOL     OW22894   1.006   0.528  17.100  0.0204  0.5040  0.4279
 3753SOL    HW122895   0.980   0.436  17.108 -0.5469  0.5436 -0.8982
 3753SOL    HW222896   1.101   0.527  17.101  0.0737  3.2566 -1.2241
 3754SOL     OW22897   0.739   4.520   9.209 -0.6942  0.4806 -0.5860
 3754SOL    HW122898   0.778   4.555   9.289 -1.7216  1.9641 -0.7303
 3754SOL    HW222899   0.699   4.437   9.232  0.1335  0.5002  0.9529
 3755SOL     OW22900   1.937   0.180   1.927 -0.2687 -0.5793 -0.1772
 3755SOL    HW122901   1.909   0.091   1.905  1.5810 -1.9479  2.9468
 3755SOL    HW222902   1.917   0.188   2.020 -0.3964 -0.9022 -0.1765
 3756SOL     OW22903   2.763   2.211   6.458 -0.0238  0.1946  0.7379
 3756SOL    HW122904   2.858   2.208   6.456 -0.1396 -0.0420 -3.5553
 3756SOL    HW222905   2.743   2.294   6.414  0.3568 -0.3828 -0.5308
 3757SOL     OW22906   4.089   0.689   5.203 -0.1068  0.4661 -0.0037
 3757SOL    HW122907   4.184   0.684   5.200  0.0812  3.3505  1.2103
 3757SOL    HW222908   4.067   0.754   5.270 -0.0354  0.5189 -0.0317
 3758SOL     OW22909   4.175   4.445   1.896 -0.6183  0.8218 -0.2063
 3758SOL    HW122910   4.255   4.476   1.938 -0.3350 -0.4454  0.1916
 3758SOL    HW222911   4.116   4.515   1.922 -0.6910  1.2113 -1.4050
 3759SOL     OW22912   0.799   0.278   1.572  0.4479  0.2675  0.0302
 3759SOL    HW122913   0.793   0.202   1.514  0.5704  0.1522  0.1690
 3759SOL    HW222914   0.891   0.299   1.560  0.8005 -0.9662  0.6177
 3760SOL     OW22915   3.415   0.748   7.107  0.1177  0.2723  0.1472
 3760SOL    HW122916   3.348   0.683   7.086  3.2351 -2.5070 -1.0750
 3760SOL    HW222917   3.474   0.681   7.141  0.0928  0.4063  0.4538
 3761SOL     OW22918   3.841   1.141   1.219  0.1055 -0.3586  0.4443
 3761SOL    HW122919   3.846   1.058   1.267  2.8847 -0.7027 -0.4202
 3761SOL    HW222920   3.901   1.128   1.146 -1.1833 -1.0537 -0.4829
 3762SOL     OW22921   4.598   3.353  12.567  0.5114  0.0024  0.2209
 3762SOL    HW122922   4.563   3.429  12.612  0.3789 -0.3283  0.6812
 3762SOL    HW222923   4.657   3.394  12.504  0.6415 -0.6423 -0.0820
 3763SOL     OW22924   4.006   1.018   3.031 -0.0614 -0.0238  0.1813
 3763SOL    HW122925   3.956   1.082   2.981 -1.3870 -1.3749 -0.2001
 3763SOL    HW222926   3.974   0.935   2.995 -2.3082  0.1264  1.8294
 3764SOL     OW22927   2.421   1.013   9.720  0.4161 -0.5511 -0.0030
 3764SOL    HW122928   2.434   0.922   9.744 -3.2357 -1.5490 -1.8395
 3764SOL    HW222929   2.506   1.054   9.704  1.4898 -2.5106  0.7233
 3765SOL     OW22930   1.050   1.143   4.577 -0.1371 -0.2859 -0.6577
 3765SOL    HW122931   1.123   1.089   4.608  0.0023  1.4678  1.9945
 3765SOL    HW222932   0.994   1.086   4.525  0.8351 -1.8979  0.0520
 3766SOL     OW22933   0.418   0.378   4.950 -0.4664  0.2246  0.2036
 3766SOL    HW122934   0.423   0.403   4.858 -1.5125 -0.5878 -0.0657
 3766SOL    HW222935   0.327   0.353   4.965 -0.3058 -0.1329  0.5755
 3767SOL     OW22936   3.231   1.405   3.145 -0.3403 -0.6757 -0.1981
 3767SOL    HW122937   3.144   1.379   3.176  0.3790 -2.0217  0.6840
 3767SOL    HW222938   3.213   1.490   3.103  0.5402 -0.3821  0.0164
 3768SOL     OW22939   3.662   1.573   2.143  0.0936 -0.0499 -0.5557
 3768SOL    HW122940   3.726   1.588   2.213  0.9651  0.5079 -1.4726
 3768SOL    HW222941   3.594   1.630   2.179 -0.5031 -1.2998  0.2891
 3769SOL     OW22942   2.184   4.110   7.050  0.0234  0.6917  0.1740
 3769SOL    HW122943   2.094   4.083   7.067 -0.2079  1.2108 -0.2123
 3769SOL    HW222944   2.236   4.068   7.118 -0.5177 -0.1507  0.0654
 3770SOL     OW22945   0.886   4.718  11.973  0.0407 -0.3977  0.0227
 3770SOL    HW122946   0.928   4.638  12.004  1.6239  2.1154  4.2551
 3770SOL    HW222947   0.865   0.009  12.062  0.6432  1.3656 -0.4056
 3771SOL     OW22948   3.922   2.842   2.528  0.3977  0.1848 -0.1015
 3771SOL    HW122949   3.945   2.761   2.574 -1.1869 -1.1954 -1.7707
 3771SOL    HW222950   3.885   2.897   2.598  0.0061  1.2631 -1.1639
 3772SOL     OW22951   3.655   4.540   4.931  0.0311 -0.0913 -0.3498
 3772SOL    HW122952   3.563   4.548   4.954 -0.4853 -0.4351 -2.2763
 3772SOL    HW222953   3.694   4.626   4.949  2.4423 -1.6830  1.9708
 3773SOL     OW22954   4.098   2.732   0.386  0.1431  0.0494 -0.1145
 3773SOL    HW122955   4.043   2.654   0.395  1.6607 -1.1508 -1.3325
 3773SOL    HW222956   4.042   2.799   0.426 -2.3992 -1.9161 -0.3970
 3774SOL     OW22957   4.471   4.110  16.198 -0.2262 -0.2083 -0.3449
 3774SOL    HW122958   4.450   4.023  16.161  2.3671 -0.4118 -1.3038
 3774SOL    HW222959   4.378   4.135  16.204  0.2449  1.4516 -0.1158
 3775SOL     OW22960   1.277   0.868  12.170 -0.2355  0.4229 -0.4255
 3775SOL    HW122961   1.271   0.963  12.170  2.7749  0.6199  1.5327
 3775SOL    HW222962   1.315   0.856  12.083  0.4505 -0.3194 -0.0268
 3776SOL     OW22963   2.019   0.600   8.045  0.6530  0.0597  0.0586
 3776SOL    HW122964   1.961   0.530   8.014 -1.8687  2.6137 -0.9168
 3776SOL    HW222965   1.950   0.638   8.099  0.3729 -0.1513 -0.1467
 3777SOL     OW22966   3.442   4.617  11.206 -0.4166  0.3981 -0.1358
 3777SOL    HW122967   3.528   4.656  11.197  0.1987 -0.9943 -0.2496
 3777SOL    HW222968   3.415   4.622  11.298 -3.1993 -2.9963 -0.7661
 3778SOL     OW22969   0.554   2.656   0.806 -0.0410 -0.2450  0.3685
 3778SOL    HW122970   0.498   2.581   0.784 -0.0069 -0.7717  2.0685
 3778SOL    HW222971   0.620   2.618   0.864  0.0825 -1.5379 -0.5962
 3779SOL     OW22972   0.684   3.936   7.141 -0.6020  0.0193  0.0867
 3779SOL    HW122973   0.611   3.901   7.090 -0.9159 -0.4779  0.8695
 3779SOL    HW222974   0.680   3.877   7.216  0.1493  0.1994  0.2629
 3780SOL     OW22975   2.559   0.287  13.354  0.0799  0.3839 -0.5834
 3780SOL    HW122976   2.500   0.315  13.425 -0.6001  1.5233 -1.6020
 3780SOL    HW222977   2.633   0.336  13.391 -0.8068  0.2259  1.4149
 3781SOL     OW22978   2.490   0.559   0.860 -0.1323 -1.1581  0.2962
 3781SOL    HW122979   2.450   0.472   0.861 -2.0469 -0.2709  0.0432
 3781SOL    HW222980   2.426   0.614   0.815 -0.7862 -0.2220  2.4196
 3782SOL     OW22981   3.765   3.231   3.665 -0.1021 -0.5230 -0.6840
 3782SOL    HW122982   3.791   3.301   3.605 -0.8665 -1.4093 -2.0558
 3782SOL    HW222983   3.751   3.278   3.747 -0.3348 -1.4587 -0.1870
 3783SOL     OW22984   0.299   2.348   6.369 -0.6160  0.3816  0.4444
 3783SOL    HW122985   0.236   2.278   6.355  1.3574 -1.6382  1.5990
 3783SOL    HW222986   0.311   2.347   6.464  0.7502 -0.9301  0.2498
 3784SOL     OW22987   4.587   4.334   6.592 -0.3190  0.0422 -0.1542
 3784SOL    HW122988   4.502   4.300   6.619 -0.7730  0.9504 -0.4374
 3784SOL    HW222989   4.606   4.288   6.510 -0.9489  0.1646 -0.3712
 3785SOL     OW22990   0.790   4.606   7.823  0.0200  0.1464  0.3222
 3785SOL    HW122991   0.714   4.573   7.775 -1.5549  0.9470  2.2657
 3785SOL    HW222992   0.751   4.656   7.894 -0.7996  0.8633 -0.6357
 3786SOL     OW22993   1.588   1.045   6.759  0.1464  0.1423 -0.1198
 3786SOL    HW122994   1.643   0.984   6.709 -0.7608 -1.0899  0.3729
 3786SOL    HW222995   1.628   1.043   6.846  2.3466  2.1561 -1.0756
 3787SOL     OW22996   4.026   3.510   6.829  0.0439 -0.1807 -0.6578
 3787SOL    HW122997   4.088   3.514   6.757 -0.2564  2.0477 -0.7961
 3787SOL    HW222998   3.996   3.420   6.816 -0.8984  0.2897 -1.6873
 3788SOL     OW22999   0.518   2.857   7.521  0.0357  0.6468  0.5418
 3788SOL    HW123000   0.584   2.843   7.589  1.4894  3.2200 -0.3638
 3788SOL    HW223001   0.446   2.805   7.558  1.2181 -1.3670  0.0640
 3789SOL     OW23002   1.320   0.681  17.390 -0.5712 -0.5411 -0.0222
 3789SOL    HW123003   1.357   0.593  17.395 -1.6262 -0.9340  0.8510
 3789SOL    HW223004   1.265   0.671  17.312 -0.9069 -2.2132  0.4318
 3790SOL     OW23005   2.963   1.024  13.140 -0.7046  0.2562 -0.7136
 3790SOL    HW123006   3.009   0.962  13.196  2.9766  1.7899 -2.0231
 3790SOL    HW223007   2.908   0.960  13.095 -0.2488 -1.2312  0.8691
 3791SOL     OW23008   3.405   4.368   2.977 -0.1543  0.3000  0.2457
 3791SOL    HW123009   3.440   4.434   3.037 -1.2325  0.1453  1.0279
 3791SOL    HW223010   3.331   4.416   2.939  1.3406  0.5392 -2.3947
 3792SOL     OW23011   0.820   1.356   4.131  0.3928 -0.1163 -0.8873
 3792SOL    HW123012   0.775   1.279   4.098  1.8515 -1.3418 -0.0232
 3792SOL    HW223013   0.753   1.412   4.092  0.3446  0.4067 -0.0486
 3793SOL     OW23014   1.372   1.194   6.430  0.3255 -0.2289 -0.2487
 3793SOL    HW123015   1.466   1.185   6.416  0.0732 -0.7012 -1.7205
 3793SOL    HW223016   1.343   1.124   6.372  0.8708  1.4973 -2.6212
 3794SOL     OW23017   1.629   3.403   1.658  0.3289  0.3198  0.3927
 3794SOL    HW123018   1.701   3.366   1.710  0.5733  0.0629 -0.1301
 3794SOL    HW223019   1.633   3.491   1.695 -0.8900 -0.8907  3.3802
 3795SOL     OW23020   2.755   0.983   5.261  0.0908  0.4454  0.3107
 3795SOL    HW123021   2.837   0.998   5.308  1.0628  1.0995 -1.5991
 3795SOL    HW223022   2.724   1.072   5.245 -1.5881 -0.3482 -0.9291
 3796SOL     OW23023   4.625   1.283   5.452  0.4753  0.4573  0.0469
 3796SOL    HW123024   4.651   1.373   5.430 -1.4214  1.1810  0.7238
 3796SOL    HW223025   4.535   1.301   5.480 -0.1387 -2.8512  0.2121
 3797SOL     OW23026   2.687   2.426   3.294  0.4085 -0.5665 -0.0338
 3797SOL    HW123027   2.666   2.339   3.259 -2.8973  1.0650 -2.0806
 3797SOL    HW223028   2.738   2.473   3.228 -1.2407  0.7771 -0.3274
 3798SOL     OW23029   2.600   3.399  15.566  0.1221  0.0509  0.0576
 3798SOL    HW123030   2.670   3.376  15.627 -2.2546 -1.4311  2.2368
 3798SOL    HW223031   2.636   3.345  15.495 -1.3753 -0.2993 -0.4213
 3799SOL     OW23032   3.457   2.932   4.215  0.5706  0.3436 -0.0404
 3799SOL    HW123033   3.472   2.944   4.308 -2.9259 -0.8959  0.6790
 3799SOL    HW223034   3.485   2.841   4.205 -0.4196 -0.1605  1.9316
 3800SOL     OW23035   3.364   1.404  12.890  0.1168 -0.0894  0.1188
 3800SOL    HW123036   3.366   1.491  12.849  2.9502  0.6299  1.8110
 3800SOL    HW223037   3.297   1.367  12.832 -0.8726  1.4128  0.2967
 3801SOL     OW23038   3.923   4.240   9.658  0.0144 -0.6766 -0.0656
 3801SOL    HW123039   3.995   4.302   9.668 -0.4904 -0.5391  2.6768
 3801SOL    HW223040   3.958   4.161   9.698  0.8423 -0.3660 -0.1799
 3802SOL     OW23041   0.457   3.978   2.678  0.3041  0.1643  0.2511
 3802SOL    HW123042   0.547   3.944   2.684  0.2395 -0.1030 -0.2850
 3802SOL    HW223043   0.426   3.951   2.592 -0.3406 -0.2295  0.6072
 3803SOL     OW23044   2.850   0.728   5.480 -0.4115 -0.6258  0.1278
 3803SOL    HW123045   2.771   0.718   5.533 -1.1598  1.1249 -0.6267
 3803SOL    HW223046   2.807   0.744   5.396  1.1341  2.7942 -0.0162
 3804SOL     OW23047   2.039   4.329   2.811  0.0420 -0.4216 -0.1295
 3804SOL    HW123048   2.003   4.413   2.842  1.1871 -0.9734  2.7374
 3804SOL    HW223049   1.963   4.296   2.764 -1.5445  2.4405  0.3902
 3805SOL     OW23050   4.636   1.920  11.137 -0.1350 -0.1653 -0.7899
 3805SOL    HW123051   4.620   1.915  11.042 -0.9447 -0.7966 -0.6186
 3805SOL    HW223052   4.555   1.966  11.161  0.2928 -0.2332  0.7576
 3806SOL     OW23053   0.625   2.247  11.538  0.4163 -0.6275 -0.8543
 3806SOL    HW123054   0.692   2.272  11.475  0.8307 -0.5104 -0.3716
 3806SOL    HW223055   0.671   2.218  11.617 -0.5916  2.3825  0.8800
 3807SOL     OW23056   2.210   1.041   7.317  0.6896  0.1814  0.2849
 3807SOL    HW123057   2.162   0.999   7.388  0.1184  2.5387  1.2934
 3807SOL    HW223058   2.223   0.961   7.266 -1.6706 -0.7673  1.1655
 3808SOL     OW23059   0.017   0.325   3.186  0.8167  0.4977 -0.0428
 3808SOL    HW123060   0.092   0.285   3.142  2.4302  2.2544  1.1024
 3808SOL    HW223061   0.024   0.419   3.171  2.8469  0.2056 -0.9744
 3809SOL     OW23062   3.543   4.509   1.363  0.1284  0.4076 -0.7396
 3809SOL    HW123063   3.604   4.492   1.434  1.4002  0.7115 -1.7718
 3809SOL    HW223064   3.511   4.422   1.336  0.4519  0.2140 -0.5033
 3810SOL     OW23065   1.296   4.593   8.564  0.2623 -0.3167 -0.3684
 3810SOL    HW123066   1.218   4.607   8.619 -0.2717 -2.8125 -0.4616
 3810SOL    HW223067   1.365   4.655   8.589  1.2225 -1.0559 -1.1992
 3811SOL     OW23068   1.838   4.133  14.678 -0.2237  0.0746  0.3479
 3811SOL    HW123069   1.748   4.164  14.670  0.1569  0.4817 -2.4130
 3811SOL    HW223070   1.849   4.067  14.610 -1.8349 -0.1339  0.2810
 3812SOL     OW23071   3.208   3.679   6.266 -0.6965 -0.4604 -0.0828
 3812SOL    HW123072   3.216   3.615   6.195 -1.6090 -0.1882 -0.4243
 3812SOL    HW223073   3.144   3.638   6.324  1.0013 -3.2383 -0.1988
 3813SOL     OW23074   1.874   2.857  15.384  0.6742 -0.0151 -0.7940
 3813SOL    HW123075   1.810   2.804  15.336 -1.0681  0.1565  1.2961
 3813SOL    HW223076   1.947   2.798  15.401  1.5099  1.0961 -0.5471
 3814SOL     OW23077   0.521   0.945   1.876  0.4234  0.0197  0.1486
 3814SOL    HW123078   0.502   0.943   1.970 -1.4693  1.7930 -0.1948
 3814SOL    HW223079   0.487   1.034   1.863 -1.2353 -0.6317 -0.0567
 3815SOL     OW23080   3.772   4.475   1.201 -0.1403 -0.1532  0.0106
 3815SOL    HW123081   3.818   4.528   1.267 -0.5368 -0.4455  0.5238
 3815SOL    HW223082   3.681   4.476   1.230  0.6737  0.3283  2.6247
 3816SOL     OW23083   1.946   4.653   6.213 -0.5614 -0.5749  0.1529
 3816SOL    HW123084   1.971   0.005   6.229 -2.4318 -0.1583  0.7955
 3816SOL    HW223085   1.907   4.654   6.126 -1.3417 -2.3687  0.4675
 3817SOL     OW23086   3.411   0.159   4.322 -0.8180 -0.1012  0.1409
 3817SOL    HW123087   3.359   0.151   4.242 -2.0181  0.5685  0.8509
 3817SOL    HW223088   3.393   0.071   4.356  1.7881 -0.9504 -0.7004
 3818SOL     OW23089   3.680   2.802   7.810  0.2314  0.2141  0.2102
 3818SOL    HW123090   3.767   2.793   7.770 -0.1949  0.5622 -0.7970
 3818SOL    HW223091   3.677   2.741   7.883 -0.7280 -1.6878 -1.4406
 3819SOL     OW23092   1.831   4.336   5.489  0.2791 -0.3698 -0.0986
 3819SOL    HW123093   1.793   4.419   5.461  2.0567  0.1383 -1.0153
 3819SOL    HW223094   1.755   4.281   5.508 -0.1380  0.2632  0.0693
 3820SOL     OW23095   1.453   3.408  11.556  0.4125  0.3588  0.0131
 3820SOL    HW123096   1.462   3.504  11.555  0.7238  0.3543  1.8985
 3820SOL    HW223097   1.544   3.378  11.546  0.0651 -0.6091 -0.2140
 3821SOL     OW23098   2.274   2.880   3.088 -0.2090 -0.6967 -0.3638
 3821SOL    HW123099   2.262   2.940   3.015  3.0832 -1.8628 -1.8537
 3821SOL    HW223100   2.244   2.949   3.147  0.6430  0.2222 -1.0242
 3822SOL     OW23101   0.056   2.325  12.552 -0.2789 -0.3263 -0.2011
 3822SOL    HW123102   0.009   2.398  12.512  1.6327 -0.0111 -1.8835
 3822SOL    HW223103   4.735   2.253  12.527  0.3934 -1.3089  1.0446
 3823SOL     OW23104   2.224   0.756  11.033 -0.1258 -0.7948  0.2749
 3823SOL    HW123105   2.224   0.784  10.942 -2.1758  1.3327  0.9465
 3823SOL    HW223106   2.189   0.671  11.006 -1.5221 -0.1917  0.1828
 3824SOL     OW23107   1.207   0.086   3.716 -0.1018  0.5322 -0.1916
 3824SOL    HW123108   1.158   0.141   3.655  0.0586 -0.9614 -1.6526
 3824SOL    HW223109   1.247   0.022   3.657 -0.9760  1.1839 -1.5046
 3825SOL     OW23110   4.578   2.232   2.024 -0.1782  0.4641  0.1279
 3825SOL    HW123111   4.521   2.185   1.964 -0.1629  1.3363 -0.5785
 3825SOL    HW223112   4.627   2.283   1.959  0.0559  0.3715  0.2326
 3826SOL     OW23113   0.878   3.672  14.188 -0.2843  0.3980 -0.0499
 3826SOL    HW123114   0.873   3.708  14.099 -0.7979  1.3414  0.3700
 3826SOL    HW223115   0.807   3.609  14.179  0.4047 -0.3990  0.0008
 3827SOL     OW23116   0.704   1.269   7.357 -0.2480 -0.2058  0.7709
 3827SOL    HW123117   0.623   1.311   7.386 -0.8735 -2.7320  2.7182
 3827SOL    HW223118   0.758   1.288   7.433 -0.1254 -0.2842  0.7052
 3828SOL     OW23119   0.311   1.818   4.657 -0.0614  0.2356 -0.6658
 3828SOL    HW123120   0.333   1.909   4.676  0.2264  0.0110  0.0497
 3828SOL    HW223121   0.216   1.821   4.645 -0.2351 -0.5133  0.5565
 3829SOL     OW23122   1.805   2.960   8.583  0.2639  0.2101 -0.2968
 3829SOL    HW123123   1.854   3.010   8.648 -0.1220 -0.9121  0.8497
 3829SOL    HW223124   1.822   2.871   8.613  1.6183  0.0329 -1.6075
 3830SOL     OW23125   2.918   0.848  16.514  0.4568 -0.1029  0.2945
 3830SOL    HW123126   2.935   0.892  16.597  0.3536 -0.1664  0.3489
 3830SOL    HW223127   2.837   0.799  16.533  0.7056 -0.8675 -0.5901
 3831SOL     OW23128   2.367   1.184   5.117 -0.1311 -0.1563 -0.7387
 3831SOL    HW123129   2.372   1.094   5.086  0.1525 -0.0532 -0.9942
 3831SOL    HW223130   2.430   1.216   5.053 -1.2024 -1.1684 -2.3107
 3832SOL     OW23131   3.917   1.758   7.894 -0.2511 -0.2156 -0.0026
 3832SOL    HW123132   3.901   1.680   7.841 -1.2741  1.1889 -1.7039
 3832SOL    HW223133   3.945   1.715   7.975  2.4261 -2.3179 -2.0461
 3833SOL     OW23134   1.061   3.370   6.388 -0.1648  0.1231  0.1361
 3833SOL    HW123135   1.073   3.458   6.425 -0.2094  0.7989 -1.4581
 3833SOL    HW223136   1.084   3.378   6.296  2.6732  0.8703  0.9003
 3834SOL     OW23137   2.147   0.970   8.891 -0.2122 -0.2406 -0.3942
 3834SOL    HW123138   2.243   0.970   8.898 -0.0162 -0.4144 -2.8965
 3834SOL    HW223139   2.123   0.886   8.930  0.6948 -0.7995 -1.0377
 3835SOL     OW23140   3.790   1.124   8.453 -0.0492 -0.1622  0.6574
 3835SOL    HW123141   3.872   1.173   8.461 -0.4591  0.8034 -0.9661
 3835SOL    HW223142   3.808   1.032   8.470 -0.6106 -0.3184  0.3779
 3836SOL     OW23143   0.737   1.709  10.890  0.3225 -0.3357  0.9437
 3836SOL    HW123144   0.666   1.721  10.827  0.3217 -1.1367  0.8007
 3836SOL    HW223145   0.808   1.693  10.829 -0.1967 -1.4741  0.6341
 3837SOL     OW23146   2.068   1.339   4.593  0.0513  0.1583 -0.1149
 3837SOL    HW123147   2.159   1.314   4.577  0.0624  1.2168 -1.8004
 3837SOL    HW223148   2.070   1.434   4.582  1.4485  0.2459  0.9333
 3838SOL     OW23149   2.725   3.453   6.689 -0.7718 -0.1846  0.6241
 3838SOL    HW123150   2.680   3.476   6.608  0.0720  2.6398  0.9623
 3838SOL    HW223151   2.784   3.527   6.703 -0.6334 -0.0882 -0.4659
 3839SOL     OW23152   4.256   1.598  13.325 -0.0117 -1.0724  0.7807
 3839SOL    HW123153   4.297   1.546  13.255  0.7064 -1.2990  1.3683
 3839SOL    HW223154   4.240   1.684  13.287 -3.0075 -1.9889 -0.0582
 3840SOL     OW23155   1.230   1.644   3.742  0.1391 -0.7912  0.4467
 3840SOL    HW123156   1.263   1.587   3.673  0.4240  0.3253 -0.3314
 3840SOL    HW223157   1.212   1.593   3.821 -0.2886  0.2934  1.0486
 3841SOL     OW23158   1.778   4.288   2.399  0.2303  0.4788  0.3924
 3841SOL    HW123159   1.690   4.321   2.382 -0.2130  0.2865  2.3358
 3841SOL    HW223160   1.757   4.198   2.424  0.6027  0.7083  1.5393
 3842SOL     OW23161   1.123   1.015   4.933  0.1680  0.8503 -0.0318
 3842SOL    HW123162   1.043   1.052   4.972  0.3560 -0.1102  1.2665
 3842SOL    HW223163   1.144   0.938   4.986 -0.3570  1.2810  0.8133
 3843SOL     OW23164   4.484   1.697   7.477  0.4714  0.0772 -0.3435
 3843SOL    HW123165   4.443   1.717   7.392 -0.2865 -3.0756 -0.7539
 3843SOL    HW223166   4.511   1.607   7.456  0.0461  0.0579 -0.8000
 3844SOL     OW23167   0.369   1.155   3.535 -0.5894  0.4315 -0.2533
 3844SOL    HW123168   0.331   1.196   3.458 -0.3281 -1.6053 -1.4449
 3844SOL    HW223169   0.436   1.223   3.546  2.9288 -3.2293  1.0786
 3845SOL     OW23170   1.231   1.400   3.964  0.8085  0.2428 -0.1316
 3845SOL    HW123171   1.325   1.421   3.962  0.6613  0.8920 -0.2748
 3845SOL    HW223172   1.226   1.341   4.039  2.8059  1.1077  0.6852
 3846SOL     OW23173   3.065   2.693   5.386  0.1723  0.3838  0.5166
 3846SOL    HW123174   3.119   2.749   5.329 -0.0068  0.0435  0.0121
 3846SOL    HW223175   3.079   2.608   5.344  1.5886 -0.1982  2.2172
 3847SOL     OW23176   4.272   0.784  14.195 -0.0387 -0.7380 -0.0416
 3847SOL    HW123177   4.352   0.824  14.162  0.7134 -1.1357  1.2995
 3847SOL    HW223178   4.305   0.695  14.204  0.8312 -0.1572  2.6301
 3848SOL     OW23179   0.927   3.828   0.681 -0.1207 -0.1195  0.0189
 3848SOL    HW123180   0.919   3.741   0.642 -2.1299 -0.0072  0.1959
 3848SOL    HW223181   0.863   3.875   0.626  0.8095  1.0242 -0.0973
 3849SOL     OW23182   2.509   4.183   5.064  0.3412 -0.3655 -0.1072
 3849SOL    HW123183   2.586   4.209   5.114 -0.0146  1.0045 -0.2666
 3849SOL    HW223184   2.495   4.100   5.109 -0.2093  0.0886  0.5645
 3850SOL     OW23185   4.662   4.594   1.462  0.6711 -0.6677  0.2361
 3850SOL    HW123186   4.612   4.580   1.542  1.0732 -1.5333  0.3333
 3850SOL    HW223187   4.716   4.516   1.449  2.2687  0.4604  0.0428
 3851SOL     OW23188   0.320   1.519   7.310  0.6462  0.6890 -0.4354
 3851SOL    HW123189   0.341   1.440   7.360  0.3894  0.9791  0.1401
 3851SOL    HW223190   0.408   1.552   7.294  0.7872 -0.0137 -1.1245
 3852SOL     OW23191   0.599   3.157  16.332 -0.6900  0.0158  0.3210
 3852SOL    HW123192   0.632   3.155  16.243 -0.4681  0.8214  0.3907
 3852SOL    HW223193   0.511   3.192  16.320 -1.0859 -1.6778 -1.6348
 3853SOL     OW23194   1.466   1.178   1.572  0.3142 -0.1780 -0.2927
 3853SOL    HW123195   1.489   1.270   1.590 -3.0643  0.2562  1.7105
 3853SOL    HW223196   1.371   1.183   1.575  0.4054  1.8789 -1.0103
 3854SOL     OW23197   4.382   0.481   1.887  0.1687 -0.1196 -0.1084
 3854SOL    HW123198   4.413   0.415   1.826  0.4673 -1.3065  1.3507
 3854SOL    HW223199   4.307   0.435   1.926  0.2208  1.5958  2.0378
 3855SOL     OW23200   0.278   0.572   3.198  0.7542  0.1328  0.2913
 3855SOL    HW123201   0.273   0.636   3.127  1.9157  1.5940  1.5299
 3855SOL    HW223202   0.260   0.627   3.275 -0.5262  1.2831 -0.8217
 3856SOL     OW23203   1.623   0.652   0.089  0.1073  0.6913 -0.1883
 3856SOL    HW123204   1.577   0.654   0.005 -0.1352 -0.7406 -0.0899
 3856SOL    HW223205   1.671   0.573   0.064 -0.0235  0.8638 -0.9757
 3857SOL     OW23206   0.979   4.317  10.941 -0.4644 -0.9031  0.2378
 3857SOL    HW123207   1.055   4.366  10.908 -1.4877  1.2575  1.1278
 3857SOL    HW223208   0.948   4.275  10.861 -0.4208  1.6051 -1.0957
 3858SOL     OW23209   2.824   1.308   2.730  0.6143  0.3895  0.3320
 3858SOL    HW123210   2.804   1.306   2.823 -1.7636 -0.5303 -0.1900
 3858SOL    HW223211   2.775   1.388   2.709 -0.2478  0.5629  3.0127
 3859SOL     OW23212   2.551   0.844  11.856  0.5092  0.4974 -0.4332
 3859SOL    HW123213   2.549   0.828  11.762 -2.3450  0.1566 -0.3129
 3859SOL    HW223214   2.533   0.938  11.859  1.2719  0.6061  0.9145
 3860SOL     OW23215   4.458   1.685  16.253 -0.5496  0.2377  0.3917
 3860SOL    HW123216   4.386   1.629  16.280 -0.3002 -0.0807  0.3955
 3860SOL    HW223217   4.416   1.759  16.208 -0.0776  0.9341  1.0862
 3861SOL     OW23218   0.520   0.519   0.888 -0.3432  0.3536  0.2581
 3861SOL    HW123219   0.511   0.474   0.972 -2.7554 -2.3484 -1.4219
 3861SOL    HW223220   0.461   0.466   0.834  0.0251  1.8017 -1.5423
 3862SOL     OW23221   4.630   3.097   6.541  0.2511  0.0777  0.5883
 3862SOL    HW123222   4.667   3.009   6.531 -1.0905 -0.1026 -2.6903
 3862SOL    HW223223   4.545   3.065   6.572  0.8049 -1.2036  0.7910
 3863SOL     OW23224   1.945   0.587  17.157 -0.3679  0.1536  0.0998
 3863SOL    HW123225   1.961   0.495  17.133  0.0303  0.2279  0.0742
 3863SOL    HW223226   2.001   0.623  17.089 -3.2723  2.4330 -1.0441
 3864SOL     OW23227   1.579   1.827   9.333  0.0125 -0.1644 -1.0944
 3864SOL    HW123228   1.631   1.898   9.371  0.1981 -0.5137 -0.6978
 3864SOL    HW223229   1.644   1.757   9.341 -0.7758 -0.6207  1.4588
 3865SOL     OW23230   2.740   2.264  11.061 -0.4615 -0.0390 -0.5572
 3865SOL    HW123231   2.744   2.170  11.041 -0.0356 -0.5644  2.0627
 3865SOL    HW223232   2.646   2.284  11.068 -0.6630 -0.5770 -1.6758
 3866SOL     OW23233   2.514   3.108   1.780  0.6707 -0.1210 -0.2437
 3866SOL    HW123234   2.465   3.168   1.836 -0.0667 -1.0658  0.1034
 3866SOL    HW223235   2.550   3.172   1.717  1.0688  1.2617  1.3985
 3867SOL     OW23236   3.809   2.998  15.751 -0.1844 -0.4466 -0.0659
 3867SOL    HW123237   3.736   2.961  15.702 -1.1325 -0.0968  1.0773
 3867SOL    HW223238   3.854   3.061  15.695 -1.4190 -0.0817 -0.6433
 3868SOL     OW23239   1.408   2.089  12.443  0.3381 -0.0478  0.3090
 3868SOL    HW123240   1.468   2.095  12.517 -0.0215 -0.3265  0.6267
 3868SOL    HW223241   1.329   2.061  12.490 -0.3042  1.1459 -0.0538
 3869SOL     OW23242   4.393   2.057  11.149 -0.1201  0.6674  0.0755
 3869SOL    HW123243   4.300   2.081  11.142 -0.4124 -0.1330  1.2821
 3869SOL    HW223244   4.434   2.137  11.182 -0.8928  0.6491  1.0641
 3870SOL     OW23245   2.006   3.946   1.821  0.2543  0.1296  0.7456
 3870SOL    HW123246   1.914   3.939   1.847 -0.4691 -0.1197 -1.9356
 3870SOL    HW223247   2.041   3.897   1.896  1.2134 -0.2437  0.0469
 3871SOL     OW23248   0.649   4.299   2.009 -0.0250 -0.6650 -0.2324
 3871SOL    HW123249   0.722   4.324   1.953 -0.7307  1.2517 -0.2708
 3871SOL    HW223250   0.574   4.335   1.963 -1.1521 -2.3375  0.3009
 3872SOL     OW23251   2.626   2.229   8.108 -0.0387 -0.1304 -0.3261
 3872SOL    HW123252   2.606   2.157   8.048  2.5934 -1.8711  0.8682
 3872SOL    HW223253   2.619   2.191   8.196  1.0508  0.4961  0.0440
 3873SOL     OW23254   0.716   3.844   2.270  0.1980  0.8029 -0.4425
 3873SOL    HW123255   0.792   3.891   2.237  0.2096  2.2261  1.6311
 3873SOL    HW223256   0.768   3.769   2.299  2.2499  3.6547  3.3192
 3874SOL     OW23257   2.009   4.146   8.230 -0.1069  0.2413 -0.1537
 3874SOL    HW123258   2.029   4.102   8.313 -0.8315 -0.2309 -0.2325
 3874SOL    HW223259   2.032   4.238   8.238  2.8450 -0.4699 -0.1969
 3875SOL     OW23260   4.355   2.358   3.535 -0.0474 -1.0043  0.2580
 3875SOL    HW123261   4.405   2.398   3.464  0.8763  0.6752  1.8563
 3875SOL    HW223262   4.419   2.292   3.562 -0.5042 -2.1639 -1.5223
 3876SOL     OW23263   2.848   2.242   4.283  0.0795  0.7572 -0.7160
 3876SOL    HW123264   2.845   2.225   4.377 -2.2517  1.3585 -0.6883
 3876SOL    HW223265   2.770   2.291   4.255 -0.5875 -0.0071 -0.1942
 3877SOL     OW23266   1.596   2.374  16.251  0.2220 -0.0703  0.0005
 3877SOL    HW123267   1.666   2.323  16.209  0.0683  1.4114 -2.0880
 3877SOL    HW223268   1.562   2.304  16.306  1.6946 -1.3751 -0.7277
 3878SOL     OW23269   2.662   4.176   8.198  0.6601  0.1987 -0.3108
 3878SOL    HW123270   2.703   4.211   8.119  1.5183  0.9915  0.4812
 3878SOL    HW223271   2.683   4.244   8.262 -0.3689 -0.3992  0.6569
 3879SOL     OW23272   0.194   2.921   5.122 -0.2361 -0.0523  0.8636
 3879SOL    HW123273   0.251   2.989   5.159  0.6270 -0.4770  0.2884
 3879SOL    HW223274   0.108   2.964   5.131 -1.1003 -1.5191 -0.3485
 3880SOL     OW23275   1.331   2.841   4.296  0.4762  0.1939  1.0235
 3880SOL    HW123276   1.238   2.821   4.289  0.2521  2.1719 -1.9519
 3880SOL    HW223277   1.368   2.762   4.335 -1.5514 -2.3124 -2.1456
 3881SOL     OW23278   2.955   1.704   4.311  0.1051  0.2933  0.3099
 3881SOL    HW123279   2.938   1.795   4.333 -0.5149  0.1852  0.2945
 3881SOL    HW223280   2.986   1.668   4.393  0.7049 -0.4611 -0.2494
 3882SOL     OW23281   4.071   0.674   2.391  0.2252 -0.4101 -0.0933
 3882SOL    HW123282   4.105   0.728   2.462  1.2953  0.3150 -1.1624
 3882SOL    HW223283   3.987   0.645   2.428 -0.5351 -2.9972 -3.8033
 3883SOL     OW23284   3.001   1.287   6.086 -0.3174 -0.4803 -0.0253
 3883SOL    HW123285   2.967   1.371   6.116  0.8853 -0.6376  1.7430
 3883SOL    HW223286   2.937   1.244   6.029 -0.8230  0.3890 -0.1255
 3884SOL     OW23287   3.224   4.640   9.186 -0.1923  0.2324  0.0792
 3884SOL    HW123288   3.313   4.618   9.158 -0.6769  1.2032 -2.2277
 3884SOL    HW223289   3.181   4.659   9.103  0.8304  0.6188 -0.3604
 3885SOL     OW23290   0.952   3.059   4.740  0.8250 -0.0885 -0.1731
 3885SOL    HW123291   0.857   3.062   4.752  1.1559  2.7840  1.7624
 3885SOL    HW223292   0.946   2.998   4.666  0.5255 -0.5168  0.2076
 3886SOL     OW23293   1.247   1.474   4.511  0.4705 -0.2263 -0.4441
 3886SOL    HW123294   1.317   1.482   4.447  1.3413  2.7296  0.8802
 3886SOL    HW223295   1.284   1.447   4.595  0.2587 -0.4879 -0.4349
 3887SOL     OW23296   2.840   3.129  16.129 -0.0626  0.4671 -0.3999
 3887SOL    HW123297   2.913   3.190  16.140  0.9367 -0.5144 -1.5255
 3887SOL    HW223298   2.867   3.062  16.193 -0.1631  0.8444  0.0354
 3888SOL     OW23299   0.249   3.223  15.916 -0.5758 -0.0712  0.1641
 3888SOL    HW123300   0.178   3.207  15.853 -1.2817  2.4300  0.3423
 3888SOL    HW223301   0.200   3.187  15.990 -1.0127  0.1738 -0.0034
 3889SOL     OW23302   4.581   4.354   8.487 -0.8745 -0.1234  0.1433
 3889SOL    HW123303   4.488   4.351   8.511 -0.4106 -0.1249  1.9341
 3889SOL    HW223304   4.617   4.273   8.522 -0.2620 -0.4127 -1.1724
 3890SOL     OW23305   4.264   1.584   4.856 -0.0524  0.1465 -0.0430
 3890SOL    HW123306   4.242   1.656   4.797 -0.0496 -1.5654 -2.1342
 3890SOL    HW223307   4.347   1.621   4.885  1.3258 -1.4358 -2.0350
 3891SOL     OW23308   4.198   4.670   4.965  0.3769 -0.7939 -0.3319
 3891SOL    HW123309   4.173   4.605   4.900  0.5857 -1.2470  0.0344
 3891SOL    HW223310   4.153   0.005   4.924  0.0363 -0.8085  0.0198
 3892SOL     OW23311   0.924   3.362   8.648  0.2728 -0.4069  0.3868
 3892SOL    HW123312   0.863   3.300   8.687 -1.1451  0.3217 -0.6624
 3892SOL    HW223313   0.900   3.442   8.696  1.1530 -1.7096  2.9800
 3893SOL     OW23314   3.885   2.570  10.299 -0.5243 -0.1951 -0.3052
 3893SOL    HW123315   3.969   2.526  10.285  0.7352  2.2711 -0.5824
 3893SOL    HW223316   3.916   2.604  10.383 -1.9592  0.5454 -0.0812
 3894SOL     OW23317   4.638   3.802   2.215 -0.5153 -0.0286 -0.7834
 3894SOL    HW123318   4.679   3.716   2.202  0.2689  0.3714 -0.9191
 3894SOL    HW223319   4.610   3.803   2.307  0.3817 -1.2461 -0.4950
 3895SOL     OW23320   4.071   1.369   8.883 -0.1922 -0.0236  0.2919
 3895SOL    HW123321   4.041   1.367   8.974 -2.3502  1.7447 -0.3959
 3895SOL    HW223322   4.032   1.447   8.843 -0.4309 -0.4429 -0.2994
 3896SOL     OW23323   3.010   2.516   7.139  0.3784  0.2755  0.4419
 3896SOL    HW123324   2.945   2.580   7.168  0.5344  0.9379 -0.7175
 3896SOL    HW223325   3.088   2.533   7.193 -1.5260  0.6119  3.1043
 3897SOL     OW23326   4.460   3.110   5.830 -1.0036  0.5547 -0.3315
 3897SOL    HW123327   4.398   3.156   5.885 -2.4601 -1.6176 -0.1289
 3897SOL    HW223328   4.537   3.160   5.856 -0.7519 -1.0355  1.9151
 3898SOL     OW23329   2.604   2.338   1.558  0.6120 -0.1373 -0.4988
 3898SOL    HW123330   2.624   2.431   1.559  0.7861 -0.1824  1.6294
 3898SOL    HW223331   2.509   2.344   1.544  0.1298  0.9791  3.1336
 3899SOL     OW23332   0.769   1.969   2.512  0.3857 -0.0941 -0.4476
 3899SOL    HW123333   0.775   1.949   2.419 -1.2672 -1.1007 -0.3376
 3899SOL    HW223334   0.673   1.968   2.503  0.1937 -0.7055  1.6535
 3900SOL     OW23335   4.136   1.133   9.255 -0.6259 -0.1472  0.0090
 3900SOL    HW123336   4.230   1.121   9.242 -1.0648  0.5226 -3.7260
 3900SOL    HW223337   4.113   1.223   9.230  0.9981 -0.3664 -2.3271
 3901SOL     OW23338   0.953   2.052   2.719  0.0157  0.4473 -0.5813
 3901SOL    HW123339   0.919   2.040   2.808  0.6359 -0.2865 -0.4506
 3901SOL    HW223340   0.884   2.021   2.660  0.2791 -1.2454 -0.0087
 3902SOL     OW23341   0.156   1.545  17.177 -0.0608  0.5249  0.2065
 3902SOL    HW123342   0.074   1.594  17.178 -0.5103 -0.2525  1.0970
 3902SOL    HW223343   0.168   1.531  17.271 -2.2103 -1.9862  0.1107
 3903SOL     OW23344   0.602   1.055   7.800  0.2325  0.3425  0.1829
 3903SOL    HW123345   0.517   1.021   7.772 -0.1417  1.3105  0.1423
 3903SOL    HW223346   0.611   0.986   7.865 -1.0417  0.7167  0.7455
 3904SOL     OW23347   2.214   4.059  15.338  0.1130  0.1506 -0.1910
 3904SOL    HW123348   2.213   4.046  15.432 -0.7608  0.5716 -0.1423
 3904SOL    HW223349   2.258   3.977  15.313  1.5261 -0.1160  3.1690
 3905SOL     OW23350   1.422   0.313   9.832 -0.3757 -0.1936  0.1244
 3905SOL    HW123351   1.358   0.320   9.903 -1.1013 -0.2524 -0.5154
 3905SOL    HW223352   1.401   0.224   9.803  0.0987 -0.3883  0.3906
 3906SOL     OW23353   3.872   2.700   0.736  0.5605  0.2171 -0.7241
 3906SOL    HW123354   3.837   2.768   0.678  0.5926 -0.7754 -1.8860
 3906SOL    HW223355   3.813   2.625   0.730  0.4056  0.3982 -1.4154
 3907SOL     OW23356   0.076   2.798   4.798 -0.4272 -0.1892  0.0736
 3907SOL    HW123357   0.017   2.873   4.811  0.2339  0.7511 -2.2860
 3907SOL    HW223358   0.027   2.726   4.836  0.8950 -0.1227  1.8939
 3908SOL     OW23359   3.342   1.948   6.087 -0.3107  0.2142  0.7177
 3908SOL    HW123360   3.396   1.905   6.153 -0.3332 -1.1725 -0.1631
 3908SOL    HW223361   3.323   2.032   6.129  1.0873  0.1438  1.4751
 3909SOL     OW23362   2.616   4.452   7.523 -0.1354  0.2795 -0.3960
 3909SOL    HW123363   2.689   4.406   7.563 -0.1128 -0.6638 -1.5382
 3909SOL    HW223364   2.637   4.448   7.430  2.5050  1.2596  0.1621
 3910SOL     OW23365   2.396   3.301   4.145  0.2282  0.2892 -0.4074
 3910SOL    HW123366   2.368   3.350   4.223 -2.3017 -0.1323 -1.0625
 3910SOL    HW223367   2.314   3.292   4.096  0.1772 -0.3708 -0.2105
 3911SOL     OW23368   2.218   1.017   7.867  0.5097  0.1770  0.4607
 3911SOL    HW123369   2.146   1.071   7.834 -0.4521 -2.0498 -1.0890
 3911SOL    HW223370   2.177   0.958   7.931  0.1848 -1.0037 -0.8447
 3912SOL     OW23371   4.392   0.204   9.174  0.0670  1.0594  0.0956
 3912SOL    HW123372   4.447   0.151   9.231  1.7554  0.5135 -2.0041
 3912SOL    HW223373   4.455   0.238   9.110  0.5576 -1.3967 -0.7468
 3913SOL     OW23374   0.882   1.338  14.814  0.0128  0.4376  0.5310
 3913SOL    HW123375   0.929   1.276  14.870 -0.0975  0.4850  0.6758
 3913SOL    HW223376   0.796   1.314  14.846 -0.6098  2.3646  0.2935
 3914SOL     OW23377   3.237   4.258   3.229  0.6722  0.4655 -0.0021
 3914SOL    HW123378   3.254   4.351   3.217 -1.9981  0.5848 -2.8917
 3914SOL    HW223379   3.245   4.235   3.136  1.4739 -2.6262  0.8483
 3915SOL     OW23380   0.819   0.023  17.466 -0.3468  0.9130  0.3066
 3915SOL    HW123381   0.794   4.681  17.512  0.5449  1.0404  1.0008
 3915SOL    HW223382   0.847   0.081  17.536  0.0028 -1.4297  2.0962
 3916SOL     OW23383   3.148   0.807   3.615 -0.3327 -0.0198  0.0352
 3916SOL    HW123384   3.241   0.826   3.620 -0.1008 -0.7545 -1.3900
 3916SOL    HW223385   3.118   0.838   3.700 -0.5920 -1.6935  0.5414
 3917SOL     OW23386   0.792   4.205   9.609 -0.2992 -0.2270 -0.0166
 3917SOL    HW123387   0.842   4.171   9.535  1.1727 -1.3530  1.4901
 3917SOL    HW223388   0.826   4.164   9.689  1.1603 -0.3704 -0.7059
 3918SOL     OW23389   0.517   3.903   3.064  0.1289 -0.2100 -0.6629
 3918SOL    HW123390   0.429   3.888   3.097  0.3614  1.2089  0.6115
 3918SOL    HW223391   0.501   3.908   2.970 -2.6263 -1.1980 -0.2285
 3919SOL     OW23392   4.540   0.392   1.003 -0.2060  0.3168  0.1837
 3919SOL    HW123393   4.528   0.320   1.065 -2.7739 -0.6474 -1.4364
 3919SOL    HW223394   4.562   0.354   0.918 -2.5541 -3.2335  1.1605
 3920SOL     OW23395   3.088   0.225   3.003 -0.2224 -0.1724 -0.4170
 3920SOL    HW123396   3.109   0.253   2.914  0.4097 -0.0233 -0.2159
 3920SOL    HW223397   3.171   0.179   3.015  0.0169 -0.1082 -1.9298
 3921SOL     OW23398   2.206   0.199   8.956  0.2509 -0.3607  0.1168
 3921SOL    HW123399   2.301   0.191   8.966  0.3987  0.5674 -0.5179
 3921SOL    HW223400   2.182   0.125   9.011 -1.2639  0.6109  0.7797
 3922SOL     OW23401   0.068   3.997   4.474  0.2392  0.0954 -0.0892
 3922SOL    HW123402   0.079   3.906   4.500  0.1484 -0.1301 -0.8429
 3922SOL    HW223403   0.002   4.029   4.536 -0.0660 -0.8882  0.0882
 3923SOL     OW23404   1.591   2.757  13.299 -0.6198  0.1838 -0.0173
 3923SOL    HW123405   1.613   2.829  13.358 -1.5509  0.3323  0.1460
 3923SOL    HW223406   1.616   2.789  13.213  0.9002 -1.0259 -0.0282
 3924SOL     OW23407   1.343   3.018   3.599 -0.1851 -0.2063  0.6633
 3924SOL    HW123408   1.335   2.923   3.613  1.3082  0.0277  3.2361
 3924SOL    HW223409   1.404   3.043   3.669  0.5053 -2.3168  0.8332
 3925SOL     OW23410   3.019   3.492  14.118  0.5692 -0.5948 -0.6109
 3925SOL    HW123411   3.096   3.539  14.085 -1.9315  2.1339 -2.5939
 3925SOL    HW223412   2.984   3.456  14.036 -1.2172  2.0148 -0.9865
 3926SOL     OW23413   1.502   1.687  10.184 -0.4632 -0.5083 -0.3325
 3926SOL    HW123414   1.481   1.687  10.277 -1.4231  0.1232 -0.5472
 3926SOL    HW223415   1.574   1.627  10.204  0.4496  0.7696  0.1884
 3927SOL     OW23416   4.077   3.737   7.694 -0.0566 -0.2963  0.0514
 3927SOL    HW123417   3.995   3.786   7.697 -1.2091 -2.4274  2.9294
 3927SOL    HW223418   4.047   3.654   7.731 -0.5655 -0.8765 -1.6163
 3928SOL     OW23419   4.612   4.698   0.695  0.0399  0.7278  0.7295
 3928SOL    HW123420   4.556   4.709   0.618 -0.7396  1.9933  1.4827
 3928SOL    HW223421   4.683   4.654   0.648  0.1794  1.3634  0.3380
 3929SOL     OW23422   1.347   3.487   4.229  0.0229 -0.3449  0.4057
 3929SOL    HW123423   1.282   3.430   4.187  0.8603 -1.1878  0.2406
 3929SOL    HW223424   1.396   3.423   4.281  0.6009 -1.1557 -1.0994
 3930SOL     OW23425   1.320   0.608   7.142 -0.0016 -0.5135 -0.3805
 3930SOL    HW123426   1.327   0.643   7.231 -1.7220  0.0883 -0.4670
 3930SOL    HW223427   1.228   0.582   7.141 -0.1633  0.1031 -2.1100
 3931SOL     OW23428   0.506   4.598   3.720  0.0620  0.4408  0.7466
 3931SOL    HW123429   0.466   4.679   3.750  2.1298  0.0614  4.5807
 3931SOL    HW223430   0.470   4.604   3.632  0.0509 -0.7048  0.6646
 3932SOL     OW23431   0.921   2.299  10.280 -0.2591 -0.3194 -0.1365
 3932SOL    HW123432   0.836   2.339  10.262 -1.4503 -2.1522  1.4054
 3932SOL    HW223433   0.953   2.352  10.353 -2.6836 -0.1086  0.7542
 3933SOL     OW23434   2.790   4.448   9.758  0.1911  0.1403 -1.1262
 3933SOL    HW123435   2.780   4.543   9.758 -2.8384 -0.1937  0.2016
 3933SOL    HW223436   2.883   4.446   9.736  0.2531 -2.1309 -0.7070
 3934SOL     OW23437   4.145   0.285   2.707  0.2082  0.1236  0.1865
 3934SOL    HW123438   4.178   0.205   2.667  2.1249  1.3202 -0.6101
 3934SOL    HW223439   4.186   0.276   2.793  0.4385  0.4726  0.1116
 3935SOL     OW23440   2.673   1.736   7.257 -0.3497  0.2768 -0.0073
 3935SOL    HW123441   2.757   1.696   7.237  0.1657  1.2903  0.1773
 3935SOL    HW223442   2.646   1.679   7.330  1.4405 -1.5351 -0.7641
 3936SOL     OW23443   1.138   1.619   4.727  0.4927  0.4744 -0.1198
 3936SOL    HW123444   1.135   1.579   4.640 -1.3680  1.5407 -0.5429
 3936SOL    HW223445   1.215   1.675   4.712  1.3334 -0.2514  1.4271
 3937SOL     OW23446   1.335   0.860  11.896  0.7059 -0.8248 -0.0419
 3937SOL    HW123447   1.371   0.932  11.843  1.2891 -1.8171 -0.9884
 3937SOL    HW223448   1.344   0.791  11.830 -2.5170 -1.5233  0.2329
 3938SOL     OW23449   4.343   3.130   6.544 -0.0523  0.0741 -0.2134
 3938SOL    HW123450   4.279   3.147   6.475  1.7123  0.2390 -1.8110
 3938SOL    HW223451   4.416   3.183   6.512  1.9847 -2.7607 -0.2522
 3939SOL     OW23452   3.496   3.094   8.687  0.4696 -0.2442  0.0602
 3939SOL    HW123453   3.528   3.004   8.681  1.4373  0.0755  0.4317
 3939SOL    HW223454   3.533   3.133   8.608  0.6660  2.7299  1.6210
 3940SOL     OW23455   2.230   3.208   8.134  0.0078  0.2517  0.1477
 3940SOL    HW123456   2.142   3.222   8.169  0.2034  1.7804  0.0429
 3940SOL    HW223457   2.223   3.113   8.123  0.6137  0.0609  1.4098
 3941SOL     OW23458   1.034   3.717   8.876  0.3471  0.2245  0.7624
 3941SOL    HW123459   1.080   3.762   8.806 -0.3955  0.8117  0.6516
 3941SOL    HW223460   0.951   3.694   8.835  1.3313  1.1322 -1.7339
 3942SOL     OW23461   2.493   1.772  13.051  0.3382  0.1492  0.3525
 3942SOL    HW123462   2.561   1.742  13.111  0.6964  0.2690  0.0091
 3942SOL    HW223463   2.516   1.723  12.971 -0.0855 -1.3598  1.1508
 3943SOL     OW23464   3.588   2.801   8.938 -0.0734 -0.1252 -0.1050
 3943SOL    HW123465   3.648   2.728   8.948  0.2550  0.3170  1.1411
 3943SOL    HW223466   3.639   2.882   8.950 -0.5677  0.3496 -1.2790
 3944SOL     OW23467   2.684   2.242   4.577  0.0590 -0.4005 -0.7885
 3944SOL    HW123468   2.762   2.188   4.585  0.5613  0.5107  0.3850
 3944SOL    HW223469   2.620   2.172   4.568 -0.3599 -0.0804 -0.2766
 3945SOL     OW23470   0.762   2.296  12.714  0.3967 -0.6352  0.5337
 3945SOL    HW123471   0.803   2.268  12.632  3.9201  4.0116  0.7603
 3945SOL    HW223472   0.671   2.267  12.702  0.2549  0.6497 -1.5677
 3946SOL     OW23473   3.341   1.612  15.902 -0.0546 -0.1003  0.1555
 3946SOL    HW123474   3.286   1.654  15.968 -0.1428  0.2705 -0.1528
 3946SOL    HW223475   3.280   1.551  15.860  1.1731 -0.4728 -1.0580
 3947SOL     OW23476   1.287   0.893   1.737  0.1405  0.2430  0.4970
 3947SOL    HW123477   1.301   0.811   1.785 -0.2490  1.6677  3.0106
 3947SOL    HW223478   1.306   0.961   1.801  2.6036 -1.6837  1.8075
 3948SOL     OW23479   1.088   1.690   1.090  0.3840  0.1240  0.0206
 3948SOL    HW123480   1.130   1.713   1.007 -0.4085 -0.3671 -0.5182
 3948SOL    HW223481   1.138   1.735   1.157  0.3130 -0.1282  0.2415
 3949SOL     OW23482   4.017   0.329   2.455 -0.2430  0.0135 -0.2679
 3949SOL    HW123483   4.094   0.349   2.401  0.4482  2.8939  1.7477
 3949SOL    HW223484   4.060   0.309   2.538  0.8942 -1.0360 -1.1054
 3950SOL     OW23485   0.765   4.545  12.782 -0.1394 -0.5773  0.2159
 3950SOL    HW123486   0.675   4.556  12.814 -0.1069  0.1968  0.0308
 3950SOL    HW223487   0.793   4.481  12.847  0.0585  0.6318  1.3229
 3951SOL     OW23488   2.319   4.692  13.497 -0.9222 -0.3341 -0.1519
 3951SOL    HW123489   2.391   4.653  13.546 -2.5560 -1.5320  1.3149
 3951SOL    HW223490   2.370   4.735  13.429 -1.4374  0.0256 -0.3133
 3952SOL     OW23491   2.052   1.301   0.881  0.0475  0.5897  0.5713
 3952SOL    HW123492   2.123   1.334   0.936  0.7712  2.5925 -1.5385
 3952SOL    HW223493   2.107   1.284   0.805 -1.8903  0.4550 -0.7775
 3953SOL     OW23494   3.364   3.651   7.496 -0.3259  0.3745  0.0429
 3953SOL    HW123495   3.451   3.647   7.458  0.1426 -0.4670  1.2250
 3953SOL    HW223496   3.323   3.577   7.451  1.5278 -0.8071  0.3128
 3954SOL     OW23497   0.040   1.589   0.012 -0.7994  0.8338  0.3092
 3954SOL    HW123498   0.028   1.684   0.010  2.5593  1.2317 -0.4759
 3954SOL    HW223499   0.104   1.580   0.083  0.0560  0.4963 -0.5085
 3955SOL     OW23500   0.410   1.885   6.411 -0.7001 -0.3418  0.5920
 3955SOL    HW123501   0.348   1.862   6.342 -0.2239  2.7326 -0.8646
 3955SOL    HW223502   0.360   1.954   6.454 -1.6530 -0.1291 -0.8733
 3956SOL     OW23503   1.306   4.065   5.058 -0.4348  0.3347 -0.3784
 3956SOL    HW123504   1.378   4.077   5.119 -0.6669 -0.7690  0.1258
 3956SOL    HW223505   1.345   4.099   4.978  3.1829 -3.0605 -0.0802
 3957SOL     OW23506   4.000   0.554   7.040  0.8666 -0.2824  0.0975
 3957SOL    HW123507   4.010   0.481   7.102  1.3077  1.3968  2.0026
 3957SOL    HW223508   3.941   0.610   7.090 -0.4039  0.8238 -2.6404
 3958SOL     OW23509   2.428   0.261   8.098  0.7927 -0.0087  0.0639
 3958SOL    HW123510   2.343   0.272   8.142 -0.4663 -0.5093 -2.2429
 3958SOL    HW223511   2.415   0.306   8.014  2.0082  1.9498  0.9356
 3959SOL     OW23512   1.885   2.003  13.019  0.1591 -0.0693  0.0793
 3959SOL    HW123513   1.963   2.000  13.074  1.1282 -1.8707 -1.3946
 3959SOL    HW223514   1.860   2.096  13.024  1.4243  0.3744 -1.8651
 3960SOL     OW23515   1.822   3.672  13.230  0.4205  0.4985 -0.4812
 3960SOL    HW123516   1.814   3.767  13.224  0.1611  0.4469 -0.9249
 3960SOL    HW223517   1.914   3.649  13.214  0.4343 -0.0163  0.3044
 3961SOL     OW23518   1.639   2.341   7.093 -0.3519  0.0573  0.1944
 3961SOL    HW123519   1.614   2.306   7.178 -1.3250 -1.4316 -0.7046
 3961SOL    HW223520   1.722   2.298   7.070 -1.0924 -0.4256 -1.6121
 3962SOL     OW23521   3.537   3.374  17.517 -0.2008  0.0034  0.5681
 3962SOL    HW123522   3.446   3.396  17.538 -0.1020  0.9747 -0.0359
 3962SOL    HW223523   3.523   3.279  17.518  1.2866 -0.1972  2.4207
 3963SOL     OW23524   3.882   3.304   2.642 -0.4291 -0.8105 -0.1039
 3963SOL    HW123525   3.812   3.345   2.694  0.6569  2.5569 -1.3140
 3963SOL    HW223526   3.848   3.309   2.553  3.6543  0.5350 -1.5910
 3964SOL     OW23527   3.543   3.084  10.554  0.2463 -0.1900  0.0663
 3964SOL    HW123528   3.541   3.037  10.637 -0.5280  0.0957  0.2125
 3964SOL    HW223529   3.624   3.049  10.517 -0.3338 -0.5413 -0.8782
 3965SOL     OW23530   2.786   3.775   5.350 -0.1635  0.6212  0.1249
 3965SOL    HW123531   2.856   3.799   5.411  0.0308 -1.2404  0.6246
 3965SOL    HW223532   2.729   3.717   5.399 -0.8168  1.1636  0.0101
 3966SOL     OW23533   0.041   0.733   3.950  0.2134  0.4639  0.1714
 3966SOL    HW123534   4.696   0.725   3.902  0.8311 -1.4129 -0.6016
 3966SOL    HW223535   0.060   0.826   3.954 -1.9555  0.9257 -0.4175
 3967SOL     OW23536   2.089   0.444   6.813 -0.3396  0.2951  0.0035
 3967SOL    HW123537   2.050   0.396   6.886  0.0328 -0.7235 -0.4683
 3967SOL    HW223538   2.023   0.453   6.745  2.0578 -0.6019 -2.4206
 3968SOL     OW23539   3.478   4.102   8.458 -0.2715 -0.1488  0.1805
 3968SOL    HW123540   3.433   4.029   8.416  0.6967  0.4852 -1.9507
 3968SOL    HW223541   3.479   4.064   8.546 -1.6935 -2.2470 -0.7248
 3969SOL     OW23542   0.552   1.747   0.118 -0.5358  0.6620 -0.0905
 3969SOL    HW123543   0.583   1.744   0.027 -1.5001  0.2057 -0.4047
 3969SOL    HW223544   0.590   1.668   0.156 -1.6347  0.4314  0.5233
 3970SOL     OW23545   2.396   2.871   5.281 -0.0976 -0.1880  0.0852
 3970SOL    HW123546   2.333   2.940   5.262  0.7593  1.8177  4.5554
 3970SOL    HW223547   2.477   2.922   5.286  0.0877 -0.2283 -2.3882
 3971SOL     OW23548   3.999   4.035   5.631 -0.4469 -0.1641 -0.1082
 3971SOL    HW123549   4.014   4.129   5.622  1.7166 -0.2620  2.5745
 3971SOL    HW223550   4.027   4.008   5.544 -1.7394 -1.2997 -0.1757
 3972SOL     OW23551   0.162   4.157   9.370 -0.2896  0.1751 -0.1732
 3972SOL    HW123552   0.075   4.119   9.356  1.8106 -4.5702 -0.5404
 3972SOL    HW223553   0.204   4.079   9.408  1.2341  0.1317 -1.9299
 3973SOL     OW23554   3.755   4.407   5.947  0.1187 -0.1282 -0.6042
 3973SOL    HW123555   3.730   4.315   5.954 -0.0936 -0.1520 -1.6633
 3973SOL    HW223556   3.710   4.441   6.024  2.5664 -1.4601  1.4161
 3974SOL     OW23557   2.811   1.335   9.984 -0.3302  0.0537 -0.4761
 3974SOL    HW123558   2.838   1.303   9.897  2.4900 -1.3295  0.9019
 3974SOL    HW223559   2.722   1.301   9.982 -0.7935  1.2410  0.5009
 3975SOL     OW23560   0.631   1.117  11.779 -0.1990 -0.0372 -0.4890
 3975SOL    HW123561   0.560   1.069  11.820  0.5340 -0.1135  0.6724
 3975SOL    HW223562   0.689   1.127  11.854 -0.2617  1.5728 -0.6441
 3976SOL     OW23563   1.941   3.954   7.080 -0.0633 -0.5255  0.1260
 3976SOL    HW123564   1.854   3.976   7.047 -0.1484  0.8239  1.2669
 3976SOL    HW223565   1.957   3.875   7.028  1.8671 -0.4782  0.6678
 3977SOL     OW23566   1.357   0.071   9.692  0.1799  0.2769 -0.2785
 3977SOL    HW123567   1.416   0.002   9.720 -0.9042 -1.1198 -1.4438
 3977SOL    HW223568   1.269   0.034   9.689 -0.0030  0.5873  1.0039
 3978SOL     OW23569   1.371   3.422   3.914  0.6789 -0.1823 -0.1330
 3978SOL    HW123570   1.344   3.417   4.006  0.5820  1.2893 -0.0803
 3978SOL    HW223571   1.305   3.480   3.877  0.1374 -0.4857  0.3433
 3979SOL     OW23572   3.979   0.992   8.838 -0.4521  0.4788 -0.5277
 3979SOL    HW123573   3.975   0.960   8.928 -1.6729  0.4519 -0.5840
 3979SOL    HW223574   3.926   0.925   8.794  2.2479 -0.9073 -1.6655
 3980SOL     OW23575   3.693   3.226  10.835  0.3685 -0.1995  0.0182
 3980SOL    HW123576   3.773   3.269  10.804 -1.4532  0.4446 -3.8389
 3980SOL    HW223577   3.708   3.140  10.795 -0.8739 -0.7418  0.7130
 3981SOL     OW23578   4.369   4.431   5.280  0.1977 -0.0731  0.0908
 3981SOL    HW123579   4.316   4.507   5.259  0.8401  0.1284 -0.7943
 3981SOL    HW223580   4.407   4.459   5.364 -2.6282 -0.2299  1.4205
 3982SOL     OW23581   4.534   2.211   5.105  0.3382 -0.2087  0.5759
 3982SOL    HW123582   4.474   2.284   5.118  1.5176  0.6886  0.9380
 3982SOL    HW223583   4.483   2.157   5.045 -0.9262  1.8173 -0.1650
 3983SOL     OW23584   1.078   3.636   7.668  0.2038  0.1992 -0.5945
 3983SOL    HW123585   1.030   3.719   7.674  2.8410  1.6520  0.5408
 3983SOL    HW223586   1.165   3.666   7.640 -0.0703  1.1729 -0.4243
 3984SOL     OW23587   2.367   0.726   1.090 -0.4325 -0.0714  0.1505
 3984SOL    HW123588   2.439   0.766   1.139  1.6823 -1.2331 -2.0237
 3984SOL    HW223589   2.416   0.656   1.046 -1.1156 -1.2520  1.2638
 3985SOL     OW23590   1.767   1.553  17.261  0.0328 -0.5924  0.1905
 3985SOL    HW123591   1.819   1.593  17.331  0.3576  0.5710 -0.7298
 3985SOL    HW223592   1.762   1.461  17.286  2.3834 -0.7394  0.0517
 3986SOL     OW23593   4.123   1.724   3.966 -0.0837  0.1846  0.1242
 3986SOL    HW123594   4.045   1.684   3.927 -0.4119  1.8609 -0.9588
 3986SOL    HW223595   4.169   1.640   3.963  0.8034  0.7588 -2.3995
 3987SOL     OW23596   3.064   3.349  17.447  0.3018 -0.0254  0.3926
 3987SOL    HW123597   3.000   3.416  17.470 -0.0293 -0.3020  0.2648
 3987SOL    HW223598   3.019   3.299  17.380 -1.5092 -0.7587  2.1545
 3988SOL     OW23599   4.496   0.819   9.908 -0.3549 -0.1583  0.2833
 3988SOL    HW123600   4.438   0.838   9.834  1.3474  1.0069 -0.7363
 3988SOL    HW223601   4.436   0.772   9.965 -0.0692 -2.2506 -1.1407
 3989SOL     OW23602   1.224   1.224  11.912  0.2449  0.7219 -0.4347
 3989SOL    HW123603   1.172   1.283  11.966  0.2458 -0.0945  0.4774
 3989SOL    HW223604   1.171   1.226  11.833  0.4378  0.1355 -0.5826
 3990SOL     OW23605   2.834   0.812   3.457 -0.1620 -0.3966 -0.8010
 3990SOL    HW123606   2.742   0.831   3.439  0.1997  2.5639  0.5637
 3990SOL    HW223607   2.882   0.884   3.417 -3.9438  2.4695 -0.1199
 3991SOL     OW23608   1.263   2.755   6.447 -0.1559  0.5661 -0.2002
 3991SOL    HW123609   1.251   2.814   6.522 -1.0675  0.9745 -0.6615
 3991SOL    HW223610   1.176   2.749   6.406 -1.7647  1.1508  3.1415
 3992SOL     OW23611   4.398   2.055   9.291 -0.6236  0.0753 -0.2261
 3992SOL    HW123612   4.403   2.049   9.196 -2.1019 -3.4198 -0.0787
 3992SOL    HW223613   4.489   2.031   9.309 -0.2527  1.1494 -0.6504
 3993SOL     OW23614   0.020   3.791   8.510 -0.4179 -0.4729  0.3137
 3993SOL    HW123615   0.048   3.765   8.422 -0.1968  0.2526  0.1656
 3993SOL    HW223616   0.108   3.800   8.547 -1.1475 -1.2121  2.2475
 3994SOL     OW23617   1.223   3.869   7.257  0.4341 -0.1981 -0.2338
 3994SOL    HW123618   1.134   3.897   7.277  0.6966  1.0226 -0.7966
 3994SOL    HW223619   1.251   3.854   7.347  1.0728 -0.7712 -0.5227
 3995SOL     OW23620   1.624   2.614   7.192 -0.3502 -0.6844  0.1028
 3995SOL    HW123621   1.561   2.682   7.170 -0.3402 -0.5972  0.3405
 3995SOL    HW223622   1.618   2.553   7.119 -1.6897 -0.3588 -0.0628
 3996SOL     OW23623   1.363   1.501  11.719 -0.2052  0.2187 -0.7028
 3996SOL    HW123624   1.408   1.425  11.755  1.1985  1.5173  0.3074
 3996SOL    HW223625   1.281   1.504  11.768  0.6065  2.5938  0.5404
 3997SOL     OW23626   1.061   1.543  17.731  0.4068  0.1203  0.2750
 3997SOL    HW123627   1.140   1.507   0.021 -0.0281  1.6040  2.4103
 3997SOL    HW223628   1.061   1.488  17.652 -0.9473  1.0892 -0.3848
 3998SOL     OW23629   0.440   3.416  10.414  0.0030  0.7451 -0.0011
 3998SOL    HW123630   0.346   3.430  10.400  0.3615 -0.0345 -3.1455
 3998SOL    HW223631   0.453   3.421  10.508  0.3052  3.3977 -0.1676
 3999SOL     OW23632   1.682   2.439   1.683 -0.5388 -0.0982  0.5388
 3999SOL    HW123633   1.651   2.413   1.596  0.8602  0.9796 -0.2750
 3999SOL    HW223634   1.615   2.502   1.713  1.0617  1.2496  1.2644
 4000SOL     OW23635   4.055   1.408   4.890  0.3686 -0.0999  0.6898
 4000SOL    HW123636   4.134   1.461   4.894  0.9983 -0.8717 -1.8432
 4000SOL    HW223637   4.078   1.321   4.924 -4.3160 -1.5854  0.0433
 4001SOL     OW23638   2.093   3.144   6.079  0.6122 -0.1379 -0.3121
 4001SOL    HW123639   2.112   3.188   6.162 -0.5802 -0.9540  0.3985
 4001SOL    HW223640   2.171   3.156   6.025  1.2438  1.7045  1.0462
 4002SOL     OW23641   2.572   4.653   4.658  0.0554 -1.2176  0.3294
 4002SOL    HW123642   2.625   4.690   4.728  2.3044 -1.4050 -1.2816
 4002SOL    HW223643   2.605   4.696   4.580 -0.8926 -1.7646 -0.3823
 4003SOL     OW23644   3.447   1.783   1.948 -0.0236 -0.0163  0.0628
 4003SOL    HW123645   3.502   1.755   1.875  1.0217 -0.6303  1.0671
 4003SOL    HW223646   3.421   1.701   1.990 -2.1345  0.2892 -0.6841
 4004SOL     OW23647   2.467   2.245   7.300  0.1953  0.4558 -0.3792
 4004SOL    HW123648   2.493   2.154   7.288 -2.1427 -0.0537 -1.7245
 4004SOL    HW223649   2.551   2.290   7.297  0.4702 -0.1033 -0.8991
 4005SOL     OW23650   3.855   2.177  15.053 -0.1850 -0.2108  0.0496
 4005SOL    HW123651   3.924   2.112  15.072 -0.2685 -0.0958  0.7504
 4005SOL    HW223652   3.841   2.148  14.963  2.4014  0.5864 -0.6064
 4006SOL     OW23653   2.131   2.026  13.676 -0.3801 -0.2564 -0.6353
 4006SOL    HW123654   2.123   2.031  13.772  2.9946 -1.4488 -0.2904
 4006SOL    HW223655   2.183   1.946  13.669  2.1087  1.4492 -1.9481
 4007SOL     OW23656   4.432   3.766   0.470  0.7462  0.3613  0.2624
 4007SOL    HW123657   4.407   3.678   0.441  1.2532 -0.2494  1.6733
 4007SOL    HW223658   4.456   3.806   0.387  0.2426  0.2651  0.0735
 4008SOL     OW23659   1.011   2.331   2.801  0.0055 -0.1251 -0.1008
 4008SOL    HW123660   0.988   2.399   2.737  0.8192  0.3451  0.1119
 4008SOL    HW223661   0.958   2.257   2.772 -0.0337 -0.7855  1.6953
 4009SOL     OW23662   0.984   1.041   5.660 -0.2114  0.1346  0.8227
 4009SOL    HW123663   1.011   1.130   5.638 -0.5720 -0.1658 -0.8279
 4009SOL    HW223664   1.059   0.993   5.625  3.8227  4.7151  3.2002
 4010SOL     OW23665   3.092   0.714   6.245  0.3861  0.0206 -0.3432
 4010SOL    HW123666   3.140   0.631   6.240 -0.2783 -0.3381 -0.7569
 4010SOL    HW223667   3.148   0.780   6.285  0.0845 -0.2679  0.5550
 4011SOL     OW23668   3.688   1.758   3.253 -0.0148 -0.8404  0.4575
 4011SOL    HW123669   3.749   1.804   3.310  0.6113  0.0117 -0.9075
 4011SOL    HW223670   3.632   1.718   3.320 -0.2537  1.6065  1.6963
 4012SOL     OW23671   1.579   0.322   2.155 -0.3244 -0.6425 -0.1202
 4012SOL    HW123672   1.634   0.300   2.231 -0.0149  0.3647 -0.0486
 4012SOL    HW223673   1.523   0.382   2.204  0.1979  0.0335 -0.3404
 4013SOL     OW23674   4.106   2.955   3.251  0.1577 -0.5349  0.1546
 4013SOL    HW123675   4.068   3.024   3.306  2.6407  0.0534  1.1342
 4013SOL    HW223676   4.045   2.952   3.178  0.0659  0.5931  0.1801
 4014SOL     OW23677   0.319   2.115  11.289  0.0447  0.4035 -0.0204
 4014SOL    HW123678   0.248   2.077  11.341  1.0549 -1.9891 -0.3899
 4014SOL    HW223679   0.295   2.094  11.199  1.7102 -1.7162  0.0181
 4015SOL     OW23680   4.448   3.585   4.519  0.0721  0.0275  0.0348
 4015SOL    HW123681   4.501   3.597   4.440  0.0589  0.6990  0.1263
 4015SOL    HW223682   4.399   3.668   4.516 -1.3903 -0.8194  0.3353
 4016SOL     OW23683   4.632   4.143  16.982 -0.3591  0.6866  0.5025
 4016SOL    HW123684   4.714   4.095  16.988 -0.6674 -0.0991 -1.4507
 4016SOL    HW223685   4.617   4.166  16.890  0.7617  0.3055  0.2316
 4017SOL     OW23686   2.046   0.438   3.475 -0.1769  0.2145 -0.0970
 4017SOL    HW123687   1.978   0.505   3.483 -0.9911 -0.6034 -0.1152
 4017SOL    HW223688   1.985   0.367   3.454 -0.9563  0.7575  0.3236
 4018SOL     OW23689   4.487   4.473   9.266  0.5650  0.2389 -0.0579
 4018SOL    HW123690   4.579   4.497   9.256  0.1192  1.9404 -0.0696
 4018SOL    HW223691   4.467   4.420   9.189 -2.0794  0.7055  0.3175
 4019SOL     OW23692   3.724   3.954  13.354 -0.5577  0.2976  0.1137
 4019SOL    HW123693   3.716   3.938  13.448  4.6737 -0.2067  0.4649
 4019SOL    HW223694   3.655   4.018  13.336  0.0492 -0.0579 -3.4711
 4020SOL     OW23695   1.191   0.474   7.821  0.2124 -0.2311 -0.3885
 4020SOL    HW123696   1.226   0.563   7.826 -1.5241  0.4278 -0.1413
 4020SOL    HW223697   1.265   0.418   7.846  2.0233  1.5974 -1.6205
 4021SOL     OW23698   3.760   0.388  13.967 -0.1664 -0.1736  0.1304
 4021SOL    HW123699   3.837   0.385  14.023  1.7326 -1.5450 -2.5242
 4021SOL    HW223700   3.751   0.483  13.963  1.3723  0.0454  2.1139
 4022SOL     OW23701   2.645   0.158  16.030  0.3869  0.3188 -0.1463
 4022SOL    HW123702   2.734   0.147  15.995 -0.0047 -1.7490 -0.5395
 4022SOL    HW223703   2.641   0.253  16.028 -2.4332  0.1931  0.2094
 4023SOL     OW23704   1.129   1.217  11.662 -0.4405  0.5110  0.3758
 4023SOL    HW123705   1.143   1.167  11.581  3.5747  2.4973 -0.1625
 4023SOL    HW223706   1.080   1.297  11.641 -1.0530  0.2660  0.8970
 4024SOL     OW23707   1.568   2.158   1.259 -0.7824 -0.2886 -0.5336
 4024SOL    HW123708   1.503   2.191   1.197  1.1528 -1.4881 -3.2314
 4024SOL    HW223709   1.624   2.112   1.196  1.3003  0.1318  0.9858
 4025SOL     OW23710   3.652   1.320  12.853  0.3790  0.7988 -0.2431
 4025SOL    HW123711   3.699   1.307  12.935 -1.9536 -1.4125  0.7289
 4025SOL    HW223712   3.575   1.367  12.886 -0.4963 -0.8862  0.1202
 4026SOL     OW23713   2.320   3.386  15.482 -0.4046  0.0716  0.1828
 4026SOL    HW123714   2.254   3.347  15.540 -2.5916 -0.2804 -2.5420
 4026SOL    HW223715   2.404   3.370  15.525 -1.0890 -1.0417  1.1218
 4027SOL     OW23716   0.138   1.951   3.637 -0.0708  0.2107 -0.2116
 4027SOL    HW123717   0.182   1.873   3.606  1.3254  0.2551  1.6658
 4027SOL    HW223718   0.055   1.915   3.668 -0.3517  0.3121 -0.8608
 4028SOL     OW23719   3.648   0.864   7.309  0.5939  0.4886  0.6558
 4028SOL    HW123720   3.686   0.897   7.391  2.6667  1.1390 -0.5574
 4028SOL    HW223721   3.594   0.790   7.338  0.7689  0.9703  2.2357
 4029SOL     OW23722   3.805   3.374   7.901 -0.4138  0.0176 -0.2770
 4029SOL    HW123723   3.742   3.411   7.838 -2.8149 -0.8414  1.6041
 4029SOL    HW223724   3.766   3.293   7.933 -0.8397  0.5597  0.5808
 4030SOL     OW23725   2.900   0.021   4.562 -0.6080  0.1908 -0.2535
 4030SOL    HW123726   2.817   0.030   4.514 -0.0328 -1.1720 -1.5193
 4030SOL    HW223727   2.912   0.115   4.572 -0.5787  0.3900 -2.0760
 4031SOL     OW23728   4.424   3.297  11.117 -0.5511 -0.6144 -0.0495
 4031SOL    HW123729   4.493   3.333  11.173 -0.0260 -0.1754 -0.9848
 4031SOL    HW223730   4.399   3.216  11.161 -0.1413 -0.7817 -0.1219
 4032SOL     OW23731   4.644   3.880   0.580  0.8245  0.1369 -0.2699
 4032SOL    HW123732   4.601   3.802   0.545  1.0458 -0.6102  1.0864
 4032SOL    HW223733   4.626   3.952   0.520 -0.2639  0.3013  0.2614
 4033SOL     OW23734   4.103   0.150   3.405 -0.4997 -0.3524  0.6433
 4033SOL    HW123735   4.105   0.068   3.355 -0.1330 -1.6036  2.7002
 4033SOL    HW223736   4.030   0.123   3.460 -1.0881 -1.8605 -0.8961
 4034SOL     OW23737   2.672   2.588   8.751 -0.6805  0.5810  0.0113
 4034SOL    HW123738   2.661   2.532   8.673 -1.9629  1.5897 -0.5303
 4034SOL    HW223739   2.741   2.549   8.804  1.8139  3.4924 -1.1307
 4035SOL     OW23740   2.715   3.139   7.023  0.3010 -0.3424  0.0754
 4035SOL    HW123741   2.784   3.152   6.958 -0.2309  2.8039  0.1254
 4035SOL    HW223742   2.648   3.201   6.994  0.3797 -1.7112 -3.0598
 4036SOL     OW23743   4.387   4.590   5.600 -0.3903  0.0673 -0.5726
 4036SOL    HW123744   4.319   4.543   5.647  1.4725 -1.4463  0.5835
 4036SOL    HW223745   4.463   4.583   5.658  0.3236  2.0068 -1.2472
 4037SOL     OW23746   0.106   1.862   0.788 -0.4371 -0.1920 -0.4295
 4037SOL    HW123747   0.142   1.900   0.708  0.9567  1.0963  0.8215
 4037SOL    HW223748   0.186   1.874   0.839 -0.6639  2.7935 -0.7946
 4038SOL     OW23749   1.712   3.098   1.993 -0.4429 -0.5627  0.6146
 4038SOL    HW123750   1.697   3.005   1.978  1.4344 -0.5521 -1.3358
 4038SOL    HW223751   1.635   3.135   1.950  0.0574 -0.4587 -0.1820
 4039SOL     OW23752   0.744   1.184   5.987 -0.1797 -0.6306  0.2496
 4039SOL    HW123753   0.745   1.212   5.896  0.6719  1.1039  0.7974
 4039SOL    HW223754   0.832   1.205   6.019 -0.6257  1.2306  0.2335
 4040SOL     OW23755   0.911   1.341  11.524  0.1522  0.2126  0.4419
 4040SOL    HW123756   0.894   1.287  11.601  1.0979 -1.4284 -0.4981
 4040SOL    HW223757   0.844   1.321  11.459  2.3201 -3.6472 -0.5605
 4041SOL     OW23758   1.701   4.185   3.973  0.0282 -0.2435 -0.8121
 4041SOL    HW123759   1.611   4.200   4.003  0.3399  0.1480 -0.0835
 4041SOL    HW223760   1.711   4.090   3.979 -1.0889 -0.4407 -2.0486
 4042SOL     OW23761   2.932   1.374   3.129  0.4473  0.4377  0.1930
 4042SOL    HW123762   2.886   1.441   3.179 -0.0439  0.0797  0.2244
 4042SOL    HW223763   2.865   1.365   3.061  1.2675 -0.1647 -0.5329
 4043SOL     OW23764   1.308   3.668   4.790  1.0056 -0.7056 -0.2011
 4043SOL    HW123765   1.286   3.576   4.777 -0.1260 -0.5832  0.8474
 4043SOL    HW223766   1.237   3.705   4.737  1.0633  1.8372  1.4480
 4044SOL     OW23767   0.296   1.433   5.458 -0.0520  0.4735  0.2911
 4044SOL    HW123768   0.208   1.430   5.496  0.5134 -1.5824  1.4079
 4044SOL    HW223769   0.351   1.459   5.532  0.2973 -2.5102  1.0641
 4045SOL     OW23770   3.232   2.238   6.679 -0.0045 -0.3011  0.1093
 4045SOL    HW123771   3.142   2.256   6.707  0.2472  1.0010  0.0628
 4045SOL    HW223772   3.283   2.313   6.710  0.5768 -2.9851  5.7989
 4046SOL     OW23773   1.476   0.951  16.923 -0.5192 -0.4739  0.6915
 4046SOL    HW123774   1.506   0.928  17.010  0.2804 -1.3042  0.1999
 4046SOL    HW223775   1.441   1.035  16.951  0.5339  0.0500  0.4688
 4047SOL     OW23776   1.951   0.170   9.369 -0.5100  0.1101 -0.7000
 4047SOL    HW123777   1.957   0.163   9.274 -2.7726 -0.7584 -0.7880
 4047SOL    HW223778   1.948   0.076   9.391 -4.3228  0.3834 -0.0528
 4048SOL     OW23779   2.524   1.684   1.696  0.3382 -0.1404 -0.2405
 4048SOL    HW123780   2.587   1.714   1.762  0.2895  0.1600 -0.3327
 4048SOL    HW223781   2.503   1.607   1.750  1.2353 -0.0553  0.2475
 4049SOL     OW23782   0.316   2.056   6.585 -0.0042  0.0041 -0.2911
 4049SOL    HW123783   0.343   2.004   6.661  0.4838 -0.0543 -0.4997
 4049SOL    HW223784   0.380   2.123   6.608 -0.6764 -0.0450  1.7239
 4050SOL     OW23785   4.396   3.241  11.380  0.1448  0.2152 -0.1760
 4050SOL    HW123786   4.379   3.171  11.444 -1.7132  0.3069 -0.5775
 4050SOL    HW223787   4.352   3.318  11.416 -0.0188  0.0715 -0.0662
 4051SOL     OW23788   4.056   0.912  14.045  0.2253 -0.0846 -0.0368
 4051SOL    HW123789   3.991   0.922  14.114 -0.5476 -3.5245 -0.2569
 4051SOL    HW223790   4.126   0.965  14.082 -0.3517 -0.0997  1.1013
 4052SOL     OW23791   3.621   1.488   8.944  0.3687 -0.4138  0.1416
 4052SOL    HW123792   3.706   1.525   8.921  0.0331  0.4230  0.2460
 4052SOL    HW223793   3.597   1.521   9.031 -0.2083 -0.7553  0.1096
 4053SOL     OW23794   4.541   2.788   9.714 -0.0499  0.4867  0.5814
 4053SOL    HW123795   4.458   2.765   9.756 -0.0150  1.7265  1.3093
 4053SOL    HW223796   4.586   2.762   9.795  0.2597 -0.9134 -0.0328
 4054SOL     OW23797   0.074   1.669   2.376 -0.3979 -0.5807 -0.1095
 4054SOL    HW123798   0.076   1.591   2.320 -0.0574 -1.6338  1.3651
 4054SOL    HW223799   4.726   1.707   2.357 -1.0081 -1.2046  1.4387
 4055SOL     OW23800   2.771   2.866  10.258 -0.6874 -0.7878 -0.1649
 4055SOL    HW123801   2.816   2.909  10.186  0.0817 -0.8639  0.2786
 4055SOL    HW223802   2.781   2.775  10.230  1.1726 -0.4343 -0.6122
 4056SOL     OW23803   1.610   2.454  11.329 -0.2145  0.2015 -0.0221
 4056SOL    HW123804   1.614   2.530  11.271  0.9858  0.4050  0.3360
 4056SOL    HW223805   1.627   2.488  11.417  0.2870 -0.8307  0.2833
 4057SOL     OW23806   3.618   2.503   5.653 -0.2873  0.2120  0.0367
 4057SOL    HW123807   3.664   2.583   5.626 -0.0479 -0.3059 -1.1184
 4057SOL    HW223808   3.552   2.498   5.584  0.1366  0.4223 -0.3880
 4058SOL     OW23809   1.719   3.228  14.327  0.5162 -0.0275 -0.1994
 4058SOL    HW123810   1.676   3.260  14.248  1.7083  0.6079 -0.5972
 4058SOL    HW223811   1.648   3.171  14.356  2.2747  0.1511  4.4414
 4059SOL     OW23812   4.619   1.763   0.632  0.0658  0.1152  0.5309
 4059SOL    HW123813   4.542   1.730   0.677 -0.2435 -0.3969 -0.3789
 4059SOL    HW223814   4.675   1.790   0.705  2.1621 -0.0893 -0.9831
 4060SOL     OW23815   1.738   2.054   4.974  0.1253  0.4108  0.1307
 4060SOL    HW123816   1.678   2.012   4.912  0.3260  1.3425 -0.6770
 4060SOL    HW223817   1.704   2.142   4.989  0.0118  0.0249  2.2177
 4061SOL     OW23818   2.353   0.941   2.639 -0.2998 -0.8549  0.4710
 4061SOL    HW123819   2.365   0.872   2.705 -0.4578  0.8272  2.2570
 4061SOL    HW223820   2.426   1.002   2.639 -0.7892 -0.2669  0.0703
 4062SOL     OW23821   3.556   3.974   0.907 -0.2760  0.0495 -0.2742
 4062SOL    HW123822   3.634   3.980   0.851  2.9769  0.0456  4.2542
 4062SOL    HW223823   3.492   3.939   0.845  0.8394  0.6848 -1.7804
 4063SOL     OW23824   0.645   0.817   2.725 -0.1872  0.3262 -0.4220
 4063SOL    HW123825   0.678   0.891   2.776 -0.1555 -0.5797  0.8446
 4063SOL    HW223826   0.618   0.758   2.795 -1.0005  0.3484 -0.7179
 4064SOL     OW23827   2.724   0.964   6.047  0.2349  0.0611  0.6493
 4064SOL    HW123828   2.790   0.907   6.086  1.2288  0.0027 -1.0887
 4064SOL    HW223829   2.657   0.975   6.115 -1.2888 -2.1678 -0.4774
 4065SOL     OW23830   0.197   2.536   4.667  0.5220  0.1989 -0.1986
 4065SOL    HW123831   0.256   2.571   4.599 -0.3376  1.5225 -0.2821
 4065SOL    HW223832   0.177   2.617   4.714 -0.5934 -0.2163  0.0569
 4066SOL     OW23833   4.236   1.764   6.091 -0.3923  0.0741  0.3073
 4066SOL    HW123834   4.298   1.830   6.059 -0.0128  0.0553  1.0081
 4066SOL    HW223835   4.310   1.711   6.120  0.8814  0.8375 -1.4868
 4067SOL     OW23836   0.425   2.815   5.872 -0.0255  0.1163  0.3825
 4067SOL    HW123837   0.426   2.824   5.777 -1.0602 -1.3332  0.2472
 4067SOL    HW223838   0.336   2.786   5.890  0.4700 -1.1274  0.8441
 4068SOL     OW23839   0.559   1.654   3.538 -0.2591  0.1313 -0.1911
 4068SOL    HW123840   0.464   1.658   3.545 -0.6282 -2.4649 -3.5711
 4068SOL    HW223841   0.567   1.684   3.448 -0.0568  0.1950 -0.1527
 4069SOL     OW23842   1.956   1.876   7.044 -0.1897  0.1456  0.3691
 4069SOL    HW123843   1.882   1.816   7.039 -0.2896  0.4359 -1.6039
 4069SOL    HW223844   2.024   1.812   7.019 -0.4870 -0.2703  0.6214
 4070SOL     OW23845   0.665   0.569   7.648 -0.0308  0.2542 -0.2192
 4070SOL    HW123846   0.641   0.544   7.737  0.7897  0.3205  0.0221
 4070SOL    HW223847   0.608   0.512   7.596  1.8002 -1.2835 -0.5341
 4071SOL     OW23848   3.206   4.324   7.870 -0.1332 -0.3252 -0.2020
 4071SOL    HW123849   3.124   4.283   7.842 -0.5118 -0.6669  1.4297
 4071SOL    HW223850   3.242   4.267   7.938 -1.3145  0.1429  0.8070
 4072SOL     OW23851   0.816   1.759   4.762  0.0059 -0.5639  0.0498
 4072SOL    HW123852   0.856   1.780   4.678  1.7104  0.9402  1.2405
 4072SOL    HW223853   0.785   1.671   4.741  0.2058 -0.7030  0.3310
 4073SOL     OW23854   4.329   2.213   8.052 -0.2124 -0.1532  0.4754
 4073SOL    HW123855   4.406   2.193   8.106 -0.4680  1.5886  1.4704
 4073SOL    HW223856   4.293   2.285   8.104 -2.2686  0.1223 -1.3640
 4074SOL     OW23857   0.293   2.754   6.760 -0.0882  0.2380 -0.7607
 4074SOL    HW123858   0.331   2.749   6.673  0.4285  0.5588 -0.5536
 4074SOL    HW223859   0.210   2.790   6.728 -0.5548  0.0250  0.2180
 4075SOL     OW23860   2.872   3.324  16.947 -0.1516  0.5286  0.5319
 4075SOL    HW123861   2.836   3.237  16.930 -1.2871  0.3309  4.0014
 4075SOL    HW223862   2.935   3.291  17.011 -1.7057 -0.2292  1.6517
 4076SOL     OW23863   1.033   4.101  17.387  0.3251  0.2274  0.7120
 4076SOL    HW123864   1.097   4.172  17.395 -1.6755  1.9451  1.5730
 4076SOL    HW223865   0.961   4.138  17.437 -1.4435 -2.6736  0.3204
 4077SOL     OW23866   1.863   3.390   6.031  0.0944  0.2459  0.0097
 4077SOL    HW123867   1.930   3.327   6.007  1.5777  0.5733  3.3390
 4077SOL    HW223868   1.796   3.360   5.970  4.2369 -0.0865 -4.3371
 4078SOL     OW23869   3.445   1.696  12.355 -0.4061  0.6528  0.1060
 4078SOL    HW123870   3.508   1.740  12.298  1.8578  0.7108  2.6771
 4078SOL    HW223871   3.487   1.612  12.370  0.5236  0.7216 -2.0863
 4079SOL     OW23872   2.414   4.627   4.089  0.3369 -0.1757  0.5368
 4079SOL    HW123873   2.389   4.673   4.169  0.7950  1.3613 -0.1957
 4079SOL    HW223874   2.378   4.540   4.099 -0.9248  0.5976  2.5300
 4080SOL     OW23875   3.125   0.665  13.941  0.7573 -0.0452 -0.1981
 4080SOL    HW123876   3.200   0.641  13.887  1.7662 -0.0595  1.1997
 4080SOL    HW223877   3.056   0.683  13.877  0.3568 -2.3628 -0.4016
 4081SOL     OW23878   1.995   4.352  17.039  0.0633 -0.4946 -0.7272
 4081SOL    HW123879   2.058   4.418  17.011 -1.8467  2.1883  1.2224
 4081SOL    HW223880   2.040   4.271  17.016  0.8752 -0.6423  1.4327
 4082SOL     OW23881   4.670   4.362  17.178 -0.2826 -0.5910 -0.3239
 4082SOL    HW123882   4.669   4.282  17.125  0.3554 -1.1559  0.5317
 4082SOL    HW223883   4.671   4.322  17.265 -1.8611 -1.8270 -0.8723
 4083SOL     OW23884   3.030   1.236   7.811  0.2191  0.1577  0.8514
 4083SOL    HW123885   3.031   1.169   7.879 -0.5906 -0.2613  0.4503
 4083SOL    HW223886   2.946   1.211   7.774 -0.1633 -0.0804  1.8788
 4084SOL     OW23887   3.659   1.933  15.232 -0.7511 -0.0803  0.2315
 4084SOL    HW123888   3.744   1.912  15.272 -2.0040  0.2958  3.0858
 4084SOL    HW223889   3.599   1.877  15.282 -1.7412  0.4805 -0.3301
 4085SOL     OW23890   2.532   2.793   3.767  0.3394 -0.3757 -1.2141
 4085SOL    HW123891   2.494   2.738   3.699 -0.3573 -0.6186 -0.6322
 4085SOL    HW223892   2.507   2.764   3.855  3.2282 -0.9094 -0.5618
 4086SOL     OW23893   0.055   4.243  17.387 -0.1350 -0.2884 -0.9189
 4086SOL    HW123894   0.111   4.250  17.310  1.1357 -0.8674 -0.0450
 4086SOL    HW223895   0.064   4.333  17.421  2.0350 -1.1910  0.8942
 4087SOL     OW23896   2.849   4.671   5.436  0.3675  0.0878  0.2750
 4087SOL    HW123897   2.836   0.024   5.463  0.0654  0.0106  0.3906
 4087SOL    HW223898   2.816   4.664   5.347 -0.6062 -1.5979  0.7745
 4088SOL     OW23899   4.365   0.014   2.353  0.0009 -0.5067 -0.0680
 4088SOL    HW123900   4.416   0.053   2.282  0.8259 -1.9703 -0.2910
 4088SOL    HW223901   4.437   4.734   2.414 -0.0789  0.9260  0.4535
 4089SOL     OW23902   4.325   3.992  13.371  0.2498  0.0095  0.1044
 4089SOL    HW123903   4.231   3.979  13.355  0.3491  0.9668 -1.3089
 4089SOL    HW223904   4.358   4.032  13.290  1.7056  1.8459  1.6178
 4090SOL     OW23905   0.290   3.754  16.240  0.2932 -0.0203 -0.3187
 4090SOL    HW123906   0.291   3.761  16.145 -2.6655 -2.6130 -0.5407
 4090SOL    HW223907   0.204   3.790  16.257  0.9143  0.9482  0.8197
 4091SOL     OW23908   2.674   2.080   6.238  0.4901 -0.1571  0.0211
 4091SOL    HW123909   2.699   2.121   6.321  0.4986  1.3250 -0.7206
 4091SOL    HW223910   2.602   2.134   6.207  2.0622  2.0606  0.2185
 4092SOL     OW23911   1.290   2.765   8.551  0.1634 -0.4014 -0.4401
 4092SOL    HW123912   1.226   2.746   8.483 -0.4593  1.4217 -0.3619
 4092SOL    HW223913   1.296   2.861   8.546  0.4752 -0.1503  4.1398
 4093SOL     OW23914   1.614   1.516   4.935 -0.6943 -0.2800 -0.6326
 4093SOL    HW123915   1.573   1.598   4.961  0.4257  0.5603 -1.4928
 4093SOL    HW223916   1.649   1.489   5.020  1.7049 -1.2359 -1.9384
 4094SOL     OW23917   4.578   0.801   6.267  0.0874 -0.0999 -0.0144
 4094SOL    HW123918   4.579   0.708   6.245  4.0640 -0.2951  1.0865
 4094SOL    HW223919   4.625   0.851   6.200 -1.1186  1.9265  0.6613
 4095SOL     OW23920   2.969   4.095  11.978  0.3432 -0.1344 -0.6732
 4095SOL    HW123921   2.901   4.067  12.040 -1.1653  1.9417 -1.4272
 4095SOL    HW223922   2.963   4.188  11.998  1.7019 -0.4384  1.2287
 4096SOL     OW23923   3.320   1.086   8.110 -0.2100 -0.3702 -0.5459
 4096SOL    HW123924   3.353   0.996   8.105  2.0830  0.4316  0.2852
 4096SOL    HW223925   3.374   1.110   8.184 -0.8265 -0.0770 -0.1922
 4097SOL     OW23926   4.186   3.789   9.577 -0.4188  0.4521  0.2283
 4097SOL    HW123927   4.263   3.764   9.525  1.1772  2.7903  1.4914
 4097SOL    HW223928   4.138   3.844   9.516  0.6357  0.5518 -0.5196
 4098SOL     OW23929   0.067   4.605  17.184  0.0389 -0.0206  0.1097
 4098SOL    HW123930   0.119   4.591  17.104  0.5287  0.3069  0.3724
 4098SOL    HW223931   4.735   4.542  17.169  1.7086 -1.8412 -0.1591
 4099SOL     OW23932   3.486   2.466   2.799 -0.5119  0.3988  0.6931
 4099SOL    HW123933   3.565   2.478   2.746 -2.6227  0.0692 -2.5509
 4099SOL    HW223934   3.454   2.555   2.792  1.4898  0.9672 -1.4824
 4100SOL     OW23935   3.049   0.455  15.039 -0.2020  0.4299 -0.1651
 4100SOL    HW123936   3.085   0.529  14.989  0.2892  0.4111  0.1591
 4100SOL    HW223937   3.023   0.497  15.121  1.9252 -1.8938  1.6856
 4101SOL     OW23938   0.225   3.123   2.318  0.6088 -0.2215  0.1603
 4101SOL    HW123939   0.148   3.066   2.320  0.9444 -0.7086 -0.6436
 4101SOL    HW223940   0.281   3.079   2.254 -1.3822 -1.5429 -0.6806
 4102SOL     OW23941   0.695   0.583   1.275 -1.0344  0.0252 -0.2692
 4102SOL    HW123942   0.771   0.528   1.255 -0.7910  0.1408  0.3619
 4102SOL    HW223943   0.723   0.674   1.285  0.0408 -0.4112  0.6836
 4103SOL     OW23944   1.053   2.227   7.753 -0.5079  0.3199 -0.2087
 4103SOL    HW123945   1.030   2.224   7.660  0.1966 -1.5530 -0.3388
 4103SOL    HW223946   0.969   2.204   7.792 -0.2660 -2.1264 -1.0747
 4104SOL     OW23947   0.973   4.426   9.597  0.1433  0.0379 -0.6334
 4104SOL    HW123948   0.936   4.514   9.600  1.8134  0.7218  0.1888
 4104SOL    HW223949   0.893   4.374   9.595  0.0772  0.1019  0.6535
 4105SOL     OW23950   0.978   3.375   5.202 -0.2755 -0.7702 -0.1985
 4105SOL    HW123951   1.039   3.314   5.162  0.3960 -0.9791  1.1357
 4105SOL    HW223952   1.002   3.458   5.161 -2.1652  0.9356  2.1534
 4106SOL     OW23953   4.183   0.504   5.956 -0.6629  0.9082  0.6218
 4106SOL    HW123954   4.261   0.454   5.979 -1.1541 -0.8038 -1.4225
 4106SOL    HW223955   4.213   0.575   5.899 -0.8394 -1.2488 -2.1605
 4107SOL     OW23956   2.814   0.305   4.573 -0.3224 -0.1493 -0.0883
 4107SOL    HW123957   2.817   0.345   4.486 -1.2095  1.2100  0.5050
 4107SOL    HW223958   2.730   0.340   4.603 -0.2820 -0.0529 -0.0853
 4108SOL     OW23959   1.022   0.035   8.430 -0.2556 -0.4525 -0.1584
 4108SOL    HW123960   0.966   0.063   8.502  1.0432 -1.0537  1.0997
 4108SOL    HW223961   0.969   0.040   8.351  1.1515 -0.2934 -1.1060
 4109SOL     OW23962   4.261   0.080   0.979  0.0647 -0.2667 -0.5570
 4109SOL    HW123963   4.306   4.735   0.996  1.2034 -0.0041 -2.3075
 4109SOL    HW223964   4.330   0.134   1.019 -0.2826 -0.0358 -0.2667
 4110SOL     OW23965   2.066   2.439  13.423 -0.3369 -0.4378 -0.2490
 4110SOL    HW123966   2.139   2.499  13.407 -1.6845  1.1271 -0.5157
 4110SOL    HW223967   2.055   2.447  13.518 -2.9111 -2.1226 -0.4039
 4111SOL     OW23968   4.205   1.377   3.529  0.6121 -0.2214  0.1312
 4111SOL    HW123969   4.214   1.392   3.435  1.2119 -3.2604 -0.2906
 4111SOL    HW223970   4.182   1.284   3.529 -0.7674  0.1211 -0.4326
 4112SOL     OW23971   1.557   2.917   1.413 -0.9807 -0.2870 -0.2629
 4112SOL    HW123972   1.608   2.942   1.336  1.5655  0.5092  1.6841
 4112SOL    HW223973   1.567   3.007   1.446 -2.0364 -1.0732  2.1420
 4113SOL     OW23974   1.095   3.190  10.655  0.0506 -0.5736 -0.4403
 4113SOL    HW123975   1.133   3.216  10.571 -0.6343 -0.3093 -0.6696
 4113SOL    HW223976   1.026   3.254  10.668  2.7479  2.2426 -0.0399
 4114SOL     OW23977   3.137   1.090  14.072 -0.5144  0.5851  0.3561
 4114SOL    HW123978   3.129   1.025  14.142 -2.8942  0.7514  0.2353
 4114SOL    HW223979   3.178   1.041  14.002 -2.6065 -0.6702  0.0360
 4115SOL     OW23980   0.741   1.721   5.890 -0.2956  0.1934  0.4895
 4115SOL    HW123981   0.798   1.645   5.879 -0.4733  0.0019  0.9084
 4115SOL    HW223982   0.794   1.794   5.858  0.1754  0.1440  1.1731
 4116SOL     OW23983   3.079   0.130   8.756  0.0968  0.3871 -0.5680
 4116SOL    HW123984   2.986   0.107   8.759  0.4010 -0.6872  1.0889
 4116SOL    HW223985   3.088   0.223   8.773  2.4534  0.1568 -0.6026
 4117SOL     OW23986   0.361   3.420   2.730 -0.1545 -0.2490  0.2039
 4117SOL    HW123987   0.374   3.502   2.682  0.3609 -0.0251  0.7330
 4117SOL    HW223988   0.350   3.365   2.652  0.0776 -0.3378  0.2353
 4118SOL     OW23989   2.715   2.992   1.033  0.2624  0.1572 -0.3021
 4118SOL    HW123990   2.635   3.040   1.052 -1.1890 -2.0218 -0.9476
 4118SOL    HW223991   2.686   2.901   1.035 -1.2287  0.6310 -0.2762
 4119SOL     OW23992   4.634   1.830   1.014 -0.5336  0.0296  0.0332
 4119SOL    HW123993   4.619   1.891   0.942  0.8782  0.7231  0.3262
 4119SOL    HW223994   4.729   1.817   1.016 -0.5868 -0.7317 -2.1813
 4120SOL     OW23995   1.603   1.745   0.633 -0.1983 -0.0600 -0.1206
 4120SOL    HW123996   1.686   1.710   0.601 -0.1608  0.1110 -0.2114
 4120SOL    HW223997   1.598   1.705   0.720  0.2202 -0.1090 -0.1174
 4121SOL     OW23998   1.463   1.301   2.324  0.3057  0.0685 -0.3035
 4121SOL    HW123999   1.477   1.213   2.287  2.4947  0.3319 -0.0685
 4121SOL    HW224000   1.441   1.359   2.251 -1.4888  1.4483  1.3611
 4122SOL     OW24001   3.689   3.894   9.282  0.4738  0.0206 -0.2018
 4122SOL    HW124002   3.729   3.980   9.273 -0.5047  0.3461 -1.3802
 4122SOL    HW224003   3.633   3.886   9.205 -1.9327 -0.3848  1.5793
 4123SOL     OW24004   2.138   3.915   4.409  0.4047  0.3552 -0.1606
 4123SOL    HW124005   2.097   3.976   4.471  1.0900  1.2904 -0.6121
 4123SOL    HW224006   2.212   3.972   4.385 -0.0234  0.6384 -0.8199
 4124SOL     OW24007   3.178   1.145   8.941 -0.6383 -0.1621  0.5913
 4124SOL    HW124008   3.170   1.240   8.952  0.3903  0.1098 -1.0579
 4124SOL    HW224009   3.204   1.125   9.031 -1.0103 -2.9219  0.0791
 4125SOL     OW24010   2.044   2.749   6.481 -0.2968  0.1546 -0.2589
 4125SOL    HW124011   2.087   2.794   6.409  2.5402  1.2164  2.0954
 4125SOL    HW224012   2.053   2.814   6.551 -0.8794 -1.2275  1.0994
 4126SOL     OW24013   1.477   0.984  15.044 -0.4483 -0.5088 -0.1327
 4126SOL    HW124014   1.546   1.026  14.992 -2.1195  2.5416  0.1127
 4126SOL    HW224015   1.421   0.948  14.975 -1.5086  1.4874 -0.3318
 4127SOL     OW24016   0.909   0.519   2.379  0.5143  0.0207 -0.2430
 4127SOL    HW124017   0.923   0.563   2.463  2.3032  0.5054 -0.7775
 4127SOL    HW224018   0.907   0.593   2.317 -3.6131 -1.3513 -1.6900
 4128SOL     OW24019   3.290   1.938  15.279  0.3545 -0.1427 -0.2511
 4128SOL    HW124020   3.361   1.891  15.323 -1.1055 -2.3723 -0.2289
 4128SOL    HW224021   3.220   1.904  15.334  1.8971 -0.4986  1.4734
 4129SOL     OW24022   1.599   4.548   0.412 -0.3233  0.4871  0.2017
 4129SOL    HW124023   1.632   4.582   0.329  0.5008  1.4950  0.9339
 4129SOL    HW224024   1.623   4.628   0.459 -1.5382  1.0059 -0.0595
 4130SOL     OW24025   0.903   2.437  17.377 -0.3108  0.0817 -0.2650
 4130SOL    HW124026   0.892   2.496  17.451  1.0683 -1.3980  1.1253
 4130SOL    HW224027   0.952   2.495  17.319  1.2604  0.7017  1.7018
 4131SOL     OW24028   4.412   3.026  10.619  0.3265  0.0144 -0.2073
 4131SOL    HW124029   4.413   3.094  10.552 -0.1270 -1.5671 -1.8112
 4131SOL    HW224030   4.440   3.086  10.688  0.3687 -0.4789  0.2053
 4132SOL     OW24031   0.974   0.295   3.180  0.2029  0.0618  0.2701
 4132SOL    HW124032   1.058   0.263   3.214 -1.7520 -3.5293  1.7038
 4132SOL    HW224033   0.983   0.273   3.088  1.2301 -3.4988  1.2279
 4133SOL     OW24034   0.053   1.533  16.901 -0.3196 -0.2910  0.4233
 4133SOL    HW124035   0.005   1.467  16.952 -1.3127 -0.0854 -0.2620
 4133SOL    HW224036   0.018   1.613  16.939 -2.3097  0.0811 -2.2327
 4134SOL     OW24037   1.376   1.966   7.214 -0.4900  0.6588 -0.0917
 4134SOL    HW124038   1.325   1.961   7.296 -1.7812 -0.9630 -0.9902
 4134SOL    HW224039   1.309   1.975   7.146  1.4647 -0.6840 -2.1715
 4135SOL     OW24040   4.426   4.647  13.131  0.6864  0.4130 -0.2949
 4135SOL    HW124041   4.430   4.667  13.038 -1.0040  2.3395  0.0506
 4135SOL    HW224042   4.337   4.613  13.136  2.3720 -4.1443 -0.7815
 4136SOL     OW24043   0.100   2.975   4.546 -0.1672 -0.8234 -0.2249
 4136SOL    HW124044   0.096   2.885   4.578  0.5707 -0.4839  0.8085
 4136SOL    HW224045   0.046   3.026   4.606  1.7155 -2.1524  2.5709
 4137SOL     OW24046   3.776   1.405   1.548  0.6427  0.0268 -0.2066
 4137SOL    HW124047   3.861   1.362   1.536  0.9462  0.4237  0.5234
 4137SOL    HW224048   3.758   1.376   1.637  0.5543  0.2744 -0.1438
 4138SOL     OW24049   3.450   4.505   6.670  0.5519 -0.0747  0.0939
 4138SOL    HW124050   3.388   4.523   6.741 -0.6268  0.7538 -1.1651
 4138SOL    HW224051   3.522   4.457   6.713  0.1967 -0.7620 -0.0770
 4139SOL     OW24052   4.729   1.560   0.340 -0.0589 -0.3388 -0.0109
 4139SOL    HW124053   4.707   1.469   0.321  2.4907 -0.9632  0.1212
 4139SOL    HW224054   0.072   1.576   0.292 -0.3479  0.8011 -0.1336
 4140SOL     OW24055   1.941   1.052  10.701 -0.1085 -0.2612  0.4963
 4140SOL    HW124056   1.978   1.015  10.621  0.0120 -2.5588  1.6236
 4140SOL    HW224057   1.919   1.143  10.681 -2.8617 -0.7655  1.1468
 4141SOL     OW24058   3.685   3.321   8.767 -0.0999  0.0019 -0.3808
 4141SOL    HW124059   3.700   3.353   8.678  1.2448 -0.6229 -0.3747
 4141SOL    HW224060   3.592   3.341   8.779 -0.7233 -0.3455 -4.8374
 4142SOL     OW24061   1.271   0.431   6.666 -0.1263  0.4032 -0.2071
 4142SOL    HW124062   1.183   0.394   6.678 -0.9017  1.6844 -1.8692
 4142SOL    HW224063   1.263   0.444   6.571  1.5853 -0.3455 -0.4488
 4143SOL     OW24064   2.504   1.931   7.577  0.1854  0.6007  0.2553
 4143SOL    HW124065   2.410   1.932   7.557  0.2543  0.5951 -0.0654
 4143SOL    HW224066   2.531   1.977   7.498 -0.4103 -1.3970 -1.1289
 4144SOL     OW24067   4.644   3.721  12.962  0.3488  0.6495 -0.0752
 4144SOL    HW124068   4.706   3.732  13.034  0.4427  0.5413 -0.1385
 4144SOL    HW224069   4.580   3.672  13.013  2.0580  0.3626  1.7837
 4145SOL     OW24070   1.984   2.797   2.158  0.3062 -0.3201 -0.3743
 4145SOL    HW124071   1.938   2.828   2.236  1.2020 -0.6773  0.2931
 4145SOL    HW224072   2.044   2.871   2.157 -2.2291  1.7469 -0.1602
 4146SOL     OW24073   3.100   3.046   3.399 -0.0602 -0.5220  0.0152
 4146SOL    HW124074   3.152   3.126   3.401  0.4560 -0.8876  1.0933
 4146SOL    HW224075   3.031   3.062   3.334 -0.5919 -1.8257  0.2472
 4147SOL     OW24076   1.602   0.720   3.374  0.2895 -0.0776 -0.1049
 4147SOL    HW124077   1.522   0.719   3.427  0.9616  3.0236  0.9367
 4147SOL    HW224078   1.603   0.806   3.333  0.0849 -0.2067 -0.3792
 4148SOL     OW24079   1.318   0.505   5.012  0.0697 -0.5541 -0.1569
 4148SOL    HW124080   1.305   0.577   4.950 -1.6824 -2.5244 -2.0810
 4148SOL    HW224081   1.227   0.495   5.039  0.3580 -2.0945  0.2211
 4149SOL     OW24082   2.665   1.784   8.075 -0.2912 -0.1317 -0.1605
 4149SOL    HW124083   2.641   1.787   7.983 -0.9259  0.7198  0.0346
 4149SOL    HW224084   2.756   1.808   8.059 -0.3414  0.5659  0.5709
 4150SOL     OW24085   0.988   4.274   4.340 -0.2571 -0.3941  0.3123
 4150SOL    HW124086   0.900   4.293   4.307 -0.0394 -0.5450 -0.3690
 4150SOL    HW224087   0.982   4.179   4.341 -0.0321 -0.4082  0.2981
 4151SOL     OW24088   4.453   2.879   3.845 -0.0136 -0.5261  0.2214
 4151SOL    HW124089   4.395   2.955   3.833  2.2020  1.1701  0.1752
 4151SOL    HW224090   4.402   2.803   3.820 -0.9137 -0.4301  1.7732
 4152SOL     OW24091   3.285   4.368   9.519  0.1506 -0.1558 -0.4147
 4152SOL    HW124092   3.330   4.285   9.537 -1.3020 -0.8745 -0.1034
 4152SOL    HW224093   3.337   4.440   9.555  0.5725 -0.9198  0.5124
 4153SOL     OW24094   4.664   4.351   5.351  0.1584 -0.4962 -1.0264
 4153SOL    HW124095   4.661   4.256   5.360  0.5787 -0.5306 -1.2330
 4153SOL    HW224096   4.607   4.369   5.276  1.4588  0.2264 -1.8503
 4154SOL     OW24097   0.910   3.681  11.852 -0.2526 -0.3086 -0.2636
 4154SOL    HW124098   0.953   3.595  11.852  1.5921  0.6122 -0.3478
 4154SOL    HW224099   0.983   3.738  11.827 -0.7277  0.0184 -0.8965
 4155SOL     OW24100   1.105   0.232  12.295 -0.4644 -0.6479 -0.2990
 4155SOL    HW124101   1.179   0.256  12.350 -0.0362 -2.3140 -0.1311
 4155SOL    HW224102   1.044   0.215  12.368 -1.7066 -2.9175 -1.8442
 4156SOL     OW24103   3.484   1.543   7.951 -0.0150 -0.0242 -0.4606
 4156SOL    HW124104   3.529   1.603   7.891  0.5988  1.8370  1.8121
 4156SOL    HW224105   3.541   1.469   7.932  0.7782  0.0474  1.6251
 4157SOL     OW24106   1.738   0.932   4.354 -0.3058  0.0442 -0.2862
 4157SOL    HW124107   1.646   0.941   4.330 -0.1561 -0.4292 -1.0431
 4157SOL    HW224108   1.766   0.845   4.326  0.2053 -0.7576  2.6554
 4158SOL     OW24109   1.480   0.997   4.590  0.3199 -0.3104  0.3183
 4158SOL    HW124110   1.389   0.969   4.599 -0.8065  3.5150  0.6769
 4158SOL    HW224111   1.528   0.958   4.664 -2.9778 -1.4267  1.8784
 4159SOL     OW24112   4.065   1.038   9.485 -0.4232  0.2739  0.1582
 4159SOL    HW124113   4.073   1.106   9.552 -1.0667 -1.5812  2.1368
 4159SOL    HW224114   4.054   1.095   9.409  1.6452 -2.4908 -2.2157
 4160SOL     OW24115   2.005   3.346   8.833  0.6279 -0.6679  0.2488
 4160SOL    HW124116   2.000   3.327   8.926  0.7461 -0.7245  0.2423
 4160SOL    HW224117   2.081   3.404   8.840  0.6223 -0.8078  1.4762
 4161SOL     OW24118   1.460   0.069   3.997 -0.3898  0.2280  0.1216
 4161SOL    HW124119   1.520   0.007   4.038 -1.1660 -1.3955 -1.1759
 4161SOL    HW224120   1.422   0.019   3.925 -1.2828 -0.4480  1.0700
 4162SOL     OW24121   0.020   0.095   8.479 -0.1524 -0.4980 -0.6740
 4162SOL    HW124122   4.726   0.046   8.403  0.0830  0.5850 -1.4740
 4162SOL    HW224123   0.071   0.168   8.444  0.1295 -0.7392 -0.7664
 4163SOL     OW24124   1.841   3.955  14.446 -0.1147  0.4206 -0.4665
 4163SOL    HW124125   1.811   3.867  14.470  2.2004 -0.2194  0.1342
 4163SOL    HW224126   1.755   3.982  14.416 -0.3351 -2.1989 -2.2590
 4164SOL     OW24127   3.795   2.707   0.132 -0.5618 -0.2303 -0.0114
 4164SOL    HW124128   3.866   2.745   0.184  0.2766  0.0542 -1.3747
 4164SOL    HW224129   3.711   2.720   0.176  0.3970 -1.2078  2.1228
 4165SOL     OW24130   1.772   0.281   7.055 -0.3589  0.0461 -0.6492
 4165SOL    HW124131   1.682   0.312   7.042 -0.9068 -1.4408 -0.4044
 4165SOL    HW224132   1.763   0.239   7.141 -1.1004  2.2094  0.3406
 4166SOL     OW24133   4.737   4.554   9.144 -0.4193 -0.4458  0.3485
 4166SOL    HW124134   0.058   4.587   9.212  1.8199 -2.7116 -0.5284
 4166SOL    HW224135   0.051   4.481   9.112 -1.2968 -0.8964 -0.0684
 4167SOL     OW24136   0.495   3.415   9.587 -0.4426  0.4546  0.2191
 4167SOL    HW124137   0.514   3.399   9.679  0.3475 -0.6814 -0.1480
 4167SOL    HW224138   0.550   3.490   9.562 -1.3056  2.2054  3.5887
 4168SOL     OW24139   1.865   3.789  17.614 -0.1602  1.0102  0.3158
 4168SOL    HW124140   1.833   3.725  17.678  4.1555  0.3862  1.8346
 4168SOL    HW224141   1.812   3.748  17.546  1.4456  0.4500 -0.5976
 4169SOL     OW24142   4.166   1.092   5.582  0.5898  0.4521 -0.8508
 4169SOL    HW124143   4.156   1.004   5.546  0.8445 -0.5664  1.5868
 4169SOL    HW224144   4.140   1.076   5.673  0.1516  2.0284 -0.7046
 4170SOL     OW24145   1.690   0.835   5.893 -0.3099 -0.0387 -0.3766
 4170SOL    HW124146   1.782   0.821   5.917 -0.9059  0.1972  2.0414
 4170SOL    HW224147   1.657   0.753   5.928 -1.0296 -0.8789 -3.0389
 4171SOL     OW24148   3.611   4.364   9.675 -0.1252  0.1669  0.2607
 4171SOL    HW124149   3.700   4.352   9.709 -0.3158 -2.0339 -0.0475
 4171SOL    HW224150   3.611   4.309   9.597  0.8363 -1.8109  1.6534
 4172SOL     OW24151   1.187   0.079   2.762  0.1864  0.1400 -0.7209
 4172SOL    HW124152   1.274   0.052   2.792 -0.9083 -1.5187  0.9482
 4172SOL    HW224153   1.195   0.088   2.667 -2.6761 -1.0059 -1.0722
 4173SOL     OW24154   2.308   1.602   3.868 -0.1353  0.0809  0.4185
 4173SOL    HW124155   2.262   1.524   3.902  0.6997 -1.3039 -1.6774
 4173SOL    HW224156   2.351   1.641   3.944  1.2531  1.8894 -1.3258
 4174SOL     OW24157   3.334   3.782   3.963  0.5248 -0.0173  0.2541
 4174SOL    HW124158   3.323   3.754   3.872  1.0330  1.6535 -0.3119
 4174SOL    HW224159   3.324   3.695   4.001 -1.2247  0.2406  0.3660
 4175SOL     OW24160   2.686   1.842   4.072 -0.6296 -0.0021  0.1533
 4175SOL    HW124161   2.624   1.892   4.126 -0.2181 -0.3637  0.9538
 4175SOL    HW224162   2.637   1.761   4.061 -1.6922  0.4962  1.1432
 4176SOL     OW24163   0.592   2.919   5.124  0.2612 -0.6181 -0.5861
 4176SOL    HW124164   0.667   2.897   5.180  0.3014  1.4249  0.1574
 4176SOL    HW224165   0.617   3.008   5.099  0.2358 -0.6898 -0.8626
 4177SOL     OW24166   3.970   0.912  16.656 -0.5491  0.3231 -0.5115
 4177SOL    HW124167   3.933   0.998  16.675  0.9960  1.0354 -0.7094
 4177SOL    HW224168   3.983   0.878  16.744 -0.1543 -0.1359 -0.7477
 4178SOL     OW24169   3.516   0.849  13.949 -0.1416 -0.0165  0.3387
 4178SOL    HW124170   3.502   0.804  14.032 -1.2662  0.2107  0.2738
 4178SOL    HW224171   3.564   0.923  13.985  1.7327 -0.8378 -0.4414
 4179SOL     OW24172   4.158   3.355   2.732  0.4540 -0.5735  0.3518
 4179SOL    HW124173   4.109   3.437   2.746  0.9129 -0.5931  2.1272
 4179SOL    HW224174   4.092   3.287   2.736 -0.2963  0.0920 -0.8872
 4180SOL     OW24175   1.620   2.575  15.834 -0.1531 -0.6264  0.0057
 4180SOL    HW124176   1.677   2.607  15.903 -1.4733  1.6700  0.0309
 4180SOL    HW224177   1.539   2.568  15.884  0.5566 -1.5805  1.0189
 4181SOL     OW24178   1.412   1.017   2.243  0.0603  0.2011  0.0354
 4181SOL    HW124179   1.456   0.961   2.307 -0.5482  2.1136  2.1259
 4181SOL    HW224180   1.429   0.972   2.160 -0.4292 -1.5261  0.8587
 4182SOL     OW24181   3.470   3.410   6.475 -0.7945 -0.4595 -0.1327
 4182SOL    HW124182   3.384   3.448   6.489 -1.1391 -1.4143  0.3763
 4182SOL    HW224183   3.453   3.323   6.438 -1.0487 -0.1232 -0.8044
 4183SOL     OW24184   4.218   0.180   8.965  0.0146 -0.0027  0.4670
 4183SOL    HW124185   4.265   0.195   9.047 -0.2340 -2.5294  1.0731
 4183SOL    HW224186   4.160   0.109   8.991  1.4514 -1.7270 -1.0412
 4184SOL     OW24187   4.280   4.241  16.528 -0.3392 -0.2978  0.0653
 4184SOL    HW124188   4.275   4.336  16.523 -0.0810 -0.3954 -1.8833
 4184SOL    HW224189   4.373   4.224  16.519  0.0980  2.1806 -0.0926
 4185SOL     OW24190   2.140   1.897   2.417  0.1006  0.5247  0.6786
 4185SOL    HW124191   2.163   1.805   2.401  0.4425  1.1146 -2.1857
 4185SOL    HW224192   2.189   1.914   2.498  2.3245 -0.2015 -0.4941
 4186SOL     OW24193   3.935   2.911   7.025 -0.3459 -0.2735 -0.4278
 4186SOL    HW124194   3.894   2.936   6.942  0.3708  2.0405 -0.0979
 4186SOL    HW224195   3.859   2.916   7.083 -1.2024 -1.4920 -1.4523
 4187SOL     OW24196   2.247   0.851   3.075  0.1728  0.0420 -0.3026
 4187SOL    HW124197   2.174   0.795   3.045  1.1928 -0.2159 -2.2567
 4187SOL    HW224198   2.320   0.790   3.066  1.9991  2.2607 -0.1952
 4188SOL     OW24199   1.763   0.100  10.229 -0.0494 -0.3678 -0.3816
 4188SOL    HW124200   1.803   0.159  10.166 -0.0169  0.4138  0.3674
 4188SOL    HW224201   1.715   0.044  10.168 -0.2167 -1.5212  0.8000
 4189SOL     OW24202   4.476   4.021   1.846  0.4132 -0.0256 -0.4123
 4189SOL    HW124203   4.494   3.927   1.838 -1.5075 -0.1666 -2.9499
 4189SOL    HW224204   4.391   4.013   1.891  1.5141 -0.5416  1.5644
 4190SOL     OW24205   2.927   2.449   7.663 -0.2815  0.2541 -0.7220
 4190SOL    HW124206   2.965   2.534   7.641 -3.0152  2.1490  1.7966
 4190SOL    HW224207   2.896   2.461   7.753  1.2467 -0.8813 -0.0323
 4191SOL     OW24208   4.068   2.466   3.760 -0.1918  0.8935  0.0531
 4191SOL    HW124209   4.098   2.389   3.713 -1.5930  0.2488  0.1996
 4191SOL    HW224210   4.008   2.422   3.820 -0.3820  1.9045  0.6184
 4192SOL     OW24211   4.534   2.573   7.579  0.6452 -0.1710 -0.2104
 4192SOL    HW124212   4.518   2.555   7.672  1.7580 -1.5964 -0.2915
 4192SOL    HW224213   4.579   2.658   7.578  1.9831 -0.8634  0.1656
 4193SOL     OW24214   3.896   3.968   5.884 -0.4314 -0.1099 -0.4563
 4193SOL    HW124215   3.939   4.019   5.815  2.4286 -0.2707  1.2078
 4193SOL    HW224216   3.974   3.939   5.932  2.1908  1.6075 -3.6777
 4194SOL     OW24217   3.207   4.404   6.606 -0.1888 -0.0399 -0.0782
 4194SOL    HW124218   3.223   4.310   6.601 -0.3057  0.0163 -1.4883
 4194SOL    HW224219   3.297   4.437   6.607 -0.4097  0.5078  1.4693
 4195SOL     OW24220   2.128   0.066   4.077 -0.4933  0.0789 -0.1402
 4195SOL    HW124221   2.214   0.048   4.038 -0.0080  0.8342  0.5710
 4195SOL    HW224222   2.111   4.714   4.104  0.7892  0.0007  0.4409
 4196SOL     OW24223   4.520   3.430   8.390 -0.0109  0.6990 -0.3827
 4196SOL    HW124224   4.445   3.401   8.337  0.3015  1.2927 -1.1573
 4196SOL    HW224225   4.591   3.393   8.338  0.0610  0.0653  0.1686
 4197SOL     OW24226   1.199   4.258   5.560 -0.2233 -0.6991  0.2696
 4197SOL    HW124227   1.253   4.311   5.619  2.0603 -1.5640 -1.0253
 4197SOL    HW224228   1.175   4.176   5.602 -0.7610  0.8628  2.9969
 4198SOL     OW24229   1.939   0.481  11.414 -0.2417 -0.4469 -0.1061
 4198SOL    HW124230   1.972   0.418  11.351  1.5615  3.4443 -3.0367
 4198SOL    HW224231   2.017   0.537  11.418  0.3004 -1.2816  1.0935
 4199SOL     OW24232   1.516   0.880   5.395 -0.5081 -0.7846  0.1519
 4199SOL    HW124233   1.444   0.868   5.457  0.2330 -0.2503  1.1162
 4199SOL    HW224234   1.485   0.954   5.344 -1.0514 -1.2921 -0.2554
 4200SOL     OW24235   0.426   3.668   2.876 -0.2955  0.0190 -0.0673
 4200SOL    HW124236   0.504   3.680   2.820  0.5505 -0.2422  1.0531
 4200SOL    HW224237   0.427   3.574   2.893  1.5174 -0.1348 -0.9083
 4201SOL     OW24238   3.456   2.146   0.899 -0.5265  0.3641  0.2364
 4201SOL    HW124239   3.539   2.136   0.945 -0.2221  2.1176  0.0947
 4201SOL    HW224240   3.420   2.060   0.882 -1.2130  0.5684  0.6736
 4202SOL     OW24241   0.865   3.937  11.275 -0.0689  0.4555 -0.1223
 4202SOL    HW124242   0.948   3.982  11.290  1.4824 -1.7726 -1.9960
 4202SOL    HW224243   0.896   3.848  11.256 -2.1625 -0.1419 -0.7341
 4203SOL     OW24244   4.306   1.026   8.148 -0.2721 -0.2668  0.3454
 4203SOL    HW124245   4.254   1.097   8.186 -0.4130  0.3850 -1.0833
 4203SOL    HW224246   4.299   1.034   8.053  1.8596  1.3011  0.3250
 4204SOL     OW24247   1.604   1.542  12.971  0.4277 -0.0858  0.3314
 4204SOL    HW124248   1.689   1.522  13.012  1.4463  1.1169 -1.1912
 4204SOL    HW224249   1.547   1.527  13.046 -0.9922 -1.0411 -0.9552
 4205SOL     OW24250   2.020   1.467   8.651  0.0666 -0.3820  0.6050
 4205SOL    HW124251   2.025   1.437   8.560 -4.1900 -4.2974  1.6973
 4205SOL    HW224252   2.103   1.443   8.693 -0.2312 -2.1129  0.1893
 4206SOL     OW24253   0.365   3.661   2.527  0.5882  0.2754 -0.1228
 4206SOL    HW124254   0.332   3.660   2.437 -0.7181 -0.1563  0.3568
 4206SOL    HW224255   0.421   3.737   2.511  0.0423  0.2908 -1.9650
 4207SOL     OW24256   2.733   1.712   4.583  0.0644 -0.0869  0.4162
 4207SOL    HW124257   2.688   1.720   4.499  0.2156  1.3037  0.4579
 4207SOL    HW224258   2.715   1.621   4.606  0.3193 -0.1475  0.3796
 4208SOL     OW24259   0.708   2.226   5.185 -0.4508  0.8153  0.6031
 4208SOL    HW124260   0.727   2.150   5.241  0.8419  1.7178  1.3642
 4208SOL    HW224261   0.787   2.233   5.132 -0.3093 -0.4028  0.6446
 4209SOL     OW24262   2.820   0.831   4.240  0.4343  0.0431  0.2215
 4209SOL    HW124263   2.836   0.777   4.163  0.8413 -2.7117  2.2728
 4209SOL    HW224264   2.727   0.814   4.250 -0.0319  1.2850 -1.9829
 4210SOL     OW24265   1.791   3.559  17.150 -0.0070 -0.9654 -0.2878
 4210SOL    HW124266   1.779   3.585  17.059 -0.3437 -0.1769 -0.0171
 4210SOL    HW224267   1.797   3.463  17.143 -2.1421 -1.0965 -0.2352
 4211SOL     OW24268   2.613   0.300   5.228 -0.0530  0.7476  0.0229
 4211SOL    HW124269   2.585   0.257   5.308  0.6531 -1.4374 -0.9163
 4211SOL    HW224270   2.558   0.378   5.232 -0.7345  0.2693  0.0050
 4212SOL     OW24271   1.519   4.326   2.372 -0.0907  0.3363 -0.2711
 4212SOL    HW124272   1.522   4.422   2.366 -1.5572  0.4062  0.2824
 4212SOL    HW224273   1.425   4.313   2.364 -0.0577  0.3590 -0.7054
 4213SOL     OW24274   3.448   2.442   0.174  0.3041 -0.1273 -0.6298
 4213SOL    HW124275   3.398   2.513   0.133 -0.8442  0.5364  1.8863
 4213SOL    HW224276   3.427   2.469   0.263 -2.8151  1.9065 -1.9849
 4214SOL     OW24277   4.592   2.050   8.189  0.1928 -0.0767  0.0157
 4214SOL    HW124278   4.678   2.038   8.230  0.6639 -1.0820 -1.2432
 4214SOL    HW224279   4.561   2.120   8.246 -2.1246 -0.6217 -0.5775
 4215SOL     OW24280   4.129   2.000   2.660 -0.8972 -0.3659 -0.1881
 4215SOL    HW124281   4.130   1.997   2.564 -0.1247  0.5815 -0.2067
 4215SOL    HW224282   4.060   1.938   2.686 -0.0383 -0.6109  1.5288
 4216SOL     OW24283   3.707   3.466   2.796 -0.0809  0.2761 -0.4802
 4216SOL    HW124284   3.660   3.501   2.720  1.2284  0.9040 -1.0010
 4216SOL    HW224285   3.673   3.529   2.859  0.6287 -1.8587  2.0385
 4217SOL     OW24286   1.780   1.246  12.648 -1.1525  0.0306  0.0092
 4217SOL    HW124287   1.721   1.191  12.700  1.2895 -2.2679  0.3501
 4217SOL    HW224288   1.811   1.309  12.713  0.8650 -0.6615 -0.2815
 4218SOL     OW24289   3.117   2.521   3.226 -0.0456  0.3591  0.2542
 4218SOL    HW124290   3.059   2.532   3.302  0.3907 -0.4590  0.7063
 4218SOL    HW224291   3.119   2.611   3.195 -2.8113  1.0605  2.0185
 4219SOL     OW24292   3.880   1.066   2.643  0.1914 -0.0598  0.0384
 4219SOL    HW124293   3.888   1.095   2.734 -0.4736 -1.1801  0.4546
 4219SOL    HW224294   3.790   1.095   2.627 -0.3584 -1.1031  1.2001
 4220SOL     OW24295   4.165   1.302  12.638  0.0271 -0.3523 -0.3070
 4220SOL    HW124296   4.088   1.280  12.690 -0.2797 -0.0011 -0.6146
 4220SOL    HW224297   4.231   1.263  12.696  0.7122  2.0071  0.4960
 4221SOL     OW24298   2.403   4.663   9.661  0.0493  0.2506  0.9196
 4221SOL    HW124299   2.496   4.686   9.663  0.1425 -0.2141  1.9892
 4221SOL    HW224300   2.386   4.681   9.569 -0.5255 -0.2118  0.9380
 4222SOL     OW24301   0.835   0.522   3.192  0.1169 -0.0143  0.1746
 4222SOL    HW124302   0.777   0.517   3.269  1.9859  0.2206  1.5976
 4222SOL    HW224303   0.882   0.439   3.194  0.5315  0.2233  0.4586
 4223SOL     OW24304   0.591   3.273   6.561 -0.6243  0.6552 -0.4365
 4223SOL    HW124305   0.627   3.315   6.639 -1.1472 -0.5120  0.4218
 4223SOL    HW224306   0.665   3.239   6.510  0.9619  0.9206  1.6894
 4224SOL     OW24307   3.847   0.193   1.753 -0.1853  0.3421 -0.0293
 4224SOL    HW124308   3.844   0.149   1.668 -2.8412 -0.1791  0.3332
 4224SOL    HW224309   3.845   0.111   1.801  1.4481  0.7204  0.6659
 4225SOL     OW24310   2.951   4.028  12.944 -0.1224 -0.3789 -0.5844
 4225SOL    HW124311   3.001   4.107  12.964  2.1443 -2.1639  0.7698
 4225SOL    HW224312   3.017   3.962  12.925  0.7527  0.2616  0.2593
 4226SOL     OW24313   3.198   0.452   4.038 -0.2525 -0.3124  0.1030
 4226SOL    HW124314   3.170   0.361   4.028 -0.4388 -0.1347 -0.9695
 4226SOL    HW224315   3.166   0.500   3.963 -0.3785 -1.6203 -0.6755
 4227SOL     OW24316   3.540   0.021   6.516  0.0376  0.3898 -0.1508
 4227SOL    HW124317   3.471   0.071   6.561 -1.9515 -0.4626 -2.2559
 4227SOL    HW224318   3.522   4.670   6.545  1.7312 -0.2830 -1.2035
 4228SOL     OW24319   0.665   4.021   0.781  0.3566  0.7967  0.4074
 4228SOL    HW124320   0.740   4.060   0.736  1.0422  0.7916  1.5662
 4228SOL    HW224321   0.622   4.102   0.807  1.0388 -0.1480  4.3583
 4229SOL     OW24322   2.114   0.699   8.945 -0.0117  1.3174  0.0069
 4229SOL    HW124323   2.166   0.665   8.872 -0.6227 -1.7149  0.9886
 4229SOL    HW224324   2.157   0.652   9.017  0.0513  0.1114 -0.8182
 4230SOL     OW24325   0.787   2.014   5.372 -0.5123  0.1886 -0.2178
 4230SOL    HW124326   0.852   2.083   5.381 -0.5350  0.1942 -0.1074
 4230SOL    HW224327   0.823   1.950   5.311 -1.0934  1.0011 -1.4165
 4231SOL     OW24328   0.630   3.881   9.567 -0.0634  0.6464 -0.4118
 4231SOL    HW124329   0.560   3.939   9.538 -0.0887  0.7905 -0.0656
 4231SOL    HW224330   0.618   3.901   9.660  0.6404 -1.0804  0.0635
 4232SOL     OW24331   1.385   1.876   0.556 -0.0037  0.2344  0.1041
 4232SOL    HW124332   1.440   1.943   0.516  2.6405 -2.3874 -0.6487
 4232SOL    HW224333   1.446   1.826   0.611  2.7766  2.4614 -0.9548
 4233SOL     OW24334   3.612   3.540   7.775  0.6441 -0.3117 -0.6581
 4233SOL    HW124335   3.637   3.602   7.706  0.6273 -0.3581 -0.7059
 4233SOL    HW224336   3.552   3.586   7.833 -1.3510 -0.4187 -2.6369
 4234SOL     OW24337   2.990   3.575   7.498 -0.0048  0.1513 -0.2255
 4234SOL    HW124338   2.970   3.667   7.511 -0.5151 -0.1057  0.7450
 4234SOL    HW224339   3.061   3.569   7.433 -2.0873 -2.6491 -2.2344
 4235SOL     OW24340   0.629   4.037   6.278 -0.6435 -0.6267 -0.2901
 4235SOL    HW124341   0.601   3.945   6.281  0.4283 -0.9866 -1.2423
 4235SOL    HW224342   0.593   4.063   6.193 -0.7271  2.7339  0.7952
 4236SOL     OW24343   3.384   3.291  11.836  0.0244  0.1384  0.0677
 4236SOL    HW124344   3.338   3.244  11.905  1.6798 -1.0643  0.3793
 4236SOL    HW224345   3.389   3.222  11.769  1.0704  1.2864 -1.0286
 4237SOL     OW24346   1.530   3.623   7.322  0.5818  0.2649 -0.0162
 4237SOL    HW124347   1.613   3.668   7.335  0.3896  0.4891  0.4553
 4237SOL    HW224348   1.537   3.552   7.386 -0.5263  1.3046  1.2671
 4238SOL     OW24349   4.097   2.887   5.114 -0.9341  0.7370 -0.4667
 4238SOL    HW124350   4.140   2.967   5.082 -1.6003  0.4559 -2.0555
 4238SOL    HW224351   4.015   2.887   5.065 -1.2516 -0.4327  0.0643
 4239SOL     OW24352   1.400   1.080   0.302 -0.3519  0.2804  0.1135
 4239SOL    HW124353   1.340   1.153   0.285 -2.2866 -1.3296  0.0332
 4239SOL    HW224354   1.356   1.017   0.244  1.7855  0.1095 -1.2954
 4240SOL     OW24355   1.078   2.027   4.432 -0.4033 -0.5550  0.3372
 4240SOL    HW124356   1.084   2.069   4.347 -2.8528 -1.4540 -0.2817
 4240SOL    HW224357   1.167   1.996   4.448  0.1564  0.9557  0.1213
 4241SOL     OW24358   3.268   0.689  12.242  0.6561 -0.3308  0.1240
 4241SOL    HW124359   3.279   0.747  12.167 -0.2294  1.6064  1.4953
 4241SOL    HW224360   3.312   0.612  12.207  1.2308  0.8455 -1.7058
 4242SOL     OW24361   3.395   1.247   4.390 -0.4648 -0.0478  0.2027
 4242SOL    HW124362   3.376   1.169   4.337 -0.8110 -0.0399  0.3133
 4242SOL    HW224363   3.383   1.320   4.330  1.3708 -0.4041 -0.5736
 4243SOL     OW24364   0.938   0.582   5.994 -0.2686  0.2181 -0.0697
 4243SOL    HW124365   0.872   0.515   6.013 -0.3909  0.3199 -0.1388
 4243SOL    HW224366   0.881   0.649   6.032  0.0783  1.4928 -1.8489
 4244SOL     OW24367   1.054   3.399   4.400  0.1285 -0.4921 -0.2086
 4244SOL    HW124368   1.142   3.423   4.428  0.3541  0.0479 -1.3948
 4244SOL    HW224369   1.066   3.354   4.316 -1.1529 -0.6667 -0.2972
 4245SOL     OW24370   0.781   0.881  17.709  0.2340 -0.6256  0.4811
 4245SOL    HW124371   0.816   0.914  17.626  3.1987 -0.3207  1.8795
 4245SOL    HW224372   0.860   0.860   0.007  1.1947 -1.2524 -1.3404
 4246SOL     OW24373   2.324   2.090   6.076  0.2203 -0.2523  0.4385
 4246SOL    HW124374   2.355   2.005   6.108  1.6958  0.2385  0.3210
 4246SOL    HW224375   2.380   2.145   6.131  1.0713 -1.5293  0.8476
 4247SOL     OW24376   0.491   3.137   9.018  0.0953  0.5165 -0.0847
 4247SOL    HW124377   0.574   3.175   9.049 -0.2250  2.8454 -2.1353
 4247SOL    HW224378   0.441   3.110   9.095  0.4052  4.7938  1.6461
 4248SOL     OW24379   3.928   3.982   7.916 -0.1251 -0.6745  0.5284
 4248SOL    HW124380   3.918   4.023   8.002 -0.8179  0.5764 -0.1590
 4248SOL    HW224381   3.876   3.904   7.935 -0.9454 -0.7160 -1.8906
 4249SOL     OW24382   4.223   3.612   4.377 -0.0747 -0.2971  0.0276
 4249SOL    HW124383   4.180   3.685   4.334  1.4475  0.9750  0.6712
 4249SOL    HW224384   4.180   3.603   4.462 -0.9094 -1.0452 -0.4667
 4250SOL     OW24385   1.046   4.643  16.115  0.1092 -0.5547  0.1697
 4250SOL    HW124386   1.010   4.728  16.092 -0.2532 -0.1175  2.3684
 4250SOL    HW224387   0.982   4.583  16.152 -1.3802  1.8871  1.5275
 4251SOL     OW24388   1.015   3.630   5.073 -0.4869 -0.6209  0.0118
 4251SOL    HW124389   1.086   3.693   5.089  0.5096 -1.7424 -0.0003
 4251SOL    HW224390   0.938   3.677   5.105 -1.9634 -0.7849 -3.2319
 4252SOL     OW24391   0.257   3.446   3.766  0.2211 -0.3120 -0.4750
 4252SOL    HW124392   0.325   3.494   3.813  1.4455 -2.0286 -0.4787
 4252SOL    HW224393   0.253   3.369   3.823 -0.1047  0.1058  0.0653
 4253SOL     OW24394   3.636   0.281   3.424  0.1647  0.0900  0.2539
 4253SOL    HW124395   3.558   0.298   3.476 -0.0556 -1.2101  0.3562
 4253SOL    HW224396   3.655   0.194   3.460  2.8000  0.4538 -0.2606
 4254SOL     OW24397   1.869   0.671  13.961 -0.6003  0.6698 -0.0090
 4254SOL    HW124398   1.867   0.732  13.887  2.0646  1.3322  0.4690
 4254SOL    HW224399   1.916   0.733  14.017  0.4989 -0.3150  0.1554
 4255SOL     OW24400   1.217   2.375   1.677  0.1107  0.0806  0.1735
 4255SOL    HW124401   1.123   2.375   1.696 -0.0250  2.1548 -0.4686
 4255SOL    HW224402   1.242   2.303   1.734 -3.3809 -1.4550 -0.2391
 4256SOL     OW24403   4.249   2.925   5.987 -0.7192  0.4339 -0.0713
 4256SOL    HW124404   4.212   2.897   5.903 -0.7865  2.0836 -0.6030
 4256SOL    HW224405   4.328   2.872   5.985 -1.5371 -0.8153  1.1876
 4257SOL     OW24406   1.697   3.194   2.278 -0.4607  0.1694  0.5698
 4257SOL    HW124407   1.615   3.158   2.244 -0.2922 -1.9414  2.4409
 4257SOL    HW224408   1.727   3.136   2.348 -0.8634 -1.1003 -0.3131
 4258SOL     OW24409   4.028   2.069   8.368  0.1466  0.1327 -0.5810
 4258SOL    HW124410   3.995   2.140   8.313  1.6654 -1.1940 -3.1861
 4258SOL    HW224411   3.989   2.081   8.455  0.1594 -1.0081 -0.4139
 4259SOL     OW24412   0.198   1.474  17.449 -0.1050  0.8225  0.3657
 4259SOL    HW124413   0.213   1.400  17.507  1.4483  1.6129  0.9796
 4259SOL    HW224414   0.147   1.532  17.506 -1.5331  0.6144 -0.6969
 4260SOL     OW24415   3.170   1.120   8.406 -0.0190 -0.1809 -0.3622
 4260SOL    HW124416   3.156   1.055   8.338  2.9719 -1.9525  0.7307
 4260SOL    HW224417   3.086   1.115   8.452  0.1441 -1.1479 -0.1751
 4261SOL     OW24418   1.278   4.177   2.114 -0.0614 -0.3361 -0.3167
 4261SOL    HW124419   1.269   4.208   2.205  0.5465  0.9357 -0.6870
 4261SOL    HW224420   1.368   4.145   2.115  0.0199 -0.1581 -2.2880
 4262SOL     OW24421   0.841   2.279  11.371  0.6982  0.1487 -0.7766
 4262SOL    HW124422   0.854   2.350  11.309 -1.3664  2.3354  1.2964
 4262SOL    HW224423   0.922   2.229  11.377 -0.3728 -1.7019 -1.7703
 4263SOL     OW24424   0.850   2.941  16.702  0.3988 -0.3437  0.0084
 4263SOL    HW124425   0.808   2.948  16.616  0.1990 -1.8121 -0.0211
 4263SOL    HW224426   0.864   3.035  16.715 -0.9682 -0.5503  2.8119
 4264SOL     OW24427   4.625   1.287  14.108  0.1477 -0.2584 -0.3887
 4264SOL    HW124428   4.556   1.225  14.133 -0.9425  1.3657  0.6216
 4264SOL    HW224429   4.592   1.325  14.026  2.4972 -2.2959 -2.2642
 4265SOL     OW24430   3.186   0.213   7.206 -0.1363  0.0425  0.0142
 4265SOL    HW124431   3.188   0.138   7.265  1.9837 -0.3903 -0.6221
 4265SOL    HW224432   3.105   0.252   7.241 -0.3182  0.6924 -1.1082
 4266SOL     OW24433   2.329   1.354   6.099 -0.1881  0.2403  0.1824
 4266SOL    HW124434   2.239   1.384   6.086  0.0106  1.4540  1.5416
 4266SOL    HW224435   2.338   1.290   6.029 -1.6168 -0.1472  0.3513
 4267SOL     OW24436   0.813   4.601   0.692  0.4111  0.1817  0.4868
 4267SOL    HW124437   0.857   4.685   0.676  0.4018  0.1474  0.2866
 4267SOL    HW224438   0.789   4.582   0.602  1.7713  0.3474  0.0905
 4268SOL     OW24439   2.514   0.526   4.063 -0.3992  0.1717  0.1085
 4268SOL    HW124440   2.471   0.498   4.144 -0.9010 -0.0227 -0.2229
 4268SOL    HW224441   2.522   0.621   4.072  1.8983 -0.0019 -0.2493
 4269SOL     OW24442   3.175   2.084  17.660  0.0547  0.0029 -0.1094
 4269SOL    HW124443   3.209   2.058  17.575  0.6825  0.0073  0.1408
 4269SOL    HW224444   3.253   2.126  17.695  0.6937 -0.1565 -1.3498
 4270SOL     OW24445   0.619   0.759   9.694 -0.3387  0.0771 -0.1542
 4270SOL    HW124446   0.664   0.739   9.612 -1.1121 -3.2157  0.2079
 4270SOL    HW224447   0.543   0.702   9.680 -0.6039  0.3271  0.2728
 4271SOL     OW24448   0.876   0.367  12.556 -0.3024 -0.4496 -0.0589
 4271SOL    HW124449   0.916   0.418  12.626  1.3049 -0.6552 -0.8278
 4271SOL    HW224450   0.890   0.430  12.485 -1.7169  1.0670  1.0138
 4272SOL     OW24451   0.239   0.042   5.660 -0.5624  0.7338 -0.5076
 4272SOL    HW124452   0.279   4.699   5.627 -0.2742  1.6793 -2.4747
 4272SOL    HW224453   0.308   0.100   5.627  2.1612 -2.0289  0.3450
 4273SOL     OW24454   1.307   3.896   3.891  0.2875 -0.1327  0.0041
 4273SOL    HW124455   1.232   3.954   3.904  0.4836  0.7054 -2.5772
 4273SOL    HW224456   1.305   3.861   3.980 -1.5869  2.1192  0.8391
 4274SOL     OW24457   1.306   1.537  15.419  0.1118  0.8102 -0.0450
 4274SOL    HW124458   1.354   1.537  15.336 -0.5965 -1.8869 -0.4463
 4274SOL    HW224459   1.332   1.624  15.450 -1.4800  0.3056  2.7241
 4275SOL     OW24460   0.827   3.312  15.907 -0.1019 -0.4281 -0.4083
 4275SOL    HW124461   0.823   3.406  15.888 -0.8339 -0.3630  0.0538
 4275SOL    HW224462   0.890   3.281  15.843 -3.4293  0.1584 -3.9980
 4276SOL     OW24463   0.797   2.448   6.333  0.4076  0.0793 -0.0311
 4276SOL    HW124464   0.711   2.408   6.318  0.4815  0.0562 -0.3891
 4276SOL    HW224465   0.833   2.460   6.245 -2.0175 -0.4565 -1.0999
 4277SOL     OW24466   2.008   3.958  12.055  0.0236 -0.5810  0.7538
 4277SOL    HW124467   2.044   4.041  12.085 -5.2300  2.9984 -2.9480
 4277SOL    HW224468   2.016   3.896  12.128  0.2198  0.1794  1.3766
 4278SOL     OW24469   4.491   2.876   8.767  0.1877 -0.5088  0.2231
 4278SOL    HW124470   4.573   2.863   8.815 -0.7020  0.2424  1.9147
 4278SOL    HW224471   4.423   2.871   8.834 -1.7934 -0.4358 -1.8118
 4279SOL     OW24472   0.837   2.858   0.474  0.0841  0.4280  0.0487
 4279SOL    HW124473   0.796   2.905   0.547 -0.1949  1.7871 -0.9839
 4279SOL    HW224474   0.816   2.765   0.482  2.5606 -0.2380 -1.5581
 4280SOL     OW24475   2.798   1.833   0.972  0.3656  0.8331  0.7459
 4280SOL    HW124476   2.733   1.789   1.027  0.1821 -0.1919 -0.2922
 4280SOL    HW224477   2.859   1.870   1.036  0.7240 -0.4294  1.1436
 4281SOL     OW24478   1.634   2.652   3.096 -0.0391  0.1746  0.3771
 4281SOL    HW124479   1.676   2.725   3.053 -1.6283  0.7051 -0.2599
 4281SOL    HW224480   1.541   2.677   3.097  0.1561  0.8743  0.9677
 4282SOL     OW24481   0.556   1.595   8.333  0.3671  0.5830  0.1054
 4282SOL    HW124482   0.530   1.559   8.248  1.1916 -0.2903  0.2254
 4282SOL    HW224483   0.582   1.516   8.380  0.1857  0.7339  0.4641
 4283SOL     OW24484   4.438   1.380  10.685 -0.1658 -0.2726 -0.0844
 4283SOL    HW124485   4.508   1.321  10.712  0.7445  0.5058 -0.7129
 4283SOL    HW224486   4.364   1.348  10.736 -0.0115 -2.8209 -1.4977
 4284SOL     OW24487   4.200   3.525  16.679 -0.6180  0.3231  0.7046
 4284SOL    HW124488   4.205   3.578  16.759 -2.0929  1.0134  0.3387
 4284SOL    HW224489   4.159   3.452  16.726  1.4636  0.1558  2.2555
 4285SOL     OW24490   3.831   3.527   5.618 -0.1188  0.5715  0.0648
 4285SOL    HW124491   3.826   3.620   5.594 -3.7684  0.5115  0.5588
 4285SOL    HW224492   3.832   3.487   5.531 -0.6874  0.1673  0.2470
 4286SOL     OW24493   1.352   4.288  16.788  0.5629 -0.1321 -0.4163
 4286SOL    HW124494   1.376   4.197  16.767 -0.0377 -0.7099  1.3385
 4286SOL    HW224495   1.415   4.305  16.859  1.1942  0.3608 -1.0995
 4287SOL     OW24496   0.326   0.837  14.139 -0.1423  0.2074 -0.3742
 4287SOL    HW124497   0.366   0.774  14.079  0.7218 -1.1863  1.6746
 4287SOL    HW224498   0.273   0.789  14.202 -1.4498  1.8712 -0.1971
 4288SOL     OW24499   3.952   0.451   1.850 -0.4146  0.7428  0.1016
 4288SOL    HW124500   3.880   0.475   1.910  0.3050  1.2513  0.7601
 4288SOL    HW224501   3.918   0.373   1.806 -3.0446  1.1198  1.4710
 4289SOL     OW24502   2.783   3.109  13.369 -0.2488  0.0973  0.1846
 4289SOL    HW124503   2.830   3.054  13.431  2.8933  0.7416 -1.6388
 4289SOL    HW224504   2.847   3.154  13.313  1.2581 -0.3021  1.5966
 4290SOL     OW24505   0.658   2.148  15.374  0.5599  0.2515  0.3811
 4290SOL    HW124506   0.737   2.115  15.331 -0.0367  0.0435 -0.5498
 4290SOL    HW224507   0.677   2.241  15.383  0.8968  0.1756  0.4626
 4291SOL     OW24508   3.418   2.176   5.236  0.4887 -0.1711  0.2405
 4291SOL    HW124509   3.410   2.080   5.245  0.1103 -0.0985  0.7019
 4291SOL    HW224510   3.330   2.199   5.268 -1.0505 -2.4280 -2.3964
 4292SOL     OW24511   3.375   1.158  13.038 -0.1552 -0.0074 -0.2107
 4292SOL    HW124512   3.392   1.241  12.992  0.7855 -0.8178 -1.3195
 4292SOL    HW224513   3.353   1.198  13.122 -0.0716 -1.2629  0.4056
 4293SOL     OW24514   0.159   2.156  11.721 -0.2964 -0.0401  0.4559
 4293SOL    HW124515   0.128   2.244  11.742 -1.1447 -0.1678 -0.2630
 4293SOL    HW224516   0.077   2.116  11.691 -0.2351 -1.0978  1.6715
 4294SOL     OW24517   2.720   1.106   6.910  0.0908 -0.4965 -0.1400
 4294SOL    HW124518   2.795   1.070   6.958  1.4113  1.8468 -0.4044
 4294SOL    HW224519   2.741   1.110   6.817  2.8668  0.0729  0.5094
 4295SOL     OW24520   4.142   0.175   9.690  0.0535 -0.5530  0.1881
 4295SOL    HW124521   4.120   0.263   9.722 -1.2026 -0.9183  0.3212
 4295SOL    HW224522   4.223   0.190   9.641 -0.5652  1.0195 -0.3451
 4296SOL     OW24523   2.867   2.681   4.357  0.9617 -0.0670  0.4066
 4296SOL    HW124524   2.828   2.595   4.343  0.6588 -0.3912  3.1900
 4296SOL    HW224525   2.826   2.707   4.439  2.1020  0.0515  0.9471
 4297SOL     OW24526   1.019   0.343   6.313 -0.4935 -0.1375 -0.1919
 4297SOL    HW124527   1.048   0.254   6.292 -0.3893  0.3868 -2.1982
 4297SOL    HW224528   0.959   0.335   6.388  1.4600  0.6925  1.4643
 4298SOL     OW24529   4.360   1.064  13.459 -0.4430  0.2131 -0.0423
 4298SOL    HW124530   4.359   1.040  13.367 -0.5463 -1.8268  0.4869
 4298SOL    HW224531   4.448   1.099  13.474  0.1270 -1.3634  0.3149
 4299SOL     OW24532   1.865   4.722   3.554 -0.3353 -0.1427 -0.0785
 4299SOL    HW124533   1.934   0.014   3.612 -1.1809 -2.2692  2.0374
 4299SOL    HW224534   1.806   0.056   3.573  2.9010  2.4158  0.2536
 4300SOL     OW24535   3.532   4.719   5.537  0.3782  0.4833 -0.2923
 4300SOL    HW124536   3.545   4.703   5.444  1.3209 -0.8783  0.0653
 4300SOL    HW224537   3.544   4.627   5.562  1.4887  0.3611 -1.3087
 4301SOL     OW24538   3.361   4.386   5.481 -0.6121 -0.0490  0.7241
 4301SOL    HW124539   3.418   4.416   5.552 -0.3290  2.0571 -0.4040
 4301SOL    HW224540   3.408   4.397   5.398 -0.8010  1.3153  0.8019
 4302SOL     OW24541   3.960   3.671  12.537  0.3549 -0.5438  0.3096
 4302SOL    HW124542   4.014   3.711  12.469  1.6904  1.7202  2.7089
 4302SOL    HW224543   3.891   3.737  12.541  0.5258 -0.4452  1.5471
 4303SOL     OW24544   2.855   3.216   6.751 -0.1919  0.1866  0.2963
 4303SOL    HW124545   2.809   3.292   6.715 -0.9043 -0.2841  0.2119
 4303SOL    HW224546   2.798   3.145   6.720 -0.6178  1.0710 -0.9668
 4304SOL     OW24547   3.106   1.859  15.455 -0.4394  0.4090 -0.2636
 4304SOL    HW124548   3.017   1.893  15.456 -1.1518 -1.4430 -1.8470
 4304SOL    HW224549   3.112   1.846  15.549  1.5651  0.7776 -0.3450
 4305SOL     OW24550   2.782   3.827  11.793 -0.2144 -0.3117 -0.1348
 4305SOL    HW124551   2.828   3.790  11.867 -0.5966  0.1234  0.3216
 4305SOL    HW224552   2.723   3.891  11.833  0.1676  0.0599 -0.1632
 4306SOL     OW24553   0.102   2.295  16.631  0.1504  0.2273  0.0437
 4306SOL    HW124554   0.054   2.237  16.690  0.0491 -1.6362 -1.8627
 4306SOL    HW224555   0.171   2.235  16.601 -0.4451 -1.9591  3.0310
 4307SOL     OW24556   2.259   4.015  11.803  0.0552 -0.0362  0.4305
 4307SOL    HW124557   2.192   3.996  11.737 -1.5356  2.4959  1.2740
 4307SOL    HW224558   2.286   3.931  11.839  1.0653  0.1362  0.0695
 4308SOL     OW24559   3.581   0.666   3.531 -0.8228  0.2412 -0.6621
 4308SOL    HW124560   3.645   0.625   3.590 -1.8366  2.1203  1.7117
 4308SOL    HW224561   3.619   0.754   3.534  0.6757 -0.3910 -1.0077
 4309SOL     OW24562   0.875   4.722   3.989 -0.2875  0.0445  0.3565
 4309SOL    HW124563   0.923   0.049   3.938 -0.6766  0.6537  0.7733
 4309SOL    HW224564   0.947   4.698   4.048  0.8517 -0.7831 -1.3719
 4310SOL     OW24565   0.444   3.872   7.040 -0.2175 -0.0472 -0.9010
 4310SOL    HW124566   0.452   3.938   6.971 -1.6723  2.0662  0.9468
 4310SOL    HW224567   0.354   3.894   7.064  0.2754  2.1933 -1.1084
 4311SOL     OW24568   0.190   2.289   1.958 -0.3505  0.1621 -0.3852
 4311SOL    HW124569   0.218   2.358   1.898 -0.5003  1.6657  1.2874
 4311SOL    HW224570   0.185   2.225   1.887  4.9268 -1.4262  0.7027
 4312SOL     OW24571   1.786   2.522  16.386  0.1219 -0.8674 -0.1275
 4312SOL    HW124572   1.739   2.591  16.433 -2.2984 -3.7266  1.6009
 4312SOL    HW224573   1.716   2.463  16.357 -0.5589  0.5270 -1.3162
 4313SOL     OW24574   3.702   1.800   1.044 -0.2625 -0.4462 -0.2117
 4313SOL    HW124575   3.684   1.709   1.018  0.3037 -0.3872 -0.8194
 4313SOL    HW224576   3.703   1.788   1.139  2.3255  1.9564  0.0613
 4314SOL     OW24577   4.164   2.197   4.346  0.5277 -0.0833 -0.4474
 4314SOL    HW124578   4.112   2.275   4.325  0.0815  0.3836  2.4423
 4314SOL    HW224579   4.243   2.233   4.387  0.0651 -0.7894  1.0364
 4315SOL     OW24580   4.063   2.485   2.434  0.2508  0.4167 -0.0910
 4315SOL    HW124581   4.096   2.514   2.519 -0.9910  1.5112  0.0268
 4315SOL    HW224582   4.115   2.406   2.419  0.9671  0.9068 -0.2096
 4316SOL     OW24583   1.350   4.014   6.749  0.1655 -0.0015  0.0640
 4316SOL    HW124584   1.390   3.927   6.744  1.0659  0.4803 -1.2429
 4316SOL    HW224585   1.316   4.013   6.839 -0.6755  1.8424 -0.2219
 4317SOL     OW24586   0.607   3.731  15.743 -0.4588 -0.5885 -0.0484
 4317SOL    HW124587   0.514   3.719  15.727 -0.5622  1.8075 -1.1824
 4317SOL    HW224588   0.656   3.746  15.662  0.4376 -1.1463  0.3913
 4318SOL     OW24589   1.026   2.142   0.572  0.6395  0.4386  0.0762
 4318SOL    HW124590   1.017   2.230   0.535 -1.3247  0.2269  0.0176
 4318SOL    HW224591   1.062   2.093   0.498 -0.8831 -1.6244  0.6743
 4319SOL     OW24592   1.115   2.888   1.428  0.0520 -0.3384  0.1923
 4319SOL    HW124593   1.185   2.954   1.435 -0.8474  0.8643 -2.1020
 4319SOL    HW224594   1.144   2.825   1.363 -2.2191  0.0327 -1.1720
 4320SOL     OW24595   1.389   2.520   6.479  0.4622 -0.7787  0.2752
 4320SOL    HW124596   1.328   2.500   6.551  1.0185 -1.6436  0.5064
 4320SOL    HW224597   1.345   2.603   6.461  2.8914  0.4822  0.1378
 4321SOL     OW24598   4.509   2.381   3.293  0.0466 -0.9834 -0.0313
 4321SOL    HW124599   4.499   2.470   3.260  1.1858 -0.4511  1.0921
 4321SOL    HW224600   4.492   2.330   3.214 -2.9899 -0.9440  0.5766
 4322SOL     OW24601   3.603   3.112   6.759 -0.0314 -0.1120  0.2470
 4322SOL    HW124602   3.527   3.171   6.766  0.5910  0.5754  1.1979
 4322SOL    HW224603   3.622   3.106   6.665  1.3249 -3.7412  0.7483
 4323SOL     OW24604   2.936   1.100   8.546 -0.5340  0.0717  0.5212
 4323SOL    HW124605   2.954   1.132   8.635 -0.9720  0.1401  0.5866
 4323SOL    HW224606   2.852   1.141   8.527  0.1132  0.3805 -1.6267
 4324SOL     OW24607   3.360   1.306  13.434  0.6374 -0.7658 -0.4090
 4324SOL    HW124608   3.325   1.281  13.520  1.6830  0.4514  0.3720
 4324SOL    HW224609   3.289   1.278  13.377 -0.5324 -0.5147  0.9340
 4325SOL     OW24610   1.311   2.206   8.782 -0.1462 -0.1987  0.3053
 4325SOL    HW124611   1.327   2.299   8.792 -0.1228 -0.1195 -0.4395
 4325SOL    HW224612   1.278   2.184   8.869  0.1688  2.0202  0.9822
 4326SOL     OW24613   3.206   3.221   1.769 -0.1662  0.0169  0.3316
 4326SOL    HW124614   3.229   3.130   1.747 -2.1431 -0.7459  1.3661
 4326SOL    HW224615   3.246   3.227   1.855 -0.3437 -1.9314  0.5601
 4327SOL     OW24616   3.274   1.483   6.601 -0.1679  0.5504  0.1987
 4327SOL    HW124617   3.187   1.522   6.607 -0.1673  1.0002 -2.5590
 4327SOL    HW224618   3.292   1.482   6.695 -0.1207 -0.4428  0.1864
 4328SOL     OW24619   0.683   2.618   2.846  0.2106 -0.0952  0.0670
 4328SOL    HW124620   0.588   2.623   2.863  0.2761  3.8765 -0.5948
 4328SOL    HW224621   0.710   2.637   2.936 -1.5803  1.4164  0.2806
 4329SOL     OW24622   0.780   0.692   5.111 -0.0310  0.2476 -0.6322
 4329SOL    HW124623   0.717   0.730   5.173  0.4595 -0.0611  0.0650
 4329SOL    HW224624   0.741   0.605   5.101 -0.9081  0.2784  2.4178
 4330SOL     OW24625   4.251   0.953   6.023 -0.2093 -0.7144 -0.1772
 4330SOL    HW124626   4.295   1.037   6.026 -0.3269 -0.6507 -0.2681
 4330SOL    HW224627   4.165   0.970   5.985 -0.7840 -1.3272  0.8295
 4331SOL     OW24628   1.789   2.498  15.257 -0.4400  0.0860  0.2410
 4331SOL    HW124629   1.768   2.405  15.262 -2.7167  0.6338  0.8960
 4331SOL    HW224630   1.774   2.515  15.164  0.2545 -2.0823 -0.2538
 4332SOL     OW24631   3.721   0.609   9.314 -0.0030  0.0379 -0.3697
 4332SOL    HW124632   3.737   0.514   9.312  1.2577  0.2655 -1.1477
 4332SOL    HW224633   3.796   0.638   9.367  1.2381  0.3375 -2.3061
 4333SOL     OW24634   2.843   0.096   2.259 -0.2775 -0.6296  0.0589
 4333SOL    HW124635   2.867   0.128   2.172  1.3154 -1.6838  0.1000
 4333SOL    HW224636   2.840   0.177   2.308  2.3992  0.0459 -0.8981
 4334SOL     OW24637   1.191   4.280   9.577  0.6206  0.4927 -0.1473
 4334SOL    HW124638   1.120   4.344   9.583 -0.7755 -0.9336 -1.4804
 4334SOL    HW224639   1.191   4.253   9.485 -0.3802  1.0314 -0.3033
 4335SOL     OW24640   0.934   3.397   5.922 -0.3535 -0.1778 -0.4990
 4335SOL    HW124641   0.988   3.440   5.988 -0.4566 -1.4473  0.4228
 4335SOL    HW224642   0.845   3.431   5.936 -0.1546  0.5751 -1.0862
 4336SOL     OW24643   0.752   4.505   3.839  0.6371 -0.7898 -0.0137
 4336SOL    HW124644   0.683   4.559   3.800  1.5843  0.3824 -0.0655
 4336SOL    HW224645   0.775   4.563   3.912  1.0880  1.5946 -2.0440
 4337SOL     OW24646   1.115   2.005   2.407  0.1604 -0.0498  0.0826
 4337SOL    HW124647   1.189   1.965   2.363  0.6871 -0.8027  1.6530
 4337SOL    HW224648   1.091   1.937   2.470 -0.4228  2.5297  2.6701
 4338SOL     OW24649   3.386   0.419  12.744  0.0766  0.3951 -0.0097
 4338SOL    HW124650   3.440   0.401  12.667 -0.1665  1.1987 -0.3774
 4338SOL    HW224651   3.399   0.512  12.765 -0.3999  1.0148 -2.4069
 4339SOL     OW24652   0.329   1.371  11.797 -0.3309  0.3928  0.0041
 4339SOL    HW124653   0.387   1.336  11.729  1.4489 -1.2808  2.4041
 4339SOL    HW224654   0.349   1.465  11.789 -0.4622  0.3569 -0.7519
 4340SOL     OW24655   2.983   0.083  15.036 -0.1625  1.0892 -0.1195
 4340SOL    HW124656   2.950   0.151  15.095 -0.9111  0.7654 -0.1722
 4340SOL    HW224657   3.023   0.029  15.104 -1.5199  0.2278  0.0000
 4341SOL     OW24658   4.638   2.114   7.477 -0.1104  0.1631  0.3054
 4341SOL    HW124659   4.645   2.039   7.536  3.0092  0.4296  0.2764
 4341SOL    HW224660   4.567   2.165   7.517 -0.1031  0.1807  0.2961
 4342SOL     OW24661   0.546   1.015   7.488 -0.3675  0.2346  0.0728
 4342SOL    HW124662   0.553   0.973   7.403 -1.9653  1.3475 -0.6196
 4342SOL    HW224663   0.604   1.091   7.477  1.4394 -1.0570  0.7694
 4343SOL     OW24664   1.901   1.052   0.614 -0.3853  0.2585 -0.1122
 4343SOL    HW124665   1.903   1.079   0.706 -1.1987  0.9175 -0.2960
 4343SOL    HW224666   1.930   0.961   0.616 -0.7676  0.1577  0.8578
 4344SOL     OW24667   2.975   4.159   8.412 -0.0664  0.5228 -0.0974
 4344SOL    HW124668   3.061   4.193   8.392  0.1241  0.7596  1.1028
 4344SOL    HW224669   2.971   4.078   8.361 -1.6008  1.1863 -1.0489
 4345SOL     OW24670   3.742   3.259  16.373 -1.0477  0.0910  0.1263
 4345SOL    HW124671   3.763   3.213  16.455  0.4052 -1.0545 -0.8824
 4345SOL    HW224672   3.743   3.186  16.311 -0.9965 -0.0962  0.3423
 4346SOL     OW24673   3.843   1.632   3.566  0.0463  0.5103 -0.3702
 4346SOL    HW124674   3.773   1.574   3.596  1.0021  0.0429  0.9716
 4346SOL    HW224675   3.902   1.572   3.519  1.3026  0.1250  1.6612
 4347SOL     OW24676   1.504   4.591   4.165 -0.2012  0.2585 -0.3723
 4347SOL    HW124677   1.471   4.501   4.162 -0.0447  0.2166 -0.7808
 4347SOL    HW224678   1.533   4.594   4.256 -1.1097  0.6075 -0.0943
 4348SOL     OW24679   1.246   2.825  15.658  0.5262  0.2902  0.2630
 4348SOL    HW124680   1.310   2.862  15.719 -0.0634 -1.1994  1.7967
 4348SOL    HW224681   1.293   2.750  15.621 -1.6636 -1.5069  1.1458
 4349SOL     OW24682   2.141   4.115  10.215 -0.3633  0.0318 -0.2924
 4349SOL    HW124683   2.141   4.022  10.192  0.0239  0.6554 -2.8127
 4349SOL    HW224684   2.215   4.151  10.166 -0.1526  0.1852  0.1416
 4350SOL     OW24685   2.942   0.491  14.547 -0.3564  0.0845 -0.0494
 4350SOL    HW124686   3.000   0.534  14.485 -0.0731  1.1323  0.9420
 4350SOL    HW224687   2.936   0.551  14.622 -0.0334 -1.5286  1.2735
 4351SOL     OW24688   2.789   0.343   2.491  0.0381  0.1065 -0.3549
 4351SOL    HW124689   2.728   0.278   2.526 -0.2486  0.6643  0.1885
 4351SOL    HW224690   2.742   0.424   2.514 -1.9382 -1.5096  1.2750
 4352SOL     OW24691   1.874   4.061   3.028 -0.5561  0.1372  0.7284
 4352SOL    HW124692   1.878   4.065   2.933 -1.7567 -1.0681  0.6292
 4352SOL    HW224693   1.795   4.009   3.046 -0.0405  0.2809  3.4269
 4353SOL     OW24694   2.712   2.523  16.922  0.1242  0.3569 -0.3203
 4353SOL    HW124695   2.743   2.590  16.983  0.6368 -0.0181 -0.1722
 4353SOL    HW224696   2.741   2.555  16.837 -0.0863  0.8818 -0.2002
 4354SOL     OW24697   3.133   2.137   9.447  0.4805 -0.3953  0.2138
 4354SOL    HW124698   3.206   2.190   9.415 -1.2119  1.6138 -0.3282
 4354SOL    HW224699   3.112   2.182   9.529  0.4951  1.8233 -1.0282
 4355SOL     OW24700   1.616   3.887   1.589 -0.1242 -0.0897  0.1813
 4355SOL    HW124701   1.577   3.968   1.622 -1.3964 -0.6929  0.1509
 4355SOL    HW224702   1.652   3.910   1.503  1.7837 -0.8273  0.7796
 4356SOL     OW24703   2.143   1.542  17.687  0.3035 -0.2732 -0.1058
 4356SOL    HW124704   2.208   1.607  17.711  2.0170 -2.2160  0.5212
 4356SOL    HW224705   2.203   1.476  17.651 -0.6201 -1.9319  1.4343
 4357SOL     OW24706   4.151   4.476   4.768  0.7215 -0.2413 -0.2978
 4357SOL    HW124707   4.056   4.488   4.767  0.8704  0.9735 -0.8481
 4357SOL    HW224708   4.146   4.390   4.726 -2.7854  0.6284 -1.6404
 4358SOL     OW24709   0.175   3.575  17.665 -0.1906 -0.1530  0.0703
 4358SOL    HW124710   0.122   3.570  17.744 -1.0369  3.1685 -0.2871
 4358SOL    HW224711   0.151   3.651  17.611  0.6818  0.9374  1.2493
 4359SOL     OW24712   4.096   1.844  11.416  0.1275 -0.4977  0.5014
 4359SOL    HW124713   4.141   1.899  11.480 -0.7210 -0.2219  0.8663
 4359SOL    HW224714   4.015   1.810  11.453 -0.1599 -2.5273 -1.9511
 4360SOL     OW24715   0.402   1.165   9.017 -0.2859  0.4233 -0.1438
 4360SOL    HW124716   0.414   1.208   8.932 -1.3259 -0.0376 -0.5203
 4360SOL    HW224717   0.310   1.143   9.003 -0.0425 -1.2268  0.9038
 4361SOL     OW24718   3.298   2.342   3.323 -0.1430 -0.2225  0.2640
 4361SOL    HW124719   3.258   2.425   3.297  0.5578 -0.5886 -1.9870
 4361SOL    HW224720   3.232   2.284   3.284 -0.5201  0.1045  0.4201
 4362SOL     OW24721   3.405   1.459   9.379 -0.1675  0.9773 -0.2579
 4362SOL    HW124722   3.494   1.483   9.354 -0.4751  1.2446 -1.0806
 4362SOL    HW224723   3.396   1.497   9.466 -0.1657  0.1621  0.1062
 4363SOL     OW24724   0.496   0.860   8.953 -0.0437 -0.0758  0.0509
 4363SOL    HW124725   0.405   0.838   8.974 -0.4483  2.4839  1.0095
 4363SOL    HW224726   0.495   0.876   8.858 -1.2040 -0.7676 -0.0608
 4364SOL     OW24727   4.344   1.868  16.082 -0.3286  0.5166 -0.6073
 4364SOL    HW124728   4.362   1.963  16.082 -1.2139  0.6802  0.4920
 4364SOL    HW224729   4.397   1.834  16.010  2.4356  2.1580  0.6145
 4365SOL     OW24730   3.895   1.640  14.007 -0.6313  0.0792 -0.0331
 4365SOL    HW124731   3.856   1.600  13.929 -0.3041 -2.6650  1.2131
 4365SOL    HW224732   3.962   1.698  13.970 -0.1972 -0.2552  0.2380
 4366SOL     OW24733   3.348   4.203  10.927  0.0895  0.1199 -0.5227
 4366SOL    HW124734   3.432   4.208  10.880 -0.3435  0.8117 -1.2292
 4366SOL    HW224735   3.348   4.288  10.970 -1.9734 -0.1603  0.0138
 4367SOL     OW24736   4.328   2.843  10.934  0.5252  0.0174  0.7869
 4367SOL    HW124737   4.291   2.917  10.885  0.5342  0.3197  1.2332
 4367SOL    HW224738   4.420   2.863  10.917 -0.1408  0.3811 -2.3804
 4368SOL     OW24739   2.297   1.371   5.484  0.1075  0.1262  0.5568
 4368SOL    HW124740   2.366   1.399   5.544  0.8870 -1.0090  0.1860
 4368SOL    HW224741   2.338   1.414   5.408 -0.9761 -1.2769 -0.8066
 4369SOL     OW24742   1.466   1.112  14.352 -0.3059 -0.3141 -0.1697
 4369SOL    HW124743   1.512   1.120  14.436  1.9810  1.2435 -1.5563
 4369SOL    HW224744   1.391   1.169  14.369 -1.0217 -1.1388 -0.5463
 4370SOL     OW24745   2.083   2.474   7.805 -0.3512  0.6770  0.1730
 4370SOL    HW124746   2.123   2.541   7.860  0.0476  0.4372  0.1747
 4370SOL    HW224747   2.139   2.401   7.829 -3.0359 -0.7262  2.1083
 4371SOL     OW24748   1.823   1.654   0.521  0.5742  1.0284 -0.3186
 4371SOL    HW124749   1.908   1.676   0.484  0.7045  2.3210  0.7221
 4371SOL    HW224750   1.821   1.558   0.520 -0.9523  1.0480  0.0837
 4372SOL     OW24751   4.288   3.162   4.606  0.1654  0.1153 -0.3059
 4372SOL    HW124752   4.300   3.101   4.533  1.6390 -1.1352  1.0069
 4372SOL    HW224753   4.378   3.178   4.633 -0.0562 -1.4972  1.4186
 4373SOL     OW24754   3.225   1.257  16.501  0.1207 -0.3727 -0.4750
 4373SOL    HW124755   3.298   1.228  16.447  0.1145  3.5764 -2.5547
 4373SOL    HW224756   3.275   1.327  16.542  0.7054 -1.3643  0.5148
 4374SOL     OW24757   0.985   2.110   6.663 -0.2138 -0.2524 -0.6029
 4374SOL    HW124758   0.918   2.054   6.702 -2.2059  2.9140  0.5344
 4374SOL    HW224759   0.955   2.098   6.573 -1.2693  0.0147 -0.2909
 4375SOL     OW24760   1.897   1.683   1.861  0.8653  0.1730 -0.0643
 4375SOL    HW124761   1.988   1.705   1.842  0.1620 -0.1570 -3.7532
 4375SOL    HW224762   1.914   1.666   1.954  0.2625 -0.6323 -0.0967
 4376SOL     OW24763   4.394   1.231  17.671  0.1752  0.3540  0.8080
 4376SOL    HW124764   4.453   1.262  17.740 -0.7221  3.1324  0.3150
 4376SOL    HW224765   4.333   1.304  17.683 -2.7864 -1.8768 -0.7726
 4377SOL     OW24766   0.974   2.044   6.060  0.0102  0.3302  0.1465
 4377SOL    HW124767   1.049   1.993   6.089  1.7659  1.3846 -2.6492
 4377SOL    HW224768   0.944   2.060   6.150 -4.0759  3.2536 -1.6809
 4378SOL     OW24769   4.174   1.113   3.522 -0.0989  0.0653  0.1083
 4378SOL    HW124770   4.225   1.082   3.447 -0.8353  1.5542 -1.0162
 4378SOL    HW224771   4.235   1.131   3.594  2.0009 -1.5509 -1.2710
 4379SOL     OW24772   1.732   0.163   7.291  0.1436 -0.3516  0.3427
 4379SOL    HW124773   1.712   0.085   7.343 -1.7625  0.5816  1.0216
 4379SOL    HW224774   1.700   0.232   7.348 -1.7878 -1.9576  1.2109
 4380SOL     OW24775   3.741   2.586  12.096 -0.3659  0.4217 -0.1236
 4380SOL    HW124776   3.821   2.639  12.096 -0.2598  0.2589  1.2629
 4380SOL    HW224777   3.756   2.500  12.137 -1.5306  1.2734  2.0737
 4381SOL     OW24778   0.496   4.308   7.760  0.0559 -0.3097  0.6379
 4381SOL    HW124779   0.443   4.250   7.706  1.6922  0.1533 -1.4370
 4381SOL    HW224780   0.534   4.239   7.815  0.6104 -0.6814 -0.2210
 4382SOL     OW24781   4.558   2.595   9.090  0.3968 -0.3321 -0.0222
 4382SOL    HW124782   4.539   2.617   9.181 -1.1407  0.0063 -0.4274
 4382SOL    HW224783   4.492   2.644   9.043 -0.3298  0.0179  1.3558
 4383SOL     OW24784   3.719   1.097   4.208  0.2229  0.2951  0.0174
 4383SOL    HW124785   3.637   1.136   4.238  1.2467  2.6516 -0.2450
 4383SOL    HW224786   3.752   1.173   4.160  1.0861  0.2835  0.5881
 4384SOL     OW24787   4.647   0.333  12.069  0.3554  0.1281 -0.1671
 4384SOL    HW124788   4.648   0.417  12.116  0.0179 -0.0549  0.1679
 4384SOL    HW224789   4.736   0.308  12.095  0.2129  0.7749  0.9712
 4385SOL     OW24790   0.736   1.403   9.166  0.9225 -0.1877 -0.3923
 4385SOL    HW124791   0.790   1.458   9.223  1.9959  0.2120 -1.7902
 4385SOL    HW224792   0.800   1.375   9.101  0.9701 -0.7050 -0.1258
 4386SOL     OW24793   2.954   1.208   7.143  0.4917  0.1169 -0.0345
 4386SOL    HW124794   2.962   1.295   7.181 -1.1198  0.5648 -0.7084
 4386SOL    HW224795   3.019   1.214   7.073  1.3525  0.0375  0.7604
 4387SOL     OW24796   2.978   0.950  17.186 -0.3777  0.4103  0.1111
 4387SOL    HW124797   2.973   0.866  17.232  0.6887 -0.5109 -1.4677
 4387SOL    HW224798   2.991   0.925  17.095  0.5407  0.6557  0.1750
 4388SOL     OW24799   2.150   2.078   6.485  0.1060 -0.2656  0.1417
 4388SOL    HW124800   2.139   2.033   6.568 -0.0596 -0.3638  0.0649
 4388SOL    HW224801   2.196   2.010   6.436  0.7364  1.7603 -2.1035
 4389SOL     OW24802   3.612   2.760  17.240 -0.1138  0.0395 -0.4169
 4389SOL    HW124803   3.696   2.718  17.221 -0.3951 -1.4656  1.6808
 4389SOL    HW224804   3.557   2.715  17.176  0.2646  1.3391 -1.6634
 4390SOL     OW24805   4.706   0.835   2.940 -0.1614 -0.6910 -0.4680
 4390SOL    HW124806   4.638   0.873   2.883  1.6289 -0.1858 -2.2624
 4390SOL    HW224807   4.668   0.747   2.945 -1.2863 -0.3232 -2.4309
 4391SOL     OW24808   1.947   1.727  17.637  0.0414 -0.6199 -0.3258
 4391SOL    HW124809   2.000   1.657  17.676 -0.5781 -1.0009 -0.1810
 4391SOL    HW224810   1.862   1.683  17.640 -0.2353  0.0257  1.4396
 4392SOL     OW24811   1.985   0.122   2.955  0.2948 -0.2369  0.5990
 4392SOL    HW124812   2.031   0.079   3.027  1.2881 -1.4316 -0.7557
 4392SOL    HW224813   1.972   0.210   2.990 -2.4337 -0.0829 -0.8490
 4393SOL     OW24814   4.105   1.090   2.418 -0.0160 -0.2290  0.5675
 4393SOL    HW124815   4.164   1.017   2.437 -0.7744 -0.7071  1.0640
 4393SOL    HW224816   4.149   1.165   2.459 -1.5591 -1.4990  4.5363
 4394SOL     OW24817   3.372   4.054   2.907 -0.5394 -0.2279  0.0616
 4394SOL    HW124818   3.319   4.106   2.847 -1.0860  0.4145  1.0997
 4394SOL    HW224819   3.459   4.077   2.876 -0.0618  0.5595  1.9489
 4395SOL     OW24820   1.496   3.785   2.785 -0.4009  0.0520 -0.4101
 4395SOL    HW124821   1.535   3.710   2.831  0.5398 -1.3374 -3.4757
 4395SOL    HW224822   1.403   3.769   2.772 -0.6803  0.5467  0.9548
 4396SOL     OW24823   2.335   2.484  10.797  0.3679  0.0353 -0.0808
 4396SOL    HW124824   2.418   2.531  10.807  0.5570 -0.4505  0.6605
 4396SOL    HW224825   2.283   2.515  10.871  0.4938 -1.8599  0.8091
 4397SOL     OW24826   1.684   4.549   7.247 -0.5964 -0.6166  0.1887
 4397SOL    HW124827   1.760   4.492   7.256 -1.6896 -1.9855  0.6961
 4397SOL    HW224828   1.687   4.602   7.327 -0.3513  2.3428 -1.7748
 4398SOL     OW24829   0.153   4.426   1.233  0.1927 -0.1410  0.1980
 4398SOL    HW124830   0.179   4.362   1.299 -2.9186 -1.5761  0.0035
 4398SOL    HW224831   0.220   4.494   1.243  0.2786 -0.2618  0.4353
 4399SOL     OW24832   1.628   3.397   3.557 -0.2370 -0.3979 -0.2864
 4399SOL    HW124833   1.661   3.481   3.526 -1.1648 -0.0807 -0.4237
 4399SOL    HW224834   1.534   3.398   3.541 -0.2067 -1.8349 -0.5321
 4400SOL     OW24835   3.075   0.481   2.245 -0.2558  0.3177 -0.3611
 4400SOL    HW124836   3.100   0.388   2.240 -0.2486  0.2249  1.4821
 4400SOL    HW224837   2.979   0.478   2.247 -0.2451 -0.6435 -1.5477
 4401SOL     OW24838   3.752   0.606   9.984 -0.3999 -0.7749 -0.0482
 4401SOL    HW124839   3.739   0.618   9.890 -0.7771  0.4467  0.1650
 4401SOL    HW224840   3.725   0.692  10.015  1.3942  0.4875 -1.9617
 4402SOL     OW24841   2.428   2.620   5.842  0.0847  0.2377  0.1413
 4402SOL    HW124842   2.406   2.606   5.750 -2.1982  1.9981  0.4204
 4402SOL    HW224843   2.359   2.592   5.903 -0.2408  0.8697  0.0629
 4403SOL     OW24844   3.097   0.221   8.265 -0.3003  0.5405  0.2814
 4403SOL    HW124845   3.152   0.296   8.243 -1.9590  0.4681 -4.2135
 4403SOL    HW224846   3.018   0.273   8.248 -0.6289 -0.4956 -1.4265
 4404SOL     OW24847   0.652   4.305   4.435  0.8247 -0.1922  0.2905
 4404SOL    HW124848   0.565   4.346   4.432 -0.8602 -3.6264  1.6628
 4404SOL    HW224849   0.652   4.245   4.510 -0.5059  0.7520  1.0492
 4405SOL     OW24850   3.126   4.456  11.055  0.3893  0.4540 -0.7047
 4405SOL    HW124851   3.126   4.377  11.109 -3.0364  0.7608 -0.2469
 4405SOL    HW224852   3.173   4.512  11.117 -1.1024 -1.3192  1.9946
 4406SOL     OW24853   3.326   3.783   8.912  0.1639 -0.2809  0.0240
 4406SOL    HW124854   3.264   3.738   8.970 -0.8297  0.9853 -0.0575
 4406SOL    HW224855   3.264   3.813   8.845  1.8917  1.0172 -1.0117
 4407SOL     OW24856   2.670   3.653  14.883  0.4120  0.7517  0.4663
 4407SOL    HW124857   2.597   3.628  14.940  0.9718 -1.4758  0.1857
 4407SOL    HW224858   2.741   3.621  14.939  0.6123 -2.4139 -1.6720
 4408SOL     OW24859   2.652   0.712   7.977 -0.0272 -1.0989  0.8752
 4408SOL    HW124860   2.586   0.778   7.997  1.1579  0.0635  0.8971
 4408SOL    HW224861   2.629   0.710   7.884 -0.7987 -2.1937  1.0777
 4409SOL     OW24862   3.907   0.763   9.437 -0.4358  0.1571  0.5087
 4409SOL    HW124863   3.883   0.853   9.417  0.0417  0.0001 -0.7497
 4409SOL    HW224864   3.998   0.766   9.465  0.1724 -0.7168 -1.3345
 4410SOL     OW24865   2.003   3.870   9.420 -0.0321  0.2319 -0.2225
 4410SOL    HW124866   1.979   3.920   9.499  0.3775 -0.3039  0.2446
 4410SOL    HW224867   1.989   3.944   9.361  2.4092 -0.6046 -1.8611
 4411SOL     OW24868   3.841   0.567   1.571 -0.6593  0.2319 -0.3967
 4411SOL    HW124869   3.773   0.599   1.631 -0.2289 -0.7194  0.6059
 4411SOL    HW224870   3.805   0.482   1.544 -0.0500 -0.2287  0.2289
 4412SOL     OW24871   0.120   0.269   4.826  0.5580  0.0452  0.0089
 4412SOL    HW124872   0.123   0.364   4.835 -2.0277  0.2473 -1.1163
 4412SOL    HW224873   0.109   0.261   4.731  0.8172  0.7941 -0.0773
 4413SOL     OW24874   3.239   0.449   6.179 -0.5267 -0.5662  0.1012
 4413SOL    HW124875   3.316   0.399   6.204 -0.3044 -1.3593 -2.2056
 4413SOL    HW224876   3.161   0.398   6.199  0.0817 -1.0144  1.3076
 4414SOL     OW24877   3.694   2.082   0.994 -0.6215 -0.2708  0.2806
 4414SOL    HW124878   3.683   1.987   0.993 -1.4486 -0.1647 -0.6014
 4414SOL    HW224879   3.743   2.079   1.076 -1.3590 -0.4038  0.7195
 4415SOL     OW24880   3.356   0.378   4.949 -0.5957 -0.1680  0.3131
 4415SOL    HW124881   3.448   0.395   4.971 -0.2356  1.0493 -2.1442
 4415SOL    HW224882   3.311   0.461   4.962  0.7081  1.0641 -2.9300
 4416SOL     OW24883   1.980   0.015   3.844 -0.0632 -0.7377  0.2837
 4416SOL    HW124884   1.901   4.718   3.886 -0.1803  0.0418  0.7210
 4416SOL    HW224885   2.043   0.008   3.916  0.4875 -1.1744 -0.2437
 4417SOL     OW24886   3.876   0.266   6.921 -0.5383 -0.5601 -0.0361
 4417SOL    HW124887   3.944   0.320   6.962  1.6263 -1.9089 -1.8358
 4417SOL    HW224888   3.938   0.214   6.870  0.1561  0.1721  0.0634
 4418SOL     OW24889   1.919   4.160   4.759  0.5291  0.5620 -0.2248
 4418SOL    HW124890   1.946   4.229   4.820  3.0590  0.0835 -0.7964
 4418SOL    HW224891   1.991   4.098   4.753 -0.5049 -0.6354 -0.1340
 4419SOL     OW24892   0.407   0.965   8.103  0.3264 -0.9181 -0.4868
 4419SOL    HW124893   0.317   0.949   8.130  0.3656 -0.3154  0.0011
 4419SOL    HW224894   0.422   0.886   8.051  4.1431 -0.9512  0.6176
 4420SOL     OW24895   1.961   2.508  15.507 -0.1210  0.5847 -0.2462
 4420SOL    HW124896   1.981   2.577  15.444  0.8326  1.9125  1.5114
 4420SOL    HW224897   1.886   2.465  15.467 -0.1311 -2.0871  2.6614
 4421SOL     OW24898   0.562   3.422   4.683 -0.3759  0.1882  0.9426
 4421SOL    HW124899   0.511   3.350   4.720 -1.2511 -0.0637 -0.7905
 4421SOL    HW224900   0.538   3.478   4.757 -3.3758  0.6193 -0.3585
 4422SOL     OW24901   0.558   2.237   0.050  0.1918 -0.6003 -0.5268
 4422SOL    HW124902   0.579   2.170   0.115 -1.0622  0.1171  0.6258
 4422SOL    HW224903   0.612   2.215  17.726 -0.1517 -0.4117 -0.8325
 4423SOL     OW24904   0.552   3.215   5.817  0.2162 -0.4437  0.2092
 4423SOL    HW124905   0.614   3.158   5.772  1.0870 -0.1606  1.0626
 4423SOL    HW224906   0.515   3.263   5.743  1.5613 -0.1438 -0.2598
 4424SOL     OW24907   0.571   1.611   7.282  0.1486 -0.3045  0.2828
 4424SOL    HW124908   0.656   1.629   7.242 -0.6358 -0.5920 -1.5124
 4424SOL    HW224909   0.515   1.686   7.261  2.1413  1.0755 -0.1505
 4425SOL     OW24910   3.891   4.472   3.298  0.3551  0.3326 -0.1883
 4425SOL    HW124911   3.911   4.393   3.246 -1.7619 -1.1452  1.2824
 4425SOL    HW224912   3.797   4.467   3.315  0.7412 -1.6257  1.3202
 4426SOL     OW24913   4.500   4.540  16.073  0.2859  0.2892 -0.2692
 4426SOL    HW124914   4.572   4.482  16.100 -1.1931 -1.6224 -0.4132
 4426SOL    HW224915   4.450   4.484  16.014 -2.8500  0.4280  2.2237
 4427SOL     OW24916   1.514   4.054   2.111 -0.3601 -0.4719  0.5156
 4427SOL    HW124917   1.538   3.985   2.174 -4.2788 -0.9259  1.5025
 4427SOL    HW224918   1.598   4.099   2.115 -1.2042  1.1670 -0.3640
 4428SOL     OW24919   0.227   1.183   1.145 -0.6091 -0.4963 -0.3012
 4428SOL    HW124920   0.167   1.180   1.219 -0.2140 -0.3833  0.0229
 4428SOL    HW224921   0.285   1.258   1.160 -1.5231  0.4426 -1.4919
 4429SOL     OW24922   3.324   4.661   3.994  0.4200 -0.3580  0.4130
 4429SOL    HW124923   3.317   4.572   4.031 -0.0360 -1.0822 -1.4023
 4429SOL    HW224924   3.418   4.673   4.005  0.7627 -3.9213  1.6487
 4430SOL     OW24925   2.839   3.724   9.741  0.0166  0.5188  0.2455
 4430SOL    HW124926   2.903   3.701   9.807  0.7570 -0.9205 -0.9709
 4430SOL    HW224927   2.887   3.790   9.690  0.7010  1.3276  1.9330
 4431SOL     OW24928   2.695   0.982   9.052  0.2866  0.2716  0.3490
 4431SOL    HW124929   2.734   0.898   9.029  2.1872  1.1122  0.5003
 4431SOL    HW224930   2.748   1.045   9.004 -2.0386  0.9708 -1.3119
 4432SOL     OW24931   4.332   0.717   5.901  0.1833  0.0674 -0.2860
 4432SOL    HW124932   4.321   0.784   5.968 -0.5569 -0.7381  0.3911
 4432SOL    HW224933   4.328   0.768   5.820 -0.3186 -0.9680 -0.9213
 4433SOL     OW24934   3.935   3.210   8.244  0.4706  0.0752  0.0688
 4433SOL    HW124935   4.025   3.192   8.216  0.3912 -0.9289  0.4555
 4433SOL    HW224936   3.941   3.305   8.237  0.5234  0.1512  1.2489
 4434SOL     OW24937   3.185   2.222  10.417 -0.0249 -0.1530  0.1534
 4434SOL    HW124938   3.205   2.248  10.507  0.7673 -0.0018 -0.0728
 4434SOL    HW224939   3.187   2.128  10.431  0.4991 -0.3563 -1.3742
 4435SOL     OW24940   1.784   2.566  17.576  0.3444  0.4360  0.1276
 4435SOL    HW124941   1.701   2.567  17.529  0.8250 -1.2105 -0.7840
 4435SOL    HW224942   1.832   2.641  17.541  1.1592 -0.8368 -1.5363
 4436SOL     OW24943   1.723   4.337   7.804 -0.5951  0.1563 -0.7530
 4436SOL    HW124944   1.735   4.285   7.724  0.8086 -1.8538  0.7715
 4436SOL    HW224945   1.751   4.284   7.878 -3.8962  2.0457  1.8664
 4437SOL     OW24946   4.309   0.381   6.605  0.2903 -0.1598  0.4430
 4437SOL    HW124947   4.334   0.438   6.532 -1.1904 -0.0782  0.0080
 4437SOL    HW224948   4.369   0.398   6.678 -0.4902  0.5314  0.9144
 4438SOL     OW24949   0.209   2.485   4.243  0.1837 -0.6087  0.3304
 4438SOL    HW124950   0.245   2.441   4.321 -1.1793  0.3913  1.5132
 4438SOL    HW224951   0.117   2.500   4.265  0.4483  0.6733  0.5425
 4439SOL     OW24952   3.374   1.040   4.223  0.6310  0.6364  0.0014
 4439SOL    HW124953   3.323   0.960   4.230 -0.8427  1.4704 -1.3186
 4439SOL    HW224954   3.355   1.048   4.130  1.7038  0.1907 -0.2548
 4440SOL     OW24955   1.685   1.099  12.862  0.0154 -0.0629  0.1831
 4440SOL    HW124956   1.689   1.092  12.957  0.3312 -0.5663  0.1308
 4440SOL    HW224957   1.681   1.010  12.828  0.3155  0.2029 -0.5706
 4441SOL     OW24958   3.461   2.092   3.269  0.1434  0.2968  0.4068
 4441SOL    HW124959   3.400   2.142   3.215 -0.7595  1.1435  2.2091
 4441SOL    HW224960   3.528   2.157   3.287 -1.3773  2.2451 -0.9850
 4442SOL     OW24961   2.395   0.000  15.630  0.3733 -0.1342  0.1967
 4442SOL    HW124962   2.481   4.698  15.614 -0.2084 -1.0815 -0.5201
 4442SOL    HW224963   2.394   0.014  15.725  0.5814  0.8914  0.0532
 4443SOL     OW24964   0.701   1.529   0.222 -0.0761 -1.0610 -0.2217
 4443SOL    HW124965   0.748   1.472   0.160 -0.3862 -1.2448 -0.2845
 4443SOL    HW224966   0.771   1.529   0.288  0.2093  0.0048 -0.5189
 4444SOL     OW24967   0.626   2.955   3.828  0.4209  0.4994  0.3112
 4444SOL    HW124968   0.589   3.043   3.829  0.3831  0.4901 -1.0960
 4444SOL    HW224969   0.552   2.908   3.868  0.7172  1.1846  1.6762
 4445SOL     OW24970   3.210   2.469   7.955  0.0237  0.2657  0.0869
 4445SOL    HW124971   3.215   2.405   7.884  1.2736 -1.6202  1.8677
 4445SOL    HW224972   3.128   2.440   7.996 -2.3805  3.5259 -2.4586
 4446SOL     OW24973   0.182   2.453   5.387  0.1278  0.3304 -0.2894
 4446SOL    HW124974   0.161   2.360   5.380  0.2695  0.4205 -1.8968
 4446SOL    HW224975   0.158   2.477   5.298  1.3566  1.7417 -0.2489
 4447SOL     OW24976   2.772   2.175   3.193 -0.3396 -0.1178  0.0640
 4447SOL    HW124977   2.856   2.188   3.150  0.1989  1.9330  1.7616
 4447SOL    HW224978   2.802   2.171   3.284  1.5871  1.4026 -0.5083
 4448SOL     OW24979   1.591   1.200   7.870 -0.2857 -0.7757 -0.1830
 4448SOL    HW124980   1.640   1.174   7.948 -2.1350  0.5974  1.4151
 4448SOL    HW224981   1.614   1.130   7.809 -1.9264 -0.4090 -1.2355
 4449SOL     OW24982   4.227   3.256   5.210 -0.1950  0.1073 -0.0078
 4449SOL    HW124983   4.254   3.269   5.301  0.9637 -0.5837 -0.2439
 4449SOL    HW224984   4.298   3.302   5.165  1.2797 -0.3174  1.8508
 4450SOL     OW24985   1.077   3.379   3.881 -0.1958 -0.1854  0.4836
 4450SOL    HW124986   1.127   3.457   3.855 -1.0129 -0.0115 -0.5664
 4450SOL    HW224987   0.987   3.394   3.853  0.3961  1.9775 -0.2221
 4451SOL     OW24988   0.729   3.349  11.144  0.0246  0.6326  0.4187
 4451SOL    HW124989   0.732   3.254  11.151  2.2455  0.7087  0.3607
 4451SOL    HW224990   0.822   3.372  11.146  0.0661  0.6051 -1.0783
 4452SOL     OW24991   0.850   0.807   1.307 -0.1170 -0.0085 -0.2188
 4452SOL    HW124992   0.919   0.833   1.368 -2.5348  1.0910  2.0663
 4452SOL    HW224993   0.883   0.844   1.225  2.2146  2.2546  1.7655
 4453SOL     OW24994   1.282   4.072   6.196 -0.1377 -0.1078  0.0297
 4453SOL    HW124995   1.300   3.996   6.252  0.1487 -0.0444  0.0217
 4453SOL    HW224996   1.244   4.129   6.263  1.2602 -1.2157  1.7624
 4454SOL     OW24997   4.354   3.716   2.874 -0.1594 -0.1697 -0.2724
 4454SOL    HW124998   4.273   3.759   2.900 -0.3451 -1.5203  1.3862
 4454SOL    HW224999   4.362   3.645   2.938  0.6601 -0.4561 -0.6829
 4455SOL     OW25000   3.210   1.729  13.324 -0.1032 -0.0765  0.5559
 4455SOL    HW125001   3.189   1.650  13.274 -1.6917  0.4741  0.3298
 4455SOL    HW225002   3.287   1.689  13.363  1.2885  0.7140 -1.4179
 4456SOL     OW25003   0.247   1.278   8.448  0.0048  0.0613 -0.0489
 4456SOL    HW125004   0.198   1.208   8.491 -2.2115  1.4013 -0.4066
 4456SOL    HW225005   0.252   1.345   8.516  1.4217 -0.6092  0.4996
 4457SOL     OW25006   1.555   1.966   8.763 -0.5567 -0.5453  0.1801
 4457SOL    HW125007   1.557   2.044   8.708 -0.6515 -0.3500  0.4497
 4457SOL    HW225008   1.553   2.016   8.845 -0.4765 -0.3302  0.0481
 4458SOL     OW25009   2.011   4.533  13.103  0.3920  0.1097  0.3316
 4458SOL    HW125010   2.091   4.582  13.124  1.0556 -1.0950  0.5959
 4458SOL    HW225011   1.970   4.540  13.190  2.8057  1.4023  1.3625
 4459SOL     OW25012   3.682   1.992  10.351  0.2059 -0.4208  0.2511
 4459SOL    HW125013   3.766   1.976  10.308 -0.3538  0.2285 -1.0647
 4459SOL    HW225014   3.712   1.999  10.442  1.2873  0.5257 -0.1797
 4460SOL     OW25015   2.782   2.858   7.035  0.0628  0.3106  0.5272
 4460SOL    HW125016   2.749   2.948   7.042  1.4280  0.9325 -1.0877
 4460SOL    HW225017   2.876   2.865   7.048  0.4894 -0.8164 -1.9889
 4461SOL     OW25018   0.451   1.155   5.480 -0.3054 -0.0315 -0.9524
 4461SOL    HW125019   0.542   1.156   5.450 -0.2579 -2.1026 -0.8721
 4461SOL    HW225020   0.409   1.225   5.430  0.4886  1.4178  0.4300
 4462SOL     OW25021   0.086   4.392   0.165  0.4002 -0.5341 -0.1527
 4462SOL    HW125022   0.096   4.337   0.243  0.8670 -1.1106 -0.6127
 4462SOL    HW225023   0.008   4.441   0.189  0.6820 -1.6010  2.9289
 4463SOL     OW25024   4.612   3.288   5.934 -0.0592  0.1215 -0.4291
 4463SOL    HW125025   4.664   3.307   6.012  0.0772 -2.1025  0.0097
 4463SOL    HW225026   4.661   3.351   5.881  0.4700  0.3726  0.3656
 4464SOL     OW25027   1.029   0.333   2.215  0.0005  0.2476  0.2879
 4464SOL    HW125028   0.989   0.413   2.251 -0.1908  0.1690  0.2506
 4464SOL    HW225029   1.012   0.280   2.293 -0.5859 -2.0427 -1.4018
 4465SOL     OW25030   0.691   1.788   8.951 -0.1326  0.2893 -0.2803
 4465SOL    HW125031   0.767   1.745   8.990 -0.7419 -0.2283  0.3535
 4465SOL    HW225032   0.618   1.733   8.979 -1.3216 -0.1224 -4.1118
 4466SOL     OW25033   0.144   2.927   4.274 -0.0689  0.7142 -0.2625
 4466SOL    HW125034   0.238   2.932   4.258  0.0488 -0.0399  0.1439
 4466SOL    HW225035   0.141   2.953   4.366  2.1757 -0.6217  0.1897
 4467SOL     OW25036   2.626   1.008  13.401 -0.1041 -0.2603 -0.0265
 4467SOL    HW125037   2.677   1.017  13.481  0.0319  3.6802 -0.5497
 4467SOL    HW225038   2.542   1.038  13.437  1.3228  2.9525  0.6321
 4468SOL     OW25039   3.449   1.534   4.967 -0.1236 -0.5837  0.8695
 4468SOL    HW125040   3.483   1.458   5.014  1.8062  0.4183  1.0801
 4468SOL    HW225041   3.414   1.583   5.042  2.7695 -0.8613  2.4058
 4469SOL     OW25042   2.537   4.131  17.056 -0.3433  0.8346 -0.1345
 4469SOL    HW125043   2.560   4.083  17.135 -1.2218 -0.2321 -0.5200
 4469SOL    HW225044   2.448   4.159  17.077  0.3301  2.1839  0.8839
 4470SOL     OW25045   1.823   4.442   2.045  0.7178 -0.2432  0.5975
 4470SOL    HW125046   1.859   4.483   1.966 -0.0436  0.3669  0.5727
 4470SOL    HW225047   1.891   4.475   2.104 -0.4962 -0.4495  2.0956
 4471SOL     OW25048   0.971   1.395  12.578 -0.7299 -0.1422  0.4530
 4471SOL    HW125049   1.033   1.374  12.648  0.7776  1.8933 -0.2900
 4471SOL    HW225050   0.891   1.394  12.631 -0.6900 -0.1944  0.5132
 4472SOL     OW25051   1.055   2.800   3.010  0.3795  0.0885 -0.2949
 4472SOL    HW125052   1.039   2.762   2.924  1.1498 -1.6009  0.3108
 4472SOL    HW225053   1.048   2.726   3.071 -0.1911 -1.4766 -2.2648
 4473SOL     OW25054   4.315   0.684   4.111  0.5423 -0.5167  0.1347
 4473SOL    HW125055   4.295   0.593   4.130  0.2651 -0.7077 -1.0524
 4473SOL    HW225056   4.232   0.704   4.153 -0.1359  0.0988 -1.4687
 4474SOL     OW25057   4.202   4.519   4.115 -0.6590  0.3537 -0.1846
 4474SOL    HW125058   4.245   4.532   4.199 -0.2896  1.1065 -0.4838
 4474SOL    HW225059   4.260   4.561   4.051 -0.6538 -0.2213 -0.5517
 4475SOL     OW25060   1.591   3.204   4.200 -0.2063 -0.4760 -0.0574
 4475SOL    HW125061   1.562   3.120   4.163 -0.0531 -0.5650  0.0267
 4475SOL    HW225062   1.570   3.181   4.290  2.0931 -1.4460  0.2158
 4476SOL     OW25063   1.976   1.722   4.094  0.2316 -0.1703  0.2754
 4476SOL    HW125064   1.903   1.664   4.072  0.7509 -0.2997 -1.0957
 4476SOL    HW225065   1.967   1.784   4.022 -0.4113 -1.7499 -0.9872
 4477SOL     OW25066   4.154   0.760  11.069  1.2420 -0.3716  0.6019
 4477SOL    HW125067   4.072   0.801  11.040  1.6141  1.3378  1.9661
 4477SOL    HW225068   4.172   0.809  11.149 -0.7210  0.8095  0.3304
 4478SOL     OW25069   1.981   3.214   8.282  0.6719  0.6875 -0.2400
 4478SOL    HW125070   2.007   3.132   8.326 -2.2386 -0.4767 -0.7240
 4478SOL    HW225071   1.887   3.200   8.271  0.3504  1.2505  1.7376
 4479SOL     OW25072   4.265   4.399   8.656  0.1346 -0.5911 -0.1537
 4479SOL    HW125073   4.297   4.309   8.657 -1.3189 -1.1220 -1.0573
 4479SOL    HW225074   4.306   4.438   8.733  0.4249  0.9495 -1.0770
 4480SOL     OW25075   3.916   2.028   6.879 -0.2993  0.4956  0.1861
 4480SOL    HW125076   3.884   2.066   6.960 -1.1953 -0.6195  0.3399
 4480SOL    HW225077   3.984   2.096   6.867 -0.1343  0.3712  0.4187
 4481SOL     OW25078   1.507   4.714   6.906  0.3063 -0.4856  0.1114
 4481SOL    HW125079   1.548   4.628   6.896 -0.0186 -0.8296  1.6623
 4481SOL    HW225080   1.495   4.729   6.813  0.8967  0.5140  0.1983
 4482SOL     OW25081   4.413   4.587  12.065  0.0448 -0.4857  0.2261
 4482SOL    HW125082   4.427   4.667  12.116  1.0171  0.7874 -2.0233
 4482SOL    HW225083   4.424   4.512  12.123  1.9345  0.5967  1.2746
 4483SOL     OW25084   0.808   2.212   7.844  0.6061  0.3666 -0.3626
 4483SOL    HW125085   0.726   2.205   7.893  0.5397  0.8553 -0.3992
 4483SOL    HW225086   0.764   2.193   7.761 -1.2399  1.4157  0.3741
 4484SOL     OW25087   2.949   3.821   6.136  0.4001 -0.2847  0.0384
 4484SOL    HW125088   2.999   3.865   6.067 -1.5506  1.4227 -0.2893
 4484SOL    HW225089   2.890   3.894   6.157  1.2346 -0.5827  3.4100
 4485SOL     OW25090   4.462   3.094   7.238  0.2744 -0.5439  0.5967
 4485SOL    HW125091   4.470   2.999   7.239  1.8772 -0.4177 -0.2679
 4485SOL    HW225092   4.521   3.128   7.306  0.5369 -1.8910  1.0455
 4486SOL     OW25093   1.950   1.724  17.380  0.0368 -0.1198 -0.0004
 4486SOL    HW125094   2.010   1.650  17.371  0.3851  0.1593 -0.0004
 4486SOL    HW225095   1.947   1.730  17.476  1.6585  0.2876  0.0286
 4487SOL     OW25096   1.859   1.674   5.207  0.0794 -0.0315  0.4706
 4487SOL    HW125097   1.901   1.713   5.130  0.5142  1.0381  1.2522
 4487SOL    HW225098   1.844   1.749   5.264 -0.4393 -1.0627  1.6860
 4488SOL     OW25099   3.519   4.594   9.360 -0.3585  0.1411  0.2749
 4488SOL    HW125100   3.442   4.609   9.414  0.3096 -2.0880  1.8425
 4488SOL    HW225101   3.496   4.593   9.267 -1.1382  4.1475  0.4377
 4489SOL     OW25102   3.677   1.582   0.679 -0.3436  0.3748 -0.1106
 4489SOL    HW125103   3.643   1.651   0.622  0.1096  0.6910 -0.0010
 4489SOL    HW225104   3.600   1.565   0.734  0.2844 -2.8962 -0.2453
 4490SOL     OW25105   0.611   1.426  16.493  0.6518 -0.5546  0.1090
 4490SOL    HW125106   0.582   1.430  16.401 -0.9529  0.1921  0.6509
 4490SOL    HW225107   0.696   1.383  16.479  0.2416 -1.1230 -0.6362
 4491SOL     OW25108   0.322   1.583   3.991 -0.1347 -0.1757 -0.4077
 4491SOL    HW125109   0.316   1.672   4.026  0.4130 -0.8220  1.3359
 4491SOL    HW225110   0.233   1.561   4.018 -0.5099  0.3820 -1.2075
 4492SOL     OW25111   3.693   2.231   7.571  0.5191  0.6841  0.1174
 4492SOL    HW125112   3.707   2.137   7.585  0.0063  0.8384  1.6727
 4492SOL    HW225113   3.761   2.280   7.616  2.2305  0.3901 -2.1219
 4493SOL     OW25114   3.077   2.036   9.207 -0.1761 -0.0436 -0.0864
 4493SOL    HW125115   3.109   1.946   9.194  1.0368  0.4989 -0.7975
 4493SOL    HW225116   3.093   2.049   9.300 -0.9412  1.6431 -0.1957
 4494SOL     OW25117   3.200   4.186  16.050  0.2165  0.6787 -0.7475
 4494SOL    HW125118   3.145   4.109  16.067 -1.0635  1.7633 -0.0353
 4494SOL    HW225119   3.237   4.163  15.965  1.6722  0.5318 -0.0847
 4495SOL     OW25120   2.976   0.217  14.637  0.1709  0.0555 -0.0405
 4495SOL    HW125121   2.936   0.303  14.625  1.1149  0.8433  2.5167
 4495SOL    HW225122   3.002   0.228  14.728 -2.9282  0.0858  0.8624
 4496SOL     OW25123   2.245   1.210   0.681  0.2272 -0.0628  0.0433
 4496SOL    HW125124   2.216   1.122   0.703 -1.6243  0.4902 -0.1741
 4496SOL    HW225125   2.313   1.192   0.617  0.0086  0.8211 -0.4491
 4497SOL     OW25126   1.752   0.844   1.565  0.0941  0.3026  0.0949
 4497SOL    HW125127   1.733   0.928   1.524  0.6801 -1.5016 -3.8694
 4497SOL    HW225128   1.673   0.797   1.538 -0.2904  0.3302  1.1649
 4498SOL     OW25129   0.308   3.833  15.982 -1.0404  0.7195 -0.1959
 4498SOL    HW125130   0.261   3.840  15.900 -1.4140  0.7576  0.0218
 4498SOL    HW225131   0.294   3.921  16.018  0.2630  0.3600  1.2554
 4499SOL     OW25132   4.610   0.592   2.000  0.1216 -1.0146 -0.2769
 4499SOL    HW125133   4.609   0.646   2.079  0.2703 -1.1292 -0.1965
 4499SOL    HW225134   4.518   0.588   1.977 -0.5402  2.9318  1.5382
 4500SOL     OW25135   0.252   0.210   9.383  0.2646 -0.1902  0.0604
 4500SOL    HW125136   0.240   0.185   9.475 -2.1681  0.7173 -0.0127
 4500SOL    HW225137   0.345   0.190   9.378  0.5991  0.8530  2.0497
 4501SOL     OW25138   3.053   2.909   0.140 -0.6052  0.0466  0.9632
 4501SOL    HW125139   3.007   2.891   0.058 -0.5391 -0.4612  1.0351
 4501SOL    HW225140   3.123   2.958   0.098 -0.3036  0.1544  1.5878
 4502SOL     OW25141   4.715   2.153  16.386 -0.1171  0.2915  0.6820
 4502SOL    HW125142   0.011   2.197  16.308  0.1765  1.3264  1.3981
 4502SOL    HW225143   0.047   2.097  16.418  0.7581  0.8369 -0.2903
 4503SOL     OW25144   1.402   0.766   2.759 -0.4830 -0.2153  0.0065
 4503SOL    HW125145   1.442   0.800   2.839 -3.9743 -0.4436  1.8857
 4503SOL    HW225146   1.411   0.846   2.707  0.0139  0.8002  1.6511
 4504SOL     OW25147   0.313   2.532   3.205 -0.0443 -0.3739  0.0753
 4504SOL    HW125148   0.226   2.506   3.234 -0.4161  1.4318  0.6239
 4504SOL    HW225149   0.334   2.611   3.256  0.1584 -2.2817  2.9317
 4505SOL     OW25150   1.827   2.089  10.511 -0.2719 -0.5102  0.5136
 4505SOL    HW125151   1.759   2.151  10.485  0.8790  0.1490 -0.9617
 4505SOL    HW225152   1.899   2.128  10.462 -0.0163 -0.5340  0.8683
 4506SOL     OW25153   1.871   0.467   5.163 -0.0426  0.4556 -0.5158
 4506SOL    HW125154   1.952   0.515   5.180 -0.2596  0.5643  0.2002
 4506SOL    HW225155   1.855   0.481   5.069 -0.4946  1.8535 -0.2352
 4507SOL     OW25156   4.174   1.708   0.784  0.6941 -0.8117 -0.2739
 4507SOL    HW125157   4.091   1.710   0.736 -0.1963 -0.0763  1.3101
 4507SOL    HW225158   4.145   1.649   0.854 -0.5542 -0.3069 -0.3642
 4508SOL     OW25159   3.894   0.036  16.177 -0.6201 -0.3387 -1.0758
 4508SOL    HW125160   3.855   0.087  16.106 -1.8289  0.7737  0.3719
 4508SOL    HW225161   3.844   0.057  16.256  0.1375  0.1517 -0.7242
 4509SOL     OW25162   0.259   2.420   3.573  0.3723 -0.7679  0.5931
 4509SOL    HW125163   0.343   2.465   3.564 -0.2281  0.1754 -0.3407
 4509SOL    HW225164   0.264   2.352   3.506  0.9333  0.8654 -1.0178
 4510SOL     OW25165   2.207   4.075   0.033 -0.0716 -0.5296  0.0869
 4510SOL    HW125166   2.168   4.032  17.708 -0.3692 -0.0609 -0.0227
 4510SOL    HW225167   2.249   4.002   0.078 -1.9038 -1.4917  0.2216
 4511SOL     OW25168   4.470   2.423   4.740  0.2104 -0.0147 -0.2426
 4511SOL    HW125169   4.379   2.452   4.750  0.2545 -0.2387  0.7769
 4511SOL    HW225170   4.497   2.480   4.812 -2.4694 -1.4764  1.9049
 4512SOL     OW25171   3.651   4.178   4.008  0.1664  0.3270  0.6144
 4512SOL    HW125172   3.705   4.159   4.084  1.3263 -1.5070 -0.6773
 4512SOL    HW225173   3.689   4.115   3.947 -1.2718  0.2080 -0.1654
 4513SOL     OW25174   2.846   1.814   1.309  0.0893 -0.0617  0.4753
 4513SOL    HW125175   2.922   1.767   1.345 -0.6244 -1.5579  0.0152
 4513SOL    HW225176   2.775   1.794   1.370 -1.4010 -0.2453 -1.3174
 4514SOL     OW25177   0.463   2.591   4.837  0.4132  0.2791 -0.6283
 4514SOL    HW125178   0.430   2.603   4.926  0.8569 -2.0620 -0.1498
 4514SOL    HW225179   0.441   2.678   4.804  1.5682  0.9651  0.4335
 4515SOL     OW25180   4.157   3.325   2.385 -0.2217 -0.3404  0.0585
 4515SOL    HW125181   4.152   3.237   2.420  1.6102  0.1875  1.6201
 4515SOL    HW225182   4.064   3.343   2.368  0.1513 -0.1444 -1.7844
 4516SOL     OW25183   2.610   0.564   1.844 -0.0954  0.4967  0.4010
 4516SOL    HW125184   2.552   0.608   1.782  0.2167 -0.8967 -0.8939
 4516SOL    HW225185   2.638   0.633   1.904  1.1981 -0.9779  1.5101
 4517SOL     OW25186   1.742   3.252  12.805 -0.0380 -0.0269  0.5624
 4517SOL    HW125187   1.805   3.324  12.815  1.0972 -0.7962 -1.0629
 4517SOL    HW225188   1.724   3.262  12.712  1.3384 -1.5557  0.1307
 4518SOL     OW25189   1.761   4.646   3.965 -0.3494  0.1161  0.2590
 4518SOL    HW125190   1.789   4.561   3.930  0.1057  0.1155  0.6290
 4518SOL    HW225191   1.666   4.631   3.975 -0.2028  0.0450  1.5647
 4519SOL     OW25192   3.415   0.854   8.254 -0.0512 -0.0943 -0.0188
 4519SOL    HW125193   3.438   0.763   8.274 -0.7942 -0.3062 -0.1378
 4519SOL    HW225194   3.430   0.899   8.337 -3.2323 -0.6166  0.8343
 4520SOL     OW25195   1.974   1.108   2.806  0.0956 -0.0807 -0.2582
 4520SOL    HW125196   1.916   1.184   2.801  1.0381  0.5616 -1.3477
 4520SOL    HW225197   1.909   1.038   2.803  1.7932 -1.7451  1.5194
 4521SOL     OW25198   1.827   4.405   3.889 -0.2397  0.2609 -0.1608
 4521SOL    HW125199   1.770   4.333   3.919  1.6034 -0.5022  1.4483
 4521SOL    HW225200   1.914   4.365   3.886 -0.7872 -0.9325 -0.4701
 4522SOL     OW25201   3.934   4.327   5.752  0.6044 -0.1947  0.2081
 4522SOL    HW125202   3.985   4.308   5.831  1.0336  2.0614  0.4609
 4522SOL    HW225203   3.851   4.364   5.781 -0.2131 -2.7717  1.1864
 4523SOL     OW25204   0.200   2.106   5.120 -0.2685  0.0028 -0.2063
 4523SOL    HW125205   0.268   2.043   5.142 -0.2291 -1.2748 -4.0360
 4523SOL    HW225206   0.132   2.057   5.075 -1.1406 -0.6841  1.8730
 4524SOL     OW25207   1.572   4.138  10.286  0.0617 -0.0350 -0.0336
 4524SOL    HW125208   1.619   4.216  10.316  1.8303 -1.7608  1.6013
 4524SOL    HW225209   1.522   4.176  10.214 -1.1524 -1.6034 -0.0169
 4525SOL     OW25210   0.696   2.229  11.092  0.4031 -0.1268  0.1095
 4525SOL    HW125211   0.628   2.223  11.159 -0.5901 -0.7053 -0.9330
 4525SOL    HW225212   0.751   2.299  11.124 -1.9254  0.3612  3.0268
 4526SOL     OW25213   1.911   4.256   3.501 -0.0650  0.4750 -0.3750
 4526SOL    HW125214   1.855   4.216   3.567  0.6304  1.1928  0.6420
 4526SOL    HW225215   1.922   4.347   3.527  0.8657 -0.1561  1.4446
 4527SOL     OW25216   2.743   4.265   3.379 -0.5571 -0.0859 -0.4255
 4527SOL    HW125217   2.750   4.301   3.468 -1.5266  1.6182 -1.0358
 4527SOL    HW225218   2.685   4.327   3.335 -0.5992 -0.7910 -1.3685
 4528SOL     OW25219   4.545   0.145   3.179 -0.1293  0.0408  0.0437
 4528SOL    HW125220   4.620   0.204   3.190 -0.1782  0.0221  0.4736
 4528SOL    HW225221   4.473   0.199   3.214  0.2818  0.1515  0.7149
 4529SOL     OW25222   2.128   1.516   8.279  0.7683 -0.0883  0.8911
 4529SOL    HW125223   2.132   1.433   8.327 -1.1696 -0.3953  0.4996
 4529SOL    HW225224   2.049   1.514   8.226  0.3552  0.0806  1.4994
 4530SOL     OW25225   2.258   1.895  15.769 -0.2450 -0.0951 -0.4118
 4530SOL    HW125226   2.291   1.927  15.686 -0.2619  1.1627  0.0716
 4530SOL    HW225227   2.165   1.914  15.755  0.0702  0.9851 -0.9489
 4531SOL     OW25228   2.489   1.479  14.603  0.4156  0.3843 -0.0130
 4531SOL    HW125229   2.524   1.408  14.658 -0.4757  0.0009  0.0604
 4531SOL    HW225230   2.411   1.454  14.554 -0.6087  0.4014  1.5976
 4532SOL     OW25231   2.132   2.915   2.747  0.1801  0.1416 -0.0380
 4532SOL    HW125232   2.088   2.883   2.826 -0.8649  1.4172 -0.1009
 4532SOL    HW225233   2.143   2.836   2.694  0.2272 -0.1654  0.4321
 4533SOL     OW25234   3.213   1.711  13.702 -0.2907 -0.0905  0.1183
 4533SOL    HW125235   3.183   1.802  13.708  1.4062  0.4584  0.3604
 4533SOL    HW225236   3.270   1.694  13.777  0.8677 -0.9887 -0.9578
 4534SOL     OW25237   0.293   1.090   7.296  0.0006 -0.0439 -0.2333
 4534SOL    HW125238   0.289   1.009   7.348  1.3991  0.2026  0.2625
 4534SOL    HW225239   0.232   1.053   7.232  1.4669 -1.8443 -0.6040
 4535SOL     OW25240   0.918   1.596  16.692 -0.0775  0.2175  0.2580
 4535SOL    HW125241   0.992   1.544  16.659 -0.2158  0.1916 -0.0127
 4535SOL    HW225242   0.860   1.604  16.616  3.0065 -1.0053 -2.2673
 4536SOL     OW25243   1.024   3.595  13.751  0.1920 -0.1929 -0.6332
 4536SOL    HW125244   0.950   3.546  13.716  1.1048 -4.0459  2.8408
 4536SOL    HW225245   0.980   3.640  13.823 -0.0692  0.5082 -1.2251
 4537SOL     OW25246   4.188   4.371   6.924  0.6072  0.3273 -0.0972
 4537SOL    HW125247   4.247   4.434   6.965 -2.8195  2.0126  2.3063
 4537SOL    HW225248   4.208   4.297   6.981 -0.1295 -0.2875 -0.6200
 4538SOL     OW25249   3.566   0.349   5.883 -0.0714  0.1112 -0.1573
 4538SOL    HW125250   3.602   0.425   5.838  0.0028 -0.8514 -1.7245
 4538SOL    HW225251   3.526   0.385   5.963  2.6304  0.4613  1.0487
 4539SOL     OW25252   1.152   1.680  14.315 -0.1135  0.1933  0.0421
 4539SOL    HW125253   1.126   1.677  14.407  0.0493  0.0657  0.0847
 4539SOL    HW225254   1.097   1.754  14.291  1.1218  0.3573 -2.2267
 4540SOL     OW25255   4.301   2.647   3.767  0.1346 -0.4524 -0.0842
 4540SOL    HW125256   4.365   2.580   3.789  0.0963 -1.3403 -2.6861
 4540SOL    HW225257   4.227   2.590   3.749  0.4649 -0.7225 -0.5868
 4541SOL     OW25258   1.493   1.121  17.595  0.2048 -0.2714  0.6522
 4541SOL    HW125259   1.445   1.108  17.514  1.1854  1.7162 -0.2581
 4541SOL    HW225260   1.473   1.036  17.632 -1.6957 -0.2147 -0.2359
 4542SOL     OW25261   2.582   1.033   7.574 -0.0301 -0.1803  0.3616
 4542SOL    HW125262   2.492   1.004   7.589 -0.7529  1.0307 -1.7636
 4542SOL    HW225263   2.575   1.091   7.498  0.7419 -0.1045  0.3451
 4543SOL     OW25264   4.256   2.959   7.592  0.2422  0.0730 -0.8251
 4543SOL    HW125265   4.227   2.894   7.656  1.8112 -0.5418 -0.7403
 4543SOL    HW225266   4.350   2.940   7.583 -0.0349 -1.4661 -0.5531
 4544SOL     OW25267   4.004   4.261   4.633  0.4311  0.2767  0.3217
 4544SOL    HW125268   3.926   4.242   4.686  0.5468 -0.5832  0.1964
 4544SOL    HW225269   3.978   4.347   4.600  0.5628 -0.5867 -2.0553
 4545SOL     OW25270   3.233   2.453   4.861  0.0599  0.2713 -0.1198
 4545SOL    HW125271   3.204   2.397   4.933 -2.9877 -0.1580 -1.6414
 4545SOL    HW225272   3.289   2.391   4.814 -0.2663 -0.7549  0.8238
 4546SOL     OW25273   0.476   1.541  11.315  0.1143 -0.2987 -0.1533
 4546SOL    HW125274   0.526   1.497  11.246  1.0819 -0.3785  0.5840
 4546SOL    HW225275   0.460   1.625  11.273 -0.1348  1.5228  3.5840
 4547SOL     OW25276   4.249   4.679   5.219 -0.8069 -0.2360 -0.1484
 4547SOL    HW125277   4.164   4.695   5.260  1.5752  0.3084  4.5236
 4547SOL    HW225278   4.217   4.665   5.130  0.1928  2.5419 -0.9553
 4548SOL     OW25279   1.684   4.102   8.003  0.1706  0.6202  0.3263
 4548SOL    HW125280   1.663   4.028   7.947 -1.1514  0.7538  0.6494
 4548SOL    HW225281   1.737   4.055   8.067 -2.5367 -3.5164 -0.4890
 4549SOL     OW25282   1.131   0.235   9.454 -0.1631 -0.5106  0.3298
 4549SOL    HW125283   1.133   0.283   9.536 -2.1934 -1.0862  0.7248
 4549SOL    HW225284   1.224   0.224   9.432 -0.3225  1.9885 -1.6172
 4550SOL     OW25285   0.546   0.086   5.963  0.2537  0.3009 -0.3458
 4550SOL    HW125286   0.487   0.038   6.022  0.1119 -2.7781 -2.9946
 4550SOL    HW225287   0.515   0.176   5.971  0.9527  0.7838 -3.3635
 4551SOL     OW25288   4.622   2.826   3.433  0.2080 -0.0852 -0.1146
 4551SOL    HW125289   4.541   2.876   3.425 -0.6205 -1.3381  0.6329
 4551SOL    HW225290   4.579   2.748   3.466  1.1829 -0.4140  0.3942
 4552SOL     OW25291   1.829   0.644   3.219  0.1227 -0.2443 -0.5805
 4552SOL    HW125292   1.739   0.667   3.241  0.9186  0.4131  1.8980
 4552SOL    HW225293   1.878   0.705   3.274  0.4447 -1.1045  0.0843
 4553SOL     OW25294   2.468   1.351   1.333 -0.9731 -0.6590  0.3549
 4553SOL    HW125295   2.420   1.428   1.303 -0.1109 -0.3930 -0.3427
 4553SOL    HW225296   2.432   1.348   1.422 -0.3892  2.2058  0.7015
 4554SOL     OW25297   2.683   0.956  17.157  0.0218  0.3918  0.3728
 4554SOL    HW125298   2.731   0.907  17.090 -2.0143 -1.0657 -0.0297
 4554SOL    HW225299   2.736   1.033  17.178  1.6531 -0.0259 -2.2731
 4555SOL     OW25300   0.783   1.384   9.728 -0.0937  0.7962  0.3701
 4555SOL    HW125301   0.821   1.417   9.809 -1.1186 -1.6195  1.8385
 4555SOL    HW225302   0.695   1.360   9.757 -0.6379 -0.6270 -2.4697
 4556SOL     OW25303   0.742   0.651   7.047 -0.4031  0.2556 -0.3451
 4556SOL    HW125304   0.795   0.598   6.988 -1.5875  2.1629 -3.1095
 4556SOL    HW225305   0.745   0.589   7.119  0.5832  0.3466 -0.3008
 4557SOL     OW25306   0.886   2.736   9.530  0.3676  0.0800  0.1732
 4557SOL    HW125307   0.830   2.751   9.607  1.3351  0.5342  0.7789
 4557SOL    HW225308   0.826   2.745   9.456 -2.6018 -1.7378  2.3178
 4558SOL     OW25309   1.787   0.031   6.489 -0.0519  0.7286  0.2431
 4558SOL    HW125310   1.772   0.062   6.399  1.5373  2.5831  0.6198
 4558SOL    HW225311   1.745   0.100   6.540 -1.8293  0.0586 -0.2925
 4559SOL     OW25312   3.198   3.697   8.462  0.0438  0.4801  0.3575
 4559SOL    HW125313   3.130   3.682   8.397  0.8803 -1.2414 -0.1018
 4559SOL    HW225314   3.152   3.693   8.546 -3.6633  0.4750 -1.6626
 4560SOL     OW25315   2.578   2.885  15.182 -0.3268  0.3565  0.3143
 4560SOL    HW125316   2.644   2.877  15.112 -0.0761  0.2130  0.5693
 4560SOL    HW225317   2.568   2.979  15.196 -0.7857  0.6343 -1.9090
 4561SOL     OW25318   2.666   0.694  16.518  0.2742 -0.9803 -0.4777
 4561SOL    HW125319   2.668   0.617  16.461  1.5515 -0.9709 -0.4594
 4561SOL    HW225320   2.607   0.738  16.457  2.6046  3.4178  0.3930
 4562SOL     OW25321   1.058   0.857   6.515 -0.2523  0.2028 -0.4503
 4562SOL    HW125322   1.144   0.840   6.555  0.4819 -0.8704 -2.4914
 4562SOL    HW225323   1.011   0.788   6.561 -0.0628 -0.0240 -0.6007
 4563SOL     OW25324   3.352   1.825   7.156 -0.0585 -0.4462  0.2032
 4563SOL    HW125325   3.434   1.782   7.131  0.3127  0.2102  0.2780
 4563SOL    HW225326   3.316   1.846   7.070 -0.4118 -0.6590  0.3011
 4564SOL     OW25327   1.979   3.744   6.896  0.0129 -0.5877 -0.5586
 4564SOL    HW125328   2.020   3.779   6.817  2.0220  0.6412  1.0055
 4564SOL    HW225329   2.035   3.669   6.916  0.3025 -0.0222  0.7579
 4565SOL     OW25330   0.793   4.487   2.239  0.3594 -0.2685 -0.4622
 4565SOL    HW125331   0.740   4.467   2.162 -1.6759  1.2086  0.5626
 4565SOL    HW225332   0.727   4.515   2.302  1.7594  1.3535  0.2696
 4566SOL     OW25333   4.417   2.301   9.030  0.1323 -0.0052 -0.3912
 4566SOL    HW125334   4.471   2.230   8.995 -1.0112 -1.9669  1.8864
 4566SOL    HW225335   4.482   2.345   9.085  0.4791  0.1180 -0.8903
 4567SOL     OW25336   0.963   1.201  14.484  0.2982  0.5156  0.0837
 4567SOL    HW125337   0.994   1.181  14.572 -2.0680  1.2666  1.1025
 4567SOL    HW225338   0.877   1.237  14.506  0.4083  0.3928  0.7160
 4568SOL     OW25339   3.933   3.283   3.034  0.3853 -0.4273  0.2085
 4568SOL    HW125340   3.956   3.366   3.075  0.3740  0.1729 -1.0180
 4568SOL    HW225341   4.021   3.246   3.027 -0.3274 -2.0904 -0.1343
 4569SOL     OW25342   0.560   0.343   1.171  0.2347 -0.2597 -0.0715
 4569SOL    HW125343   0.610   0.420   1.199 -0.5352  0.3179 -0.2706
 4569SOL    HW225344   0.507   0.322   1.248 -1.4710  0.9393 -0.9100
 4570SOL     OW25345   4.169   2.676   7.693  0.8144  0.2156 -0.7538
 4570SOL    HW125346   4.234   2.710   7.755  0.4025 -0.9583  0.3097
 4570SOL    HW225347   4.085   2.702   7.730  0.6056  0.7815 -1.6192
 4571SOL     OW25348   4.509   1.854   6.163  0.3504 -0.2676 -0.3396
 4571SOL    HW125349   4.586   1.897   6.126 -0.2242  0.6901 -0.3984
 4571SOL    HW225350   4.550   1.819   6.243 -2.3852 -2.5070  0.0794
 4572SOL     OW25351   1.065   2.723   5.776  0.2630  0.4056  0.3808
 4572SOL    HW125352   1.023   2.637   5.786 -0.1552  0.3077 -2.1940
 4572SOL    HW225353   1.014   2.778   5.835 -0.6570 -3.1566  2.9275
 4573SOL     OW25354   2.448   3.641   2.544  0.3839 -0.5187  0.3670
 4573SOL    HW125355   2.437   3.709   2.611  0.9076 -0.8996  0.8391
 4573SOL    HW225356   2.543   3.641   2.534 -0.0498  3.2031 -3.5498
 4574SOL     OW25357   3.043   4.046   6.462  0.6717 -0.2150  0.0674
 4574SOL    HW125358   3.054   4.054   6.557  0.4460  1.9712 -0.0946
 4574SOL    HW225359   3.134   4.038   6.433  1.6475  2.9688  2.2380
 4575SOL     OW25360   0.236   2.369   6.656 -0.0379  0.2224 -0.2582
 4575SOL    HW125361   0.235   2.324   6.740  1.2412  1.7795  0.5754
 4575SOL    HW225362   0.143   2.392   6.656 -0.1871 -0.3801 -0.1989
 4576SOL     OW25363   1.844   3.582  15.346  0.0829 -0.1632  0.1573
 4576SOL    HW125364   1.892   3.529  15.283  2.1315 -0.1384  1.6820
 4576SOL    HW225365   1.874   3.670  15.322  1.3062 -0.1777  1.5808
 4577SOL     OW25366   3.323   0.773   9.189  0.0068  0.3980  0.0465
 4577SOL    HW125367   3.417   0.788   9.185 -0.0187  0.6272  0.3439
 4577SOL    HW225368   3.304   0.773   9.095  2.2850 -2.2862 -0.4194
 4578SOL     OW25369   4.060   0.208  10.666 -0.0589 -0.2287 -0.2353
 4578SOL    HW125370   4.092   0.207  10.576  0.6244  1.8791 -0.0215
 4578SOL    HW225371   4.054   0.300  10.692  1.5798  0.0902 -0.9634
 4579SOL     OW25372   3.531   0.799  14.944 -0.0865  0.6077 -0.5816
 4579SOL    HW125373   3.452   0.782  14.996  0.6115 -1.1629 -0.1007
 4579SOL    HW225374   3.532   0.895  14.944  2.0587  0.5873  2.4223
 4580SOL     OW25375   4.038   2.789   7.967  0.3878  0.7331 -0.1226
 4580SOL    HW125376   4.032   2.695   7.951 -0.0769  0.5189  1.3124
 4580SOL    HW225377   4.065   2.794   8.059 -1.5678  2.4518  0.3621
 4581SOL     OW25378   4.666   1.244  10.830 -0.1101 -0.2861 -0.2741
 4581SOL    HW125379   4.690   1.244  10.923 -0.2910 -4.2237 -0.2224
 4581SOL    HW225380   0.013   1.226  10.790  0.4002 -0.4742  0.9086
 4582SOL     OW25381   1.212   3.543  11.681  0.2373 -0.8624  0.0266
 4582SOL    HW125382   1.157   3.479  11.726 -0.6036  0.5547  1.0097
 4582SOL    HW225383   1.187   3.620  11.732  0.6195 -1.0544  0.5089
 4583SOL     OW25384   2.421   3.039   7.640  0.4058  0.4426  0.2343
 4583SOL    HW125385   2.441   3.104   7.708  0.5526  2.3717 -1.6606
 4583SOL    HW225386   2.428   2.958   7.691  0.9270  0.8609  0.8222
 4584SOL     OW25387   3.551   3.541   3.775  0.2353  0.7758 -0.3106
 4584SOL    HW125388   3.588   3.462   3.816 -1.0585 -0.0073 -0.6410
 4584SOL    HW225389   3.633   3.586   3.756  0.2749  1.0928  0.6207
 4585SOL     OW25390   1.106   1.806   3.470  1.0285 -0.1160  0.0371
 4585SOL    HW125391   1.068   1.883   3.512 -0.2147  0.3416 -1.9034
 4585SOL    HW225392   1.133   1.757   3.547  2.3435  0.7411  0.1191
 4586SOL     OW25393   1.129   1.057   1.282  0.6905  0.2674  0.4391
 4586SOL    HW125394   1.124   0.994   1.354  0.0514 -0.5651 -0.3412
 4586SOL    HW225395   1.215   1.039   1.246  0.8517  1.9852 -0.0621
 4587SOL     OW25396   3.190   2.482   2.642  0.3774 -0.2956 -0.0956
 4587SOL    HW125397   3.168   2.539   2.716 -1.1643  0.9566 -1.5129
 4587SOL    HW225398   3.107   2.466   2.596  1.1805  1.0851 -2.0407
 4588SOL     OW25399   1.607   1.435   8.122 -0.3068 -0.2751 -0.1710
 4588SOL    HW125400   1.662   1.402   8.050 -0.5006 -0.3816 -0.2689
 4588SOL    HW225401   1.565   1.512   8.083  1.5393 -0.1606 -1.9560
 4589SOL     OW25402   3.260   2.973   1.149 -0.2100  0.4750 -0.4868
 4589SOL    HW125403   3.217   3.059   1.145  0.2511  0.7127 -0.3481
 4589SOL    HW225404   3.262   2.966   1.245  0.9209 -1.2412 -0.6425
 4590SOL     OW25405   0.367   3.988  12.283 -0.0066 -0.4654 -0.9682
 4590SOL    HW125406   0.370   3.908  12.230 -2.9379  0.4851 -2.5574
 4590SOL    HW225407   0.378   3.954  12.372 -2.3554  2.2218  0.3344
 4591SOL     OW25408   0.989   3.381   5.628  0.6977  0.0123  0.0066
 4591SOL    HW125409   1.072   3.428   5.636  1.3143 -0.8433 -1.3973
 4591SOL    HW225410   0.963   3.373   5.720  0.2143 -0.5274 -0.1777
 4592SOL     OW25411   3.610   1.219   6.395  0.2987  0.0738 -0.2216
 4592SOL    HW125412   3.681   1.161   6.367  1.5621  1.8847 -0.7772
 4592SOL    HW225413   3.597   1.276   6.319  0.3757 -0.3849 -0.5742
 4593SOL     OW25414   3.643   0.672   4.245 -0.3297  0.8860 -0.4186
 4593SOL    HW125415   3.620   0.583   4.217 -0.2644  0.4316  0.9519
 4593SOL    HW225416   3.627   0.730   4.171 -1.3671 -0.0733 -0.9361
 4594SOL     OW25417   0.842   0.062   1.335  0.1448  0.0678  0.4980
 4594SOL    HW125418   0.822   4.708   1.353 -0.5474 -0.0625 -0.9120
 4594SOL    HW225419   0.871   0.052   1.244 -4.2202 -2.4956 -0.5943
 4595SOL     OW25420   4.654   1.026   4.882 -0.0083 -0.0501 -0.2471
 4595SOL    HW125421   4.634   1.051   4.972  0.9503  0.0287 -0.0561
 4595SOL    HW225422   4.658   0.931   4.895  0.4351  0.1563  1.1636
 4596SOL     OW25423   2.092   1.125   0.423 -0.0126  0.2451 -0.0402
 4596SOL    HW125424   2.114   1.038   0.389 -1.0025 -0.8025  2.0797
 4596SOL    HW225425   2.027   1.097   0.487 -0.0316  0.4832  0.0427
 4597SOL     OW25426   4.176   3.863   1.600 -0.0282  0.2115 -0.0424
 4597SOL    HW125427   4.194   3.940   1.547  0.8285  1.2730  1.7887
 4597SOL    HW225428   4.141   3.896   1.682  1.0688 -0.3087  0.6413
 4598SOL     OW25429   0.112   3.506   0.185 -0.4892 -0.4954  0.3990
 4598SOL    HW125430   0.110   3.574   0.252  0.3633  0.9080 -1.0096
 4598SOL    HW225431   0.178   3.448   0.222 -0.1699  0.1463  0.8344
 4599SOL     OW25432   4.184   1.147   8.742 -0.2119  0.6055  0.7813
 4599SOL    HW125433   4.118   1.080   8.759  0.2193 -0.0542 -0.1854
 4599SOL    HW225434   4.152   1.229   8.781  1.4287  0.9097  1.5048
 4600SOL     OW25435   3.423   2.794   8.180  1.1046 -0.2558 -0.2400
 4600SOL    HW125436   3.451   2.883   8.201 -0.5290  0.3391 -0.5529
 4600SOL    HW225437   3.384   2.753   8.257 -0.7042  2.3223  0.2038
 4601SOL     OW25438   1.124   3.762   9.118  0.3433  0.2134  0.2592
 4601SOL    HW125439   1.219   3.753   9.120  0.5796  2.4166 -0.5308
 4601SOL    HW225440   1.101   3.732   9.030 -0.3092  0.2499  0.4181
 4602SOL     OW25441   2.264   3.466   9.147 -0.1390 -0.2103  0.8218
 4602SOL    HW125442   2.261   3.527   9.221 -0.2688 -1.3408  1.7509
 4602SOL    HW225443   2.181   3.421   9.165 -0.3181  0.2357  1.1077
 4603SOL     OW25444   0.160   0.375   1.645  0.1406 -0.1550  0.4581
 4603SOL    HW125445   0.077   0.391   1.601  0.8762 -0.0487 -0.8930
 4603SOL    HW225446   0.147   0.429   1.723  2.4422 -1.5258  1.7793
 4604SOL     OW25447   4.333   3.537   6.886  0.8755 -0.4141  0.5579
 4604SOL    HW125448   4.340   3.576   6.799 -0.1824 -0.6705  0.3623
 4604SOL    HW225449   4.243   3.566   6.899  0.8921 -0.5780  1.0712
 4605SOL     OW25450   0.898   2.560   3.013  0.5744  0.5988 -0.3007
 4605SOL    HW125451   0.923   2.528   2.927  1.8211  3.7413 -1.1017
 4605SOL    HW225452   0.981   2.540   3.056 -0.7382 -0.4558  1.7649
 4606SOL     OW25453   4.354   0.949  12.437  0.4904 -0.0945  0.0077
 4606SOL    HW125454   4.271   0.917  12.472  1.0434 -1.5820 -0.0576
 4606SOL    HW225455   4.408   0.964  12.514 -0.4713  1.3632  0.4032
 4607SOL     OW25456   2.155   3.546   6.940  0.5318 -0.2292  0.0187
 4607SOL    HW125457   2.227   3.513   6.886 -0.6294 -2.1684 -0.3604
 4607SOL    HW225458   2.206   3.559   7.020 -1.4818  0.1465  1.2240
 4608SOL     OW25459   4.399   1.833   2.536 -0.0206  0.6283  0.4798
 4608SOL    HW125460   4.316   1.872   2.508 -0.9782 -1.1695  0.8382
 4608SOL    HW225461   4.392   1.744   2.503 -2.4564  1.0022 -0.0740
 4609SOL     OW25462   3.756   1.207   6.919 -0.2320 -0.4684  0.4959
 4609SOL    HW125463   3.674   1.159   6.904 -0.1760  0.1999 -1.9323
 4609SOL    HW225464   3.736   1.297   6.891 -2.5052 -0.2207  2.9135
 4610SOL     OW25465   0.309   1.534   6.624 -0.4873 -0.0940  0.5573
 4610SOL    HW125466   0.394   1.495   6.605 -0.5982 -0.8493  1.6176
 4610SOL    HW225467   0.250   1.469   6.586  1.3772 -0.3839 -1.8147
 4611SOL     OW25468   3.766   3.993   3.845  0.2590 -0.2768 -0.3947
 4611SOL    HW125469   3.725   3.920   3.892 -3.4173  0.9773 -1.6271
 4611SOL    HW225470   3.699   4.014   3.781  0.3112  0.0003 -0.3599
 4612SOL     OW25471   4.510   1.324   7.843 -0.1115 -0.1919 -0.7434
 4612SOL    HW125472   4.585   1.376   7.873 -0.4712  0.4178 -0.8966
 4612SOL    HW225473   4.454   1.324   7.920  0.1134 -0.0849 -0.5799
 4613SOL     OW25474   2.997   0.259   6.079  0.2460 -0.4389 -0.0959
 4613SOL    HW125475   2.939   0.267   6.154 -0.7033 -0.3855 -0.8286
 4613SOL    HW225476   2.999   0.165   6.061 -0.2128 -0.7964  1.7446
 4614SOL     OW25477   4.343   4.212  17.029 -0.1048 -0.5071  0.2097
 4614SOL    HW125478   4.363   4.227  17.122  0.8095 -0.9834  0.0911
 4614SOL    HW225479   4.427   4.189  16.990  0.2154 -0.2618  0.7420
 4615SOL     OW25480   4.554   4.729  10.249 -0.4632 -0.3115  0.0673
 4615SOL    HW125481   4.624   0.013  10.310  1.7682 -0.2257 -2.5233
 4615SOL    HW225482   4.475   0.020  10.293 -1.0209  0.8369 -1.7203
 4616SOL     OW25483   3.967   2.418   6.475  0.0167 -0.0616 -0.3723
 4616SOL    HW125484   3.994   2.410   6.566 -0.0777  0.0181 -0.3370
 4616SOL    HW225485   3.899   2.482   6.496 -2.0884 -1.9201 -1.4523
 4617SOL     OW25486   3.977   2.734  11.819  0.7534 -0.1831 -0.6410
 4617SOL    HW125487   3.971   2.684  11.738  2.3126  0.1522 -0.9608
 4617SOL    HW225488   3.971   2.825  11.788 -1.5257  0.3315  1.3187
 4618SOL     OW25489   1.137   3.818   1.966 -0.1605  0.2320  0.7067
 4618SOL    HW125490   1.158   3.725   1.953 -2.4107  0.0794 -1.9490
 4618SOL    HW225491   1.225   3.851   1.980 -0.0279  0.7218 -1.3176
 4619SOL     OW25492   2.850   1.994  10.794 -0.0357 -0.6271  0.1574
 4619SOL    HW125493   2.906   1.929  10.752  0.0118 -0.7739  0.4544
 4619SOL    HW225494   2.858   1.987  10.889 -1.3608 -0.8202  0.2595
 4620SOL     OW25495   1.229   0.190   4.151 -0.0651 -0.2622 -0.1703
 4620SOL    HW125496   1.276   0.121   4.105  1.1504  1.6459 -1.8153
 4620SOL    HW225497   1.241   0.273   4.104  0.8789 -1.6387 -2.3688
 4621SOL     OW25498   2.343   0.349   7.856 -0.1625 -0.1746 -0.3994
 4621SOL    HW125499   2.346   0.256   7.831 -0.2924 -0.1459 -0.5204
 4621SOL    HW225500   2.310   0.377   7.771  0.0992  0.7505 -0.1934
 4622SOL     OW25501   3.541   1.441  12.312 -0.1526 -0.5531 -0.2773
 4622SOL    HW125502   3.615   1.405  12.263 -1.1540 -2.0391 -0.6927
 4622SOL    HW225503   3.548   1.398  12.398  0.9243 -1.4473 -0.8087
 4623SOL     OW25504   2.354   4.416  15.062  0.1367 -0.1835  0.1733
 4623SOL    HW125505   2.391   4.503  15.048 -0.7785  0.3672  1.1422
 4623SOL    HW225506   2.297   4.413  14.985  1.7302 -1.0755 -0.9754
 4624SOL     OW25507   3.135   3.243   9.247  0.2234 -0.0759  0.3644
 4624SOL    HW125508   3.061   3.223   9.305 -0.7579 -0.5248 -1.0363
 4624SOL    HW225509   3.103   3.228   9.158  1.0315  4.6265 -0.6995
 4625SOL     OW25510   2.835   1.513   6.127 -0.6517 -0.4081  0.0927
 4625SOL    HW125511   2.806   1.604   6.122  0.9559  0.0816 -0.3086
 4625SOL    HW225512   2.801   1.481   6.210 -1.3354 -2.1482 -0.8601
 4626SOL     OW25513   4.658   0.919   1.449 -0.1425 -0.2329  0.1730
 4626SOL    HW125514   4.652   1.005   1.405  1.0112 -0.5922 -0.6928
 4626SOL    HW225515   4.609   0.871   1.382 -0.2677  0.0268  0.0752
 4627SOL     OW25516   0.761   3.755   5.132  0.1145 -0.4447 -0.0453
 4627SOL    HW125517   0.722   3.831   5.090 -0.8531 -0.2808  1.1339
 4627SOL    HW225518   0.761   3.787   5.222 -2.1964 -0.5656  0.0132
 4628SOL     OW25519   4.303   2.152   0.829  0.2038  0.2031 -0.0725
 4628SOL    HW125520   4.222   2.108   0.853 -0.0970 -0.1056 -1.6550
 4628SOL    HW225521   4.311   2.231   0.882  4.0892  0.8752 -1.6079
 4629SOL     OW25522   1.787   1.926  12.763 -0.6941 -0.0106  0.7428
 4629SOL    HW125523   1.829   1.968  12.838  0.5170 -0.1129  0.1135
 4629SOL    HW225524   1.843   1.944  12.688 -3.3152 -0.0425 -1.2209
 4630SOL     OW25525   4.144   0.238  13.808  0.2457 -0.2275 -0.5486
 4630SOL    HW125526   4.192   0.297  13.866 -1.3982  0.0826  0.4856
 4630SOL    HW225527   4.066   0.226  13.862 -0.3146 -2.0830 -1.7654
 4631SOL     OW25528   2.215   3.520   8.873  0.3154 -0.2926  0.6378
 4631SOL    HW125529   2.276   3.496   8.944 -0.0246 -3.9926 -0.3137
 4631SOL    HW225530   2.178   3.600   8.910  0.0820 -0.3600  0.5437
 4632SOL     OW25531   3.029   1.917   5.866 -0.0676  0.2703  0.0834
 4632SOL    HW125532   3.092   1.847   5.844 -1.6109 -0.9533 -0.4251
 4632SOL    HW225533   3.088   1.992   5.858  0.3163 -0.0005  0.3783
 4633SOL     OW25534   0.946   1.493   1.419 -0.6241  0.6095  0.4226
 4633SOL    HW125535   0.993   1.575   1.429  1.7775 -0.6970 -0.2243
 4633SOL    HW225536   0.913   1.512   1.331  0.5858 -2.8153 -0.7763
 4634SOL     OW25537   3.855   4.557  10.427 -0.0609  0.8249  1.0186
 4634SOL    HW125538   3.806   4.484  10.465 -1.8248  0.1545 -2.5859
 4634SOL    HW225539   3.787   4.624  10.412 -0.9323 -0.3665 -0.3146
 4635SOL     OW25540   1.536   0.227   4.781 -0.2287  0.4411 -0.1900
 4635SOL    HW125541   1.616   0.232   4.729 -0.2063  0.3593 -0.1629
 4635SOL    HW225542   1.536   0.299   4.845  1.6730  1.9241 -1.8584
 4636SOL     OW25543   4.337   0.874   2.005 -0.8274  0.1208 -0.2349
 4636SOL    HW125544   4.281   0.796   2.004  0.8144 -1.0698 -0.0753
 4636SOL    HW225545   4.293   0.932   1.944  1.4675 -1.8578 -3.8126
 4637SOL     OW25546   2.034   0.297   7.036 -0.0263  0.1228 -0.3197
 4637SOL    HW125547   2.038   0.358   7.110  0.6426  0.8239 -0.9385
 4637SOL    HW225548   1.939   0.298   7.031  0.0463  0.2855 -1.5308
 4638SOL     OW25549   3.541   0.416   6.174  0.4217  0.5395 -0.7475
 4638SOL    HW125550   3.561   0.510   6.171  2.2696  0.2449  1.8363
 4638SOL    HW225551   3.499   0.410   6.260  1.0523 -2.1169 -0.6364
 4639SOL     OW25552   1.080   0.473   8.580  0.1197  0.5540 -0.3957
 4639SOL    HW125553   1.031   0.478   8.497  1.7330  0.4004 -1.3563
 4639SOL    HW225554   1.118   0.385   8.574  0.5081  0.5670  1.9233
 4640SOL     OW25555   2.459   0.802   4.126 -0.0539 -0.2453 -0.2562
 4640SOL    HW125556   2.517   0.813   4.202 -0.6063  0.0750  0.1135
 4640SOL    HW225557   2.378   0.843   4.156  1.5951  1.6431  1.6391
 4641SOL     OW25558   1.582   3.342   7.404  0.1869 -0.5127 -0.5219
 4641SOL    HW125559   1.632   3.280   7.458  0.7625 -0.6009 -1.1628
 4641SOL    HW225560   1.658   3.365   7.350  0.5405 -3.0844 -1.0935
 4642SOL     OW25561   0.021   2.536   2.316 -0.1403  0.1188  0.0893
 4642SOL    HW125562   0.023   2.502   2.405  0.3667  1.7560  0.7007
 4642SOL    HW225563   4.677   2.586   2.313  1.9335  3.6420  1.9793
 4643SOL     OW25564   0.753   3.915   7.606 -0.2993  0.7367 -0.2546
 4643SOL    HW125565   0.673   3.886   7.650  0.6924 -1.1254  0.3030
 4643SOL    HW225566   0.748   3.847   7.539 -1.0276  1.6037 -1.0833
 4644SOL     OW25567   1.500   4.145   7.443  0.9211  0.0610 -0.1456
 4644SOL    HW125568   1.420   4.144   7.496  0.9968 -0.5055 -0.0415
 4644SOL    HW225569   1.473   4.220   7.390  1.6708 -0.8809 -1.8428
 4645SOL     OW25570   3.771   2.779   2.275  0.2183 -0.0236 -0.0801
 4645SOL    HW125571   3.829   2.791   2.351  1.6009 -0.9727 -0.9884
 4645SOL    HW225572   3.690   2.756   2.321 -0.0706 -1.1046 -1.1118
 4646SOL     OW25573   4.385   1.716  11.976  0.3536  0.3065  0.1938
 4646SOL    HW125574   4.361   1.641  12.031  2.2183 -0.4760 -0.0317
 4646SOL    HW225575   4.358   1.693  11.888 -3.3223  1.7164  0.9728
 4647SOL     OW25576   1.144   2.713   1.816 -0.0857 -0.3849 -0.0714
 4647SOL    HW125577   1.141   2.807   1.833 -1.9944 -0.2578 -1.0714
 4647SOL    HW225578   1.155   2.681   1.906 -0.1401  0.6673  0.3046
 4648SOL     OW25579   0.533   1.580   9.067  0.6103  0.1181  0.1720
 4648SOL    HW125580   0.488   1.623   9.139  0.9217 -0.9221  0.9934
 4648SOL    HW225581   0.567   1.506   9.118  1.2674 -0.6434 -1.3840
 4649SOL     OW25582   3.625   4.463   6.164 -0.0594  0.4895 -0.0568
 4649SOL    HW125583   3.553   4.437   6.221  0.3837  1.5178  0.9684
 4649SOL    HW225584   3.651   4.548   6.199 -0.3892 -0.0231  1.4538
 4650SOL     OW25585   1.963   0.727   5.269  0.3746  0.0203  0.4727
 4650SOL    HW125586   2.031   0.782   5.231 -0.0431  0.9418  1.0555
 4650SOL    HW225587   1.935   0.780   5.344 -0.5973  1.3870 -0.8454
 4651SOL     OW25588   4.031   4.050   8.645 -0.5855  0.0526 -0.2168
 4651SOL    HW125589   4.035   4.146   8.650 -0.6683  0.0406  0.0839
 4651SOL    HW225590   4.062   4.027   8.732 -1.3237 -0.7414 -0.1707
 4652SOL     OW25591   4.062   1.023   1.429  0.2471 -0.0263 -0.4482
 4652SOL    HW125592   4.013   0.961   1.376  0.3226 -0.0455 -0.4956
 4652SOL    HW225593   4.147   0.979   1.437  1.5669  2.4600 -0.7369
 4653SOL     OW25594   0.367   2.072   2.122  0.7671 -0.4882 -0.5898
 4653SOL    HW125595   0.301   2.005   2.103  0.3490 -0.6091  1.2816
 4653SOL    HW225596   0.404   2.091   2.035 -1.2967  0.9445 -1.1373
 4654SOL     OW25597   1.278   4.163   7.600  0.3093  0.0573  0.1504
 4654SOL    HW125598   1.271   4.130   7.689 -3.2835 -0.3842 -0.2766
 4654SOL    HW225599   1.184   4.162   7.579  0.9076  0.7617 -2.5900
 4655SOL     OW25600   1.697   3.930   6.678  0.2109  0.6571 -0.4632
 4655SOL    HW125601   1.687   3.882   6.760 -2.9985 -1.2366 -1.9425
 4655SOL    HW225602   1.612   3.917   6.635 -0.1931  2.3127 -0.1509
 4656SOL     OW25603   2.229   0.054  16.899 -0.0533  0.2195  0.5204
 4656SOL    HW125604   2.277   0.082  16.822 -1.9830 -1.8633 -1.4183
 4656SOL    HW225605   2.289   0.089  16.965  0.2463  1.5355 -0.4510
 4657SOL     OW25606   2.142   2.408   9.124 -0.3106 -0.1582  0.3044
 4657SOL    HW125607   2.213   2.428   9.063 -0.2428 -0.3804  0.3109
 4657SOL    HW225608   2.157   2.313   9.126  0.1454 -0.0576  1.6513
 4658SOL     OW25609   4.568   3.496  10.406 -0.0762 -0.2308  0.1221
 4658SOL    HW125610   4.514   3.535  10.474  0.1224 -1.9244  1.2479
 4658SOL    HW225611   4.557   3.573  10.350  1.5936  0.2264  0.4261
 4659SOL     OW25612   3.084   3.390  12.790  0.3771  0.1385  0.3150
 4659SOL    HW125613   3.037   3.471  12.771  0.6176  0.0138 -0.8228
 4659SOL    HW225614   3.031   3.323  12.746  0.2418 -0.7832  1.8893
 4660SOL     OW25615   2.240   2.229   8.665  0.6546 -0.2164 -0.5977
 4660SOL    HW125616   2.196   2.314   8.661 -0.6288 -0.8455  0.0934
 4660SOL    HW225617   2.173   2.194   8.724 -0.0832 -1.2048 -2.0183
 4661SOL     OW25618   4.509   3.414  14.583 -0.3780  0.0323  0.3528
 4661SOL    HW125619   4.446   3.400  14.654 -0.2203 -1.5748  0.1781
 4661SOL    HW225620   4.552   3.330  14.592 -1.6023 -0.3855  2.2626
 4662SOL     OW25621   4.476   3.243  13.292  0.3073 -0.3075  0.4136
 4662SOL    HW125622   4.512   3.290  13.367 -1.7311  1.1945  0.4503
 4662SOL    HW225623   4.485   3.153  13.324 -0.8670 -0.3963  0.5019
 4663SOL     OW25624   4.154   0.262   8.457  0.0982 -0.1784 -0.4799
 4663SOL    HW125625   4.179   0.254   8.549 -1.1364  2.2230  0.0534
 4663SOL    HW225626   4.076   0.207   8.453  0.6002 -0.9823  0.6842
 4664SOL     OW25627   2.851   0.692   8.259 -0.0854  0.4117 -0.0654
 4664SOL    HW125628   2.796   0.615   8.272  0.3414 -0.0565 -1.0603
 4664SOL    HW225629   2.816   0.716   8.173  2.2793 -0.0459 -1.1580
 4665SOL     OW25630   1.032   0.985  11.897  0.1703  0.5923  0.0871
 4665SOL    HW125631   1.124   0.960  11.885 -0.1539  0.0733 -1.2897
 4665SOL    HW225632   1.016   1.033  11.816  1.3486 -0.2287 -0.6320
 4666SOL     OW25633   3.985   2.632  14.154 -0.3368 -0.0356  0.0222
 4666SOL    HW125634   4.044   2.648  14.227  0.3644 -0.3994 -0.4740
 4666SOL    HW225635   3.927   2.705  14.175  0.8307  1.0951 -0.7236
 4667SOL     OW25636   0.880   1.821   4.165 -0.0063  0.1804  0.3015
 4667SOL    HW125637   0.940   1.813   4.091 -0.4591 -0.2407 -0.0196
 4667SOL    HW225638   0.897   1.912   4.190 -0.9155  1.0048 -2.0911
 4668SOL     OW25639   0.740   4.159   7.408  0.6133 -0.1778  0.4123
 4668SOL    HW125640   0.665   4.101   7.392  2.1802 -2.0400 -0.1934
 4668SOL    HW225641   0.724   4.184   7.499  0.5399 -2.4303  1.0220
 4669SOL     OW25642   1.071   0.997  17.012  0.6221 -0.2191 -0.5529
 4669SOL    HW125643   1.011   0.922  17.008  1.0611 -0.6973  1.4600
 4669SOL    HW225644   1.010   1.070  17.002 -1.1554 -1.7411 -0.8894
 4670SOL     OW25645   2.838   1.940   7.076  0.1184 -0.2266  0.1996
 4670SOL    HW125646   2.750   1.902   7.074 -0.1659  0.5784 -3.0579
 4670SOL    HW225647   2.820   2.028   7.046  2.2470  0.7237  1.7088
 4671SOL     OW25648   4.373   1.002   7.658  0.6401  0.3151  0.1685
 4671SOL    HW125649   4.317   0.980   7.584  0.9264 -1.0067  0.3457
 4671SOL    HW225650   4.454   1.042   7.626  1.7450 -0.5635  1.8561
 4672SOL     OW25651   1.778   3.633   9.378  0.7176  0.4137  0.1397
 4672SOL    HW125652   1.748   3.682   9.301  1.1887  0.0187 -0.2907
 4672SOL    HW225653   1.841   3.696   9.414 -2.1332  3.1925  0.3362
 4673SOL     OW25654   4.700   0.058   1.932 -0.0940  0.0344  0.2769
 4673SOL    HW125655   0.025   0.078   1.863 -0.0780  0.5361  0.4387
 4673SOL    HW225656   4.628   0.032   1.874  1.0282  1.4115 -1.7030
 4674SOL     OW25657   3.360   3.608   9.377 -0.2559  0.2147  0.3896
 4674SOL    HW125658   3.411   3.599   9.458  1.2411  1.5674 -0.4094
 4674SOL    HW225659   3.426   3.578   9.315 -0.5008  0.2094  0.1340
 4675SOL     OW25660   0.470   1.144   6.326  0.4087 -0.0986 -0.0338
 4675SOL    HW125661   0.503   1.227   6.292 -2.7031  1.3970  0.6180
 4675SOL    HW225662   0.544   1.103   6.371  0.3342 -0.1901  0.0053
 4676SOL     OW25663   1.739   1.880   7.556  0.3451 -0.1938 -0.0607
 4676SOL    HW125664   1.748   1.787   7.576 -2.5134 -0.5219 -0.3109
 4676SOL    HW225665   1.713   1.913   7.642 -0.5281 -0.6307 -0.1610
 4677SOL     OW25666   3.084   1.305   4.306  0.5864 -0.0710 -0.1953
 4677SOL    HW125667   2.991   1.284   4.318  0.7032  0.5728  1.8994
 4677SOL    HW225668   3.121   1.249   4.374 -3.8993 -0.9656  1.5388
 4678SOL     OW25669   1.719   1.773   8.189  0.2160 -0.3823 -0.0521
 4678SOL    HW125670   1.647   1.812   8.239  1.5598  1.2804  0.5803
 4678SOL    HW225671   1.670   1.757   8.108  0.5107  0.5796 -0.4196
 4679SOL     OW25672   2.450   4.430   4.955 -0.2225 -0.3120  0.4844
 4679SOL    HW125673   2.461   4.335   4.961  0.6125 -0.1524  1.6100
 4679SOL    HW225674   2.362   4.436   4.992 -0.8582 -0.4267 -1.0245
 4680SOL     OW25675   3.282   1.452  17.712 -0.2870  0.5284 -0.2094
 4680SOL    HW125676   3.194   1.484  17.732 -0.9579 -1.1905 -0.4554
 4680SOL    HW225677   3.264   1.362  17.686  0.0414  0.6898 -0.9992
 4681SOL     OW25678   2.505   1.293   6.595 -0.1326 -0.3031  0.6109
 4681SOL    HW125679   2.519   1.252   6.680 -0.2595  2.8046  2.1247
 4681SOL    HW225680   2.421   1.252   6.573  0.3122  0.2222 -2.1303
 4682SOL     OW25681   1.640   1.885   7.821 -0.1507 -0.0180 -0.3059
 4682SOL    HW125682   1.716   1.833   7.848 -1.3077 -1.2712  0.5191
 4682SOL    HW225683   1.587   1.892   7.900 -2.8558 -0.3842 -2.0628
 4683SOL     OW25684   1.187   0.403   9.190 -0.1179 -0.1208 -0.1191
 4683SOL    HW125685   1.147   0.381   9.274 -0.4509  0.8177 -0.0353
 4683SOL    HW225686   1.270   0.445   9.212 -0.1787 -0.2515  0.3544
 4684SOL     OW25687   0.575   2.539   1.762  0.0910 -0.4215 -0.4720
 4684SOL    HW125688   0.660   2.522   1.803 -1.3436  0.1728  2.6893
 4684SOL    HW225689   0.593   2.536   1.668  2.7824  1.1166 -0.0090
 4685SOL     OW25690   4.042   0.994   1.801 -0.2315 -0.1650  0.0251
 4685SOL    HW125691   4.049   1.088   1.819  2.5764 -0.0550 -1.5797
 4685SOL    HW225692   4.119   0.973   1.748 -0.2076  1.5410 -0.6046
 4686SOL     OW25693   0.214   4.332   3.575 -0.1180 -0.3931  0.2996
 4686SOL    HW125694   0.308   4.319   3.563  0.5273  2.3672  2.4022
 4686SOL    HW225695   0.177   4.288   3.499 -0.3272 -3.1067  1.9505
 4687SOL     OW25696   4.300   1.691   9.998 -0.9453 -0.0002  0.1031
 4687SOL    HW125697   4.393   1.669   9.989 -0.6759  1.7657 -1.4287
 4687SOL    HW225698   4.304   1.774  10.045  1.8154  0.0083 -0.1213
 4688SOL     OW25699   1.210   1.166   1.612 -0.1208 -0.4068 -0.4011
 4688SOL    HW125700   1.124   1.128   1.594  0.7085 -2.2745 -0.4090
 4688SOL    HW225701   1.231   1.133   1.699  3.2389  0.9614 -0.6888
 4689SOL     OW25702   4.244   2.802   2.502 -0.3012 -0.5827  0.2610
 4689SOL    HW125703   4.234   2.753   2.420  0.6907 -0.5721  0.1302
 4689SOL    HW225704   4.186   2.748   2.555  0.9329  0.5232  2.7376
 4690SOL     OW25705   0.433   0.794   0.888  0.0815 -0.7342 -0.1433
 4690SOL    HW125706   0.473   0.707   0.886 -1.0945 -1.3396  2.0990
 4690SOL    HW225707   0.349   0.789   0.842 -1.0198  2.8374  1.5145
 4691SOL     OW25708   0.353   2.700   4.526  0.4426  0.1055 -0.5163
 4691SOL    HW125709   0.408   2.707   4.448  0.2778 -0.4941 -0.6912
 4691SOL    HW225710   0.383   2.771   4.582 -1.9199  1.0255 -0.4039
 4692SOL     OW25711   0.430   1.357   5.224 -0.1424 -0.4106 -0.4614
 4692SOL    HW125712   0.366   1.400   5.281 -0.6988  0.5830 -1.8503
 4692SOL    HW225713   0.461   1.427   5.168  0.9379  1.3458  2.2990
 4693SOL     OW25714   4.041   1.494   2.968  0.2196  0.6699  0.1686
 4693SOL    HW125715   3.964   1.458   2.923  0.6891  2.4804 -2.0743
 4693SOL    HW225716   4.006   1.575   3.005  0.3712  0.4917  0.7023
 4694SOL     OW25717   1.792   1.621   8.620  0.4603 -0.1018  0.1240
 4694SOL    HW125718   1.755   1.561   8.556 -0.8685 -1.5685  2.2750
 4694SOL    HW225719   1.872   1.574   8.644 -0.1832 -0.5291  1.4097
 4695SOL     OW25720   1.770   2.723   5.321  0.0070  0.3110 -0.3312
 4695SOL    HW125721   1.752   2.681   5.405 -0.7956  2.6434  0.6611
 4695SOL    HW225722   1.862   2.749   5.326  0.1555  0.1498 -2.1074
 4696SOL     OW25723   3.734   4.104   5.520 -0.4440 -0.6292  0.6228
 4696SOL    HW125724   3.809   4.158   5.497 -1.3292  1.0679  1.7746
 4696SOL    HW225725   3.720   4.055   5.439 -1.4802 -2.0770  1.6724
 4697SOL     OW25726   4.362   4.159   8.729  0.6987 -0.1503 -0.0097
 4697SOL    HW125727   4.429   4.117   8.784 -0.5799 -0.3227  1.4161
 4697SOL    HW225728   4.302   4.085   8.736 -1.2392  1.4160 -0.2791
 4698SOL     OW25729   2.655   0.474   8.259  0.0961 -0.2367  0.1285
 4698SOL    HW125730   2.680   0.382   8.259  1.4654  0.1322 -0.8787
 4698SOL    HW225731   2.601   0.483   8.338 -0.6709  1.2642 -0.5732
 4699SOL     OW25732   3.349   3.915   7.809  0.0574 -0.1421 -0.0005
 4699SOL    HW125733   3.255   3.906   7.827  0.1604 -1.7502 -0.2831
 4699SOL    HW225734   3.350   4.005   7.843  1.8218  0.0098 -0.4603
 4700SOL     OW25735   0.857   1.574   0.478  0.7436 -0.0662  0.1671
 4700SOL    HW125736   0.898   1.633   0.540 -0.8860 -0.3580  1.5316
 4700SOL    HW225737   0.933   1.519   0.458  1.9591  1.4598  0.6550
 4701SOL     OW25738   0.444   2.063   8.624  0.0227 -0.1738 -0.4852
 4701SOL    HW125739   0.495   2.112   8.559  0.5052 -0.4464 -0.3105
 4701SOL    HW225740   0.440   1.982   8.574  1.6095  0.3105 -1.3927
 4702SOL     OW25741   3.961   1.001   4.312  0.1744  0.2367  0.4026
 4702SOL    HW125742   3.987   1.059   4.240 -3.0907 -0.1393 -1.1010
 4702SOL    HW225743   3.865   1.008   4.303  0.1719  1.0000  1.0419
 4703SOL     OW25744   1.715   4.583   1.468  0.4465  0.0074  0.0845
 4703SOL    HW125745   1.731   4.669   1.428 -1.6464  1.1067  1.6099
 4703SOL    HW225746   1.748   4.542   1.388 -1.2421 -1.8048  0.3062
 4704SOL     OW25747   3.477   1.968   4.684  0.4446  0.6871 -0.2443
 4704SOL    HW125748   3.472   1.911   4.608 -0.7260  1.9079 -1.0722
 4704SOL    HW225749   3.565   1.949   4.718 -0.6823 -2.0921  1.1044
 4705SOL     OW25750   2.991   4.437  15.118 -0.4466 -0.4141 -0.1846
 4705SOL    HW125751   3.005   4.431  15.213 -1.9598 -1.5900 -0.0317
 4705SOL    HW225752   2.908   4.390  15.109  0.9406 -3.2248  1.8607
 4706SOL     OW25753   0.744   4.690   8.847  0.4913 -0.1768 -0.2322
 4706SOL    HW125754   0.789   4.610   8.876  0.1007 -0.0567  0.6839
 4706SOL    HW225755   0.766   0.018   8.912 -0.8437 -0.7373  0.7898
 4707SOL     OW25756   4.465   2.523  11.076 -0.1844  0.5710 -0.0337
 4707SOL    HW125757   4.466   2.439  11.122 -1.8128  1.9373  2.5310
 4707SOL    HW225758   4.558   2.541  11.061 -0.7051  2.5394 -0.8493
 4708SOL     OW25759   3.754   2.404   7.981  0.5737  0.1715 -0.1845
 4708SOL    HW125760   3.672   2.371   8.017  0.3356  0.0315 -0.8516
 4708SOL    HW225761   3.725   2.494   7.970 -0.8039  0.1422  3.2860
 4709SOL     OW25762   3.060   0.668   7.504  0.8687  0.4713  0.4743
 4709SOL    HW125763   3.062   0.735   7.436 -2.8634 -0.4716 -0.5554
 4709SOL    HW225764   3.108   0.597   7.462 -0.7760 -0.8858  0.8672
 4710SOL     OW25765   4.734   4.558   6.343 -0.2681  0.0925 -0.2105
 4710SOL    HW125766   4.731   4.544   6.438  0.5385  0.1969 -0.1727
 4710SOL    HW225767   4.736   4.653   6.344  0.6843  0.0605  0.3921
 4711SOL     OW25768   0.149   2.882  12.283 -0.2152 -0.0622 -0.2587
 4711SOL    HW125769   0.171   2.789  12.289  0.6974 -0.0831 -4.1377
 4711SOL    HW225770   0.150   2.905  12.376 -1.0990 -3.8251  0.6632
 4712SOL     OW25771   2.469   2.363  11.122  0.4317  0.1561 -0.4156
 4712SOL    HW125772   2.474   2.297  11.192 -0.6315 -0.7854 -1.2230
 4712SOL    HW225773   2.434   2.306  11.054 -1.1049  0.7001 -0.0960
 4713SOL     OW25774   2.757   0.407   4.952  0.6090 -0.5291 -0.2711
 4713SOL    HW125775   2.814   0.445   5.017 -0.1997  0.8087 -0.3496
 4713SOL    HW225776   2.734   0.321   4.988  1.0406 -0.9042 -0.8733
 4714SOL     OW25777   2.892   0.537   7.280 -0.0130 -0.1201 -0.5979
 4714SOL    HW125778   2.821   0.592   7.246 -0.9468 -0.7009  0.4428
 4714SOL    HW225779   2.963   0.596   7.306 -2.3793  2.2760  0.3663
 4715SOL     OW25780   3.398   0.810   6.764  0.2989  0.1919 -0.1232
 4715SOL    HW125781   3.487   0.800   6.799  1.1472  0.5683 -2.1349
 4715SOL    HW225782   3.420   0.856   6.683  0.2464 -0.0999 -0.3041
 4716SOL     OW25783   1.961   0.192   8.052  0.1534 -0.7391  0.3589
 4716SOL    HW125784   2.014   0.112   8.052 -0.2536 -1.0114  2.1441
 4716SOL    HW225785   1.876   0.150   8.037 -0.5403  0.4531  0.9216
 4717SOL     OW25786   0.191   0.785   0.775 -0.4039  0.1112  0.4001
 4717SOL    HW125787   0.238   0.781   0.691 -0.5197  0.2328  0.3285
 4717SOL    HW225788   0.115   0.730   0.758 -0.7113 -0.0136  2.1973
 4718SOL     OW25789   2.125   0.926  17.262  0.5464 -0.2478 -0.0071
 4718SOL    HW125790   2.203   0.978  17.281 -0.4988  1.5733 -0.7405
 4718SOL    HW225791   2.145   0.898  17.172 -1.1001  3.4159 -1.5345
 4719SOL     OW25792   2.838   1.805   2.578 -0.5797  0.3682 -0.6659
 4719SOL    HW125793   2.768   1.818   2.642 -0.1506 -1.3807  0.1487
 4719SOL    HW225794   2.910   1.842   2.629  1.1097 -2.5063 -0.9731
 4720SOL     OW25795   1.421   3.725  16.132  0.0309  0.2666  0.4830
 4720SOL    HW125796   1.440   3.816  16.157  1.8685 -0.5484  2.0759
 4720SOL    HW225797   1.490   3.677  16.178 -0.1603  2.6375  3.2205
 4721SOL     OW25798   0.477   1.112   6.931 -0.9056 -0.0246 -0.1583
 4721SOL    HW125799   0.553   1.088   6.984  0.2849  1.2978 -1.2618
 4721SOL    HW225800   0.411   1.047   6.956 -1.9076  1.5494  1.3056
 4722SOL     OW25801   0.386   1.035  14.298  0.1405  0.2576  0.0711
 4722SOL    HW125802   0.470   0.995  14.322 -1.5259 -1.5896  2.8771
 4722SOL    HW225803   0.361   0.987  14.219  0.7673  0.3023 -0.1543
 4723SOL     OW25804   4.025   3.848   7.389  0.2706  0.0933  0.3852
 4723SOL    HW125805   4.056   3.928   7.432 -1.3437  0.9426 -0.0396
 4723SOL    HW225806   3.987   3.804   7.465 -0.1494  0.2563  0.2645
 4724SOL     OW25807   4.140   2.582   5.431 -0.1950  0.3788  0.4571
 4724SOL    HW125808   4.149   2.504   5.375 -3.2498  0.8866 -0.7232
 4724SOL    HW225809   4.217   2.626   5.396 -0.6015 -0.0656 -0.9968
 4725SOL     OW25810   0.712   1.310   2.204 -0.1629 -0.3241  0.1802
 4725SOL    HW125811   0.769   1.240   2.173  0.1155 -0.0438  0.0640
 4725SOL    HW225812   0.623   1.287   2.177 -0.5672  0.7077  0.6478
 4726SOL     OW25813   1.344   1.655   9.974 -0.0424  0.2903  0.5514
 4726SOL    HW125814   1.377   1.566   9.991  1.6459  1.0604  1.2625
 4726SOL    HW225815   1.390   1.690  10.050  1.5148 -1.4357  0.4159
 4727SOL     OW25816   1.171   2.384   0.501 -0.0128  0.0318 -0.4318
 4727SOL    HW125817   1.123   2.457   0.461 -1.6046 -1.0445 -0.5318
 4727SOL    HW225818   1.251   2.378   0.450  0.8448 -1.9016  1.1680
 4728SOL     OW25819   1.105   2.820   4.131  0.3136 -0.1831  0.4377
 4728SOL    HW125820   1.152   2.750   4.087  1.6076  1.3821 -0.6503
 4728SOL    HW225821   1.016   2.812   4.099  0.1111  0.0182  0.9419
 4729SOL     OW25822   1.625   0.635   7.957 -0.2065 -0.2047  0.4646
 4729SOL    HW125823   1.598   0.644   8.048  0.3034  0.2433  0.5705
 4729SOL    HW225824   1.685   0.561   7.964 -0.3183 -0.4553 -1.0669
 4730SOL     OW25825   3.803   1.870  17.289  0.0788  0.3972  0.6896
 4730SOL    HW125826   3.788   1.793  17.344  0.5340 -0.7140 -0.7433
 4730SOL    HW225827   3.858   1.924  17.346  1.4028  1.0709 -1.2155
 4731SOL     OW25828   2.912   3.849   0.427 -0.0120  0.1564  0.1259
 4731SOL    HW125829   2.864   3.790   0.485 -2.7064  0.7122 -1.5463
 4731SOL    HW225830   2.989   3.856   0.483  0.1005 -1.1596  0.1357
 4732SOL     OW25831   1.398   3.307   5.177 -0.6971 -0.1047 -0.2738
 4732SOL    HW125832   1.396   3.318   5.082  0.4002 -1.7488 -0.4908
 4732SOL    HW225833   1.484   3.341   5.201 -1.1501 -0.1841  1.4646
 4733SOL     OW25834   4.505   0.982  11.528  0.1336  0.3502 -0.0385
 4733SOL    HW125835   4.446   0.981  11.604 -0.0550 -2.5325 -0.2046
 4733SOL    HW225836   4.558   0.906  11.552  0.2189  0.3967 -0.0833
 4734SOL     OW25837   2.423   4.456   2.441  0.2810 -0.0916 -0.6211
 4734SOL    HW125838   2.518   4.451   2.425  0.2068  2.8432 -2.0198
 4734SOL    HW225839   2.388   4.379   2.484  3.0560 -0.8483  0.2718
 4735SOL     OW25840   2.213   0.620   5.173  0.6537 -0.0843  0.3569
 4735SOL    HW125841   2.203   0.698   5.119 -3.2788 -1.9649 -1.6169
 4735SOL    HW225842   2.159   0.632   5.250 -0.4306 -0.2025 -0.3869
 4736SOL     OW25843   0.482   2.158   0.707  0.2884  0.5087 -0.6956
 4736SOL    HW125844   0.566   2.122   0.735 -0.4572  0.2458  1.1918
 4736SOL    HW225845   0.509   2.158   0.615 -0.7188  2.9610 -0.9818
 4737SOL     OW25846   3.947   3.587   4.648 -0.1320  0.2540 -0.1899
 4737SOL    HW125847   3.924   3.551   4.733 -0.0999  0.2746 -0.1721
 4737SOL    HW225848   3.988   3.507   4.615  1.9377  2.0126 -1.9604
 4738SOL     OW25849   0.683   0.433   5.060  0.1339  0.5403 -0.3614
 4738SOL    HW125850   0.706   0.417   4.969 -0.2475  0.8828 -0.5200
 4738SOL    HW225851   0.589   0.418   5.052  0.1975  0.3089 -0.6575
 4739SOL     OW25852   2.481   4.432   8.428 -0.3843 -0.0264 -0.4044
 4739SOL    HW125853   2.572   4.406   8.416  0.0186  0.4500  1.5863
 4739SOL    HW225854   2.466   4.483   8.349 -0.0313 -2.1038 -1.7857
 4740SOL     OW25855   0.622   3.635  11.318 -0.3445 -0.1312 -0.8944
 4740SOL    HW125856   0.615   3.730  11.317  1.6599  0.0343 -0.0345
 4740SOL    HW225857   0.713   3.616  11.293 -0.4692 -2.3466  0.2823
 4741SOL     OW25858   0.124   1.321   0.408  0.1801 -0.0854 -0.0953
 4741SOL    HW125859   0.212   1.326   0.447 -0.6062 -0.8721  1.8138
 4741SOL    HW225860   0.073   1.289   0.483  0.2858  2.1825  0.9656
 4742SOL     OW25861   2.758   2.923   7.677  0.0488  0.1162 -0.0625
 4742SOL    HW125862   2.686   2.865   7.702 -0.7398  1.3637  0.5533
 4742SOL    HW225863   2.836   2.871   7.700 -0.5546 -0.9210 -0.3883
 4743SOL     OW25864   2.640   1.823   7.796  0.3702 -0.3870 -0.2379
 4743SOL    HW125865   2.593   1.861   7.721  0.9287  0.1842 -0.2950
 4743SOL    HW225866   2.673   1.741   7.760 -2.2785 -2.1580  1.4291
 4744SOL     OW25867   1.412   0.030   4.933 -0.0810  0.2974 -0.5009
 4744SOL    HW125868   1.451   0.069   5.011 -0.2384 -3.0915  1.2500
 4744SOL    HW225869   1.462   0.085   4.873  2.9176 -0.2147  1.5270
 4745SOL     OW25870   0.065   3.616   2.605  0.3764 -0.2494  0.5028
 4745SOL    HW125871   0.113   3.670   2.542  1.9903 -1.7034  0.5131
 4745SOL    HW225872   0.011   3.680   2.652 -2.9088 -1.8526 -1.0709
 4746SOL     OW25873   3.798   1.216   7.470  0.4527 -0.2351  0.1892
 4746SOL    HW125874   3.815   1.121   7.468  0.5499 -0.2183  0.2207
 4746SOL    HW225875   3.703   1.215   7.480  0.1713  0.3994 -2.4477
 4747SOL     OW25876   3.336   2.574  10.117  0.2635  0.1736  0.5363
 4747SOL    HW125877   3.318   2.668  10.120 -0.0484  0.0969  1.0599
 4747SOL    HW225878   3.259   2.536  10.158 -2.3754  2.6490 -2.0802
 4748SOL     OW25879   2.080   4.339   3.837  0.3282 -0.3448 -0.1209
 4748SOL    HW125880   2.146   4.397   3.797  1.2714 -1.2474  0.1080
 4748SOL    HW225881   2.111   4.261   3.791 -0.7917  0.0877 -1.6042
 4749SOL     OW25882   4.623   1.877  16.407 -0.3913  0.4155 -0.3151
 4749SOL    HW125883   4.597   1.825  16.331 -0.3329 -0.0976  0.0192
 4749SOL    HW225884   4.629   1.966  16.370 -1.1786  0.3209 -0.6860
 4750SOL     OW25885   3.331   2.727   7.929 -0.2527 -0.0733  0.1084
 4750SOL    HW125886   3.369   2.769   8.006  0.6833 -1.7656  0.5568
 4750SOL    HW225887   3.301   2.644   7.966  0.2132 -1.3283 -2.3419
 4751SOL     OW25888   2.100   0.151   5.571  0.4962 -0.0270  0.7072
 4751SOL    HW125889   2.183   0.130   5.613  0.1479  2.3660  2.6515
 4751SOL    HW225890   2.106   0.084   5.503 -1.9635 -0.1760  0.6130
 4752SOL     OW25891   0.920   0.865   3.517  0.0861 -0.5067 -0.5257
 4752SOL    HW125892   0.881   0.854   3.430 -1.4315 -0.2246  0.1191
 4752SOL    HW225893   0.841   0.875   3.569  0.6611  0.1356  0.2110
 4753SOL     OW25894   1.058   1.967   0.110  0.2666  0.0020  0.1739
 4753SOL    HW125895   1.022   1.879   0.120  1.8546 -0.6048  0.5893
 4753SOL    HW225896   0.994   2.003   0.049 -0.1148 -0.2445  0.4302
 4754SOL     OW25897   0.108   0.778   5.972  0.6540 -0.5187  0.4459
 4754SOL    HW125898   0.083   0.692   5.939 -1.8520  0.2235  0.3649
 4754SOL    HW225899   0.170   0.759   6.042 -0.1633  0.2676  1.3813
 4755SOL     OW25900   3.051   0.857   3.879 -0.1020 -0.1099  0.1029
 4755SOL    HW125901   3.084   0.878   3.967  1.4616  2.5210 -1.1031
 4755SOL    HW225902   2.960   0.848   3.906  0.6665 -0.1571  2.7787
 4756SOL     OW25903   3.914   2.452   3.494  0.2002  0.2174  0.7200
 4756SOL    HW125904   3.894   2.541   3.524 -1.8887 -0.4384  1.3106
 4756SOL    HW225905   4.004   2.439   3.522  0.1743 -0.1326  0.6408
 4757SOL     OW25906   1.993   0.117   0.954  0.2104  0.2868 -0.3870
 4757SOL    HW125907   1.906   0.155   0.966 -0.1593 -0.4349 -0.7646
 4757SOL    HW225908   1.974   0.049   0.889  0.0142 -0.6545  0.6349
 4758SOL     OW25909   3.825   1.397   5.243  0.0341  0.2801 -0.1990
 4758SOL    HW125910   3.803   1.445   5.323  4.0526  0.6753  0.6725
 4758SOL    HW225911   3.899   1.343   5.271 -1.1279 -0.5956  1.2671
 4759SOL     OW25912   3.299   2.741   5.603  0.8596 -0.4222  0.1464
 4759SOL    HW125913   3.351   2.731   5.523 -0.4393 -3.2455 -0.3551
 4759SOL    HW225914   3.212   2.744   5.563  0.9141 -3.0574 -0.1752
 4760SOL     OW25915   0.438   2.662   9.081  0.0552 -0.2737  0.5840
 4760SOL    HW125916   0.492   2.733   9.113  2.3540 -2.0822  0.7248
 4760SOL    HW225917   0.386   2.658   9.161 -0.6772  0.3118  0.1359
 4761SOL     OW25918   0.781   0.574   1.895 -0.8169 -0.0039 -0.0099
 4761SOL    HW125919   0.820   0.486   1.895  1.9631  1.2144  0.5094
 4761SOL    HW225920   0.735   0.570   1.811  0.2419  2.9849 -0.7168
 4762SOL     OW25921   0.850   0.084   6.384  0.1792  0.1985 -0.2678
 4762SOL    HW125922   0.801   0.145   6.440  0.3254 -1.5523  1.7511
 4762SOL    HW225923   0.788   0.020   6.349  2.4026 -2.2824  0.3424
 4763SOL     OW25924   1.039   4.262  16.975 -0.1074  0.4849 -0.3205
 4763SOL    HW125925   1.002   4.188  17.022  0.6407  0.8567  0.8400
 4763SOL    HW225926   0.969   4.325  16.995 -0.1402  0.2168  0.3876
 4764SOL     OW25927   0.867   2.058  14.046 -0.0709 -0.1137  0.6361
 4764SOL    HW125928   0.828   1.971  14.058 -2.8121  1.3974  2.7986
 4764SOL    HW225929   0.791   2.113  14.065 -0.9126 -0.1998 -2.5785
 4765SOL     OW25930   1.205   1.885   6.117  0.4599 -0.0998  0.1115
 4765SOL    HW125931   1.275   1.901   6.054 -0.7903 -0.5854 -1.4099
 4765SOL    HW225932   1.180   1.794   6.099 -1.4336  0.3782  0.3443
 4766SOL     OW25933   4.256   2.007   4.802  0.1051 -0.2524  0.4295
 4766SOL    HW125934   4.259   1.915   4.775  0.1799  0.1363 -0.8918
 4766SOL    HW225935   4.299   2.007   4.888 -1.6347  0.1666  1.3093
 4767SOL     OW25936   0.516   2.760  13.020 -0.1962  0.4938  0.2663
 4767SOL    HW125937   0.586   2.774  12.956  0.0276 -3.6817 -0.3693
 4767SOL    HW225938   0.471   2.681  12.992 -2.2462  2.1034 -0.9748
 4768SOL     OW25939   0.604   1.206   8.733  0.6088  0.1244  0.4278
 4768SOL    HW125940   0.556   1.125   8.714  1.4835 -0.0386 -1.0828
 4768SOL    HW225941   0.679   1.200   8.674  0.8543  1.0279  0.6577
 4769SOL     OW25942   4.276   2.795   4.807 -0.0462  0.1369  0.4679
 4769SOL    HW125943   4.328   2.857   4.755 -2.2234  2.9263  1.6646
 4769SOL    HW225944   4.327   2.819   4.884  0.2206  2.2347 -0.3424
 4770SOL     OW25945   4.313   0.094   8.292  0.2186  0.2301 -0.1160
 4770SOL    HW125946   4.299   0.132   8.205 -0.1896  2.7855  1.0731
 4770SOL    HW225947   4.272   0.152   8.355  2.5400  1.0173  0.6871
 4771SOL     OW25948   3.733   4.078  14.896  0.3452  0.0273 -0.1686
 4771SOL    HW125949   3.803   4.086  14.961 -0.9509 -0.3396  1.2692
 4771SOL    HW225950   3.721   3.983  14.902 -2.0162  0.1611 -2.8846
 4772SOL     OW25951   1.537   3.590  11.848  0.3584 -0.7840  0.2605
 4772SOL    HW125952   1.480   3.627  11.916 -1.1897  0.3286 -1.6434
 4772SOL    HW225953   1.504   3.615  11.761  2.2992 -1.9610 -0.7948
 4773SOL     OW25954   2.746   2.224   7.097  0.0768  0.1445 -0.6415
 4773SOL    HW125955   2.710   2.300   7.143  3.8276  2.3373 -1.3451
 4773SOL    HW225956   2.839   2.224   7.118  0.1109  0.1065 -0.7934
 4774SOL     OW25957   0.230   3.574  13.892 -0.3137 -0.2845  0.0464
 4774SOL    HW125958   0.225   3.600  13.800  2.6642  2.0644  0.5556
 4774SOL    HW225959   0.163   3.640  13.911  1.2847  1.5509 -0.7379
 4775SOL     OW25960   0.304   3.296   6.567 -0.4281  0.4880  0.0812
 4775SOL    HW125961   0.399   3.310   6.563 -0.2318 -1.4127 -1.7816
 4775SOL    HW225962   0.298   3.283   6.662 -1.0515  3.4652  0.4604
 4776SOL     OW25963   0.157   1.622   7.821  0.5308  0.4174  0.0732
 4776SOL    HW125964   0.141   1.690   7.886  1.6726 -0.9520  1.7987
 4776SOL    HW225965   0.233   1.578   7.860 -0.6314 -1.6812 -0.0082
 4777SOL     OW25966   1.550   0.056   9.979  0.1042  0.3584  0.6411
 4777SOL    HW125967   1.497   4.724   9.943  1.0687 -0.8305  1.5335
 4777SOL    HW225968   1.615   0.051   9.909  0.6235 -0.3224  1.1642
 4778SOL     OW25969   0.013   0.469   8.710  0.2215  0.0772  0.4198
 4778SOL    HW125970   0.077   0.421   8.763 -1.0927 -1.0620  0.9769
 4778SOL    HW225971   0.055   0.469   8.624 -0.1513 -1.1854  0.2347
 4779SOL     OW25972   1.826   3.380   4.384  0.0811  0.5626 -0.2125
 4779SOL    HW125973   1.754   3.370   4.321  1.1975 -0.7724 -1.2907
 4779SOL    HW225974   1.780   3.373   4.467  0.8907  3.2917  0.4863
 4780SOL     OW25975   1.600   2.303  12.918  0.1579 -0.1034  0.1011
 4780SOL    HW125976   1.669   2.308  12.984  0.2989 -0.1705 -0.0404
 4780SOL    HW225977   1.564   2.226  12.961  0.1440 -0.6647 -0.9107
 4781SOL     OW25978   2.839   1.046   2.668 -0.1171 -0.2174 -0.0394
 4781SOL    HW125979   2.920   1.027   2.716 -0.1000  0.8269  0.3391
 4781SOL    HW225980   2.838   1.134   2.706  0.2299 -0.6788  1.0430
 4782SOL     OW25981   2.395   4.500  11.866  0.0489 -0.1705 -0.3323
 4782SOL    HW125982   2.356   4.560  11.803 -1.3522 -1.5567 -0.7799
 4782SOL    HW225983   2.365   4.417  11.829  0.8161 -0.5507 -0.0958
 4783SOL     OW25984   2.524   0.919   8.230  0.0066  0.4743 -0.4137
 4783SOL    HW125985   2.496   0.929   8.139  2.6453  0.1574 -1.2686
 4783SOL    HW225986   2.564   1.004   8.249 -2.5797  1.4065  0.8516
 4784SOL     OW25987   3.571   4.054  11.178 -0.5627  0.4254 -0.0951
 4784SOL    HW125988   3.552   4.112  11.105 -0.9587 -2.0277 -1.9645
 4784SOL    HW225989   3.581   3.965  11.144  1.5260  1.9808 -3.5010
 4785SOL     OW25990   3.090   3.554   2.940 -0.3616 -0.0640  0.0224
 4785SOL    HW125991   3.059   3.485   2.998  1.5287 -2.8191 -2.2477
 4785SOL    HW225992   3.133   3.500   2.874  0.6062 -1.1453  1.5360
 4786SOL     OW25993   0.815   1.794   7.694 -0.0619  0.0827  0.0706
 4786SOL    HW125994   0.853   1.750   7.619 -0.8953 -3.2552  1.5759
 4786SOL    HW225995   0.886   1.854   7.717 -1.9884  0.3857  5.2666
 4787SOL     OW25996   2.193   4.346   3.235  0.3138  0.4833 -0.1956
 4787SOL    HW125997   2.124   4.393   3.188  1.7465  0.4485 -2.2768
 4787SOL    HW225998   2.173   4.253   3.228  1.2232  0.0510  2.6751
 4788SOL     OW25999   2.942   2.652   9.514  0.6360  0.3997  0.6818
 4788SOL    HW126000   2.984   2.567   9.508 -0.6428 -0.3799  2.8599
 4788SOL    HW226001   2.975   2.701   9.438  2.3731  1.1411  1.9111
 4789SOL     OW26002   0.468   0.724   4.292  0.0977  0.5299 -0.4280
 4789SOL    HW126003   0.467   0.694   4.201  2.6981 -1.1566  0.1053
 4789SOL    HW226004   0.459   0.816   4.267 -0.5669  0.7314  0.5380
 4790SOL     OW26005   0.023   4.171   1.793  0.1252 -0.1272 -0.5155
 4790SOL    HW126006   0.017   4.135   1.705 -1.3166  1.3844 -1.0330
 4790SOL    HW226007   0.086   4.111   1.832  0.9141  0.7835 -0.3893
 4791SOL     OW26008   2.081   3.724   2.632  0.1112 -0.0251 -0.0505
 4791SOL    HW126009   2.088   3.632   2.660  1.5576 -0.0221 -0.4155
 4791SOL    HW226010   2.097   3.706   2.539  1.6283  1.3715 -0.0539
 4792SOL     OW26011   3.329   0.870  12.058 -0.2531  0.2719  0.2147
 4792SOL    HW126012   3.282   0.951  12.039 -1.6993 -0.7414 -0.5474
 4792SOL    HW226013   3.412   0.894  12.017  0.5436 -2.3722  0.3214
 4793SOL     OW26014   0.050   1.256   3.515  0.3092 -0.2659 -0.3928
 4793SOL    HW126015   0.072   1.243   3.608 -0.3450 -0.3618 -0.2493
 4793SOL    HW226016   0.116   1.320   3.491 -0.3541  0.4425 -0.3188
 4794SOL     OW26017   3.832   0.573   2.460  0.1208  0.1765  0.3990
 4794SOL    HW126018   3.778   0.642   2.498 -1.6777  0.1791 -2.1822
 4794SOL    HW226019   3.835   0.513   2.534  0.9559  0.9762  1.0187
 4795SOL     OW26020   2.154   3.065   3.290 -0.1269  0.2006  0.1537
 4795SOL    HW126021   2.067   3.048   3.325  0.0020  0.3865  0.5755
 4795SOL    HW226022   2.211   3.064   3.367  0.7638  1.4543 -0.4749
 4796SOL     OW26023   3.693   1.936   9.883  0.2422 -0.0433 -0.1701
 4796SOL    HW126024   3.614   1.888   9.908 -0.0326  1.0448  1.0176
 4796SOL    HW226025   3.680   2.017   9.932  0.8727 -1.6057  2.6160
 4797SOL     OW26026   0.548   1.215   4.836  0.1280  0.1314  0.2783
 4797SOL    HW126027   0.610   1.272   4.881  0.4835  0.8446 -1.1187
 4797SOL    HW226028   0.471   1.270   4.829 -1.2114 -1.5869  1.4344
 4798SOL     OW26029   3.206   1.490  13.186 -0.4200 -0.0129  0.2344
 4798SOL    HW126030   3.162   1.406  13.190  0.9331 -0.8096 -1.5167
 4798SOL    HW226031   3.253   1.492  13.102 -0.0584  1.4107  0.4696
 4799SOL     OW26032   2.280   1.376   7.975 -0.3691 -0.6834  0.4235
 4799SOL    HW126033   2.264   1.336   8.061  0.6847  3.4649  2.5438
 4799SOL    HW226034   2.211   1.442   7.974  1.4710  1.2005 -1.5411
 4800SOL     OW26035   0.468   3.232   1.044 -0.3105  0.0396  0.0693
 4800SOL    HW126036   0.380   3.231   1.007 -1.0009 -0.6534  1.7292
 4800SOL    HW226037   0.457   3.312   1.095 -1.5629 -0.0205 -0.1050
 4801SOL     OW26038   4.285   4.259  17.694 -0.0346  0.1665  0.5535
 4801SOL    HW126039   4.220   4.314  17.649  0.8707  1.4435  0.8001
 4801SOL    HW226040   4.248   4.172  17.681  2.0086 -0.7806  1.1087
 4802SOL     OW26041   3.250   4.537  15.120 -0.4727 -0.0256 -0.1477
 4802SOL    HW126042   3.286   4.552  15.033  0.8032  2.2027  0.7786
 4802SOL    HW226043   3.162   4.514  15.090 -0.6452 -0.5423  0.7470
 4803SOL     OW26044   1.625   2.483   4.390 -0.8530 -0.4806  0.2127
 4803SOL    HW126045   1.717   2.456   4.395 -0.8945 -0.5762  0.4448
 4803SOL    HW226046   1.632   2.536   4.310  0.2070 -0.0207  0.6055
 4804SOL     OW26047   1.850   3.001  16.536  0.5609  0.4680 -0.0877
 4804SOL    HW126048   1.772   3.053  16.558  0.0438 -0.4205  0.1981
 4804SOL    HW226049   1.818   2.957  16.457 -0.7499  0.8679  0.2195
 4805SOL     OW26050   0.802   0.118   8.580  0.1813  0.2654 -0.4849
 4805SOL    HW126051   0.752   0.050   8.625 -1.0761  0.8447 -0.9902
 4805SOL    HW226052   0.726   0.168   8.549 -0.3061 -0.4758 -0.4952
 4806SOL     OW26053   2.489   0.665  17.525 -0.3593  0.0458  0.1555
 4806SOL    HW126054   2.447   0.596  17.474 -0.5874  1.8384 -2.0577
 4806SOL    HW226055   2.490   0.627  17.613  2.7724  0.8273  0.4457
 4807SOL     OW26056   3.380   2.923  15.317 -0.4365 -0.4533  0.2278
 4807SOL    HW126057   3.428   2.937  15.398 -0.4574  0.9307  0.0061
 4807SOL    HW226058   3.435   2.947  15.242 -0.9260  0.4524  0.1528
 4808SOL     OW26059   1.600   4.499   1.083  0.4461 -0.0789 -0.3370
 4808SOL    HW126060   1.583   4.592   1.097 -0.9223 -0.3470 -0.1817
 4808SOL    HW226061   1.690   4.483   1.111 -0.3859  1.2712  2.9909
 4809SOL     OW26062   1.223   0.104   6.908  0.0653 -0.0165  0.0647
 4809SOL    HW126063   1.190   0.033   6.853 -1.6225  1.1915 -0.4988
 4809SOL    HW226064   1.266   0.050   6.975 -1.0571  0.9915  1.6181
 4810SOL     OW26065   3.665   1.872   8.141 -0.1732  0.7795 -0.5824
 4810SOL    HW126066   3.602   1.940   8.117 -1.2534  0.0547  0.2308
 4810SOL    HW226067   3.738   1.910   8.092  0.9142 -2.0676 -1.1440
 4811SOL     OW26068   3.814   1.557   6.323 -1.0574 -0.4677  0.1611
 4811SOL    HW126069   3.870   1.509   6.262  0.4290 -0.4243  1.4858
 4811SOL    HW226070   3.804   1.640   6.276  0.4410  0.6517  1.8143
 4812SOL     OW26071   0.106   0.117  17.503 -0.7368 -0.5604  0.6493
 4812SOL    HW126072   0.056   0.181  17.454  0.3186 -2.0551 -2.4097
 4812SOL    HW226073   0.157   0.074  17.434 -1.8107 -1.4096  0.3901
 4813SOL     OW26074   2.432   1.706   7.112 -0.2125 -0.5418  0.2992
 4813SOL    HW126075   2.482   1.698   7.194 -0.8089 -0.5970  0.6590
 4813SOL    HW226076   2.465   1.786   7.071  0.4426 -0.2391  1.4056
 4814SOL     OW26077   4.666   0.859  17.707  0.0429 -0.6956  1.0742
 4814SOL    HW126078   0.010   0.895  17.674 -1.2283  0.7659 -0.5159
 4814SOL    HW226079   4.693   0.818   0.039 -1.8099 -1.9834  1.0489
 4815SOL     OW26080   4.532   4.295   3.197 -0.4030  0.2033 -0.3021
 4815SOL    HW126081   4.565   4.384   3.190 -0.6623  0.2605 -0.7971
 4815SOL    HW226082   4.548   4.285   3.291 -1.0610  0.7622 -0.1298
 4816SOL     OW26083   3.116   0.745  10.774  0.8732 -0.2568 -0.0876
 4816SOL    HW126084   3.042   0.741  10.835  0.9362 -1.0962 -0.0678
 4816SOL    HW226085   3.131   0.651  10.778 -1.1230 -0.5334  1.2095
 4817SOL     OW26086   1.661   1.944   3.783  0.3817 -0.1416 -0.3045
 4817SOL    HW126087   1.596   1.918   3.718  1.2732  0.4571 -1.4380
 4817SOL    HW226088   1.672   1.862   3.831 -1.7869 -0.7227 -0.8268
 4818SOL     OW26089   3.239   3.369  10.376 -0.2720  0.1355 -0.5715
 4818SOL    HW126090   3.319   3.415  10.349  0.1941 -0.0212  0.5695
 4818SOL    HW226091   3.193   3.373  10.292 -1.1891  2.3658  0.0190
 4819SOL     OW26092   3.092   4.069  11.488 -0.2285  0.6392  0.3513
 4819SOL    HW126093   3.004   4.067  11.452 -0.6420 -1.6858  1.4959
 4819SOL    HW226094   3.068   4.038  11.575 -1.3790 -1.3751 -0.6832
 4820SOL     OW26095   0.146   1.325  16.722  0.4725  0.0167 -0.2884
 4820SOL    HW126096   0.233   1.342  16.686  0.8150 -0.1298  0.4662
 4820SOL    HW226097   0.122   1.395  16.783 -2.0828  1.5465 -3.0436
 4821SOL     OW26098   3.669   3.989  15.384  0.5656 -0.1329 -0.3656
 4821SOL    HW126099   3.762   3.989  15.361  0.7841  0.4470  0.5167
 4821SOL    HW226100   3.632   3.931  15.317  0.5584  0.5616 -0.9621
 4822SOL     OW26101   2.288   4.379   2.012  0.1991  0.2428 -0.4100
 4822SOL    HW126102   2.354   4.311   2.019  1.1056  1.0073 -1.5753
 4822SOL    HW226103   2.205   4.338   1.985  1.1645  0.0223 -2.9896
 4823SOL     OW26104   3.366   2.528  10.942  0.1912  0.2697 -0.3177
 4823SOL    HW126105   3.380   2.438  10.913  2.2027  0.0754  1.2517
 4823SOL    HW226106   3.338   2.519  11.033  1.2591  0.2592  0.0095
 4824SOL     OW26107   2.926   0.762  13.725 -0.4369 -0.2931  0.0635
 4824SOL    HW126108   2.890   0.851  13.721 -1.5560 -0.5621  3.8916
 4824SOL    HW226109   2.973   0.776  13.643  0.5560  0.8975  0.8320
 4825SOL     OW26110   0.437   1.888  12.580 -0.1232 -0.4018  0.4613
 4825SOL    HW126111   0.358   1.909  12.530  1.2469  0.8994 -1.1157
 4825SOL    HW226112   0.446   1.793  12.578 -1.5252 -0.6557  4.7367
 4826SOL     OW26113   2.620   3.729   1.122 -0.4704  0.2046 -0.2774
 4826SOL    HW126114   2.621   3.769   1.035  1.0392  2.3234  0.7355
 4826SOL    HW226115   2.557   3.783   1.169  0.5628 -1.0957  2.5427
 4827SOL     OW26116   0.173   2.028   3.944 -0.3273 -0.7646 -0.3004
 4827SOL    HW126117   0.140   2.032   3.854  1.1268  1.0629 -0.7507
 4827SOL    HW226118   0.231   2.104   3.934  0.2061 -1.3224 -1.5881
 4828SOL     OW26119   2.289   1.700   4.904  0.4371 -0.3639 -0.9667
 4828SOL    HW126120   2.242   1.764   4.850  2.0324  3.2841  1.9295
 4828SOL    HW226121   2.328   1.765   4.963  0.0436 -2.2832  1.4160
 4829SOL     OW26122   1.456   2.031   3.195 -0.1572  0.1774  0.3964
 4829SOL    HW126123   1.430   2.049   3.105 -1.9740 -1.2361  0.6542
 4829SOL    HW226124   1.550   2.017   3.181 -0.2088  1.8278 -1.5842
 4830SOL     OW26125   1.084   0.745   8.646  0.4212  0.9395  0.0757
 4830SOL    HW126126   1.069   0.651   8.642 -0.7581  1.2487 -2.6056
 4830SOL    HW226127   1.019   0.775   8.710  1.2335  0.2940  1.1878
 4831SOL     OW26128   1.521   1.720   2.272  0.2016 -0.0662  0.1648
 4831SOL    HW126129   1.456   1.656   2.243 -1.0281  1.2656 -0.0212
 4831SOL    HW226130   1.486   1.727   2.361 -0.3520 -0.0105 -0.0617
 4832SOL     OW26131   1.442   2.502   5.289 -0.4630  0.3795  0.3952
 4832SOL    HW126132   1.466   2.531   5.377 -1.8522  2.4109  0.0954
 4832SOL    HW226133   1.518   2.445   5.273 -0.8148 -0.2841  1.1014
 4833SOL     OW26134   1.660   3.415   5.148 -0.5399 -0.3688 -0.5494
 4833SOL    HW126135   1.633   3.478   5.081 -2.2158  0.0683  0.5368
 4833SOL    HW226136   1.741   3.389   5.103  0.3197  1.5521 -0.0918
 4834SOL     OW26137   3.085   0.663   6.741  0.1242  0.2652 -0.0050
 4834SOL    HW126138   3.008   0.654   6.797 -0.2985  1.0731 -0.4612
 4834SOL    HW226139   3.155   0.720   6.773  2.3783 -2.8112  0.5569
 4835SOL     OW26140   0.229   3.527   8.571 -0.3453 -0.6589  0.0020
 4835SOL    HW126141   0.243   3.598   8.634 -1.6659  0.0165 -0.4571
 4835SOL    HW226142   0.193   3.460   8.629 -1.9045 -0.1837 -0.4164
 4836SOL     OW26143   3.478   3.524   8.899  0.0345  0.3544  0.2173
 4836SOL    HW126144   3.436   3.603   8.933  0.1694 -0.3270  1.9625
 4836SOL    HW226145   3.402   3.494   8.849 -0.4841  0.3438  1.0082
 4837SOL     OW26146   1.869   1.097   0.925 -0.6669  0.6574  0.2188
 4837SOL    HW126147   1.796   1.152   0.954  0.9513  2.4633  0.9216
 4837SOL    HW226148   1.935   1.166   0.919 -0.4888  0.4190 -0.4932
 4838SOL     OW26149   4.038   3.394  11.867 -0.2901 -0.3267  0.0655
 4838SOL    HW126150   4.067   3.482  11.842 -0.6203  0.5302  2.6735
 4838SOL    HW226151   4.016   3.412  11.959 -0.4372 -0.6608  0.0932
 4839SOL     OW26152   0.480   0.345  15.453 -0.0372 -0.5362  0.0489
 4839SOL    HW126153   0.497   0.438  15.443 -0.6768 -0.4274 -0.0126
 4839SOL    HW226154   0.407   0.339  15.391 -0.8194 -1.8484  1.0932
 4840SOL     OW26155   2.305   2.332   5.965  0.2930  0.0571  0.4248
 4840SOL    HW126156   2.311   2.239   5.986 -0.3228  0.5704  2.8016
 4840SOL    HW226157   2.260   2.368   6.041 -1.0697  0.6792 -0.6556
 4841SOL     OW26158   3.506   1.100  13.325 -0.5440  0.7522 -0.2794
 4841SOL    HW126159   3.469   1.161  13.390 -0.1334  1.3676 -0.6218
 4841SOL    HW226160   3.427   1.053  13.298  0.8144 -0.5629 -1.9123
 4842SOL     OW26161   3.796   0.597   5.141  0.3323  0.1348 -0.0468
 4842SOL    HW126162   3.783   0.593   5.236  2.3898 -0.7441  0.1917
 4842SOL    HW226163   3.888   0.623   5.140  0.8214 -1.5530  1.4345
 4843SOL     OW26164   0.019   1.610   9.166 -0.1560  0.5930 -0.0486
 4843SOL    HW126165   4.712   1.626   9.083 -1.1553 -2.0276  0.0058
 4843SOL    HW226166   0.058   1.696   9.184 -1.3587  0.5900  2.6230
 4844SOL     OW26167   3.679   2.969   3.171  0.2368 -0.0240  0.0220
 4844SOL    HW126168   3.606   3.023   3.201 -0.3598  0.4934 -2.3910
 4844SOL    HW226169   3.650   2.882   3.199 -1.3615  0.4224 -0.2889
 4845SOL     OW26170   3.128   4.313   4.262 -0.1437 -0.0558 -0.1067
 4845SOL    HW126171   3.120   4.236   4.205 -0.2265  0.5496 -0.9154
 4845SOL    HW226172   3.199   4.359   4.217  1.5287 -3.0416 -0.4823
 4846SOL     OW26173   4.564   1.098   5.132 -0.2212 -0.2185  0.5745
 4846SOL    HW126174   4.513   1.164   5.180 -0.5675 -0.2512  0.2459
 4846SOL    HW226175   4.646   1.103   5.182  2.2115 -3.9166 -3.0919
 4847SOL     OW26176   3.637   0.878   6.394  0.3968 -0.0059 -0.7539
 4847SOL    HW126177   3.610   0.808   6.454 -1.9374  1.1196 -0.4888
 4847SOL    HW226178   3.600   0.848   6.311 -3.1104 -0.0271  0.8325
 4848SOL     OW26179   2.264   2.994   0.963 -0.4548  0.1760 -0.3239
 4848SOL    HW126180   2.270   3.022   1.055 -0.6367  0.7236 -0.4755
 4848SOL    HW226181   2.353   2.962   0.951 -0.6711 -0.2982 -0.6620
 4849SOL     OW26182   0.169   1.996   5.415 -0.0118 -0.5707 -0.2455
 4849SOL    HW126183   0.179   2.062   5.347  0.3566 -1.4513 -1.0586
 4849SOL    HW226184   0.074   1.982   5.418  0.0370 -0.9579 -0.4919
 4850SOL     OW26185   4.374   0.688   5.168  0.5754 -0.4567 -0.3022
 4850SOL    HW126186   4.432   0.622   5.130  0.5254 -0.2115 -0.8077
 4850SOL    HW226187   4.429   0.737   5.230 -0.6671 -0.8819  1.1417
 4851SOL     OW26188   3.652   0.625   2.982 -0.0554  0.1515 -0.3707
 4851SOL    HW126189   3.647   0.610   3.076  2.2150  1.6109 -0.0301
 4851SOL    HW226190   3.700   0.546   2.956  0.3362  0.1320  0.4014
 4852SOL     OW26191   2.428   1.727  15.919  0.2514 -0.0179 -0.4710
 4852SOL    HW126192   2.361   1.756  15.856 -1.2876 -1.3232  0.5639
 4852SOL    HW226193   2.444   1.809  15.966  0.5435  0.2134 -0.9772
 4853SOL     OW26194   4.052   1.363   3.772  0.1834 -0.3837  0.5672
 4853SOL    HW126195   4.112   1.404   3.710 -0.4610  1.4141  1.1602
 4853SOL    HW226196   4.086   1.276   3.794 -0.6182 -1.0376 -0.7412
 4854SOL     OW26197   3.952   0.732  13.317 -0.1774  0.6172 -0.1746
 4854SOL    HW126198   4.036   0.704  13.353 -0.1433 -1.5519 -1.9841
 4854SOL    HW226199   3.984   0.807  13.268  1.6072  0.1119  0.2419
 4855SOL     OW26200   4.214   4.616   3.487  0.1655  0.1916  0.0799
 4855SOL    HW126201   4.277   4.619   3.415  0.8292 -0.4256  0.6441
 4855SOL    HW226202   4.127   4.642   3.457  0.6406 -0.3606 -1.7796
 4856SOL     OW26203   4.221   1.966  17.327  0.1890 -0.4776 -0.4046
 4856SOL    HW126204   4.302   2.015  17.344  0.8619 -2.1684  1.2690
 4856SOL    HW226205   4.254   1.895  17.271  2.1054  1.4350 -1.7090
 4857SOL     OW26206   4.470   2.298   1.225 -0.0153  0.1696  0.6904
 4857SOL    HW126207   4.548   2.353   1.211 -1.9993  2.4433 -1.3665
 4857SOL    HW226208   4.431   2.310   1.139 -0.1687  1.1710  0.8964
 4858SOL     OW26209   2.354   1.171   2.308 -0.6933  0.2849 -0.5234
 4858SOL    HW126210   2.338   1.191   2.216 -0.1075 -0.3536 -0.7612
 4858SOL    HW226211   2.298   1.096   2.331 -0.8214  0.7683  0.7239
 4859SOL     OW26212   2.581   2.456   9.415 -0.1673  0.5696  0.2185
 4859SOL    HW126213   2.614   2.474   9.503 -1.7764  2.8391  0.3624
 4859SOL    HW226214   2.565   2.363   9.423 -0.7430  0.6020 -0.5388
 4860SOL     OW26215   1.626   4.562   7.705 -0.3844  0.0172  0.2380
 4860SOL    HW126216   1.654   4.479   7.746  0.2330 -0.2070 -0.6298
 4860SOL    HW226217   1.535   4.548   7.680 -0.2249 -0.0477 -0.3004
 4861SOL     OW26218   2.957   3.326   3.026 -0.0283 -1.0024 -0.7402
 4861SOL    HW126219   2.924   3.277   3.102  0.2204  0.3321  0.2176
 4861SOL    HW226220   2.928   3.274   2.951 -1.6130 -1.5824  0.2599
 4862SOL     OW26221   0.412   3.261   4.235  0.2828  0.3610  0.5852
 4862SOL    HW126222   0.502   3.232   4.222 -0.6110 -2.0992 -0.0406
 4862SOL    HW226223   0.410   3.260   4.331 -2.7733  1.6262  0.5252
 4863SOL     OW26224   1.610   1.868   2.046  0.4371  0.0115  0.5687
 4863SOL    HW126225   1.702   1.893   2.056  0.8743 -0.5880 -1.8515
 4863SOL    HW226226   1.603   1.795   2.106  1.3470  0.7152  1.5378
 4864SOL     OW26227   4.130   2.252   3.604  0.1799  0.6183 -0.1844
 4864SOL    HW126228   4.197   2.287   3.545  3.4741 -2.1483  1.9371
 4864SOL    HW226229   4.170   2.167   3.624  1.2344  1.1542 -0.0080
 4865SOL     OW26230   4.538   4.049   3.032 -0.2561 -0.4599  0.1993
 4865SOL    HW126231   4.533   4.117   3.099  1.0742 -1.3354  1.1726
 4865SOL    HW226232   4.541   4.106   2.955 -2.5406  0.0345  0.4871
 4866SOL     OW26233   4.691   1.207   0.577 -0.1529  0.0151 -0.1657
 4866SOL    HW126234   0.007   1.153   0.635  0.3195  0.1383 -0.5010
 4866SOL    HW226235   4.659   1.134   0.523 -2.2380  1.4168 -0.8314
 4867SOL     OW26236   2.905   4.680   7.263 -0.8255  0.3408  0.2605
 4867SOL    HW126237   2.980   4.621   7.252  0.2185  1.6509  0.2411
 4867SOL    HW226238   2.847   4.642   7.198  0.5768 -2.5671  0.7022
 4868SOL     OW26239   1.935   1.130  17.680  0.0321 -0.9670 -0.3759
 4868SOL    HW126240   1.986   1.162  17.606 -1.8344  1.7162 -0.4768
 4868SOL    HW226241   1.994   1.144   0.003 -0.3851 -0.2750 -0.1766
 4869SOL     OW26242   0.271   3.542   9.490 -0.3371  0.5193 -0.3501
 4869SOL    HW126243   0.333   3.485   9.535  0.6436 -0.1500 -2.5696
 4869SOL    HW226244   0.198   3.563   9.548  0.1123  0.7726  0.1211
 4870SOL     OW26245   2.592   3.391   9.863 -0.1080 -0.4541  0.0473
 4870SOL    HW126246   2.661   3.422   9.804 -1.5502  1.8290 -0.4514
 4870SOL    HW226247   2.529   3.463   9.855 -0.8651 -0.9341  1.7323
 4871SOL     OW26248   2.383   2.525   6.833  0.0189 -0.2105  0.4298
 4871SOL    HW126249   2.312   2.465   6.854 -1.7907  1.5389 -0.7136
 4871SOL    HW226250   2.427   2.550   6.915  0.7151  2.1523 -0.6565
 4872SOL     OW26251   3.910   0.545  12.529 -0.3500 -0.7029 -0.1823
 4872SOL    HW126252   3.981   0.579  12.583 -0.4564 -0.0032 -0.4877
 4872SOL    HW226253   3.955   0.484  12.470 -0.2863  0.8204 -1.7075
 4873SOL     OW26254   2.137   0.112  15.605  0.3931  0.3454  0.3764
 4873SOL    HW126255   2.116   0.026  15.643 -1.2817  0.5952 -0.0179
 4873SOL    HW226256   2.228   0.126  15.632  0.6335 -2.0950  0.8975
 4874SOL     OW26257   0.414   0.870  17.186 -0.4107 -0.0778 -0.4846
 4874SOL    HW126258   0.440   0.834  17.271 -0.0881  1.1736 -0.0527
 4874SOL    HW226259   0.432   0.790  17.137 -0.9242  0.1702 -1.0830
 4875SOL     OW26260   1.109   2.230  15.207 -0.5421  0.0782  0.4649
 4875SOL    HW126261   1.179   2.295  15.215  0.2561 -0.4777 -1.7576
 4875SOL    HW226262   1.159   2.152  15.234  0.1643  0.7909  1.1911
 4876SOL     OW26263   2.741   0.185  14.333  0.3573 -0.5229 -0.4922
 4876SOL    HW126264   2.779   0.110  14.380 -0.9191  1.3890  3.5576
 4876SOL    HW226265   2.738   0.243  14.408  1.6346  0.5672 -1.2844
 4877SOL     OW26266   4.584   3.235   3.990 -0.3269  0.8859  0.4142
 4877SOL    HW126267   4.577   3.246   3.895  0.0456  3.5353  0.6821
 4877SOL    HW226268   4.490   3.229   4.004 -0.5255  1.0545 -0.7992
 4878SOL     OW26269   2.944   4.689   2.467  0.0616 -0.2064 -0.0874
 4878SOL    HW126270   3.003   4.621   2.434 -0.8103 -0.4791 -1.1118
 4878SOL    HW226271   2.901   4.726   2.390 -0.1578 -1.6972 -0.6940
 4879SOL     OW26272   2.238   2.860  11.393  0.3633  0.6177  0.5328
 4879SOL    HW126273   2.325   2.844  11.357  0.0087 -0.0227 -0.0409
 4879SOL    HW226274   2.190   2.875  11.312  1.0936  1.1289  0.1914
 4880SOL     OW26275   0.550   1.463  10.254 -0.5843  0.2248  0.0037
 4880SOL    HW126276   0.475   1.423  10.298 -0.2416 -0.1911  0.2082
 4880SOL    HW226277   0.567   1.419  10.171 -0.1580 -0.2708  0.3592
 4881SOL     OW26278   1.956   1.537   5.767  0.5332  0.5589  0.1333
 4881SOL    HW126279   1.969   1.630   5.751  0.5402  0.7454  1.2192
 4881SOL    HW226280   1.937   1.510   5.678  1.7794 -1.5000  0.4902
 4882SOL     OW26281   2.500   3.226   7.808 -0.4917 -0.0515  0.1389
 4882SOL    HW126282   2.546   3.291   7.861  0.8909 -1.1747  0.2991
 4882SOL    HW226283   2.549   3.233   7.727 -1.2156  1.6093 -0.1595
 4883SOL     OW26284   0.788   1.405   1.770  0.3273  0.6704 -0.2474
 4883SOL    HW126285   0.811   1.319   1.807 -0.6202 -0.1895 -1.6972
 4883SOL    HW226286   0.761   1.455   1.848  0.8909 -0.3638  0.6097
 4884SOL     OW26287   0.116   1.719  10.993  0.3577  0.5608 -0.2430
 4884SOL    HW126288   0.070   1.652  11.042 -0.8560 -0.4416 -2.7565
 4884SOL    HW226289   0.158   1.671  10.921  0.3016 -1.0297  0.8088
 4885SOL     OW26290   2.031   0.391  10.335  0.1285 -0.3404 -0.3167
 4885SOL    HW126291   2.080   0.435  10.405 -1.4274 -0.9146  1.1258
 4885SOL    HW226292   1.981   0.325  10.383  0.0423 -0.9898 -1.2863
 4886SOL     OW26293   2.007   1.086   8.317 -0.0278 -0.3070 -0.6091
 4886SOL    HW126294   1.996   1.094   8.222 -1.1275 -1.0283 -0.5395
 4886SOL    HW226295   2.090   1.038   8.314  1.6696  2.5083  1.4697
 4887SOL     OW26296   4.031   0.038   8.521 -0.9445  0.2219  0.9179
 4887SOL    HW126297   4.048   0.009   8.611 -1.4735  1.8166  1.5148
 4887SOL    HW226298   4.060   4.692   8.484 -1.7452 -0.3198  1.5164
 4888SOL     OW26299   3.963   2.506   5.644 -0.1875  0.4685 -0.4883
 4888SOL    HW126300   3.885   2.560   5.646  1.7086  3.1777  0.7660
 4888SOL    HW226301   4.026   2.543   5.583  0.0838  1.1913  0.2266
 4889SOL     OW26302   2.771   2.088   7.454  0.8340 -0.1993 -0.1988
 4889SOL    HW126303   2.809   2.067   7.539  0.3964 -1.7180 -0.3692
 4889SOL    HW226304   2.749   2.178   7.476 -0.0689 -0.4604 -0.0234
 4890SOL     OW26305   1.356   4.564   5.467 -0.1964 -0.0988  0.1432
 4890SOL    HW126306   1.350   4.587   5.560  0.4058  3.7726 -0.7639
 4890SOL    HW226307   1.422   4.628   5.440 -0.6790  0.6717  0.7978
 4891SOL     OW26308   4.051   4.206   3.416  0.6834 -0.5397  0.3481
 4891SOL    HW126309   3.962   4.180   3.441  0.7563 -0.2111  0.9298
 4891SOL    HW226310   4.080   4.246   3.498 -0.9567  0.1850  0.5895
 4892SOL     OW26311   3.806   2.953   6.783  0.2246 -0.5160  0.6942
 4892SOL    HW126312   3.726   3.003   6.800  1.6127  1.1676  2.3630
 4892SOL    HW226313   3.779   2.905   6.705  0.8784  2.8649 -1.5961
 4893SOL     OW26314   1.794   2.028   4.255 -0.2819 -0.4951  0.1145
 4893SOL    HW126315   1.785   2.123   4.249 -0.6072 -0.4652  1.1512
 4893SOL    HW226316   1.848   2.002   4.180  0.1240 -1.6963  0.8408
 4894SOL     OW26317   1.993   2.246   7.388  0.1451  0.0075  0.1778
 4894SOL    HW126318   1.973   2.153   7.381  1.8043 -0.5297  2.3893
 4894SOL    HW226319   1.902   2.272   7.405 -0.1634 -1.3378  0.5305
 4895SOL     OW26320   0.392   1.680   0.559  0.2653 -0.0694 -0.8041
 4895SOL    HW126321   0.307   1.656   0.596  0.8277 -1.4505 -0.4050
 4895SOL    HW226322   0.389   1.624   0.480  2.3376  0.4324 -1.2416
 4896SOL     OW26323   3.451   0.146   5.249  0.3065  0.5250  0.3516
 4896SOL    HW126324   3.486   0.064   5.284 -0.8244  0.1496  0.5860
 4896SOL    HW226325   3.426   0.130   5.158  2.6157  0.5614 -0.2868
 4897SOL     OW26326   0.655   2.641   8.570 -0.0941  0.0496 -0.6007
 4897SOL    HW126327   0.689   2.552   8.580 -1.2153 -0.2636  0.3914
 4897SOL    HW226328   0.638   2.674   8.657 -0.6521 -1.1180 -0.2629
 4898SOL     OW26329   1.008   3.443  11.206  0.4615  0.6047 -0.1116
 4898SOL    HW126330   1.054   3.413  11.128  0.9699 -0.3147  0.5472
 4898SOL    HW226331   1.079   3.435  11.269 -0.4232 -1.5846  0.6401
 4899SOL     OW26332   4.168   0.224   6.936 -0.0039  0.1675  0.5718
 4899SOL    HW126333   4.200   0.178   7.014  0.8063  0.2504  0.2843
 4899SOL    HW226334   4.215   0.183   6.864 -1.0033  1.0023 -0.5578
 4900SOL     OW26335   0.143   0.097   1.691  0.1758  0.2194 -0.0745
 4900SOL    HW126336   0.161   0.191   1.690 -1.3254  0.4977 -0.4955
 4900SOL    HW226337   0.112   0.090   1.601 -2.1799 -0.6443  0.8155
 4901SOL     OW26338   3.649   0.621   6.546 -0.2166 -0.2721 -0.1223
 4901SOL    HW126339   3.703   0.543   6.538 -2.9865 -2.2963  0.9916
 4901SOL    HW226340   3.634   0.628   6.641  2.1397 -2.9059  0.4313
 4902SOL     OW26341   0.753   2.874   1.706 -0.2839 -0.4404 -0.3228
 4902SOL    HW126342   0.667   2.900   1.674  0.1272  1.0849 -0.1669
 4902SOL    HW226343   0.743   2.839   1.794  0.8332  0.8601  0.3181
 4903SOL     OW26344   2.820   2.411   6.695 -0.0535 -0.1794  0.1400
 4903SOL    HW126345   2.725   2.419   6.701 -0.2284 -0.8399 -1.7503
 4903SOL    HW226346   2.828   2.373   6.607 -1.2046 -0.5432  0.1895
 4904SOL     OW26347   3.953   0.708   0.869 -0.1119 -0.1360  0.2874
 4904SOL    HW126348   3.892   0.779   0.852  1.8008  1.6324  0.8575
 4904SOL    HW226349   4.037   0.752   0.886  0.1034 -1.2895  2.2626
 4905SOL     OW26350   0.153   2.338  10.900 -0.3732 -0.2252 -0.5307
 4905SOL    HW126351   0.094   2.302  10.834  0.5144 -1.3718 -0.7123
 4905SOL    HW226352   0.212   2.263  10.912  0.0937 -0.0604 -1.7889
 4906SOL     OW26353   0.306   1.663   3.516  0.2874  0.1122  0.4602
 4906SOL    HW126354   0.247   1.674   3.442  0.2170  0.0619  0.5093
 4906SOL    HW226355   0.241   1.633   3.579  0.0954 -0.4387 -0.0127
 4907SOL     OW26356   1.386   2.331   4.851 -0.5209  0.5458  0.2310
 4907SOL    HW126357   1.343   2.376   4.924 -0.2598  0.6529  0.3184
 4907SOL    HW226358   1.455   2.287   4.901 -0.6540 -0.4387 -0.4481
 4908SOL     OW26359   4.580   1.672  12.448  0.0180 -0.0203  0.1204
 4908SOL    HW126360   4.489   1.700  12.434 -0.0251 -0.0664  0.3076
 4908SOL    HW226361   4.564   1.580  12.426 -0.7919  0.6592 -2.1345
 4909SOL     OW26362   1.657   2.361  15.665  0.0094 -0.2815  0.5491
 4909SOL    HW126363   1.585   2.371  15.602 -1.6991  2.3643  2.9055
 4909SOL    HW226364   1.666   2.448  15.705  0.4457 -0.4109  0.7303
 4910SOL     OW26365   3.791   0.322   1.434 -0.8170 -0.2226 -0.0135
 4910SOL    HW126366   3.794   0.379   1.357  3.0181  0.4066  0.5489
 4910SOL    HW226367   3.808   0.238   1.392  1.3550  0.4049 -0.4112
 4911SOL     OW26368   4.629   0.946   9.305 -0.5435  0.2247  0.7127
 4911SOL    HW126369   4.679   0.927   9.384  0.0976  1.4988  0.6220
 4911SOL    HW226370   4.562   0.878   9.308  2.3482 -2.7257 -2.9608
 4912SOL     OW26371   1.692   1.439   5.180 -0.5951  0.6155  0.0995
 4912SOL    HW126372   1.752   1.365   5.172  0.9679  1.8907 -0.0384
 4912SOL    HW226373   1.753   1.510   5.201  0.8906  0.0616 -2.2470
 4913SOL     OW26374   2.850   0.628   4.043  0.5922  0.2429  0.2523
 4913SOL    HW126375   2.781   0.561   4.039  0.8674  0.0482 -1.3639
 4913SOL    HW226376   2.915   0.592   3.982 -1.4273  0.6375 -2.1441
 4914SOL     OW26377   0.007   4.133   9.790  0.6335  1.0017 -0.3366
 4914SOL    HW126378   4.683   4.069   9.824  1.3714  0.1734 -0.5196
 4914SOL    HW226379   0.084   4.082   9.764  0.1188  0.1188 -0.1490
 4915SOL     OW26380   3.100   4.257  12.960 -0.2996  0.1156  0.5136
 4915SOL    HW126381   3.188   4.245  12.996  0.0395 -0.5967 -0.5560
 4915SOL    HW226382   3.063   4.330  13.010  2.1993  1.1734  0.8176
 4916SOL     OW26383   0.466   2.985  12.851  0.2807 -0.0427  0.9543
 4916SOL    HW126384   0.495   2.942  12.931  0.5934  1.4875  1.6611
 4916SOL    HW226385   0.370   2.995  12.856  0.4785  1.4446  1.7117
 4917SOL     OW26386   0.937   0.923  10.194 -0.0075  0.6646 -0.1044
 4917SOL    HW126387   0.950   0.973  10.114 -1.7173  0.8462 -0.2562
 4917SOL    HW226388   0.966   0.979  10.267  0.9436  0.0660 -0.0210
 4918SOL     OW26389   3.838   1.044   6.339 -0.4528 -0.1699  0.1591
 4918SOL    HW126390   3.773   0.978   6.362 -0.6753 -1.0233 -3.0072
 4918SOL    HW226391   3.907   1.017   6.400 -1.9452 -1.1414  1.4012
 4919SOL     OW26392   1.703   0.271   8.558  0.1146  0.2165 -0.5905
 4919SOL    HW126393   1.772   0.259   8.493 -0.6637 -0.8906 -1.1962
 4919SOL    HW226394   1.732   0.347   8.609 -1.5926  0.1113  0.5633
 4920SOL     OW26395   0.130   4.581  14.113  0.4714 -0.2172  0.1532
 4920SOL    HW126396   0.072   4.625  14.175  0.1714 -0.1303 -0.1912
 4920SOL    HW226397   0.062   4.542  14.058  0.5370  1.2706 -1.0154
 4921SOL     OW26398   1.753   1.182   4.077  0.1633 -0.4395  0.6944
 4921SOL    HW126399   1.686   1.118   4.053  0.2233 -0.6745  1.1535
 4921SOL    HW226400   1.718   1.200   4.165  0.0615 -1.1312  0.7922
 4922SOL     OW26401   2.536   2.092   9.511 -0.1079  0.0282 -0.5723
 4922SOL    HW126402   2.473   2.159   9.537 -0.9245 -1.6879  1.8090
 4922SOL    HW226403   2.516   2.077   9.418 -0.5368  1.3905 -0.6882
 4923SOL     OW26404   0.684   2.206   4.494 -0.1043 -0.1227  0.2996
 4923SOL    HW126405   0.652   2.296   4.509  1.1711  0.8029 -2.5370
 4923SOL    HW226406   0.685   2.191   4.399  0.8453 -0.9623  0.4530
 4924SOL     OW26407   3.525   2.880   3.649  0.5450 -0.0158 -0.3530
 4924SOL    HW126408   3.524   2.972   3.625  1.0805  0.3668  1.0942
 4924SOL    HW226409   3.432   2.858   3.642  0.3414  0.3361  1.4135
 4925SOL     OW26410   0.738   1.788  11.238 -0.1131 -0.3149 -0.0579
 4925SOL    HW126411   0.767   1.759  11.324 -0.3315 -0.0441  0.1071
 4925SOL    HW226412   0.663   1.839  11.269 -0.1566  0.8885 -2.0886
 4926SOL     OW26413   2.386   3.820   3.175 -0.1472  0.3746 -0.0199
 4926SOL    HW126414   2.429   3.795   3.093  0.3011  0.6459  0.1307
 4926SOL    HW226415   2.304   3.852   3.137 -1.4576 -1.2436  1.4319
 4927SOL     OW26416   3.467   2.020   2.877  0.0277  0.2360 -0.4007
 4927SOL    HW126417   3.506   2.099   2.914  2.1410 -1.3052  0.6450
 4927SOL    HW226418   3.533   1.954   2.900 -0.0090  0.5574  0.6046
 4928SOL     OW26419   3.898   2.523   0.388  0.2583  0.2747  0.2424
 4928SOL    HW126420   3.803   2.530   0.394  0.3523  1.2068  0.6170
 4928SOL    HW226421   3.910   2.442   0.338  0.8577  0.0369  0.7653
 4929SOL     OW26422   1.688   0.198   3.651  0.1336 -0.0598 -0.1691
 4929SOL    HW126423   1.765   0.228   3.699 -0.4770  1.1637  0.0428
 4929SOL    HW226424   1.614   0.234   3.699  0.4492  0.4719 -0.0912
 4930SOL     OW26425   0.402   3.221   7.409  0.3128 -0.0623  0.0976
 4930SOL    HW126426   0.403   3.303   7.359  0.8422 -0.5641 -0.7108
 4930SOL    HW226427   0.445   3.158   7.351 -1.2390 -0.7070 -0.3357
 4931SOL     OW26428   2.758   1.466   6.510  0.3404 -0.3601  0.5885
 4931SOL    HW126429   2.703   1.531   6.467  0.6121 -0.3200  0.3064
 4931SOL    HW226430   2.693   1.441   6.577  1.2667  0.4771  1.8050
 4932SOL     OW26431   0.477   4.586   8.410 -0.0567 -0.1469 -0.6464
 4932SOL    HW126432   0.411   4.575   8.342 -0.1078  1.1989 -0.8128
 4932SOL    HW226433   0.423   4.572   8.488  0.1913  2.8432  0.0797
 4933SOL     OW26434   0.897   3.500   7.342  0.3021 -0.0726  0.5863
 4933SOL    HW126435   0.832   3.502   7.412  0.5248  0.3927  0.7786
 4933SOL    HW226436   0.899   3.405   7.326  1.3067 -0.2633  1.8462
 4934SOL     OW26437   1.945   1.513   8.049  1.0100 -0.1146  0.2958
 4934SOL    HW126438   1.974   1.421   8.054  1.1345 -0.1876 -1.7890
 4934SOL    HW226439   1.861   1.501   8.006  0.6539 -2.2117  1.5453
 4935SOL     OW26440   2.955   1.192   8.805  0.1781  0.2091  0.6514
 4935SOL    HW126441   3.036   1.181   8.854  0.3533 -1.2932  0.0097
 4935SOL    HW226442   2.958   1.283   8.777 -0.8238 -0.0624 -0.3440
 4936SOL     OW26443   0.618   3.512   2.531 -0.2186 -0.1206  0.1425
 4936SOL    HW126444   0.538   3.539   2.486 -0.3302 -1.5449 -0.5091
 4936SOL    HW226445   0.637   3.586   2.589  1.0988 -0.1578 -0.2524
 4937SOL     OW26446   2.898   1.540   3.587  0.4923  0.1583 -0.5264
 4937SOL    HW126447   2.817   1.493   3.567  0.3398 -0.3665  1.3322
 4937SOL    HW226448   2.934   1.486   3.657  0.2636  0.4177 -0.2027
 4938SOL     OW26449   0.011   2.525   8.379 -0.1722 -0.6341  0.6315
 4938SOL    HW126450   0.089   2.470   8.386 -0.2947 -1.1180 -1.7702
 4938SOL    HW226451   0.034   2.583   8.451 -3.5464  2.4062 -0.7455
 4939SOL     OW26452   0.434   3.183   7.677 -0.1205 -0.1465  0.1396
 4939SOL    HW126453   0.433   3.178   7.581 -1.6339  1.6656  0.0587
 4939SOL    HW226454   0.525   3.200   7.701 -1.0915  3.0946  1.6093
 4940SOL     OW26455   1.353   3.787  14.051  0.4357  0.2246 -0.3441
 4940SOL    HW126456   1.389   3.873  14.027  0.3140  0.9590  2.1476
 4940SOL    HW226457   1.328   3.793  14.143  2.0982 -0.4365  0.1535
 4941SOL     OW26458   2.237   1.660   8.996  0.0457  0.2518 -0.0258
 4941SOL    HW126459   2.208   1.672   8.906 -0.5768  1.5007  0.3496
 4941SOL    HW226460   2.276   1.572   8.998  2.0394  1.1082 -0.5575
 4942SOL     OW26461   1.871   3.873  16.218 -0.2307 -0.1651 -0.5026
 4942SOL    HW126462   1.878   3.827  16.302  1.2736  0.4426 -0.2966
 4942SOL    HW226463   1.778   3.877  16.199  0.0123 -2.0328 -2.1397
 4943SOL     OW26464   1.966   4.736   7.538  0.0123 -0.2951  0.3021
 4943SOL    HW126465   1.951   0.012   7.631  1.3489 -0.1644  0.4975
 4943SOL    HW226466   2.061   0.014   7.537  0.4491 -2.9606 -0.6062
 4944SOL     OW26467   3.173   1.021   5.279 -0.4382 -0.1109  0.2821
 4944SOL    HW126468   3.260   1.054   5.299 -0.5530  0.9307 -0.8917
 4944SOL    HW226469   3.182   0.964   5.203  0.5587 -2.1101  1.9173
 4945SOL     OW26470   3.462   0.883  15.925 -0.3085 -0.0522  0.0358
 4945SOL    HW126471   3.490   0.929  15.846 -1.0239  1.4273  0.6450
 4945SOL    HW226472   3.387   0.838  15.887  0.0237 -0.7704  0.2321
 4946SOL     OW26473   2.120   4.397   0.812 -0.3356 -0.0131 -0.2689
 4946SOL    HW126474   2.211   4.425   0.805 -0.9765  2.5314  1.7317
 4946SOL    HW226475   2.072   4.478   0.794  0.5476  0.2588 -1.3901
 4947SOL     OW26476   3.046   0.356   6.385 -0.3703 -0.0060 -0.1747
 4947SOL    HW126477   3.020   0.389   6.471  0.8814  1.1638 -0.2648
 4947SOL    HW226478   2.992   0.415   6.332 -0.3638 -0.4967 -0.7317
 4948SOL     OW26479   0.830   1.838  10.290 -0.3739 -0.0272  0.2208
 4948SOL    HW126480   0.916   1.871  10.266 -0.8269  0.0010 -1.3118
 4948SOL    HW226481   0.788   1.923  10.302 -0.3389 -0.0165  0.2693
 4949SOL     OW26482   4.732   3.111   7.048 -0.0231  0.0378  0.2882
 4949SOL    HW126483   0.031   3.028   7.017  2.8537  1.0137  1.1919
 4949SOL    HW226484   0.035   3.121   7.133  1.1980  1.1316 -0.4424
 4950SOL     OW26485   2.663   0.696   5.669  0.3707  0.0544 -0.1822
 4950SOL    HW126486   2.655   0.668   5.760  2.8271  0.2512  0.0904
 4950SOL    HW226487   2.587   0.653   5.629  0.3311  0.0256 -0.0750
 4951SOL     OW26488   3.668   2.187   0.236 -1.0697 -0.7033  0.2321
 4951SOL    HW126489   3.640   2.102   0.268 -0.7698 -0.8263  0.1687
 4951SOL    HW226490   3.661   2.169   0.142 -0.8990 -0.3177  0.1432
 4952SOL     OW26491   3.977   0.059   9.499  0.8066 -0.4520 -0.0397
 4952SOL    HW126492   3.996   0.118   9.572 -3.7263  1.8736 -0.7272
 4952SOL    HW226493   3.996   0.108   9.420  0.6077 -0.3174 -0.0052
 4953SOL     OW26494   1.248   2.563  17.652 -0.4523 -0.0288 -0.0516
 4953SOL    HW126495   1.321   2.515  17.689 -0.5560 -0.1358  0.0135
 4953SOL    HW226496   1.181   2.545  17.718 -0.8967 -1.7487 -0.9681
 4954SOL     OW26497   0.556   4.657  10.667  0.6469  0.0275  0.6338
 4954SOL    HW126498   0.589   4.587  10.722  2.1255 -0.8409 -1.3527
 4954SOL    HW226499   0.493   4.610  10.612  0.0805  0.9564  0.4866
 4955SOL     OW26500   1.534   2.648   8.512 -0.1459  0.1952 -0.3152
 4955SOL    HW126501   1.547   2.663   8.418 -2.7516  0.6189 -0.5852
 4955SOL    HW226502   1.446   2.684   8.522  0.4607  1.3586  0.9543
 4956SOL     OW26503   0.711   1.006   0.947  0.1789 -0.5426 -0.3189
 4956SOL    HW126504   0.785   0.974   1.000  0.1239  2.7400  1.7427
 4956SOL    HW226505   0.652   1.015   1.022  1.0441 -0.5790  0.3787
 4957SOL     OW26506   1.537   3.331   3.008  0.1212 -0.1034  0.0011
 4957SOL    HW126507   1.449   3.365   3.025  0.4790 -0.0465  1.7427
 4957SOL    HW226508   1.520   3.283   2.927  1.7907 -1.7605  0.6395
 4958SOL     OW26509   1.667   3.891   7.103 -0.7220  0.4575 -0.1056
 4958SOL    HW126510   1.638   3.962   7.045 -3.5691 -0.5511  0.0769
 4958SOL    HW226511   1.634   3.815   7.056  2.6093 -0.9847 -0.0941
 4959SOL     OW26512   1.902   3.610   9.698 -0.0614 -0.7284 -0.1010
 4959SOL    HW126513   1.904   3.559   9.617  0.6705 -0.1871 -0.4283
 4959SOL    HW226514   1.874   3.544   9.761 -0.1636 -0.8769 -0.2998
 4960SOL     OW26515   0.071   0.224   5.501 -0.0699  0.0481 -0.3890
 4960SOL    HW126516   0.028   0.158   5.446 -1.2316  0.1186  0.4277
 4960SOL    HW226517   0.114   0.176   5.572 -0.4091 -0.0357 -0.2409
 4961SOL     OW26518   2.031   1.495   1.683  0.7391  0.6774 -0.2785
 4961SOL    HW126519   2.076   1.520   1.764  1.6157 -1.8005 -0.0061
 4961SOL    HW226520   1.962   1.433   1.707 -1.1112  3.1366  0.6681
 4962SOL     OW26521   2.012   0.623  17.541  0.0342 -0.2060 -0.3544
 4962SOL    HW126522   2.107   0.614  17.555  0.2600  1.5822 -0.7414
 4962SOL    HW226523   1.998   0.718  17.549 -0.4552 -0.2048 -1.3118
 4963SOL     OW26524   0.450   0.572   0.393  0.2341 -0.3106  0.0135
 4963SOL    HW126525   0.532   0.589   0.440 -1.1282  1.9228  1.5636
 4963SOL    HW226526   0.478   0.520   0.317  1.0760 -0.7720  0.6381
 4964SOL     OW26527   0.394   1.590   7.587 -0.1678  0.0407  0.2021
 4964SOL    HW126528   0.341   1.669   7.585 -1.6785 -0.9598  0.9744
 4964SOL    HW226529   0.383   1.558   7.497 -0.4003  2.3079 -0.5887
 4965SOL     OW26530   1.807   3.166   5.507 -0.4009 -0.0094 -0.0873
 4965SOL    HW126531   1.734   3.164   5.446 -0.5492 -0.4736  0.1083
 4965SOL    HW226532   1.820   3.258   5.531  0.9102  0.4276 -2.4573
 4966SOL     OW26533   0.732   2.851   0.724 -0.2583  0.5635 -0.1267
 4966SOL    HW126534   0.750   2.884   0.812 -0.0099 -0.7997  0.3316
 4966SOL    HW226535   0.689   2.771   0.754  2.2717 -1.4135 -1.7997
 4967SOL     OW26536   1.627   0.125  10.763 -0.5155 -0.4052 -0.6606
 4967SOL    HW126537   1.660   0.064  10.697  1.0141  0.3240 -0.5495
 4967SOL    HW226538   1.636   0.208  10.716 -2.0502  0.7420  1.0552
 4968SOL     OW26539   4.375   4.422   0.402  0.6842  0.2075 -0.1778
 4968SOL    HW126540   4.322   4.383   0.471  0.0115 -1.3608 -1.5625
 4968SOL    HW226541   4.379   4.516   0.422 -0.4994 -0.1555  1.7552
 4969SOL     OW26542   1.337   0.159  13.605  0.1556 -0.5697 -0.1563
 4969SOL    HW126543   1.302   0.218  13.672 -0.0608  0.8362 -1.4840
 4969SOL    HW226544   1.272   0.091  13.621 -1.3334  0.7602 -0.5732
 4970SOL     OW26545   3.435   0.351   9.081  0.4882 -0.3677 -0.6124
 4970SOL    HW126546   3.345   0.322   9.067  0.6284 -0.2732 -1.6520
 4970SOL    HW226547   3.422   0.438   9.120  2.0809 -0.7917  0.8793
 4971SOL     OW26548   0.166   2.410   3.833 -0.3749  0.4025 -0.3409
 4971SOL    HW126549   0.206   2.412   3.746  2.8056  1.0180  1.1396
 4971SOL    HW226550   0.150   2.315   3.835 -1.7809  0.6037 -2.4105
 4972SOL     OW26551   2.517   0.732  12.104  0.2458  0.1559 -0.1972
 4972SOL    HW126552   2.521   0.780  12.022  1.0122  0.5314  0.0649
 4972SOL    HW226553   2.516   0.804  12.167 -0.8486 -0.9917  1.0951
 4973SOL     OW26554   1.214   2.120  13.264  0.3329  0.4064 -0.0713
 4973SOL    HW126555   1.263   2.129  13.346 -1.3246  0.3880  0.9178
 4973SOL    HW226556   1.261   2.192  13.221 -0.6381  1.2145  0.2177
 4974SOL     OW26557   3.816   0.112  10.790 -0.5867 -0.3790 -0.2073
 4974SOL    HW126558   3.903   0.141  10.763 -0.8359  0.5897  0.0250
 4974SOL    HW226559   3.800   0.185  10.850 -0.6519 -0.2802 -0.3453
 4975SOL     OW26560   3.640   2.131  10.069  0.1677  0.6999 -0.0829
 4975SOL    HW126561   3.644   2.200  10.135 -1.0043  2.2249 -1.6104
 4975SOL    HW226562   3.616   2.058  10.126  0.2931  1.5443  1.0522
 4976SOL     OW26563   2.269   1.236   6.394 -0.6711  0.3513  0.1223
 4976SOL    HW126564   2.251   1.274   6.308  0.2082 -0.2713 -0.3389
 4976SOL    HW226565   2.185   1.248   6.437 -1.0401 -1.3478 -0.1333
 4977SOL     OW26566   3.891   1.847  15.361 -0.2957  0.0019  0.1889
 4977SOL    HW126567   3.827   1.816  15.425  1.2171 -1.4478  0.9884
 4977SOL    HW226568   3.974   1.839  15.409  0.2134 -0.1073 -0.7080
 4978SOL     OW26569   2.619   3.540   4.615 -0.4864  0.2528 -0.1532
 4978SOL    HW126570   2.634   3.491   4.534  2.0195 -2.7816  2.1724
 4978SOL    HW226571   2.663   3.622   4.593  0.8800 -0.1939  0.9237
 4979SOL     OW26572   3.666   2.228   5.574  0.0592  0.2541 -0.1877
 4979SOL    HW126573   3.667   2.323   5.585 -0.3038  0.4155 -1.5290
 4979SOL    HW226574   3.760   2.217   5.592  0.4388  2.4633 -0.7504
 4980SOL     OW26575   3.410   2.228  10.908  0.1417  0.0110 -0.4564
 4980SOL    HW126576   3.488   2.200  10.860  0.4879  0.5209 -0.1902
 4980SOL    HW226577   3.434   2.243  10.999  1.1027  0.9059 -0.8494
 4981SOL     OW26578   1.985   3.878  10.378 -0.5914  0.7250  0.1063
 4981SOL    HW126579   1.954   3.788  10.392 -1.5820  0.6943 -2.3368
 4981SOL    HW226580   1.938   3.903  10.299 -2.8925  1.5312  1.7278
 4982SOL     OW26581   4.598   0.270   5.181 -0.3055  0.4047 -0.5587
 4982SOL    HW126582   4.597   0.182   5.218  0.8547  0.4749 -0.3541
 4982SOL    HW226583   4.590   0.255   5.087 -2.0400 -0.3367 -0.2855
 4983SOL     OW26584   3.148   1.496   4.803  0.1883 -0.3794 -0.0489
 4983SOL    HW126585   3.179   1.451   4.724  0.5190  0.9144 -0.6421
 4983SOL    HW226586   3.211   1.463   4.867 -2.1061 -3.0567  0.8428
 4984SOL     OW26587   2.662   2.501   9.662  0.3093  0.1218 -0.2759
 4984SOL    HW126588   2.700   2.585   9.688  2.3374 -0.8855 -0.0328
 4984SOL    HW226589   2.574   2.524   9.692 -0.7031 -1.8480 -1.7316
 4985SOL     OW26590   4.661   2.016   9.291 -0.0212 -0.3271  0.1659
 4985SOL    HW126591   0.004   1.969   9.270  0.6289  0.2711  1.2961
 4985SOL    HW226592   4.647   2.084   9.226  1.1673  0.8475  1.1476
 4986SOL     OW26593   4.242   2.501   0.515  0.5626 -0.2518 -0.1997
 4986SOL    HW126594   4.213   2.590   0.536 -0.9003 -1.3168  2.2647
 4986SOL    HW226595   4.303   2.515   0.443  1.0127  0.4168  0.3070
 4987SOL     OW26596   1.627   0.945   2.436  0.2437 -0.3017  0.1835
 4987SOL    HW126597   1.640   0.971   2.527  0.6436  1.1007 -0.2637
 4987SOL    HW226598   1.718   0.932   2.409 -0.3621 -1.0427 -1.4965
 4988SOL     OW26599   1.059   0.055   5.688 -0.5848  0.1659  0.4967
 4988SOL    HW126600   1.051   0.115   5.614 -1.4151  1.9836  2.0459
 4988SOL    HW226601   0.990   0.083   5.749  0.4065  2.2707  0.6632
 4989SOL     OW26602   0.120   2.060   1.745 -0.1478 -0.2307  0.0129
 4989SOL    HW126603   0.191   2.043   1.684  0.5558 -1.4509  1.1499
 4989SOL    HW226604   0.046   2.031   1.692 -1.6344 -0.7577  2.3739
 4990SOL     OW26605   1.401   2.584  15.638  0.1877 -0.1031 -0.3451
 4990SOL    HW126606   1.432   2.551  15.722 -2.2320 -0.6774  0.3254
 4990SOL    HW226607   1.390   2.499  15.597 -0.1091 -0.2628  0.0743
 4991SOL     OW26608   2.053   2.013  17.638 -0.3616 -0.0766  0.2657
 4991SOL    HW126609   1.990   1.943  17.625  0.6274 -0.3585 -3.1906
 4991SOL    HW226610   2.129   1.967  17.603 -1.4414 -2.1468  0.6770
 4992SOL     OW26611   0.734   2.397  15.365  0.2561  0.0471 -0.4103
 4992SOL    HW126612   0.792   2.425  15.294  1.1513 -0.6072  0.0652
 4992SOL    HW226613   0.662   2.460  15.366  2.5593  2.6697  0.4550
 4993SOL     OW26614   1.500   0.380  15.258  1.0005  0.2786 -0.5485
 4993SOL    HW126615   1.517   0.444  15.326  0.2438  0.2885 -0.3638
 4993SOL    HW226616   1.582   0.331  15.253  0.0379 -1.5937  1.6786
 4994SOL     OW26617   4.026   0.424   9.694  0.0864  0.5490 -0.4314
 4994SOL    HW126618   3.998   0.397   9.606  0.5693 -3.4651  0.6657
 4994SOL    HW226619   4.071   0.507   9.679 -1.2073  0.9153 -2.3706
 4995SOL     OW26620   4.731   3.184   5.532  0.2980 -0.4316  0.2185
 4995SOL    HW126621   0.054   3.210   5.463 -0.7147 -1.6481 -1.1564
 4995SOL    HW226622   0.039   3.137   5.602 -0.5349 -1.2362  0.2335
 4996SOL     OW26623   1.514   3.119   4.769 -0.4855  0.0065 -0.8601
 4996SOL    HW126624   1.492   3.052   4.704  1.0893  0.3376 -1.7482
 4996SOL    HW226625   1.581   3.071   4.817 -0.6833 -0.0727 -0.6633
 4997SOL     OW26626   3.123   3.142   4.711 -0.0894  0.0565 -0.7046
 4997SOL    HW126627   3.179   3.067   4.690 -0.5075 -0.2966 -0.5594
 4997SOL    HW226628   3.034   3.110   4.696  0.0564 -0.5101 -0.3386
 4998SOL     OW26629   1.062   3.500   6.135 -0.5182  0.0554  0.5396
 4998SOL    HW126630   1.146   3.456   6.132  0.1606  1.5661 -2.8184
 4998SOL    HW226631   1.080   3.579   6.083  0.7505 -0.3196  0.4286
 4999SOL     OW26632   4.349   3.735   9.379  0.4201 -0.1457 -0.2822
 4999SOL    HW126633   4.393   3.819   9.365 -2.1691  1.4115  0.8672
 4999SOL    HW226634   4.408   3.662   9.361 -0.1152 -0.3593 -1.1964
 5000SOL     OW26635   2.569   0.007  16.243 -0.4152  0.0032  0.1338
 5000SOL    HW126636   2.544   4.661  16.206 -0.9502 -0.0504  0.6194
 5000SOL    HW226637   2.577   0.057  16.162 -1.6545 -0.1312 -0.0720
 5001SOL     OW26638   0.948   2.182   7.482 -0.8813  0.0314  0.2532
 5001SOL    HW126639   0.969   2.125   7.408 -0.4550  0.6092 -0.0769
 5001SOL    HW226640   0.884   2.130   7.532 -2.1203 -0.4526 -1.8484
 5002SOL     OW26641   4.425   1.422   1.558 -0.1211 -0.0105  0.8932
 5002SOL    HW126642   4.484   1.477   1.608 -0.3433  1.7965 -0.8332
 5002SOL    HW226643   4.444   1.454   1.470 -1.5321 -2.6521 -0.3758
 5003SOL     OW26644   1.202   3.076   7.739  0.3515 -0.3186  0.1533
 5003SOL    HW126645   1.185   2.986   7.712  0.4901  0.4609 -2.5061
 5003SOL    HW226646   1.176   3.128   7.663  0.2173  0.4932  0.7510
 5004SOL     OW26647   0.813   3.195   2.340  0.1193  0.2233  0.2143
 5004SOL    HW126648   0.837   3.231   2.425 -2.2532  1.5504  0.3168
 5004SOL    HW226649   0.895   3.203   2.291 -1.0272 -3.9083 -2.4738
 5005SOL     OW26650   3.881   2.126   4.235  0.3305 -0.2318 -0.4725
 5005SOL    HW126651   3.802   2.102   4.186  0.5081 -0.3141 -0.7167
 5005SOL    HW226652   3.865   2.070   4.312 -3.3373 -1.2717 -1.9856
 5006SOL     OW26653   3.220   2.084   8.137  0.0338  0.5967 -0.3559
 5006SOL    HW126654   3.144   2.064   8.191  0.5499  0.5498  0.3566
 5006SOL    HW226655   3.196   2.080   8.044  2.0666  1.0666 -0.9028
 5007SOL     OW26656   1.693   0.658   9.394 -0.0424  0.0244  0.6818
 5007SOL    HW126657   1.701   0.578   9.446 -1.0627 -0.3962  0.1859
 5007SOL    HW226658   1.600   0.656   9.376 -0.4129  1.8698  2.3642
 5008SOL     OW26659   1.837   1.499   2.500 -0.1146  0.1760  0.8063
 5008SOL    HW126660   1.811   1.573   2.444 -4.3362 -2.0307 -0.1296
 5008SOL    HW226661   1.927   1.485   2.470 -0.0201  0.0354  1.1488
 5009SOL     OW26662   0.273   2.947   7.429  0.7232  0.8883  0.7939
 5009SOL    HW126663   0.251   2.977   7.517 -1.2284  0.9339  0.2975
 5009SOL    HW226664   0.366   2.923   7.429  0.6958  0.7699 -0.6394
 5010SOL     OW26665   2.146   1.949   0.798 -1.1126  0.5578  0.0104
 5010SOL    HW126666   2.189   1.879   0.847  0.7233  1.2894 -0.5581
 5010SOL    HW226667   2.142   1.927   0.705 -0.1122  0.4605 -0.0085
 5011SOL     OW26668   3.425   1.836   3.139  0.4295  0.0100  0.4687
 5011SOL    HW126669   3.433   1.917   3.190  3.3556  0.1670 -0.2421
 5011SOL    HW226670   3.517   1.810   3.137  0.7877  1.2928  0.7505
 5012SOL     OW26671   3.296   3.971   2.570  0.4359 -0.1141 -0.3995
 5012SOL    HW126672   3.227   3.917   2.610 -0.2081  0.7365 -0.3802
 5012SOL    HW226673   3.343   3.999   2.649 -1.2489  1.7354 -0.0558
 5013SOL     OW26674   2.179   1.627   2.363  0.5047 -0.3569  0.2017
 5013SOL    HW126675   2.264   1.589   2.341 -0.9177 -2.9369 -0.9148
 5013SOL    HW226676   2.145   1.576   2.436  1.6047  1.3376  1.8787
 5014SOL     OW26677   3.365   2.274   9.369  0.3425  0.3723  0.3388
 5014SOL    HW126678   3.418   2.231   9.302 -0.6992 -0.4000  0.0179
 5014SOL    HW226679   3.359   2.358   9.324 -1.4063  0.3095  0.4567
 5015SOL     OW26680   3.223   3.010   4.955 -0.6257  0.0311 -0.4862
 5015SOL    HW126681   3.286   2.966   4.898 -1.7082 -0.7906 -1.0356
 5015SOL    HW226682   3.206   3.091   4.906  1.8608  1.7024  1.3970
 5016SOL     OW26683   3.482   3.866  10.980 -0.7060 -0.1835 -0.3429
 5016SOL    HW126684   3.557   3.916  10.947 -0.6948 -0.0164 -0.0612
 5016SOL    HW226685   3.437   3.832  10.902  0.9810 -1.3329 -0.8123
 5017SOL     OW26686   4.349   2.012   3.118 -0.3178 -0.0950  0.2191
 5017SOL    HW126687   4.305   2.015   3.203  2.2142 -0.7844  1.5400
 5017SOL    HW226688   4.335   2.102   3.089 -0.5573 -0.4594 -0.7876
 5018SOL     OW26689   3.739   1.823   5.338  0.8611  0.3147  0.6342
 5018SOL    HW126690   3.830   1.807   5.362  0.6830 -0.8501  0.5696
 5018SOL    HW226691   3.698   1.768   5.405  0.0242  0.8073  0.5273
 5019SOL     OW26692   3.539   1.441   8.531  0.1525  0.2721 -0.2369
 5019SOL    HW126693   3.446   1.435   8.508  0.0146  2.7014 -0.3188
 5019SOL    HW226694   3.559   1.357   8.571 -0.0205  1.0029  1.3565
 5020SOL     OW26695   3.859   2.333   4.618 -0.0952 -0.3474 -0.4563
 5020SOL    HW126696   3.889   2.385   4.543 -1.8565  0.5559 -0.5364
 5020SOL    HW226697   3.938   2.305   4.664  0.7598  1.9139 -0.5388
 5021SOL     OW26698   4.677   4.687   5.703 -0.1149  0.2079  0.1905
 5021SOL    HW126699   4.692   4.603   5.747  2.0178  0.7196  0.4215
 5021SOL    HW226700   4.726   4.665   5.624 -3.2927  0.2641 -1.8002
 5022SOL     OW26701   4.279   3.774   2.358  0.3777 -0.2825  0.1696
 5022SOL    HW126702   4.244   3.840   2.418 -2.3087 -0.5117 -1.1709
 5022SOL    HW226703   4.371   3.759   2.381  0.9657  2.3410 -0.4017
 5023SOL     OW26704   4.621   0.593   3.285 -0.0807  0.1124 -1.0500
 5023SOL    HW126705   4.687   0.599   3.354 -0.9638 -0.9347 -0.0945
 5023SOL    HW226706   4.591   0.506   3.311 -1.3192  0.8982  0.1944
 5024SOL     OW26707   3.645   0.639   1.739  0.0463 -0.2231 -0.0048
 5024SOL    HW126708   3.649   0.695   1.817 -2.7040  1.2914 -0.9695
 5024SOL    HW226709   3.577   0.575   1.761  0.1317  0.5744  2.6448
 5025SOL     OW26710   1.437   2.275   5.713  0.0324 -0.1073 -0.0788
 5025SOL    HW126711   1.357   2.224   5.725 -0.4790  0.8854  0.6574
 5025SOL    HW226712   1.480   2.210   5.657  2.2192  0.0202  1.4528
 5026SOL     OW26713   3.415   3.300   3.122  0.7852  0.1589 -0.0624
 5026SOL    HW126714   3.462   3.233   3.171 -1.7619 -1.0561  0.7428
 5026SOL    HW226715   3.487   3.343   3.076 -0.6236 -1.3974 -3.8206
 5027SOL     OW26716   1.282   2.627  12.181  0.2005 -1.0086  0.5694
 5027SOL    HW126717   1.313   2.696  12.123  1.7381 -0.7225  1.7334
 5027SOL    HW226718   1.322   2.546  12.148  0.4698 -0.4002 -0.5782
 5028SOL     OW26719   4.065   1.221  17.529  0.2999 -0.2105  0.0939
 5028SOL    HW126720   3.989   1.249  17.580 -0.7909 -1.5633 -0.8006
 5028SOL    HW226721   4.115   1.184  17.602 -1.9031  0.0095  1.7016
 5029SOL     OW26722   1.110   2.960  17.518  0.2502  0.0139 -0.0872
 5029SOL    HW126723   1.136   3.020  17.589 -3.1442  2.5670 -0.9450
 5029SOL    HW226724   1.017   2.977  17.534  0.1048 -0.9768  0.0663
 5030SOL     OW26725   0.553   3.027   7.277  0.5354 -0.0286 -0.4084
 5030SOL    HW126726   0.580   2.979   7.355  3.0732  2.9396  0.5094
 5030SOL    HW226727   0.614   3.007   7.205  0.4542 -0.3214 -0.3963
 5031SOL     OW26728   2.786   0.147   5.100  0.4337 -0.2510  0.2590
 5031SOL    HW126729   2.770   0.056   5.127 -0.7993 -0.7365 -2.1612
 5031SOL    HW226730   2.750   0.196   5.174 -0.9252  1.0065 -1.2653
 5032SOL     OW26731   3.049   1.474   9.726  0.0134  0.2210  0.1237
 5032SOL    HW126732   3.143   1.455   9.731 -0.2302 -1.2205 -0.6081
 5032SOL    HW226733   3.039   1.554   9.777  0.4496 -0.4481  1.2635
 5033SOL     OW26734   1.045   2.824   3.422 -0.7323  0.5118  1.0178
 5033SOL    HW126735   0.976   2.770   3.462 -1.6836  0.3428 -0.8601
 5033SOL    HW226736   1.053   2.904   3.473  0.6288  0.0614  1.5163
 5034SOL     OW26737   4.010   4.065   5.312  0.1929 -0.1365  0.2591
 5034SOL    HW126738   3.954   4.141   5.294  2.7493  1.8522  0.6645
 5034SOL    HW226739   4.003   4.030   5.223  0.4413 -2.1271  1.0303
 5035SOL     OW26740   1.106   2.489   0.771  0.0833 -0.2851 -0.4722
 5035SOL    HW126741   1.158   2.562   0.738 -1.5836  0.4094 -1.5678
 5035SOL    HW226742   1.110   2.433   0.694 -0.2175  0.3869 -0.9793
 5036SOL     OW26743   0.707   4.008   1.885  0.0947  0.5533 -0.1157
 5036SOL    HW126744   0.749   3.982   1.804 -0.7475 -0.1421 -0.3291
 5036SOL    HW226745   0.705   4.103   1.872 -0.5571  0.5948  0.2633
 5037SOL     OW26746   4.164   3.205   7.454 -0.2228 -0.1180  0.1126
 5037SOL    HW126747   4.219   3.137   7.494  0.6345 -0.0442 -0.9465
 5037SOL    HW226748   4.099   3.221   7.522  2.2997  1.8834  2.0425
 5038SOL     OW26749   4.638   1.896   7.615  0.4617 -0.1810  0.0347
 5038SOL    HW126750   4.610   1.858   7.698 -1.9982  0.6642 -0.3860
 5038SOL    HW226751   4.604   1.831   7.553 -0.1514  0.2296 -0.0617
 5039SOL     OW26752   1.767   3.653   3.799 -0.1454  0.3381 -0.1868
 5039SOL    HW126753   1.698   3.629   3.862 -0.5289 -0.3126 -0.8502
 5039SOL    HW226754   1.717   3.669   3.719  1.3345 -0.2569 -1.2479
 5040SOL     OW26755   0.207   2.382  17.423 -0.0459 -0.3029  0.8853
 5040SOL    HW126756   0.113   2.387  17.408  0.0086  0.6994  0.8981
 5040SOL    HW226757   0.199   2.416  17.512 -1.2996 -0.3732  0.7924
 5041SOL     OW26758   4.200   3.659   5.318  0.0830 -0.3045  0.0952
 5041SOL    HW126759   4.177   3.574   5.356 -1.3410  0.3228  0.6194
 5041SOL    HW226760   4.289   3.665   5.352  1.8259 -2.5410 -4.0547
 5042SOL     OW26761   4.593   2.717   0.521  0.0052 -0.1941  0.2059
 5042SOL    HW126762   4.627   2.805   0.513 -1.1799  0.1772 -0.7876
 5042SOL    HW226763   4.516   2.722   0.464  1.6931 -3.7320 -2.3925
 5043SOL     OW26764   3.411   4.259   3.900 -0.1038  0.3896 -0.0825
 5043SOL    HW126765   3.405   4.173   3.860 -1.1844  0.6694 -0.5271
 5043SOL    HW226766   3.493   4.248   3.947 -0.1959  1.2390  0.2749
 5044SOL     OW26767   1.099   4.424  16.434  0.1062 -0.4054  0.4372
 5044SOL    HW126768   1.003   4.422  16.434  0.1350 -1.4121  1.6112
 5044SOL    HW226769   1.121   4.445  16.525 -2.2044  1.3998  0.6016
 5045SOL     OW26770   2.230   3.028   3.551 -0.3351  0.5489  0.5315
 5045SOL    HW126771   2.298   3.077   3.598  0.5834 -1.7739  1.6131
 5045SOL    HW226772   2.158   3.009   3.611  0.0272 -0.3387  0.6738
 5046SOL     OW26773   3.149   0.616  16.078 -0.2331 -0.1839 -0.4322
 5046SOL    HW126774   3.118   0.611  16.169 -1.7926  1.5665 -0.8876
 5046SOL    HW226775   3.079   0.563  16.038  0.0511 -2.7149  2.3614
 5047SOL     OW26776   1.650   3.997  15.906 -0.1200 -0.6377  0.0857
 5047SOL    HW126777   1.708   3.967  15.837  1.2808 -0.3963  1.1655
 5047SOL    HW226778   1.635   4.088  15.883  1.0822  0.0519  1.9878
 5048SOL     OW26779   0.518   4.125   6.017  0.0727  0.2884 -0.2141
 5048SOL    HW126780   0.527   4.220   6.028 -0.6403  0.3089  0.2133
 5048SOL    HW226781   0.539   4.107   5.926 -1.6093 -1.9917 -0.1608
 5049SOL     OW26782   2.318   1.691  14.101  0.2458  0.4034 -0.3582
 5049SOL    HW126783   2.262   1.658  14.171 -0.9175  0.5521 -1.2168
 5049SOL    HW226784   2.386   1.735  14.153  0.3997 -0.3789  0.0988
 5050SOL     OW26785   2.960   0.582   7.763  0.1941 -0.5831 -0.7216
 5050SOL    HW126786   2.887   0.534   7.724 -0.5165  1.2751 -1.6833
 5050SOL    HW226787   2.988   0.620   7.680 -1.0037  0.1192 -0.8069
 5051SOL     OW26788   2.491   2.702   9.805  0.4623 -0.1779 -0.2366
 5051SOL    HW126789   2.518   2.690   9.896  0.4859  1.5048 -0.0217
 5051SOL    HW226790   2.559   2.762   9.775  1.8070 -0.6169  2.0131
 5052SOL     OW26791   3.525   1.049  11.700 -0.8964 -0.5729 -0.9349
 5052SOL    HW126792   3.588   0.976  11.704 -1.0723 -0.6579  0.4183
 5052SOL    HW226793   3.554   1.103  11.773 -1.8932  0.3378 -1.2270
 5053SOL     OW26794   2.400   0.722  16.422  0.1099  0.0681 -0.4884
 5053SOL    HW126795   2.326   0.770  16.460  0.2994  2.5326 -3.1481
 5053SOL    HW226796   2.381   0.728  16.328  0.3657 -1.6518 -0.6379
 5054SOL     OW26797   1.668   2.848  11.999  0.0575 -0.3960  0.2176
 5054SOL    HW126798   1.658   2.843  11.904 -3.8489 -1.3853  0.6869
 5054SOL    HW226799   1.730   2.776  12.012 -2.3102 -2.6889 -1.1535
 5055SOL     OW26800   3.513   4.047   5.119  0.1437 -0.0211 -0.5047
 5055SOL    HW126801   3.606   4.065   5.104  0.5398 -0.0920  2.0134
 5055SOL    HW226802   3.523   3.960   5.156 -0.2515 -0.8005 -2.2431
 5056SOL     OW26803   4.692   4.001   3.493 -0.0918 -0.6321 -0.0557
 5056SOL    HW126804   4.661   3.954   3.570  0.8194 -1.4282 -0.1754
 5056SOL    HW226805   4.678   3.933   3.428  2.3717 -0.2910 -0.9244
 5057SOL     OW26806   1.353   1.312  14.029  0.1828 -0.2990 -0.4369
 5057SOL    HW126807   1.288   1.329  14.097  0.7548 -0.3762  0.1351
 5057SOL    HW226808   1.334   1.220  14.011 -2.7062  0.7428 -2.5989
 5058SOL     OW26809   1.748   1.978  16.762  0.1904 -0.1152 -0.4071
 5058SOL    HW126810   1.777   2.066  16.738 -1.7827  0.3302 -1.1654
 5058SOL    HW226811   1.787   1.923  16.694  2.3003  1.8712 -0.8016
 5059SOL     OW26812   3.101   2.395   9.917  0.2844  0.0868  0.2515
 5059SOL    HW126813   3.179   2.354   9.955  0.4368 -0.4375 -0.6296
 5059SOL    HW226814   3.046   2.423   9.990  0.0794  2.4999 -0.8339
 5060SOL     OW26815   1.710   1.089   7.430 -0.4182  0.5895  0.3278
 5060SOL    HW126816   1.751   1.042   7.357  2.4757 -0.7563  2.8208
 5060SOL    HW226817   1.634   1.032   7.444 -0.2463  0.2524 -0.1000
 5061SOL     OW26818   4.518   1.871   6.693 -0.1869 -0.9012  0.2068
 5061SOL    HW126819   4.434   1.909   6.668 -0.1771 -1.2375 -0.3157
 5061SOL    HW226820   4.484   1.807   6.755  0.2022 -0.4842  0.8506
 5062SOL     OW26821   0.129   1.356   2.453  0.2968  0.1965  0.1657
 5062SOL    HW126822   0.210   1.383   2.498 -1.0503  1.2109  1.9695
 5062SOL    HW226823   0.151   1.267   2.425 -1.7533 -0.3590  0.3189
 5063SOL     OW26824   4.131   0.187   4.880 -0.6434 -0.1122  0.6477
 5063SOL    HW126825   4.154   0.257   4.818 -1.8025 -1.6689 -1.5524
 5063SOL    HW226826   4.133   0.245   4.956 -2.2852 -0.7498  1.1699
 5064SOL     OW26827   3.679   0.145   2.717  0.2889  0.3066  0.4721
 5064SOL    HW126828   3.599   0.196   2.704 -0.6020 -1.0504  0.6591
 5064SOL    HW226829   3.728   0.156   2.635 -2.3760 -3.6562 -1.6681
 5065SOL     OW26830   0.653   0.176  16.814 -0.5073  0.1015 -0.7028
 5065SOL    HW126831   0.748   0.187  16.808 -0.6099  2.3728  1.7780
 5065SOL    HW226832   0.637   0.109  16.748  0.3887 -0.4387 -0.3686
 5066SOL     OW26833   4.678   2.390  15.531  0.2630 -0.3061  0.7262
 5066SOL    HW126834   4.623   2.406  15.607 -2.0996 -0.9542 -0.8523
 5066SOL    HW226835   4.626   2.331  15.477  0.5030  0.1448 -0.0027
 5067SOL     OW26836   1.501   3.501   8.229  0.2846  0.3067 -0.0103
 5067SOL    HW126837   1.549   3.421   8.250 -1.9235 -0.7810  0.8524
 5067SOL    HW226838   1.423   3.465   8.187 -0.1217 -0.4484  1.3804
 5068SOL     OW26839   2.595   3.123   4.828  0.6709 -0.0547  0.2373
 5068SOL    HW126840   2.654   3.101   4.900  1.4871  1.4627  0.0373
 5068SOL    HW226841   2.555   3.041   4.801 -0.9693  0.4110  1.2335
 5069SOL     OW26842   0.758   4.470   5.128 -0.1146  0.0771  0.4357
 5069SOL    HW126843   0.784   4.554   5.089 -2.4650  0.0123 -1.3266
 5069SOL    HW226844   0.840   4.455   5.175 -0.2867 -2.3298 -0.0623
 5070SOL     OW26845   2.104   0.706  11.362 -0.0702 -0.0514  0.0860
 5070SOL    HW126846   2.146   0.741  11.283  2.7358 -2.4185  0.5021
 5070SOL    HW226847   2.175   0.683  11.421  0.0146 -1.5994 -0.6055
 5071SOL     OW26848   2.181   4.194   3.633 -0.0267  0.2154 -0.0104
 5071SOL    HW126849   2.248   4.178   3.566  0.5208 -1.3929  0.9261
 5071SOL    HW226850   2.099   4.201   3.583 -0.8747  0.8302  1.4616
 5072SOL     OW26851   4.472   2.614   4.943 -0.3157 -0.3020 -0.0162
 5072SOL    HW126852   4.466   2.709   4.952  0.0612 -0.3984  1.2780
 5072SOL    HW226853   4.568   2.607   4.949 -0.0059  1.7190 -2.6516
 5073SOL     OW26854   1.163   1.521  10.309 -0.5101 -0.3321 -0.1671
 5073SOL    HW126855   1.209   1.485  10.233  1.2117  0.7064  0.4033
 5073SOL    HW226856   1.080   1.473  10.307 -0.5576 -0.1354 -3.3098
 5074SOL     OW26857   1.602   3.953   3.444 -0.3103 -0.0387 -0.5079
 5074SOL    HW126858   1.522   4.005   3.436 -0.1265  0.1938 -0.8395
 5074SOL    HW226859   1.668   4.016   3.413 -0.9605  1.6995  1.6638
 5075SOL     OW26860   4.017   2.983  15.078 -0.0612 -0.6275  0.2354
 5075SOL    HW126861   4.025   2.887  15.075  0.6183 -0.5452 -0.4274
 5075SOL    HW226862   4.078   3.007  15.148 -0.1077 -3.4720  1.2715
 5076SOL     OW26863   1.028   2.189   6.322  0.1589 -0.2148 -0.0665
 5076SOL    HW126864   0.937   2.199   6.351  0.5210  0.2970  0.8750
 5076SOL    HW226865   1.063   2.276   6.341 -0.9361  0.8303 -2.8245
 5077SOL     OW26866   2.402   0.726   3.598  0.1234  0.5436  0.0730
 5077SOL    HW126867   2.454   0.726   3.518  2.0435 -1.3114  1.3323
 5077SOL    HW226868   2.335   0.784   3.562 -0.4017 -0.1237 -0.0244
 5078SOL     OW26869   3.425   1.057   6.566  0.9089  0.1567  0.3289
 5078SOL    HW126870   3.461   1.143   6.542 -0.7666  0.4505 -1.2034
 5078SOL    HW226871   3.448   1.006   6.488  1.0181  0.8616 -0.1087
 5079SOL     OW26872   2.693   1.255   8.481  0.4770 -0.3689  0.5638
 5079SOL    HW126873   2.605   1.246   8.518 -0.4620 -2.0943 -2.0909
 5079SOL    HW226874   2.714   1.348   8.489  1.3646 -0.3444 -2.2661
 5080SOL     OW26875   4.091   1.646   2.593 -0.2574 -0.2479  0.1692
 5080SOL    HW126876   4.082   1.551   2.585 -0.1082 -0.3083  0.6520
 5080SOL    HW226877   4.168   1.656   2.537 -1.6085  0.3960 -1.5451
 5081SOL     OW26878   2.764   3.863  11.478  0.3434 -0.0146 -0.1817
 5081SOL    HW126879   2.698   3.796  11.458  0.9069 -0.9429  1.0580
 5081SOL    HW226880   2.848   3.817  11.480  0.3611 -0.0490 -1.4308
 5082SOL     OW26881   2.656   3.311   4.397  0.1638  0.3205 -0.1064
 5082SOL    HW126882   2.656   3.356   4.313  0.6272  1.2253  0.3812
 5082SOL    HW226883   2.748   3.324   4.422  0.3501 -1.2083  0.0278
 5083SOL     OW26884   4.575   0.874  10.529 -0.1202 -0.3182 -0.7053
 5083SOL    HW126885   4.557   0.911  10.443 -2.0298  0.3379 -0.0345
 5083SOL    HW226886   4.541   0.785  10.520  1.3977 -0.9741  0.0105
 5084SOL     OW26887   1.300   2.120  11.958  0.0389  0.0516 -0.0102
 5084SOL    HW126888   1.240   2.113  12.032  0.9035 -0.2131  0.6614
 5084SOL    HW226889   1.375   2.065  11.978 -1.8583 -2.5536 -0.0845
 5085SOL     OW26890   4.721   2.928   3.845 -1.0004  0.2502  0.0702
 5085SOL    HW126891   4.731   2.967   3.758  2.4708 -1.8620 -0.4689
 5085SOL    HW226892   4.632   2.896   3.830 -1.1438  0.3762  0.6547
 5086SOL     OW26893   2.207   0.615  17.284  0.0601 -0.0890 -0.0096
 5086SOL    HW126894   2.117   0.618  17.252  0.3521 -1.7899 -0.9817
 5086SOL    HW226895   2.238   0.685  17.228  0.4480 -0.2763 -0.0250
 5087SOL     OW26896   2.424   0.958   8.926 -0.2327 -0.5492  0.3654
 5087SOL    HW126897   2.495   0.985   8.984  0.2196 -1.5459  0.2755
 5087SOL    HW226898   2.481   0.898   8.877  1.2590  3.1689 -2.4524
 5088SOL     OW26899   3.078   2.324   7.438  0.9888 -0.4318 -0.1493
 5088SOL    HW126900   3.158   2.301   7.486  1.3545  0.6752 -0.2160
 5088SOL    HW226901   3.026   2.357   7.511  0.6533 -0.9437 -0.1629
 5089SOL     OW26902   0.802   3.950   6.010 -0.5617 -0.0861 -0.5353
 5089SOL    HW126903   0.872   3.982   5.953  1.9365 -1.9978  1.4708
 5089SOL    HW226904   0.845   3.966   6.094  1.5356  0.6095 -1.7434
 5090SOL     OW26905   0.730   0.723   7.441  0.2089 -0.3459  0.1343
 5090SOL    HW126906   0.715   0.688   7.529 -1.1570 -0.3006 -0.0772
 5090SOL    HW226907   0.650   0.771   7.417  1.1524  1.8126  1.4074
 5091SOL     OW26908   4.228   0.739   3.747 -0.0162  0.2459  0.2169
 5091SOL    HW126909   4.175   0.715   3.671 -2.1687 -0.6761  2.0120
 5091SOL    HW226910   4.169   0.718   3.820 -1.4904 -2.6483 -1.7846
 5092SOL     OW26911   4.445   2.587   7.036  0.0335 -0.0015  0.3409
 5092SOL    HW126912   4.444   2.551   7.125 -2.4585 -1.3653 -0.2508
 5092SOL    HW226913   4.408   2.510   6.993  1.7289  0.6518 -2.3427
 5093SOL     OW26914   1.389   4.544   9.911  0.9118  0.3551 -0.3372
 5093SOL    HW126915   1.296   4.553   9.895  1.4050  2.3387 -2.0658
 5093SOL    HW226916   1.401   4.463   9.861 -0.6132 -1.3483  2.0631
 5094SOL     OW26917   3.350   2.936  16.866 -0.1969 -0.1731 -0.4215
 5094SOL    HW126918   3.309   2.854  16.838 -0.9640  0.2433 -0.5092
 5094SOL    HW226919   3.367   2.984  16.785 -0.4004  0.5452 -0.0420
 5095SOL     OW26920   0.005   3.023   3.582 -0.2925  0.3420  0.3655
 5095SOL    HW126921   4.734   3.090   3.514 -0.1866 -2.1950 -2.1596
 5095SOL    HW226922   4.713   2.946   3.534 -1.4766  1.8912 -1.4173
 5096SOL     OW26923   3.853   3.095   8.739 -0.0498 -0.0787  0.1168
 5096SOL    HW126924   3.807   3.047   8.808  0.5984 -0.1711  0.4925
 5096SOL    HW226925   3.793   3.170   8.737 -1.0677 -0.9288 -0.9821
 5097SOL     OW26926   3.515   1.467  13.262  0.4214 -0.1797 -0.0810
 5097SOL    HW126927   3.455   1.412  13.312 -1.8425  2.5441  0.2286
 5097SOL    HW226928   3.487   1.557  13.282 -0.7873 -0.1479 -1.9494
 5098SOL     OW26929   3.688   1.944   9.200  0.6028  0.1380 -0.1625
 5098SOL    HW126930   3.675   1.935   9.295  1.0072 -1.7159 -0.2876
 5098SOL    HW226931   3.622   2.012   9.189 -0.4523 -0.7442  0.7167
 5099SOL     OW26932   4.329   0.504  10.752 -0.2410 -0.4094  0.1428
 5099SOL    HW126933   4.332   0.496  10.848  2.6655  0.1253  0.0894
 5099SOL    HW226934   4.262   0.436  10.741 -2.6149  1.6779  1.5816
 5100SOL     OW26935   0.578   1.786   5.257 -0.0213 -0.4306  0.0548
 5100SOL    HW126936   0.639   1.743   5.198 -0.0699  0.6927 -0.8213
 5100SOL    HW226937   0.556   1.862   5.203  1.5326  0.8179  1.1837
 5101SOL     OW26938   3.863   0.284   0.171  0.3832  0.1769  0.2559
 5101SOL    HW126939   3.777   0.321   0.191  0.3805  1.3428 -1.8838
 5101SOL    HW226940   3.890   0.358   0.117 -2.0322  0.3567 -0.7187
 5102SOL     OW26941   1.961   1.957  13.482 -0.3761  0.5510  0.4625
 5102SOL    HW126942   1.996   1.999  13.560 -1.6797  0.0363  1.3257
 5102SOL    HW226943   1.940   1.877  13.529  1.3134 -0.2667 -0.1633
 5103SOL     OW26944   1.084   0.278   2.924  0.0934  0.2056 -0.0832
 5103SOL    HW126945   1.112   0.245   2.839  0.3995 -0.3170  0.2246
 5103SOL    HW226946   1.065   0.368   2.896  0.1075  1.3202  3.3721
 5104SOL     OW26947   0.211   1.503  14.773 -0.7161  0.5887 -0.4211
 5104SOL    HW126948   0.210   1.408  14.760 -3.5649  0.4295  0.9633
 5104SOL    HW226949   0.258   1.533  14.696 -0.0074  0.0544 -0.1998
 5105SOL     OW26950   0.450   1.569   4.629  0.3801 -0.4508 -0.3210
 5105SOL    HW126951   0.418   1.656   4.653 -1.3342 -1.0429 -0.4921
 5105SOL    HW226952   0.426   1.573   4.537  1.3378  0.0941 -0.5479
 5106SOL     OW26953   1.387   0.934   7.723  0.4147 -0.1161  0.1886
 5106SOL    HW126954   1.306   0.973   7.690  2.2682  2.8325 -0.8569
 5106SOL    HW226955   1.356   0.861   7.776 -0.8443  1.2654  1.3492
 5107SOL     OW26956   0.054   0.139  16.453 -0.1401  0.0820  0.7329
 5107SOL    HW126957   0.095   0.061  16.416  1.3948  1.3266 -0.1949
 5107SOL    HW226958   0.113   0.211  16.430  0.3278 -0.8491 -0.9066
 5108SOL     OW26959   1.912   1.904   1.522  0.2968  0.3121  0.6886
 5108SOL    HW126960   1.847   1.875   1.457 -0.2456  0.2414  1.2597
 5108SOL    HW226961   1.849   1.932   1.589  0.5656  0.8253  0.7200
 5109SOL     OW26962   1.906   2.276   6.955  0.1748  0.1891  0.0183
 5109SOL    HW126963   1.979   2.215   6.947  1.1584  1.2268  1.0493
 5109SOL    HW226964   1.924   2.302   7.045 -0.9675 -2.2042  0.9300
 5110SOL     OW26965   2.412   4.630   0.098  0.2769 -0.0335 -0.2365
 5110SOL    HW126966   2.402   4.535   0.089  1.9188  0.0981 -3.5669
 5110SOL    HW226967   2.400   4.652   0.190 -1.2417 -0.7277 -0.2780
 5111SOL     OW26968   2.843   3.518   7.818 -0.7437 -0.2584  0.0891
 5111SOL    HW126969   2.795   3.512   7.735 -2.3683  1.2124  0.9312
 5111SOL    HW226970   2.908   3.449   7.803 -1.7404 -0.9518 -1.0146
 5112SOL     OW26971   3.012   2.995   6.436 -0.3352  0.5465  0.0134
 5112SOL    HW126972   3.005   2.979   6.530  2.5469  0.6922  0.2701
 5112SOL    HW226973   3.089   2.940   6.417  0.7773  1.1090  2.8969
 5113SOL     OW26974   2.883   4.546  10.988 -0.1606 -0.1928  0.5719
 5113SOL    HW126975   2.976   4.524  10.986  0.0661  0.8229 -0.0958
 5113SOL    HW226976   2.857   4.532  11.079 -1.6206  0.7819  0.2993
 5114SOL     OW26977   1.662   1.060  15.252  0.3836 -0.1561 -0.3464
 5114SOL    HW126978   1.617   1.036  15.171  2.3463 -1.3443 -1.0745
 5114SOL    HW226979   1.615   1.010  15.318 -2.9576  1.1437 -1.7532
 5115SOL     OW26980   3.039   2.626   4.740 -0.4025  0.4487  0.3017
 5115SOL    HW126981   3.110   2.565   4.760 -0.4413 -0.1896 -1.5245
 5115SOL    HW226982   2.971   2.614   4.806 -1.1888  1.2703 -0.3686
 5116SOL     OW26983   3.006   0.238  13.709 -0.8020  0.3741 -0.4776
 5116SOL    HW126984   2.929   0.255  13.763  0.4915  0.0100  1.4980
 5116SOL    HW226985   2.960   0.217  13.628  1.5087  0.2921 -1.7758
 5117SOL     OW26986   4.500   0.419   2.498  0.3302 -0.0434 -0.1766
 5117SOL    HW126987   4.434   0.365   2.454 -0.0874 -0.7925  1.3926
 5117SOL    HW226988   4.511   0.373   2.581 -1.3758  1.7968  1.0585
 5118SOL     OW26989   1.092   3.043   4.984  0.9233  0.0643 -0.0183
 5118SOL    HW126990   1.174   3.008   4.951  1.4860  0.0310  1.4269
 5118SOL    HW226991   1.043   3.063   4.904 -1.2242 -2.8445  0.5732
 5119SOL     OW26992   3.160   4.646   5.520  0.8878 -0.0818  0.4617
 5119SOL    HW126993   3.162   4.569   5.463 -1.2706 -0.1509  0.4921
 5119SOL    HW226994   3.073   4.678   5.496  0.2690 -0.2900  2.3513
 5120SOL     OW26995   0.147   2.590  14.027 -0.8002  0.0077 -0.0185
 5120SOL    HW126996   0.190   2.608  14.111 -0.9376  0.5984 -0.0786
 5120SOL    HW226997   0.056   2.584  14.057 -0.5362 -2.7040  0.2269
 5121SOL     OW26998   1.292   0.353  11.675 -0.1523  0.2895 -0.2817
 5121SOL    HW126999   1.376   0.348  11.722  0.8877 -0.2851 -2.2063
 5121SOL    HW227000   1.317   0.398  11.594  1.0653  1.8454  0.9533
 5122SOL     OW27001   0.923   1.688   9.058  0.1875  0.2641  0.2554
 5122SOL    HW127002   0.958   1.637   8.985  1.0398 -0.5509  1.2254
 5122SOL    HW227003   0.994   1.690   9.122  1.4917 -0.0453 -1.1675
 5123SOL     OW27004   0.193   2.524   0.681  0.1241 -0.1989 -0.2807
 5123SOL    HW127005   0.243   2.532   0.600  2.7392  0.8462  1.4168
 5123SOL    HW227006   0.188   2.429   0.690  1.4436 -0.2744 -0.2781
 5124SOL     OW27007   2.916   2.190   8.575 -0.2480 -0.5440 -0.6778
 5124SOL    HW127008   2.837   2.243   8.570 -1.1038 -1.6989  0.5657
 5124SOL    HW227009   2.901   2.135   8.652  1.9039  0.6681  0.6144
 5125SOL     OW27010   2.632   4.225   6.479  0.4184 -0.1095 -0.1543
 5125SOL    HW127011   2.663   4.153   6.535 -1.1527  0.0826  0.9583
 5125SOL    HW227012   2.705   4.253   6.424  0.4533  2.7760  1.3880
 5126SOL     OW27013   4.373   3.587  10.833  0.4833  0.1962  0.4410
 5126SOL    HW127014   4.393   3.651  10.901 -1.1873  1.2004 -0.0184
 5126SOL    HW227015   4.446   3.526  10.838  0.1364 -0.2102  0.6263
 5127SOL     OW27016   4.088   0.957   0.698 -0.3847 -0.0146  0.1444
 5127SOL    HW127017   4.128   0.958   0.784 -2.3534  1.0265  1.0720
 5127SOL    HW227018   4.145   0.895   0.652  0.0260  0.4453  0.0347
 5128SOL     OW27019   4.432   0.798   8.401  0.1433 -0.3641 -0.0739
 5128SOL    HW127020   4.392   0.825   8.318 -0.0296  0.8916  0.4237
 5128SOL    HW227021   4.468   0.878   8.438  0.9909 -1.3931  1.3342
 5129SOL     OW27022   1.582   3.946   3.765  0.2303 -0.0814  0.0404
 5129SOL    HW127023   1.516   3.950   3.835  0.2079 -1.2239  0.0906
 5129SOL    HW227024   1.537   3.878   3.715  0.6520 -1.2289  1.2254
 5130SOL     OW27025   1.293   4.399   7.887 -0.2050  0.1822  0.0028
 5130SOL    HW127026   1.262   4.335   7.822 -0.0894  0.1590 -0.0286
 5130SOL    HW227027   1.346   4.355   7.953  0.7620 -2.3347 -2.4350
 5131SOL     OW27028   1.052   0.279  17.615 -0.1096  0.0069 -0.6535
 5131SOL    HW127029   1.144   0.254  17.615  0.5772  2.5219  0.2201
 5131SOL    HW227030   1.067   0.353  17.556  1.5170 -0.0156 -0.2546
 5132SOL     OW27031   2.067   4.657   8.776  0.4072 -0.1988  0.1135
 5132SOL    HW127032   2.147   4.606   8.788 -1.0713 -1.7822  3.3278
 5132SOL    HW227033   2.061   4.679   8.869  1.1661  0.2635  0.0485
 5133SOL     OW27034   1.730   2.214   0.208 -0.0999  0.4794 -0.2076
 5133SOL    HW127035   1.752   2.291   0.155  0.1115  0.3191 -0.3538
 5133SOL    HW227036   1.806   2.159   0.189 -0.7161 -1.2849  2.4005
 5134SOL     OW27037   1.981   1.711   4.956  0.2849  0.4443  0.1200
 5134SOL    HW127038   2.029   1.629   4.968  0.7080  0.6166 -0.4040
 5134SOL    HW227039   1.923   1.671   4.890  0.1310  1.0070 -0.0849
 5135SOL     OW27040   0.351   1.749  11.161 -0.0804  0.2631  0.3121
 5135SOL    HW127041   0.397   1.819  11.115 -2.3404  1.2207 -0.5019
 5135SOL    HW227042   0.303   1.709  11.088 -0.2453 -1.3294  1.2959
 5136SOL     OW27043   2.777   3.432   4.167  0.2048 -0.0129 -0.1083
 5136SOL    HW127044   2.760   3.421   4.074 -0.0610  1.0436 -0.1822
 5136SOL    HW227045   2.870   3.410   4.168  0.5963  1.6591 -0.2725
 5137SOL     OW27046   3.335   3.055  11.720  0.0167  0.5415  0.0592
 5137SOL    HW127047   3.260   3.034  11.776 -0.2407  1.4112  0.0449
 5137SOL    HW227048   3.291   3.024  11.641  0.9025 -2.1971  0.6239
 5138SOL     OW27049   2.257   0.549   4.319 -0.1085  0.2546  0.1262
 5138SOL    HW127050   2.348   0.543   4.348 -0.4714 -2.6608  0.6544
 5138SOL    HW227051   2.226   0.471   4.363  0.9129 -0.3421 -0.1977
 5139SOL     OW27052   2.758   0.852   5.001 -0.1701  0.2225 -0.3186
 5139SOL    HW127053   2.761   0.920   5.067  2.1118 -0.8127  0.6576
 5139SOL    HW227054   2.844   0.811   5.010 -1.4773 -2.5505 -0.4024
 5140SOL     OW27055   0.434   0.697  17.457  0.5172 -0.6995 -0.4375
 5140SOL    HW127056   0.450   0.620  17.402  0.0916 -1.3037  0.2779
 5140SOL    HW227057   0.370   0.662  17.519 -0.3614  0.0917 -0.8903
 5141SOL     OW27058   3.205   3.299   3.399  0.2442  0.1999  0.2606
 5141SOL    HW127059   3.242   3.286   3.486  3.1749 -0.7248 -1.1213
 5141SOL    HW227060   3.263   3.365   3.361 -1.2554 -0.9967 -4.1577
 5142SOL     OW27061   1.158   4.246  11.171 -0.3979  0.2488  0.4411
 5142SOL    HW127062   1.118   4.259  11.085 -0.3982 -3.9848 -0.1986
 5142SOL    HW227063   1.132   4.326  11.216 -1.3172 -0.5003  1.2446
 5143SOL     OW27064   0.527   3.793  16.931 -0.3416 -0.3893 -0.0180
 5143SOL    HW127065   0.472   3.715  16.926  1.3684 -1.5870 -0.0346
 5143SOL    HW227066   0.534   3.813  16.838 -0.6878 -1.4631 -0.2694
 5144SOL     OW27067   0.556   4.203   5.202  0.4855  0.3578 -0.7699
 5144SOL    HW127068   0.624   4.260   5.164  0.4314  0.6169 -0.4728
 5144SOL    HW227069   0.592   4.178   5.287 -0.8928  2.2612  0.3545
 5145SOL     OW27070   1.099   0.524   3.387 -0.1719 -0.4724 -0.6377
 5145SOL    HW127071   1.059   0.576   3.456 -0.4189  1.2943 -2.1110
 5145SOL    HW227072   1.034   0.529   3.317 -0.0969  0.1577 -0.6584
 5146SOL     OW27073   3.277   3.467  17.560 -0.5628 -0.3473  0.1586
 5146SOL    HW127074   3.208   3.422  17.512  1.1491  0.7185 -3.2625
 5146SOL    HW227075   3.220   3.490  17.634  1.0097 -0.8999  1.5530
 5147SOL     OW27076   4.158   4.469   2.828 -0.4590 -0.6601  0.1250
 5147SOL    HW127077   4.175   4.461   2.735 -2.6532  0.5156 -0.3843
 5147SOL    HW227078   4.084   4.408   2.834 -0.2314 -0.6830  2.9551
 5148SOL     OW27079   2.290   0.448   3.600 -0.4120 -0.0682  0.3996
 5148SOL    HW127080   2.204   0.442   3.560 -0.6936  1.3322  0.8003
 5148SOL    HW227081   2.271   0.457   3.694  2.1537  1.1986  0.7895
 5149SOL     OW27082   1.128   4.294   2.910  0.6466  0.0685  0.0513
 5149SOL    HW127083   1.132   4.385   2.880 -0.3859  0.0204 -0.2464
 5149SOL    HW227084   1.093   4.299   2.999 -0.5712 -1.9630 -0.3012
 5150SOL     OW27085   4.044   4.192  13.125 -0.5954 -0.2329 -0.0429
 5150SOL    HW127086   4.100   4.246  13.182  0.3725 -1.0833 -0.1752
 5150SOL    HW227087   4.092   4.108  13.123 -3.2150 -1.7274  0.1933
 5151SOL     OW27088   0.511   0.053   8.740  0.4715  0.2761 -0.2866
 5151SOL    HW127089   0.465   4.710   8.719  2.3471 -0.0108 -3.2818
 5151SOL    HW227090   0.594   0.023   8.778 -0.9503  0.5804  3.0869
 5152SOL     OW27091   1.591   2.728   8.245 -0.1017  0.1514 -0.1457
 5152SOL    HW127092   1.514   2.711   8.191 -0.9095  0.6182  0.8629
 5152SOL    HW227093   1.643   2.786   8.188 -1.6880 -0.1995 -1.9341
 5153SOL     OW27094   1.473   0.348  10.588 -0.0343  0.1298  0.2953
 5153SOL    HW127095   1.537   0.404  10.545 -1.5119  2.7479  1.5348
 5153SOL    HW227096   1.427   0.304  10.516 -1.3898 -0.3469  1.4497
 5154SOL     OW27097   2.438   4.658   6.184  0.4460 -0.1859  0.1390
 5154SOL    HW127098   2.504   4.610   6.234 -0.1909  0.3298  1.4847
 5154SOL    HW227099   2.360   4.604   6.190  0.3878 -0.3459 -2.3981
 5155SOL     OW27100   1.801   3.643  11.874  0.0277  0.1922 -0.6770
 5155SOL    HW127101   1.791   3.687  11.958 -1.0273 -0.0836 -0.6530
 5155SOL    HW227102   1.710   3.626  11.850  0.5980  0.2862 -2.8824
 5156SOL     OW27103   0.905   4.719  16.516  0.4190 -0.4519  0.0017
 5156SOL    HW127104   0.848   4.652  16.481  0.4123  0.5927 -1.9960
 5156SOL    HW227105   0.983   4.710  16.462 -0.8044  1.4834 -2.0502
 5157SOL     OW27106   2.730   0.958   5.773  0.1722  0.0435  0.1566
 5157SOL    HW127107   2.718   0.950   5.868 -0.6814 -1.1008 -0.0492
 5157SOL    HW227108   2.718   0.871   5.736 -1.2151  0.0686  0.5418
 5158SOL     OW27109   1.876   3.065  13.185  0.1495  0.2460  0.1465
 5158SOL    HW127110   1.806   3.055  13.249  0.7692 -0.2175  0.7574
 5158SOL    HW227111   1.819   3.044  13.111 -0.8926  2.4475  0.3138
 5159SOL     OW27112   3.932   4.126  15.395  0.2634  0.5594  0.1465
 5159SOL    HW127113   3.874   4.184  15.443 -0.1023 -1.0619  1.6692
 5159SOL    HW227114   4.007   4.134  15.454  1.2078 -1.4267 -0.7681
 5160SOL     OW27115   4.316   4.570  16.333 -0.4824 -0.0032 -0.1034
 5160SOL    HW127116   4.370   4.550  16.257  0.1412  1.8613 -0.1429
 5160SOL    HW227117   4.234   4.581  16.284 -1.0818 -0.1544  0.8489
 5161SOL     OW27118   0.211   1.252   7.625  0.4300 -0.0076  0.4551
 5161SOL    HW127119   0.258   1.252   7.708  1.0632 -1.5839  0.1110
 5161SOL    HW227120   0.156   1.174   7.628  0.3118 -0.0147 -1.8189
 5162SOL     OW27121   1.781   1.339   7.214  0.3917 -0.2454 -0.4781
 5162SOL    HW127122   1.816   1.344   7.125 -0.2312 -1.7964 -0.8014
 5162SOL    HW227123   1.856   1.294   7.253  0.2398 -0.1405 -0.0714
 5163SOL     OW27124   2.366   4.055   5.734  0.1629 -0.3956 -0.4839
 5163SOL    HW127125   2.397   4.123   5.676 -3.0767  1.4701 -0.0136
 5163SOL    HW227126   2.276   4.066   5.704 -0.5822 -3.4329  0.5632
 5164SOL     OW27127   4.011   3.981  13.362 -0.2048  0.4231 -0.0199
 5164SOL    HW127128   3.979   3.991  13.452 -0.7112  0.0891 -0.1695
 5164SOL    HW227129   3.932   3.989  13.309 -0.5053 -0.2204  0.3332
 5165SOL     OW27130   0.406   2.705   2.887  0.4731 -0.1507  0.3327
 5165SOL    HW127131   0.407   2.801   2.888 -2.4542 -0.1204  0.3409
 5165SOL    HW227132   0.319   2.703   2.846  0.8506  0.5388 -0.5034
 5166SOL     OW27133   4.213   1.555   4.349  0.3945  0.0347 -0.3766
 5166SOL    HW127134   4.293   1.560   4.297 -0.0135  0.5696 -0.9496
 5166SOL    HW227135   4.241   1.559   4.441 -1.0123  1.0150  0.0101
 5167SOL     OW27136   2.985   1.429   3.826  0.7970 -0.4114 -0.1825
 5167SOL    HW127137   2.890   1.440   3.832  0.8641 -0.5740  1.2947
 5167SOL    HW227138   2.998   1.403   3.917  1.6949  1.4846  0.2378
 5168SOL     OW27139   4.485   4.135   3.727  0.3295 -0.3161 -0.2373
 5168SOL    HW127140   4.477   4.126   3.632  1.7764  1.5946 -0.5224
 5168SOL    HW227141   4.574   4.117   3.757  0.4773 -0.1947 -0.6107
 5169SOL     OW27142   1.400   1.482   6.005 -0.1644 -0.5664 -0.1851
 5169SOL    HW127143   1.473   1.544   5.998 -1.3359  0.8446  0.0736
 5169SOL    HW227144   1.428   1.402   6.049 -1.6536 -0.1421  1.5149
 5170SOL     OW27145   1.099   3.649  14.330 -0.0702  0.2455  0.2729
 5170SOL    HW127146   1.023   3.660  14.273 -0.2640 -1.8515  0.1188
 5170SOL    HW227147   1.074   3.702  14.406 -0.2829 -0.3878  0.6454
 5171SOL     OW27148   4.023   3.939   4.533 -0.5170 -0.3239  0.0755
 5171SOL    HW127149   3.934   3.905   4.524 -0.2681 -0.7415 -0.7757
 5171SOL    HW227150   4.056   3.890   4.608  1.4283  0.7855 -0.0487
 5172SOL     OW27151   2.620   1.202   2.239 -0.0322 -0.1529  0.5499
 5172SOL    HW127152   2.631   1.259   2.316 -1.8148  0.8537  0.0628
 5172SOL    HW227153   2.534   1.167   2.261 -1.3598  1.6422 -1.6669
 5173SOL     OW27154   3.582   3.194   9.597 -0.3409 -0.2375  0.9242
 5173SOL    HW127155   3.646   3.132   9.631  2.4473  1.6629 -0.8955
 5173SOL    HW227156   3.613   3.202   9.507 -0.7020  1.2584  0.9241
 5174SOL     OW27157   2.787   3.882   4.787  0.2352  0.4362 -0.1567
 5174SOL    HW127158   2.857   3.828   4.825  2.2592  4.1336  1.3417
 5174SOL    HW227159   2.800   3.857   4.696  0.7945 -0.2470  0.1086
 5175SOL     OW27160   3.404   1.640   4.448 -0.0123 -0.3478 -0.4384
 5175SOL    HW127161   3.406   1.654   4.543  1.0813 -0.0265 -0.5065
 5175SOL    HW227162   3.330   1.580   4.447 -0.2779  0.0235 -2.5933
 5176SOL     OW27163   3.228   0.468   7.782 -0.0804 -0.0402 -0.0119
 5176SOL    HW127164   3.239   0.497   7.872  2.1136 -1.5964  0.2339
 5176SOL    HW227165   3.141   0.505   7.766  0.5611  1.5440  0.0716
 5177SOL     OW27166   3.382   1.903   4.397 -0.2659 -0.2642  0.3886
 5177SOL    HW127167   3.290   1.919   4.418 -0.5309  0.2364 -1.1682
 5177SOL    HW227168   3.385   1.808   4.410 -2.0671 -0.3560  0.2136
 5178SOL     OW27169   1.820   0.494   8.357 -0.1310 -0.6571  0.1348
 5178SOL    HW127170   1.807   0.414   8.306  0.9479 -1.6171  1.3751
 5178SOL    HW227171   1.746   0.502   8.417 -1.1574 -4.4724 -0.6266
 5179SOL     OW27172   2.070   3.218   7.291  0.0932  0.0744  0.5241
 5179SOL    HW127173   2.122   3.217   7.371  1.3596 -1.2795 -0.3256
 5179SOL    HW227174   2.112   3.143   7.250 -2.1045 -1.1588  0.5345
 5180SOL     OW27175   1.558   1.805   6.583 -0.0792  0.4996  0.2394
 5180SOL    HW127176   1.502   1.728   6.572  0.6500  0.0876 -0.5005
 5180SOL    HW227177   1.569   1.816   6.489 -1.0703 -3.4480 -0.3650
 5181SOL     OW27178   1.472   0.674   5.656  0.4795  0.2011 -0.1942
 5181SOL    HW127179   1.486   0.764   5.683 -0.5348 -0.2255  1.7545
 5181SOL    HW227180   1.401   0.652   5.716  0.0202 -0.8804 -1.1471
 5182SOL     OW27181   0.835   2.555   4.419  0.1551 -0.0426 -0.4407
 5182SOL    HW127182   0.912   2.543   4.474  1.4803  1.0654 -2.0744
 5182SOL    HW227183   0.775   2.607   4.473  2.4449 -0.0544  2.1430
 5183SOL     OW27184   1.555   2.122  12.687  0.5286 -0.3729 -0.7384
 5183SOL    HW127185   1.608   2.043  12.701 -0.4417 -0.4153  2.7837
 5183SOL    HW227186   1.562   2.164  12.773  1.2753 -0.7809 -0.5959
 5184SOL     OW27187   0.857   0.591   9.535 -0.3185  1.0243  0.1584
 5184SOL    HW127188   0.793   0.523   9.514  0.4620  0.5354 -0.6585
 5184SOL    HW227189   0.868   0.642   9.455 -0.4277 -3.0494 -2.4421
 5185SOL     OW27190   3.899   0.427   3.576  0.8182 -0.3166  0.3553
 5185SOL    HW127191   3.981   0.452   3.618  0.2387  0.9790  0.7044
 5185SOL    HW227192   3.844   0.501   3.601 -0.7118 -1.1938 -0.4159
 5186SOL     OW27193   3.562   4.601   7.380  0.4907 -0.2134 -0.0541
 5186SOL    HW127194   3.507   4.657   7.325  0.4464 -0.2116 -0.0080
 5186SOL    HW227195   3.634   4.663   7.381  0.1182  0.1965  2.3801
 5187SOL     OW27196   2.406   2.716   8.824  0.2500  0.1763 -0.4755
 5187SOL    HW127197   2.355   2.658   8.882 -0.2011 -0.7768 -1.8413
 5187SOL    HW227198   2.490   2.672   8.812 -0.5788 -1.5653  0.0880
 5188SOL     OW27199   3.161   1.955  13.606 -0.4659  0.7917  0.3911
 5188SOL    HW127200   3.158   2.051  13.599 -0.1241  0.8105  0.5065
 5188SOL    HW227201   3.077   1.923  13.572  0.0867 -0.3362  0.0755
 5189SOL     OW27202   0.695   2.200   5.709  0.2900 -0.2228  0.0395
 5189SOL    HW127203   0.700   2.116   5.755 -0.6667  0.2987  1.1132
 5189SOL    HW227204   0.695   2.267   5.778  2.9241 -1.6585  1.4144
 5190SOL     OW27205   3.713   3.308   9.374  0.1713 -0.1526 -0.0108
 5190SOL    HW127206   3.672   3.320   9.288  0.2575 -1.6970 -0.2659
 5190SOL    HW227207   3.674   3.369   9.437 -2.2670 -2.5482  0.7992
 5191SOL     OW27208   4.540   2.928   2.886  0.2719 -0.0876 -0.0797
 5191SOL    HW127209   4.465   2.870   2.897  0.8311 -0.8833 -0.4348
 5191SOL    HW227210   4.580   2.890   2.808  0.2639  0.4929 -0.3637
 5192SOL     OW27211   4.119   1.765   7.669 -0.0212 -0.4549 -0.1193
 5192SOL    HW127212   4.194   1.733   7.719  1.4256 -1.2176 -2.7830
 5192SOL    HW227213   4.049   1.711   7.706  0.1783  1.0561  2.4269
 5193SOL     OW27214   0.536   3.275   9.327  0.3713 -0.2470 -0.1242
 5193SOL    HW127215   0.630   3.287   9.315  0.7054 -1.6702  1.1312
 5193SOL    HW227216   0.528   3.319   9.411 -2.8375 -0.5458 -0.2551
 5194SOL     OW27217   1.040   2.108   1.427  0.2851  0.1607 -0.1594
 5194SOL    HW127218   1.017   2.200   1.443 -1.9578 -0.1748 -1.5729
 5194SOL    HW227219   1.032   2.103   1.332  0.1102 -0.7153 -0.1014
 5195SOL     OW27220   1.280   4.306   8.447  0.1970 -0.0117 -0.4758
 5195SOL    HW127221   1.327   4.390   8.448 -0.3201  0.2506  1.2001
 5195SOL    HW227222   1.233   4.318   8.530  0.6487  0.7162 -0.3203
 5196SOL     OW27223   1.575   2.167   7.736  0.1976  0.1293 -0.4669
 5196SOL    HW127224   1.555   2.081   7.775 -1.0658  0.7029  0.1609
 5196SOL    HW227225   1.668   2.182   7.752  0.3165 -0.3770 -0.6852
 5197SOL     OW27226   4.164   2.739   0.099  0.4841  0.1960  0.0271
 5197SOL    HW127227   4.171   2.646   0.078 -0.9649 -0.7352  3.6700
 5197SOL    HW227228   4.148   2.732   0.193 -0.2009  1.2292 -0.0096
 5198SOL     OW27229   3.120   1.679   3.544 -0.1368  0.7633  0.0280
 5198SOL    HW127230   3.030   1.645   3.548 -0.4932  1.6492 -0.3987
 5198SOL    HW227231   3.117   1.766   3.584  0.3257  1.5537 -1.6663
 5199SOL     OW27232   1.305   1.689   1.654 -0.0233 -0.4855  0.5021
 5199SOL    HW127233   1.373   1.731   1.707  0.3004 -2.0178  1.3122
 5199SOL    HW227234   1.237   1.755   1.668 -0.5732 -1.2860  1.5823
 5200SOL     OW27235   4.084   2.249   4.755 -0.1154 -0.0066 -0.7356
 5200SOL    HW127236   4.044   2.242   4.842  0.4327  0.9387 -0.4085
 5200SOL    HW227237   4.121   2.161   4.763  1.5546  0.6022 -1.8791
 5201SOL     OW27238   4.611   4.611   4.133  0.3247 -0.1110  0.3128
 5201SOL    HW127239   4.577   4.688   4.089 -0.2011 -1.0136 -0.8690
 5201SOL    HW227240   4.680   4.595   4.069  0.0051  1.2484 -0.3688
 5202SOL     OW27241   0.051   3.598   7.735 -0.2418 -0.2656  0.0157
 5202SOL    HW127242   0.044   3.624   7.827 -1.3857  1.1041 -0.4664
 5202SOL    HW227243   4.697   3.596   7.711 -0.4965  0.8385  0.9278
 5203SOL     OW27244   1.168   3.873   8.679 -0.1510  0.1312  0.0959
 5203SOL    HW127245   1.201   3.943   8.735 -0.3922 -1.0280  1.6918
 5203SOL    HW227246   1.199   3.918   8.600  1.0964  0.2875  0.6707
 5204SOL     OW27247   3.043   3.862   0.915  0.0499  0.6520  0.3503
 5204SOL    HW127248   3.113   3.904   0.966 -0.1313  1.3797  0.0013
 5204SOL    HW227249   3.004   3.933   0.863 -2.1271 -2.2952 -1.9916
 5205SOL     OW27250   4.483   1.975   8.995 -0.1445  0.2013 -0.7904
 5205SOL    HW127251   4.542   1.908   8.962  0.9589  0.1764  1.2057
 5205SOL    HW227252   4.406   1.949   8.945 -0.8392 -1.1844  0.9722
 5206SOL     OW27253   1.237   3.082   6.418 -0.2247  0.3253  0.6045
 5206SOL    HW127254   1.257   3.154   6.358 -0.4999 -0.8901 -0.9300
 5206SOL    HW227255   1.231   3.128   6.502 -0.6633 -0.5630  1.0462
 5207SOL     OW27256   4.390   0.523   4.665 -0.7970 -0.4472  0.4216
 5207SOL    HW127257   4.301   0.503   4.637 -1.6748  1.7197  1.6992
 5207SOL    HW227258   4.374   0.616   4.649 -3.8034 -1.0586 -0.1756
 5208SOL     OW27259   2.829   0.918  15.205 -0.0143 -0.0328  0.2799
 5208SOL    HW127260   2.754   0.898  15.149 -1.1166 -0.8968  2.0775
 5208SOL    HW227261   2.883   0.962  15.139  0.7594 -1.4144 -0.0087
 5209SOL     OW27262   3.367   2.598   8.349 -0.5228 -0.5051  0.4131
 5209SOL    HW127263   3.360   2.513   8.305  1.2042  0.0712 -0.9753
 5209SOL    HW227264   3.442   2.578   8.406 -0.6892  0.0911  0.8403
 5210SOL     OW27265   3.259   1.748   5.926 -0.1360  0.1585  0.0484
 5210SOL    HW127266   3.273   1.679   5.991 -0.2274  0.6054  0.5406
 5210SOL    HW227267   3.282   1.826   5.977  0.2114  0.8864 -1.2158
 5211SOL     OW27268   1.396   4.376  10.670  0.3027  0.0279 -0.2078
 5211SOL    HW127269   1.379   4.383  10.764  0.4884  0.0528 -0.1763
 5211SOL    HW227270   1.390   4.470  10.650  2.4848  0.2173  0.0448
 5212SOL     OW27271   0.353   3.248  16.267 -0.3121 -0.9139  0.1953
 5212SOL    HW127272   0.332   3.322  16.324 -1.2667 -1.9146  1.1507
 5212SOL    HW227273   0.300   3.264  16.189 -3.1784 -3.3973  1.6316
 5213SOL     OW27274   4.654   0.290  17.360  0.2825 -0.0809  0.1612
 5213SOL    HW127275   4.692   0.308  17.274 -0.0990 -0.8004 -0.1626
 5213SOL    HW227276   4.569   0.259  17.327 -0.5898  5.0018 -2.3461
 5214SOL     OW27277   0.176   1.817   4.391 -0.0374 -0.1297 -0.2499
 5214SOL    HW127278   0.264   1.791   4.417  0.2196  0.7827 -0.2230
 5214SOL    HW227279   0.170   1.831   4.297 -2.8218 -0.5727 -0.1533
 5215SOL     OW27280   3.784   0.351   9.222 -0.0610  0.0295  0.7566
 5215SOL    HW127281   3.825   0.365   9.137 -0.2606  0.6944  0.7689
 5215SOL    HW227282   3.794   0.256   9.222  0.9550  0.1442 -1.0827
 5216SOL     OW27283   4.177   0.309   1.921  0.1190  0.4492  0.2848
 5216SOL    HW127284   4.106   0.354   1.876  2.0409  1.6888 -1.4623
 5216SOL    HW227285   4.162   0.224   1.881  3.1511  0.3642 -0.6354
 5217SOL     OW27286   3.796   3.804   4.683 -0.3365  0.3989  0.2735
 5217SOL    HW127287   3.756   3.769   4.763 -1.3261  3.3798  1.0747
 5217SOL    HW227288   3.839   3.729   4.643  1.3762  2.1196 -1.0978
 5218SOL     OW27289   3.713   0.130  13.904  0.9542 -0.1671  0.4650
 5218SOL    HW127290   3.787   0.094  13.953  1.2410  0.9406  0.8602
 5218SOL    HW227291   3.716   0.225  13.919  1.0428  0.3515 -2.9316
 5219SOL     OW27292   3.801   1.840   9.665 -0.4306  0.4755 -0.0108
 5219SOL    HW127293   3.888   1.875   9.683  1.1477 -3.0190 -0.8475
 5219SOL    HW227294   3.758   1.881   9.740 -0.1603  2.3618 -0.8930
 5220SOL     OW27295   3.261   3.766   4.756 -0.2528  0.5011 -0.4919
 5220SOL    HW127296   3.188   3.704   4.749  0.5872 -0.5219 -0.2160
 5220SOL    HW227297   3.280   3.755   4.849 -0.3272 -2.6159 -0.8534
 5221SOL     OW27298   2.815   2.192  13.575 -0.9395  0.1672 -0.8056
 5221SOL    HW127299   2.865   2.248  13.515 -0.9711  1.0963  0.0220
 5221SOL    HW227300   2.837   2.102  13.555 -0.4466  0.1412 -0.1464
 5222SOL     OW27301   2.498   0.458   1.529 -0.0126  0.3355 -0.3125
 5222SOL    HW127302   2.516   0.531   1.588  0.5160  0.1480 -0.2415
 5222SOL    HW227303   2.521   0.502   1.447  4.1732 -1.7906 -0.2679
 5223SOL     OW27304   2.995   2.715   5.638  0.3338 -0.0108 -0.5907
 5223SOL    HW127305   2.952   2.631   5.651 -0.4492  0.0421 -2.8168
 5223SOL    HW227306   3.008   2.720   5.543 -1.8138 -2.2036 -0.9903
 5224SOL     OW27307   0.801   3.197   4.489  0.1110  0.4296 -0.1819
 5224SOL    HW127308   0.839   3.110   4.499 -0.7924 -0.0301 -0.7584
 5224SOL    HW227309   0.870   3.260   4.469  0.7466 -0.4021 -0.6061
 5225SOL     OW27310   1.724   0.097   8.131  0.0763 -0.1517 -0.3996
 5225SOL    HW127311   1.686   0.182   8.150  0.7569  0.2008 -0.5980
 5225SOL    HW227312   1.648   0.039   8.140  0.5130 -0.8747 -1.2735
 5226SOL     OW27313   4.321   1.539   3.982  0.4645 -0.1825  0.1907
 5226SOL    HW127314   4.384   1.544   4.053  2.2704 -0.5864 -1.3897
 5226SOL    HW227315   4.318   1.443   3.983  2.3018 -0.2172  1.4789
 5227SOL     OW27316   1.866   4.211  10.267  0.0973  0.3372 -0.7562
 5227SOL    HW127317   1.956   4.199  10.237 -0.0290 -1.3228 -0.4400
 5227SOL    HW227318   1.855   4.299  10.232 -1.4986  1.1038  1.7119
 5228SOL     OW27319   2.328   3.493   7.385  0.0851 -0.0484  0.4800
 5228SOL    HW127320   2.258   3.470   7.446 -0.6203  0.2343 -0.2269
 5228SOL    HW227321   2.276   3.551   7.329  1.1776  1.8562  1.4352
 5229SOL     OW27322   0.698   4.528   8.548 -0.2005  0.6912  0.3106
 5229SOL    HW127323   0.620   4.533   8.493 -0.4533  3.2041  0.9051
 5229SOL    HW227324   0.647   4.492   8.621  0.1466  1.7020  1.0461
 5230SOL     OW27325   4.350   1.039   1.262 -0.7028 -0.1574 -0.3449
 5230SOL    HW127326   4.373   1.048   1.355  1.1369  0.5346 -0.8683
 5230SOL    HW227327   4.389   0.953   1.252  0.8203  0.2932  1.6936
 5231SOL     OW27328   3.450   0.364   6.421 -0.4068  0.2585  0.1544
 5231SOL    HW127329   3.538   0.345   6.454 -0.3026 -2.5402 -1.6955
 5231SOL    HW227330   3.410   0.387   6.504 -1.6983  0.6145 -0.5748
 5232SOL     OW27331   2.337   2.858   6.075 -0.0172 -0.4113  0.0973
 5232SOL    HW127332   2.332   2.841   5.981  0.0769 -1.5761  0.3098
 5232SOL    HW227333   2.432   2.857   6.089 -0.0185  0.7554  0.2218
 5233SOL     OW27334   1.021   2.610   0.408 -0.4501  0.1528 -0.2834
 5233SOL    HW127335   1.062   2.670   0.471 -0.4372  0.1986 -0.3354
 5233SOL    HW227336   0.930   2.618   0.435 -0.3495 -0.5295  0.2613
 5234SOL     OW27337   4.006   0.593   3.271  0.5142 -0.1540  0.1140
 5234SOL    HW127338   3.977   0.502   3.268 -1.3408  0.4955 -2.1627
 5234SOL    HW227339   3.929   0.642   3.242  1.5279  1.4283  0.1029
 5235SOL     OW27340   3.830   4.575   9.446 -0.2648  0.0206  0.3077
 5235SOL    HW127341   3.746   4.608   9.479  0.5442  2.8238 -0.4263
 5235SOL    HW227342   3.892   4.648   9.446  0.3088 -0.4780  3.1747
 5236SOL     OW27343   4.454   2.884   5.010  0.4193 -0.1591  0.1185
 5236SOL    HW127344   4.476   2.961   4.958  1.2256 -0.1340  0.5017
 5236SOL    HW227345   4.451   2.919   5.098  1.2821 -1.0647  0.5195
 5237SOL     OW27346   1.069   4.018   4.258 -0.1564  0.6197  0.7211
 5237SOL    HW127347   1.109   4.059   4.182  0.6955  1.3477  1.5545
 5237SOL    HW227348   1.143   4.025   4.319  1.2101 -0.8707 -0.7603
 5238SOL     OW27349   3.533   2.134  14.296  0.2435 -0.5832 -0.1983
 5238SOL    HW127350   3.483   2.106  14.372  1.2667  1.2041  1.1380
 5238SOL    HW227351   3.460   2.178  14.252  0.4587  0.4994  0.5262
 5239SOL     OW27352   4.199   4.028   9.996  0.0262 -0.9973  0.1003
 5239SOL    HW127353   4.122   4.060  10.044  0.8583 -0.5538  1.1634
 5239SOL    HW227354   4.242   4.100   9.949  1.5319 -2.3247 -0.5447
 5240SOL     OW27355   1.736   0.895   6.558  0.1991 -0.2613  0.1822
 5240SOL    HW127356   1.822   0.935   6.546 -0.8696  2.1797  0.8544
 5240SOL    HW227357   1.691   0.911   6.475  1.1496  0.4317 -0.1960
 5241SOL     OW27358   3.352   1.991   7.638  0.3720  0.0111 -0.6050
 5241SOL    HW127359   3.427   1.933   7.622 -0.7681 -2.3115  2.7215
 5241SOL    HW227360   3.308   1.989   7.553  0.3595 -2.1147 -0.5397
 5242SOL     OW27361   2.168   0.796  15.161  0.5334  0.2232 -0.4388
 5242SOL    HW127362   2.189   0.787  15.254 -2.6790 -0.4686  0.1911
 5242SOL    HW227363   2.074   0.783  15.153  0.4133 -0.7538  2.5908
 5243SOL     OW27364   0.718   0.816   7.941  0.7601  0.1006 -0.0338
 5243SOL    HW127365   0.785   0.830   8.009 -1.1816  2.1852  1.4323
 5243SOL    HW227366   0.655   0.769   7.996 -0.0068 -1.5810 -2.3709
 5244SOL     OW27367   0.818   4.562   1.451  0.5206 -0.7850  0.6046
 5244SOL    HW127368   0.735   4.516   1.465 -1.2518  1.8746 -1.0069
 5244SOL    HW227369   0.827   4.608   1.535  2.0468 -1.0276  0.5622
 5245SOL     OW27370   3.726   2.598   6.487  0.2481  0.3659  0.0789
 5245SOL    HW127371   3.655   2.648   6.527  0.8057  0.8538  0.4601
 5245SOL    HW227372   3.729   2.617   6.393 -0.5236 -0.4612 -0.1125
 5246SOL     OW27373   4.504   0.665   0.452 -0.5062 -0.3159  0.1759
 5246SOL    HW127374   4.559   0.591   0.425 -2.1520 -1.5171  0.1427
 5246SOL    HW227375   4.506   0.714   0.370  0.3999 -0.5437  0.0612
 5247SOL     OW27376   0.346   2.231   5.322  0.7567 -0.4016  0.1684
 5247SOL    HW127377   0.388   2.212   5.406  0.3041 -0.5952  0.3529
 5247SOL    HW227378   0.378   2.162   5.264 -0.6098 -0.3678 -0.6226
 5248SOL     OW27379   0.629   4.671   6.289  0.2667  0.0836  0.1357
 5248SOL    HW127380   0.559   4.626   6.337 -1.2042  1.0879 -1.0811
 5248SOL    HW227381   0.593   0.022   6.290  1.2626  0.4791  1.3804
 5249SOL     OW27382   3.282   1.318  16.818 -0.0253 -0.0044 -0.1930
 5249SOL    HW127383   3.210   1.263  16.788 -0.9603  1.0924  0.0679
 5249SOL    HW227384   3.242   1.319  16.905  0.0667  0.8932 -0.1584
 5250SOL     OW27385   2.584   4.507   1.887 -0.0820  0.8607 -0.3396
 5250SOL    HW127386   2.636   4.525   1.965  0.4337 -0.4336 -0.3766
 5250SOL    HW227387   2.588   4.413   1.871 -1.3787  0.3684  2.1933
 5251SOL     OW27388   4.260   0.305   7.245  0.4027  0.0333  0.1368
 5251SOL    HW127389   4.171   0.338   7.234  0.2425 -0.2288  0.6760
 5251SOL    HW227390   4.264   0.216   7.210 -0.6268 -0.1055  0.3821
 5252SOL     OW27391   0.126   3.960  11.410  0.1333 -0.0290  0.0917
 5252SOL    HW127392   0.210   3.979  11.368  0.9785 -0.7393  1.4703
 5252SOL    HW227393   0.150   3.899  11.480 -0.1133 -0.8653 -0.5468
 5253SOL     OW27394   0.072   3.783  13.888  0.0911 -0.1104  0.3541
 5253SOL    HW127395   0.021   3.821  13.959 -2.0057  0.9870 -1.7556
 5253SOL    HW227396   0.014   3.803  13.814  1.3038  0.4184 -0.4652
 5254SOL     OW27397   4.248   4.587   8.935 -0.2545  0.4407  0.1485
 5254SOL    HW127398   4.260   4.493   8.950 -0.4111 -0.3419 -4.3453
 5254SOL    HW227399   4.329   4.613   8.892 -0.5580 -0.1411 -0.7883
 5255SOL     OW27400   1.207   4.480  10.881 -0.9638  0.1467  0.5642
 5255SOL    HW127401   1.171   4.546  10.941  0.3430 -0.7705  2.3627
 5255SOL    HW227402   1.171   4.511  10.798 -3.1499  2.5713  2.4298
 5256SOL     OW27403   0.237   0.157  10.399 -0.2117 -0.1259 -0.1606
 5256SOL    HW127404   0.326   0.134  10.424  0.1097  1.2675 -0.0508
 5256SOL    HW227405   0.236   0.250  10.419  0.2812 -0.5954  2.0641
 5257SOL     OW27406   0.746   2.716  16.770  0.7438  0.0769  0.1168
 5257SOL    HW127407   0.786   2.798  16.741  1.7784 -0.6720 -0.5476
 5257SOL    HW227408   0.828   2.673  16.793  1.2526  0.3676 -1.1585
 5258SOL     OW27409   2.335   2.895   2.275  0.1413 -0.9014  0.0576
 5258SOL    HW127410   2.297   2.971   2.319 -0.1615 -1.2741  0.4341
 5258SOL    HW227411   2.386   2.940   2.207 -0.0503 -1.2139 -0.2946
 5259SOL     OW27412   4.403   1.062   0.621  0.2880 -0.9758  0.0381
 5259SOL    HW127413   4.349   1.078   0.544  1.9525  1.9762 -0.5147
 5259SOL    HW227414   4.393   0.967   0.625 -2.2889 -0.7674 -1.0536
 5260SOL     OW27415   3.596   4.357   0.114 -0.5243  0.5302 -0.1132
 5260SOL    HW127416   3.603   4.448   0.087  0.1639  1.2095  2.3928
 5260SOL    HW227417   3.596   4.368   0.209 -2.7468  0.3223 -0.0909
 5261SOL     OW27418   0.117   3.919   4.931  0.1980  0.4806  0.2663
 5261SOL    HW127419   0.092   3.960   5.014 -0.5729  1.3535 -0.3981
 5261SOL    HW227420   0.072   3.972   4.865 -0.1255  0.7525  0.7043
 5262SOL     OW27421   0.537   2.097   4.005 -0.4817 -0.3382 -0.4625
 5262SOL    HW127422   0.488   2.074   3.926 -1.5021  0.2191  0.0153
 5262SOL    HW227423   0.494   2.182   4.016  0.4520  0.4056 -2.6502
 5263SOL     OW27424   4.631   1.161  17.164 -0.1750 -0.1247 -0.3979
 5263SOL    HW127425   4.555   1.206  17.127 -0.5294 -1.5659 -1.4334
 5263SOL    HW227426   4.633   1.193  17.255  1.9661  2.2422 -1.2680
 5264SOL     OW27427   1.526   1.982   8.079 -0.6902 -1.2186  0.1169
 5264SOL    HW127428   1.487   1.978   8.167 -2.1988 -0.6550 -0.5209
 5264SOL    HW227429   1.619   2.000   8.086 -1.0750  0.6776  0.3667
 5265SOL     OW27430   0.013   2.935   6.017  0.2212  0.3648  0.0675
 5265SOL    HW127431   4.720   3.014   6.060  0.6721  0.4891  0.1720
 5265SOL    HW227432   0.097   2.928   6.062 -0.2248  1.1313  1.0105
 5266SOL     OW27433   4.703   0.924   3.531 -0.2772  0.0397  0.4105
 5266SOL    HW127434   4.621   0.901   3.575 -0.9223 -1.5985 -1.6366
 5266SOL    HW227435   4.667   0.953   3.447 -0.2304  0.4577  0.5368
 5267SOL     OW27436   3.109   0.346  12.662 -0.3432  0.1144  0.0566
 5267SOL    HW127437   3.085   0.438  12.650  0.0866  0.6506  3.1258
 5267SOL    HW227438   3.188   0.352  12.715 -0.4954 -1.3473  0.4587
 5268SOL     OW27439   4.328   2.858   6.505  0.0105  0.2554  0.2294
 5268SOL    HW127440   4.271   2.830   6.433  1.2446  0.1541 -0.7319
 5268SOL    HW227441   4.308   2.948   6.528 -3.0240 -0.4767  0.4228
 5269SOL     OW27442   1.424   4.237   3.716  0.3403 -0.4756 -0.2951
 5269SOL    HW127443   1.345   4.243   3.662  0.3080  1.7078  0.0064
 5269SOL    HW227444   1.486   4.230   3.644 -2.2019 -0.7429 -2.4519
 5270SOL     OW27445   1.183   1.240   7.594  0.0442  0.0605  0.0003
 5270SOL    HW127446   1.253   1.228   7.530  1.9361 -1.2499  2.3037
 5270SOL    HW227447   1.232   1.299   7.651 -0.3047 -0.2154  0.5904
 5271SOL     OW27448   3.383   4.407   8.606  0.0127 -0.6531 -0.4323
 5271SOL    HW127449   3.461   4.363   8.640 -1.5369 -2.1942  1.2076
 5271SOL    HW227450   3.400   4.500   8.617 -0.4611 -0.5935 -0.2158
 5272SOL     OW27451   1.042   1.992   0.822  0.3103  0.4945 -0.2013
 5272SOL    HW127452   1.024   2.033   0.738  2.8179  0.2598 -0.8572
 5272SOL    HW227453   0.996   2.061   0.869 -1.1653  0.8095 -2.0917
 5273SOL     OW27454   1.294   3.776   3.659  0.6019  0.2571 -0.4037
 5273SOL    HW127455   1.229   3.716   3.695  1.3138  0.1142  0.6544
 5273SOL    HW227456   1.319   3.821   3.740  1.8962 -0.1258 -0.5980
 5274SOL     OW27457   3.543   1.009   7.826  0.2695 -0.6045  0.6381
 5274SOL    HW127458   3.511   1.088   7.871 -1.8942 -0.4052 -1.2315
 5274SOL    HW227459   3.520   1.025   7.735 -1.3498 -0.1292  1.1198
 5275SOL     OW27460   1.218   3.573   7.967  0.2973 -0.3949 -0.1204
 5275SOL    HW127461   1.303   3.555   7.928 -1.4912  0.7024 -4.4632
 5275SOL    HW227462   1.158   3.515   7.920 -0.2564 -0.4095  0.6010
 5276SOL     OW27463   3.701   4.519   1.864  0.4366 -0.3838 -0.1860
 5276SOL    HW127464   3.728   4.434   1.899  2.1864  0.1016 -0.3581
 5276SOL    HW227465   3.606   4.515   1.871  0.0482  3.5713 -3.3346
 5277SOL     OW27466   4.047   4.243   4.329 -0.0059 -0.1224 -0.0608
 5277SOL    HW127467   4.122   4.187   4.310  0.4656  0.4624  0.0549
 5277SOL    HW227468   4.043   4.234   4.425  0.3751 -0.6050 -0.0905
 5278SOL     OW27469   2.371   2.821   9.401  0.3772 -0.4828  0.0625
 5278SOL    HW127470   2.308   2.888   9.427 -0.4493 -1.2817  0.0934
 5278SOL    HW227471   2.342   2.739   9.440  0.1512 -0.0102  0.8908
 5279SOL     OW27472   3.981   2.586   7.007 -0.5411  0.1638 -0.1661
 5279SOL    HW127473   4.058   2.619   6.961 -0.6015 -0.4042 -0.6627
 5279SOL    HW227474   3.939   2.669   7.031 -1.3498 -0.1734 -0.4108
 5280SOL     OW27475   0.759   3.718   6.500  0.2157  0.2289 -0.1297
 5280SOL    HW127476   0.747   3.809   6.525 -1.7555  0.3019 -1.3315
 5280SOL    HW227477   0.794   3.739   6.414  0.6603  0.8166  0.1963
 5281SOL     OW27478   0.867   0.649   4.294  0.0931  0.0377  0.5097
 5281SOL    HW127479   0.860   0.597   4.374 -0.2108 -0.1091  0.3918
 5281SOL    HW227480   0.922   0.596   4.236  1.2866  1.8603 -0.0165
 5282SOL     OW27481   4.581   2.234   3.648  0.3961 -0.1204 -0.2325
 5282SOL    HW127482   4.639   2.187   3.589  0.2794  0.1375 -0.5557
 5282SOL    HW227483   4.581   2.173   3.721 -1.3878  0.5770  0.3568
 5283SOL     OW27484   2.347   0.730   9.387 -0.1461 -0.2569 -0.3646
 5283SOL    HW127485   2.344   0.638   9.357 -2.9543 -0.7309  1.3439
 5283SOL    HW227486   2.431   0.731   9.431  0.5147  0.5906 -1.6358
 5284SOL     OW27487   4.388   1.179   3.712  0.0565  0.1003  0.5317
 5284SOL    HW127488   4.437   1.110   3.756  0.4258  0.8121  1.2283
 5284SOL    HW227489   4.344   1.223   3.785 -0.0581  1.5318 -0.3835
 5285SOL     OW27490   1.268   1.379   1.318 -0.0518 -0.0321 -0.5779
 5285SOL    HW127491   1.230   1.377   1.230  1.6666 -0.1145 -1.3240
 5285SOL    HW227492   1.323   1.301   1.326 -0.4109 -0.4521 -2.1364
 5286SOL     OW27493   0.429   3.233   4.795 -0.2362  0.4021 -0.0647
 5286SOL    HW127494   0.396   3.220   4.884  2.2672 -2.1517  0.4932
 5286SOL    HW227495   0.361   3.189   4.744 -0.2820  2.0278 -1.4211
 5287SOL     OW27496   3.529   0.703   6.143  0.4911  0.4272 -0.7488
 5287SOL    HW127497   3.568   0.765   6.082  0.3880  0.9383 -0.2984
 5287SOL    HW227498   3.437   0.729   6.134 -0.4824 -2.9837 -0.6055
 5288SOL     OW27499   0.388   4.243   8.305 -0.0837  0.7030  0.7634
 5288SOL    HW127500   0.479   4.268   8.322  0.2164 -1.0292  1.7519
 5288SOL    HW227501   0.344   4.321   8.269 -1.5794 -0.4533  0.0944
 5289SOL     OW27502   0.966   4.229   8.919 -0.1465 -0.3180 -0.3981
 5289SOL    HW127503   0.968   4.195   8.829  3.0143 -0.4763 -0.2842
 5289SOL    HW227504   0.872   4.219   8.930  0.1526 -0.8307  1.5774
 5290SOL     OW27505   2.333   4.150   8.596 -0.4035 -0.1511 -0.3522
 5290SOL    HW127506   2.406   4.112   8.548 -0.9038 -1.3800 -0.1441
 5290SOL    HW227507   2.274   4.078   8.571 -0.9656 -0.4375  1.7245
 5291SOL     OW27508   0.366   2.864   0.848 -0.0916  0.0159  0.0744
 5291SOL    HW127509   0.357   2.822   0.933  2.0576  1.3853  0.9833
 5291SOL    HW227510   0.441   2.810   0.825  0.5313  0.8893  0.0220
 5292SOL     OW27511   0.124   0.324   4.565  0.1136 -0.3763  0.2703
 5292SOL    HW127512   0.172   0.283   4.493  0.2035 -1.2486  0.8207
 5292SOL    HW227513   0.135   0.415   4.539  0.2658 -0.6031 -0.4600
 5293SOL     OW27514   2.129   0.727  14.236  0.5677  0.2847 -0.7333
 5293SOL    HW127515   2.091   0.790  14.175 -1.7357 -0.3493  0.0022
 5293SOL    HW227516   2.180   0.672  14.177  2.3470  0.0938  1.0145
 5294SOL     OW27517   3.854   3.369   7.362  0.0716  0.3676 -0.0922
 5294SOL    HW127518   3.920   3.344   7.427  0.1905 -0.2601 -0.4516
 5294SOL    HW227519   3.899   3.452   7.341 -2.9662  2.2814  1.0346
 5295SOL     OW27520   4.661   0.146  15.649  0.8101  0.5612  0.3591
 5295SOL    HW127521   0.002   0.173  15.695  0.3022  2.9174 -0.1571
 5295SOL    HW227522   4.678   0.184  15.563  0.1605  2.4146  1.0484
 5296SOL     OW27523   2.073   3.488   8.416  0.1576  0.0978 -0.8898
 5296SOL    HW127524   2.004   3.476   8.351 -0.4161 -1.5267  0.0357
 5296SOL    HW227525   2.111   3.572   8.389  0.6094  0.5344  1.0859
 5297SOL     OW27526   3.161   0.333   9.094 -0.7296  0.2950 -0.0003
 5297SOL    HW127527   3.068   0.334   9.116 -0.0881  1.0732  2.7030
 5297SOL    HW227528   3.154   0.371   9.007 -1.8860  2.1552  0.8973
 5298SOL     OW27529   1.959   1.303  13.558 -0.1532  0.2410  0.0329
 5298SOL    HW127530   1.892   1.335  13.619 -1.0311 -1.1851 -0.1963
 5298SOL    HW227531   1.927   1.354  13.484 -0.7316  0.6369  0.5555
 5299SOL     OW27532   4.026   0.962  17.424 -0.3290 -0.6064  0.4084
 5299SOL    HW127533   4.100   1.023  17.432  2.4691 -3.6823 -1.7975
 5299SOL    HW227534   4.081   0.884  17.433  0.2426 -0.2694 -0.1028
 5300SOL     OW27535   0.933   1.224   3.624  0.2273 -0.6841 -0.9982
 5300SOL    HW127536   1.008   1.204   3.680  0.5367 -1.7246 -1.7750
 5300SOL    HW227537   0.879   1.285   3.675 -0.4472 -0.3137 -2.1343
 5301SOL     OW27538   2.403   4.089   2.013  0.0407 -0.2629  0.2673
 5301SOL    HW127539   2.396   4.014   1.954  0.0873 -1.5909  1.9467
 5301SOL    HW227540   2.310   4.091   2.037 -0.1212 -1.3438 -0.2351
 5302SOL     OW27541   2.973   1.898   9.630  0.1354 -0.2412  0.5240
 5302SOL    HW127542   3.011   1.894   9.542 -0.6172  0.6007  0.1582
 5302SOL    HW227543   3.052   1.859   9.667  0.1866 -1.9280 -1.3657
 5303SOL     OW27544   1.098   1.511   4.225  0.1080  0.2121 -0.2833
 5303SOL    HW127545   1.039   1.468   4.286  0.3654 -0.4740 -0.5119
 5303SOL    HW227546   1.040   1.517   4.149 -0.2483  2.8479  0.2005
 5304SOL     OW27547   1.386   1.200   7.419 -0.1125  0.4891  0.6247
 5304SOL    HW127548   1.430   1.211   7.335  1.0222  0.5722  1.2309
 5304SOL    HW227549   1.362   1.108   7.413  2.8416 -0.2156 -0.3874
 5305SOL     OW27550   0.597   1.437   1.565 -0.5200 -0.0564 -0.2014
 5305SOL    HW127551   0.634   1.523   1.547 -0.7004 -0.0394 -0.4836
 5305SOL    HW227552   0.653   1.416   1.640  0.8254 -0.8207 -1.3989
 5306SOL     OW27553   3.466   1.899   3.484 -0.4090  0.6326  0.1312
 5306SOL    HW127554   3.467   1.941   3.571  0.9146  0.4088  0.2344
 5306SOL    HW227555   3.460   1.973   3.424  1.4215  1.2322  0.6969
 5307SOL     OW27556   1.354   4.715   6.349  0.2675  0.3725 -0.1490
 5307SOL    HW127557   1.266   4.678   6.347  0.4565 -0.0154 -1.4924
 5307SOL    HW227558   1.371   4.729   6.442 -1.0688  0.2309  0.1092
 5308SOL     OW27559   3.607   0.047   2.048  0.1728  0.4830 -0.2388
 5308SOL    HW127560   3.627   4.729   1.973  3.2002  0.6223  0.4437
 5308SOL    HW227561   3.695   0.073   2.076  0.2007 -1.2583  1.2682
 5309SOL     OW27562   1.232   0.078  11.768  0.1917  0.0693  0.3512
 5309SOL    HW127563   1.320   0.047  11.786  1.2599  1.6256 -2.2251
 5309SOL    HW227564   1.244   0.173  11.760 -0.4308  0.1638  0.5206
 5310SOL     OW27565   1.476   2.738   7.894 -0.2777  0.6511  0.1011
 5310SOL    HW127566   1.513   2.654   7.920 -0.2523  0.2911 -1.1086
 5310SOL    HW227567   1.387   2.725   7.927  0.3231  0.7122  1.7352
 5311SOL     OW27568   1.919   4.552  14.596  0.6704 -0.3469 -0.0337
 5311SOL    HW127569   1.861   4.476  14.606 -2.9587  2.3406 -0.9491
 5311SOL    HW227570   1.996   4.500  14.572  0.1307 -1.1538 -0.0137
 5312SOL     OW27571   4.379   3.671   7.406  0.6574 -0.0343  0.2817
 5312SOL    HW127572   4.461   3.706   7.370  0.8720 -1.0410 -0.2093
 5312SOL    HW227573   4.386   3.580   7.377  0.0823  0.0482 -0.1183
 5313SOL     OW27574   3.467   3.193   2.397 -0.0990  0.0272  0.3109
 5313SOL    HW127575   3.562   3.191   2.409 -0.1757 -0.3567  0.8811
 5313SOL    HW227576   3.449   3.111   2.442 -0.1561  0.2124  0.6305
 5314SOL     OW27577   1.421   4.501   9.463 -0.3493  0.0759  0.0504
 5314SOL    HW127578   1.510   4.533   9.444  0.2578 -0.7327  1.4865
 5314SOL    HW227579   1.388   4.500   9.373  0.4820 -2.0030 -0.2194
 5315SOL     OW27580   1.881   1.926   3.531  0.4533 -0.1843  0.2006
 5315SOL    HW127581   1.822   1.994   3.500  2.1809  1.0854 -0.3349
 5315SOL    HW227582   1.940   1.920   3.456 -0.9445  0.5204 -0.9451
 5316SOL     OW27583   1.745   4.122   6.912 -0.1084  0.2828  0.4063
 5316SOL    HW127584   1.794   4.194   6.951 -1.2713  1.5313 -0.4230
 5316SOL    HW227585   1.769   4.133   6.820  0.0978 -1.7596  0.2237
 5317SOL     OW27586   1.097   4.013   6.021 -0.1336 -0.2398 -0.0882
 5317SOL    HW127587   1.042   4.090   6.029  0.3913 -0.1266  2.5101
 5317SOL    HW227588   1.169   4.037   6.078 -0.8487  1.2248  0.1878
 5318SOL     OW27589   3.108   4.014   3.089 -0.7087  0.3046  0.3898
 5318SOL    HW127590   3.039   4.067   3.129  1.8410  2.7041  1.6262
 5318SOL    HW227591   3.100   4.031   2.995  2.3430 -1.6336 -0.2322
 5319SOL     OW27592   3.673   3.259   4.130 -0.3334  0.2056 -0.1892
 5319SOL    HW127593   3.577   3.253   4.127 -0.1966 -0.8064 -2.4425
 5319SOL    HW227594   3.689   3.236   4.222 -0.8744 -0.4280 -0.2520
 5320SOL     OW27595   3.629   3.835  16.790  0.2697 -0.0668 -0.3656
 5320SOL    HW127596   3.656   3.903  16.852  1.7026 -0.0067 -1.0582
 5320SOL    HW227597   3.537   3.833  16.817 -0.3899  0.2598 -2.5396
 5321SOL     OW27598   2.461   4.656  14.786 -0.0262 -0.3740  0.0570
 5321SOL    HW127599   2.461   4.662  14.881 -0.1762  2.0990 -0.1229
 5321SOL    HW227600   2.545   4.695  14.764 -0.4875  0.3618 -0.3903
 5322SOL     OW27601   2.908   4.641   5.826  0.4851 -0.4294  0.2262
 5322SOL    HW127602   2.981   4.701   5.838 -1.8984  2.9604 -2.0209
 5322SOL    HW227603   2.832   4.679   5.870 -0.6346 -2.2650 -0.1108
 5323SOL     OW27604   1.121   3.206   7.964  0.0018 -0.0665  0.6301
 5323SOL    HW127605   1.157   3.161   7.887  1.5338  0.8106  0.8338
 5323SOL    HW227606   1.072   3.276   7.921 -0.9456 -0.2890  1.3500
 5324SOL     OW27607   0.227   3.628   3.360  0.1742 -0.0540  0.6737
 5324SOL    HW127608   0.169   3.553   3.365 -1.9459  1.3489 -2.6563
 5324SOL    HW227609   0.311   3.608   3.402 -0.4616 -1.7416  1.1024
 5325SOL     OW27610   0.113   1.033   9.058 -0.5011  0.0761  0.2426
 5325SOL    HW127611   0.065   1.095   9.112 -0.5045  0.2275  0.0658
 5325SOL    HW227612   0.081   0.948   9.089  1.3878 -0.5004  0.6249
 5326SOL     OW27613   0.283   3.626   5.624 -0.0979 -0.4168  0.0903
 5326SOL    HW127614   0.218   3.623   5.554 -1.3357 -0.1562  1.2223
 5326SOL    HW227615   0.243   3.697   5.675  0.6008 -1.2767  1.8404
 5327SOL     OW27616   0.458   1.002   9.365  0.2713 -0.1315 -0.3518
 5327SOL    HW127617   0.514   1.031   9.437 -0.3455  0.8586 -0.2753
 5327SOL    HW227618   0.488   1.063   9.297  2.4627 -0.8469 -0.0203
 5328SOL     OW27619   2.698   2.436   7.277 -0.1318  0.7041 -0.3043
 5328SOL    HW127620   2.735   2.524   7.280  0.9022  0.2329  0.4247
 5328SOL    HW227621   2.702   2.404   7.367  1.9522 -3.2641 -1.7834
 5329SOL     OW27622   1.496   2.193  10.340 -0.3312 -1.0683 -0.2716
 5329SOL    HW127623   1.580   2.172  10.299  0.1244  2.6171 -1.2317
 5329SOL    HW227624   1.488   2.127  10.409 -2.7812  0.4914  0.9171
 5330SOL     OW27625   1.557   4.241  16.158  0.1342  0.1746 -0.2516
 5330SOL    HW127626   1.569   4.336  16.154  0.3753  0.2559  2.1707
 5330SOL    HW227627   1.547   4.222  16.065  0.9757 -1.0505 -0.0976
 5331SOL     OW27628   3.456   4.276   1.298 -0.2134  0.6987  0.2143
 5331SOL    HW127629   3.389   4.209   1.302  0.8436 -0.4758 -1.8222
 5331SOL    HW227630   3.520   4.229   1.245 -1.2965  0.6781 -1.0484
 5332SOL     OW27631   0.714   2.613   2.119  0.5755  0.7115  0.1469
 5332SOL    HW127632   0.743   2.546   2.057 -1.0585 -1.5030  1.7868
 5332SOL    HW227633   0.636   2.573   2.157 -1.8729  2.3831 -3.0808
 5333SOL     OW27634   3.284   0.409  12.358 -0.3687 -0.5152  0.2687
 5333SOL    HW127635   3.225   0.334  12.370 -2.3102  1.3550  2.2277
 5333SOL    HW227636   3.253   0.469  12.426  2.6116  3.7867 -2.1787
 5334SOL     OW27637   3.385   2.856   4.773  0.4130  0.3574 -0.1723
 5334SOL    HW127638   3.468   2.903   4.763 -0.3945  2.0750  1.1092
 5334SOL    HW227639   3.409   2.781   4.827  0.5505 -0.6540 -1.6466
 5335SOL     OW27640   2.794   4.087  12.195 -0.5785  0.2390  0.0708
 5335SOL    HW127641   2.826   4.149  12.260 -0.2164  0.8938 -0.7238
 5335SOL    HW227642   2.709   4.067  12.234  0.3111 -0.0965  1.8522
 5336SOL     OW27643   4.692   1.610   4.351 -0.3960  0.3597  0.1201
 5336SOL    HW127644   0.000   1.561   4.419 -1.2514  0.1849  0.5719
 5336SOL    HW227645   0.015   1.684   4.351 -1.2955  1.1193  2.0065
 5337SOL     OW27646   1.689   3.202   3.230 -0.1858  0.6625  0.2328
 5337SOL    HW127647   1.650   3.238   3.150  1.6336  1.0803 -0.4760
 5337SOL    HW227648   1.615   3.180   3.287 -0.5741  0.6817 -0.2633
 5338SOL     OW27649   4.014   2.553   1.319  0.0362  0.0614  0.0073
 5338SOL    HW127650   4.044   2.511   1.399  1.5193 -0.0457 -0.5935
 5338SOL    HW227651   3.936   2.587   1.361  0.1619  2.1787 -1.4538
 5339SOL     OW27652   0.043   2.174   7.123  0.0561  0.6260  0.1729
 5339SOL    HW127653   0.046   2.088   7.165  0.3704  0.9957  0.9107
 5339SOL    HW227654   4.686   2.181   7.109  0.2307  0.9142 -0.8230
 5340SOL     OW27655   4.665   0.591  12.173 -0.1133  0.0402 -0.1054
 5340SOL    HW127656   4.587   0.634  12.208  0.2341 -0.4606  1.2781
 5340SOL    HW227657   4.669   0.634  12.088 -1.7236  0.2009 -0.1022
 5341SOL     OW27658   2.910   3.615   0.916  0.2089  0.1715 -0.5829
 5341SOL    HW127659   2.829   3.665   0.921 -0.6536 -1.1393 -1.2505
 5341SOL    HW227660   2.969   3.687   0.895 -0.0973  0.4283 -0.5469
 5342SOL     OW27661   1.691   0.765   1.861 -0.5019  0.5491  0.1386
 5342SOL    HW127662   1.688   0.822   1.785 -2.5737  0.6475  0.3183
 5342SOL    HW227663   1.620   0.800   1.914 -0.6215  1.2289 -0.4779
 5343SOL     OW27664   0.275   1.656   5.185  0.0790  0.2769 -0.0835
 5343SOL    HW127665   0.349   1.697   5.231  1.3793 -2.1915  0.0021
 5343SOL    HW227666   0.281   1.700   5.101 -1.5715 -0.2363 -0.4523
 5344SOL     OW27667   3.410   4.580   9.643 -0.1603 -0.2028 -0.2834
 5344SOL    HW127668   3.451   4.505   9.686 -0.1950 -1.4255 -2.3541
 5344SOL    HW227669   3.483   4.640   9.651 -1.0771  0.8089  0.6242
 5345SOL     OW27670   3.492   1.528   9.934 -0.3205  0.2139 -0.0183
 5345SOL    HW127671   3.486   1.622   9.952  0.9504  0.6767 -2.0059
 5345SOL    HW227672   3.504   1.495  10.023 -2.3482 -0.4951 -0.0244
 5346SOL     OW27673   2.210   4.011   5.243  0.6070  0.0494 -0.1464
 5346SOL    HW127674   2.271   4.062   5.298 -1.1278  0.2211  1.6188
 5346SOL    HW227675   2.267   3.938   5.220 -1.2055 -1.1423 -0.7836
 5347SOL     OW27676   1.821   4.658   5.961  0.0809 -0.9288  0.3517
 5347SOL    HW127677   1.825   0.012   5.988  1.9053 -1.2297  1.0714
 5347SOL    HW227678   1.730   4.658   5.929  0.2725 -1.2122 -0.1845
 5348SOL     OW27679   4.119   1.506   1.307  0.0121  0.1343  0.1880
 5348SOL    HW127680   4.214   1.510   1.296  0.1386  1.1761  1.7388
 5348SOL    HW227681   4.110   1.437   1.373  0.3737  0.2995  0.4066
 5349SOL     OW27682   1.270   2.253   6.865 -0.0315  0.5832 -0.6339
 5349SOL    HW127683   1.221   2.291   6.793  1.1078  3.3098  0.0123
 5349SOL    HW227684   1.338   2.206   6.817 -0.7289 -2.6593  1.5684
 5350SOL     OW27685   2.645   0.626   1.063 -0.6317 -0.2330  0.6954
 5350SOL    HW127686   2.606   0.574   0.993 -0.8675  0.1961  0.5092
 5350SOL    HW227687   2.691   0.688   1.006 -2.4423  0.1737 -0.3144
 5351SOL     OW27688   1.333   2.765   3.685 -0.6168 -0.1105  0.4673
 5351SOL    HW127689   1.248   2.743   3.648 -0.1709 -2.1853  0.6701
 5351SOL    HW227690   1.349   2.674   3.709 -1.8752 -0.3544  0.3327
 5352SOL     OW27691   4.595   1.576   8.220  0.0847  0.1339 -0.3520
 5352SOL    HW127692   4.641   1.518   8.159 -0.4643 -0.0328 -0.6029
 5352SOL    HW227693   4.528   1.621   8.168  1.3771  2.2372 -0.2318
 5353SOL     OW27694   1.084   1.370  17.513  0.0674  0.6874 -0.6298
 5353SOL    HW127695   1.143   1.386  17.440  2.8574  1.4921  1.8229
 5353SOL    HW227696   1.132   1.303  17.562  2.3099  3.1494  0.4927
 5354SOL     OW27697   0.132   3.873   2.427  0.1753 -0.3821  0.2767
 5354SOL    HW127698   0.135   3.800   2.365 -1.9232 -1.1157  1.0511
 5354SOL    HW227699   0.199   3.920   2.377 -1.7534 -1.0928 -2.9551
 5355SOL     OW27700   1.112   2.810   2.347  0.1027  0.2738  0.1031
 5355SOL    HW127701   1.105   2.717   2.367  1.0855  0.0336 -0.6395
 5355SOL    HW227702   1.024   2.831   2.315 -0.5922 -0.1838  1.7109
 5356SOL     OW27703   0.814   1.388  17.021 -0.1508 -0.0185 -0.1690
 5356SOL    HW127704   0.753   1.414  16.952  0.1509 -1.5408 -1.0155
 5356SOL    HW227705   0.767   1.414  17.100  1.1865 -0.3171  0.7315
 5357SOL     OW27706   1.918   1.812   4.533  1.1098  0.0491  0.3116
 5357SOL    HW127707   1.891   1.887   4.585 -0.7818  2.0069 -3.4455
 5357SOL    HW227708   1.944   1.862   4.455  0.1371 -1.7846 -1.2189
 5358SOL     OW27709   2.112   0.824   1.128 -0.1642  0.1892  0.2015
 5358SOL    HW127710   2.204   0.796   1.130  0.2562  1.3100 -2.3986
 5358SOL    HW227711   2.082   0.793   1.043  0.1875  0.4098 -0.0076
 5359SOL     OW27712   2.171   2.809   3.922 -0.7809  0.0886 -0.1367
 5359SOL    HW127713   2.241   2.749   3.946 -1.1468  0.1159  0.9826
 5359SOL    HW227714   2.216   2.893   3.914  2.1247 -1.4463  0.2055
 5360SOL     OW27715   1.222   3.630   6.420 -0.3454 -0.5779  0.0962
 5360SOL    HW127716   1.174   3.709   6.394  2.1600  0.1931 -2.1746
 5360SOL    HW227717   1.274   3.629   6.339  1.3858  1.7330  1.1602
 5361SOL     OW27718   4.332   2.385   0.972  0.2024 -0.5666 -0.4228
 5361SOL    HW127719   4.265   2.437   1.017 -0.2926  0.0961 -1.9315
 5361SOL    HW227720   4.370   2.450   0.913  0.0639 -1.3376 -1.3475
 5362SOL     OW27721   1.374   2.362  12.084 -0.3228 -0.4853  0.4550
 5362SOL    HW127722   1.430   2.374  12.007  0.2569  1.0606  1.1139
 5362SOL    HW227723   1.307   2.308  12.044  2.1006 -1.7488 -1.9064
 5363SOL     OW27724   1.392   2.736   7.094  0.5370  0.1957  0.1639
 5363SOL    HW127725   1.303   2.769   7.091  1.1040  1.6836 -0.5561
 5363SOL    HW227726   1.379   2.650   7.053 -1.7246 -0.2426  1.8074
 5364SOL     OW27727   4.267   2.353  13.087 -0.2568 -0.2351 -0.0031
 5364SOL    HW127728   4.254   2.303  13.006 -0.8800  0.5177 -0.3705
 5364SOL    HW227729   4.174   2.371  13.101 -0.6122 -0.5253 -1.9591
 5365SOL     OW27730   4.212   3.919   7.961 -0.4641  0.7094  0.4174
 5365SOL    HW127731   4.127   3.928   7.918 -1.2612 -0.4673  1.7388
 5365SOL    HW227732   4.263   3.992   7.926  1.6606 -0.8900  0.1614
 5366SOL     OW27733   0.074   2.085   9.536  0.0248  0.0039  0.0693
 5366SOL    HW127734   0.143   2.067   9.472  2.2771  0.9962  2.2110
 5366SOL    HW227735   4.732   2.078   9.484  0.1176 -0.0811 -0.0608
 5367SOL     OW27736   0.947   2.347   1.546  0.2086  0.0930  0.1888
 5367SOL    HW127737   0.913   2.266   1.584  0.2517 -0.6606 -1.4104
 5367SOL    HW227738   0.923   2.408   1.617  1.5491 -1.2152  1.7713
 5368SOL     OW27739   2.079   3.919  11.620 -0.3541  0.0760 -0.1353
 5368SOL    HW127740   2.016   3.879  11.680  0.5520 -0.9693  0.1212
 5368SOL    HW227741   2.016   3.962  11.562 -2.0166 -2.5074 -0.2606
 5369SOL     OW27742   0.411   2.665  13.895 -0.0729  0.0368 -0.2912
 5369SOL    HW127743   0.392   2.719  13.817  1.4658 -1.9299 -2.0238
 5369SOL    HW227744   0.323   2.649  13.930 -0.4629 -0.5991 -1.5563
 5370SOL     OW27745   3.906   1.573  15.214  0.1504 -0.2120  0.1414
 5370SOL    HW127746   3.855   1.588  15.134  0.1147  0.4111  0.2781
 5370SOL    HW227747   3.905   1.659  15.258  0.0667  0.7025 -1.6597
 5371SOL     OW27748   1.328   3.164   7.334  0.1435  0.1077  0.2750
 5371SOL    HW127749   1.370   3.113   7.265 -1.6687  1.0344 -1.4974
 5371SOL    HW227750   1.403   3.220   7.353  0.6777 -0.5436  0.0959
 5372SOL     OW27751   0.543   2.867  16.076 -0.6437  0.0478 -0.3113
 5372SOL    HW127752   0.627   2.907  16.098  0.0330  0.6754 -4.1128
 5372SOL    HW227753   0.512   2.941  16.023 -0.9663  1.0520  1.2503
 5373SOL     OW27754   0.794   3.329   5.441  0.0895  0.0418  0.1063
 5373SOL    HW127755   0.854   3.327   5.515  2.2388 -1.2607 -1.6828
 5373SOL    HW227756   0.847   3.364   5.369  0.1299 -0.3528 -0.0525
 5374SOL     OW27757   4.637   3.564   4.265  0.7523  0.1985  0.4056
 5374SOL    HW127758   4.673   3.545   4.178 -0.5090 -0.5985  0.0554
 5374SOL    HW227759   4.644   3.659   4.266  0.8020  0.2096 -0.4684
 5375SOL     OW27760   4.440   1.347  10.412  0.0533 -0.4981  0.2412
 5375SOL    HW127761   4.529   1.352  10.377 -0.6167 -0.3184 -1.4770
 5375SOL    HW227762   4.457   1.319  10.502  1.1365 -1.4233 -0.2511
 5376SOL     OW27763   3.514   3.388  10.486 -0.5106  0.1522 -0.0964
 5376SOL    HW127764   3.538   3.297  10.506 -0.1087 -0.1142 -1.7347
 5376SOL    HW227765   3.481   3.423  10.568 -0.5379 -0.2032  0.0469
 5377SOL     OW27766   1.227   2.708  17.423  0.2723  0.1154  0.0113
 5377SOL    HW127767   1.228   2.639  17.490 -1.2862 -0.1766 -0.2691
 5377SOL    HW227768   1.180   2.777  17.470  0.8779  0.3280  0.2969
 5378SOL     OW27769   1.894   2.994  12.772  0.1370 -0.1685  0.6083
 5378SOL    HW127770   1.836   3.063  12.804 -0.5807 -0.2132 -0.5926
 5378SOL    HW227771   1.975   3.028  12.809  0.6737 -0.5877 -0.1754
 5379SOL     OW27772   3.852   3.265  12.925 -0.2795 -0.2624  0.5015
 5379SOL    HW127773   3.880   3.356  12.935  1.2858 -0.5504 -1.2066
 5379SOL    HW227774   3.760   3.263  12.949 -0.7023  0.8399 -0.9870
 5380SOL     OW27775   2.920   1.720   5.426  0.6804 -0.1872 -0.6125
 5380SOL    HW127776   2.939   1.788   5.490 -0.6215  0.7036 -1.1669
 5380SOL    HW227777   2.935   1.638   5.474  1.2170 -0.7588 -1.7430
 5381SOL     OW27778   4.402   0.882   6.447 -0.3979  0.5052 -0.7455
 5381SOL    HW127779   4.465   0.862   6.377 -0.0874 -0.1253 -0.2926
 5381SOL    HW227780   4.321   0.858   6.403 -0.1991  0.2276 -0.9647
 5382SOL     OW27781   2.088   0.215  12.794 -0.8296 -0.3127 -0.1953
 5382SOL    HW127782   2.073   0.232  12.887  2.9792  1.3586  0.1277
 5382SOL    HW227783   2.067   0.121  12.797  1.3471 -0.8101 -0.4488
 5383SOL     OW27784   2.140   3.591   4.996 -0.5308 -0.3600  0.4613
 5383SOL    HW127785   2.091   3.669   4.969 -2.1408 -0.5048  2.9846
 5383SOL    HW227786   2.181   3.569   4.912  1.0887  0.0148  1.1579
 5384SOL     OW27787   3.622   0.336   6.821  0.2258  0.1498 -0.3722
 5384SOL    HW127788   3.707   0.310   6.855 -0.0473 -0.2543  0.0065
 5384SOL    HW227789   3.634   0.427   6.845 -0.2196 -0.7547  3.3571
 5385SOL     OW27790   3.703   1.456   3.768  0.1773  0.1422 -0.3615
 5385SOL    HW127791   3.659   1.374   3.790 -0.5824  0.5956 -0.1724
 5385SOL    HW227792   3.636   1.515   3.731  0.2426  1.3954  1.5344
 5386SOL     OW27793   4.645   0.378   3.491 -0.1478  0.0452 -0.1100
 5386SOL    HW127794   4.719   0.322   3.469 -1.4206 -2.0066  0.8206
 5386SOL    HW227795   4.700   0.453   3.514 -2.4081  1.4311  0.7706
 5387SOL     OW27796   0.040   4.188   3.754 -0.0990  0.2914  0.4176
 5387SOL    HW127797   0.118   4.195   3.698 -0.1872  1.2077  0.4079
 5387SOL    HW227798   0.006   4.274   3.730  0.6164  0.6778  0.7806
 5388SOL     OW27799   1.892   1.466   4.353 -0.4759 -0.0245  0.5014
 5388SOL    HW127800   1.816   1.460   4.411 -0.5544  0.3592  0.4394
 5388SOL    HW227801   1.958   1.502   4.413  0.6678 -0.0956 -0.7227
 5389SOL     OW27802   4.598   3.137   6.180  0.3094  0.2224  0.3787
 5389SOL    HW127803   4.628   3.201   6.245  0.6362 -1.6179  2.0479
 5389SOL    HW227804   4.505   3.159   6.177  0.1575 -0.7015 -1.3295
 5390SOL     OW27805   0.567   2.901   3.266 -0.3457  0.1245 -0.1018
 5390SOL    HW127806   0.575   2.816   3.223 -1.6271 -0.1919  0.2829
 5390SOL    HW227807   0.653   2.943   3.256  1.5676 -4.1148 -1.4492
 5391SOL     OW27808   4.353   3.198   9.120  0.0203  0.3124 -0.4874
 5391SOL    HW127809   4.439   3.207   9.160  0.0665  0.4250 -0.6117
 5391SOL    HW227810   4.305   3.213   9.201  1.7522 -3.5279  1.2418
 5392SOL     OW27811   2.884   2.774   2.661  0.1467  0.1768  0.2140
 5392SOL    HW127812   2.824   2.806   2.593 -1.6078  0.6799  2.0112
 5392SOL    HW227813   2.834   2.731   2.730 -0.4553  1.4698  0.5858
 5393SOL     OW27814   0.950   4.124   9.410  0.1748 -0.3690  1.3810
 5393SOL    HW127815   1.020   4.065   9.436  1.4326 -0.2711 -1.8771
 5393SOL    HW227816   0.962   4.112   9.316 -1.1698 -0.4454  1.2198
 5394SOL     OW27817   2.293   3.258   6.791 -0.7240  0.2937  0.4933
 5394SOL    HW127818   2.326   3.335   6.744 -3.4251  0.2412 -1.4665
 5394SOL    HW227819   2.307   3.187   6.727 -0.0100 -1.2464  2.3667
 5395SOL     OW27820   1.167   1.298   8.854 -0.1930  0.7563  0.1512
 5395SOL    HW127821   1.160   1.229   8.788 -1.2771  2.1360 -1.1599
 5395SOL    HW227822   1.196   1.247   8.930  0.8253  2.0550  0.6475
 5396SOL     OW27823   1.191   4.702   7.669 -0.3983 -0.8483  0.3440
 5396SOL    HW127824   1.281   4.722   7.691  0.1235 -3.7839  0.9019
 5396SOL    HW227825   1.183   4.734   7.579  0.5838 -2.7358 -0.4100
 5397SOL     OW27826   1.173   4.424   6.161  0.3238 -0.0086 -0.4963
 5397SOL    HW127827   1.166   4.466   6.247  0.8641 -1.2914  0.1895
 5397SOL    HW227828   1.262   4.431   6.125  0.4338 -1.9539 -0.6428
 5398SOL     OW27829   0.049   4.376   7.389 -0.9223 -0.0397  0.1617
 5398SOL    HW127830   0.058   4.336   7.475 -0.5818  1.1275  0.6741
 5398SOL    HW227831   4.693   4.380   7.372 -0.3911  0.0989 -2.7863
 5399SOL     OW27832   4.392   1.127   9.201  0.0250  0.1277  0.3935
 5399SOL    HW127833   4.471   1.073   9.206  0.1048 -0.0515 -2.8895
 5399SOL    HW227834   4.430   1.206   9.164 -0.5268  0.4702  0.5598
 5400SOL     OW27835   1.287   4.038   7.859 -0.6394 -0.6654  0.3757
 5400SOL    HW127836   1.281   3.999   7.946 -1.2503  1.0359  1.0886
 5400SOL    HW227837   1.371   3.996   7.839 -0.9427 -1.5793  1.0282
 5401SOL     OW27838   1.464   4.164   9.189 -0.2896  0.3370 -0.0279
 5401SOL    HW127839   1.452   4.079   9.147 -0.6203  0.7122 -0.6931
 5401SOL    HW227840   1.507   4.208   9.116 -1.8059  2.1288  0.1672
 5402SOL     OW27841   0.692   0.463  14.930 -0.2172  0.1278  0.1910
 5402SOL    HW127842   0.735   0.405  14.993 -0.4746 -0.4441 -0.1541
 5402SOL    HW227843   0.661   0.528  14.993 -1.1229 -0.4036  0.2911
 5403SOL     OW27844   1.369   3.773   8.369  0.1813 -0.0796 -0.0244
 5403SOL    HW127845   1.451   3.759   8.417 -0.0028  2.0400  0.8887
 5403SOL    HW227846   1.330   3.846   8.417  3.3091  1.1536  0.6209
 5404SOL     OW27847   3.140   0.026   5.963 -0.1047 -0.2423  0.3554
 5404SOL    HW127848   3.196   0.096   5.929  0.8960 -1.2065  0.0510
 5404SOL    HW227849   3.199   4.706   6.010  0.9644  1.6412  1.3358
 5405SOL     OW27850   0.047   2.088  16.802 -0.0609 -0.8117  0.2793
 5405SOL    HW127851   0.108   2.060  16.871  0.9706  1.1956  0.2085
 5405SOL    HW227852   0.062   2.024  16.734  1.0942 -1.4587  1.1301
 5406SOL     OW27853   2.878   3.318   7.296 -0.5442  0.3637  0.8440
 5406SOL    HW127854   2.846   3.233   7.327  0.2216  0.2046  1.2096
 5406SOL    HW227855   2.875   3.360   7.382  1.2002  2.5059 -0.1560
 5407SOL     OW27856   4.078   1.184  11.661 -0.1526 -0.1991 -0.1937
 5407SOL    HW127857   4.131   1.255  11.697 -0.4367  0.8482 -1.8670
 5407SOL    HW227858   4.082   1.122  11.734 -1.1821 -0.1617 -0.1087
 5408SOL     OW27859   1.252   4.495   2.028 -0.2199 -0.0593  0.0593
 5408SOL    HW127860   1.310   4.492   2.105 -0.8862  1.5315  0.6387
 5408SOL    HW227861   1.273   4.578   1.985 -0.6969  0.6813  1.2432
 5409SOL     OW27862   1.115   2.710   8.324 -0.1105  0.2422  0.8546
 5409SOL    HW127863   1.049   2.770   8.358  1.6861  1.8940  1.3872
 5409SOL    HW227864   1.081   2.623   8.344 -0.0032 -0.3690 -1.5834
 5410SOL     OW27865   1.971   1.015   3.626 -0.1461  0.4977 -0.4741
 5410SOL    HW127866   2.021   0.975   3.698 -0.1387  1.1349 -0.1291
 5410SOL    HW227867   1.878   1.025   3.646  0.0387  0.6334  0.3133
 5411SOL     OW27868   4.686   0.750   4.404 -0.0445 -0.3395 -0.0189
 5411SOL    HW127869   4.591   0.749   4.400  0.0149  1.9500 -1.6587
 5411SOL    HW227870   4.716   0.776   4.492  0.0511 -0.4109 -0.0303
 5412SOL     OW27871   3.276   2.836   3.339  0.4853 -0.1871  0.3950
 5412SOL    HW127872   3.229   2.897   3.396 -0.5819  0.6414 -1.3828
 5412SOL    HW227873   3.314   2.765   3.391 -5.4907 -0.8657  3.8970
 5413SOL     OW27874   4.412   0.042   4.829  0.5986 -0.0316 -0.5424
 5413SOL    HW127875   4.377   0.025   4.916  0.4260 -1.4109 -0.8948
 5413SOL    HW227876   4.462   0.118   4.858  0.6132  1.3263 -4.1105
 5414SOL     OW27877   2.240   4.252  11.579  0.1570  0.0157  0.1464
 5414SOL    HW127878   2.187   4.321  11.620  0.4836  0.3254  0.0479
 5414SOL    HW227879   2.323   4.262  11.627  0.4628  2.6721 -0.9245
 5415SOL     OW27880   4.469   1.355  11.125  0.4035 -0.0375 -0.4551
 5415SOL    HW127881   4.563   1.357  11.109  0.7167 -0.8585  1.2682
 5415SOL    HW227882   4.440   1.270  11.091  2.0720 -1.2938  1.2219
 5416SOL     OW27883   1.573   2.114   5.523 -0.4592  0.3132  0.1682
 5416SOL    HW127884   1.545   2.148   5.438 -0.9768 -0.7855 -0.0968
 5416SOL    HW227885   1.664   2.101   5.497 -0.5980 -0.2522 -0.0281
 5417SOL     OW27886   4.607   1.438   7.403 -0.0390 -0.4423  0.1338
 5417SOL    HW127887   4.659   1.446   7.323  0.4799 -0.5471  0.4551
 5417SOL    HW227888   4.678   1.446   7.466 -1.7615  1.7767  1.7577
 5418SOL     OW27889   2.989   1.074   4.977 -0.1261  0.1843 -0.2374
 5418SOL    HW127890   2.991   1.071   4.881 -1.4704  1.5828 -0.3065
 5418SOL    HW227891   3.066   1.019   4.991 -0.2314 -0.2043 -1.1335
 5419SOL     OW27892   2.762   1.877   9.335 -0.1784  0.3639 -0.4100
 5419SOL    HW127893   2.685   1.916   9.376  0.1113 -0.0245  0.4970
 5419SOL    HW227894   2.755   1.935   9.258  0.6196  0.7897 -0.1648
 5420SOL     OW27895   3.344   1.333   6.045  0.2778 -0.2198 -0.3840
 5420SOL    HW127896   3.265   1.282   6.028 -0.3764  1.0810 -1.2158
 5420SOL    HW227897   3.316   1.363   6.132 -1.6353  1.3416 -1.5427
 5421SOL     OW27898   2.105   0.068   1.199 -0.5503  0.5286 -0.4977
 5421SOL    HW127899   2.103   0.151   1.247  0.6974  0.5944 -0.5551
 5421SOL    HW227900   2.068   0.084   1.112 -1.1455 -2.1265 -0.7353
 5422SOL     OW27901   3.894   2.008   3.115  0.1742 -0.1609  0.3242
 5422SOL    HW127902   3.895   2.051   3.200  2.4707  1.2917 -0.4298
 5422SOL    HW227903   3.985   2.013   3.086 -0.6090 -1.9193 -2.3926
 5423SOL     OW27904   1.068   0.438   9.640 -0.6440  0.9299  0.1565
 5423SOL    HW127905   1.111   0.523   9.627 -0.0028  1.0390  3.1608
 5423SOL    HW227906   0.984   0.452   9.596 -0.1201 -1.6992 -1.6981
 5424SOL     OW27907   0.357   0.987   0.157  0.6308  0.1020 -0.2123
 5424SOL    HW127908   0.319   0.902   0.135  0.3566 -0.2429  1.5703
 5424SOL    HW227909   0.280   1.042   0.140 -0.3980 -0.2168  3.3084
 5425SOL     OW27910   1.424   2.163   5.301 -0.0702 -0.0807  0.5061
 5425SOL    HW127911   1.389   2.173   5.213  0.1949  1.6620  0.5895
 5425SOL    HW227912   1.346   2.192   5.349  0.6133  0.4530  1.3109
 5426SOL     OW27913   2.628   2.383   4.201 -0.4921  0.1872  0.3674
 5426SOL    HW127914   2.651   2.333   4.122  0.2876  2.3812 -0.7953
 5426SOL    HW227915   2.640   2.472   4.168 -0.2512  0.1735  0.4188
 5427SOL     OW27916   3.860   0.289   5.861 -0.0311 -0.4089  0.2703
 5427SOL    HW127917   3.891   0.287   5.951  0.2764  1.2234  0.1947
 5427SOL    HW227918   3.778   0.239   5.862  0.3668 -1.0543  0.8843
 5428SOL     OW27919   4.523   4.525   4.751 -0.4700  0.1019 -0.4410
 5428SOL    HW127920   4.475   4.605   4.772 -1.6536 -0.9830  0.9772
 5428SOL    HW227921   4.607   4.569   4.740  1.4787 -3.2840  1.0024
 5429SOL     OW27922   3.074   0.344   4.810 -0.1437  0.1644  0.2221
 5429SOL    HW127923   3.140   0.404   4.773 -0.2296 -0.1986 -0.5257
 5429SOL    HW227924   3.013   0.336   4.737 -2.0288  3.3033  1.4868
 5430SOL     OW27925   1.120   3.441   7.477  0.4724  0.2387  0.0675
 5430SOL    HW127926   1.060   3.477   7.411  0.1116 -0.7831 -0.1602
 5430SOL    HW227927   1.108   3.501   7.550  1.8269  2.0953 -1.2423
 5431SOL     OW27928   4.052   2.116   7.894  0.3473  0.1952 -0.1035
 5431SOL    HW127929   3.965   2.091   7.927 -0.2163 -1.2316 -2.7219
 5431SOL    HW227930   4.083   2.150   7.978 -0.9972  3.4192 -0.9250
 5432SOL     OW27931   0.236   4.551  14.433 -0.2202 -0.2084  0.1942
 5432SOL    HW127932   0.220   4.461  14.408  0.1698  0.1700 -1.4157
 5432SOL    HW227933   0.173   4.590  14.373 -1.4563  1.2531  2.4190
 5433SOL     OW27934   0.758   1.904   9.211  0.3156 -0.0564 -0.0248
 5433SOL    HW127935   0.777   1.957   9.134 -1.0808  1.8092  0.9194
 5433SOL    HW227936   0.778   1.817   9.176 -1.1194 -0.1016 -0.7536
 5434SOL     OW27937   2.997   4.145   7.015 -0.5130  0.2325  0.7513
 5434SOL    HW127938   3.014   4.073   7.075 -1.8019  0.3374  1.2379
 5434SOL    HW227939   2.948   4.208   7.068 -1.0513  0.8988 -0.5164
 5435SOL     OW27940   2.293   3.046   3.955  0.2107 -0.5851 -0.0410
 5435SOL    HW127941   2.242   3.126   3.960  0.8740 -0.1527 -0.1467
 5435SOL    HW227942   2.308   3.029   4.049  0.5463  3.5688  0.6293
 5436SOL     OW27943   4.694   1.754   8.429 -0.4424 -0.8110  0.1775
 5436SOL    HW127944   4.663   1.698   8.501 -0.5855 -2.3615 -1.0916
 5436SOL    HW227945   4.674   1.695   8.356 -0.4283  1.2590 -1.5001
 5437SOL     OW27946   0.670   4.273   6.394 -0.2338  0.6194  0.0993
 5437SOL    HW127947   0.638   4.185   6.375  1.3511  0.1295 -0.2666
 5437SOL    HW227948   0.638   4.313   6.313  1.0422 -2.0078 -1.6890
 5438SOL     OW27949   4.276   4.404  16.051 -0.5712  0.8182  0.1360
 5438SOL    HW127950   4.255   4.341  16.120 -2.4592  0.0967 -1.0894
 5438SOL    HW227951   4.223   4.478  16.082 -0.8455  0.9418 -0.6266
 5439SOL     OW27952   0.929   0.837   8.879 -0.4191 -0.2324 -0.2746
 5439SOL    HW127953   0.980   0.768   8.923  1.6509 -1.6334 -4.8050
 5439SOL    HW227954   0.941   0.906   8.944  0.3054 -0.2853 -0.3475
 5440SOL     OW27955   4.326   1.615  11.075 -0.3873 -0.3917  0.1530
 5440SOL    HW127956   4.308   1.629  11.167 -1.3884 -0.2514 -0.0610
 5440SOL    HW227957   4.360   1.527  11.091 -1.0897 -0.2690  2.3238
 5441SOL     OW27958   2.063   1.882   4.329 -0.4216 -0.0241  0.1698
 5441SOL    HW127959   2.006   1.823   4.279 -2.3084  2.0448 -0.1546
 5441SOL    HW227960   2.113   1.926   4.260  0.4148 -2.0022 -0.4843
 5442SOL     OW27961   0.831   0.610   8.189 -0.3733  0.3141 -0.3548
 5442SOL    HW127962   0.861   0.593   8.100  0.6298 -0.1161  0.0645
 5442SOL    HW227963   0.894   0.678   8.211  0.5202 -0.8775  0.7493
 5443SOL     OW27964   0.959   1.933   4.941 -0.4652  0.8838 -0.0921
 5443SOL    HW127965   0.909   1.864   4.897  0.9685  0.4336 -1.0132
 5443SOL    HW227966   1.030   1.958   4.883  0.8785 -0.5256  0.9201
 5444SOL     OW27967   1.600   1.513   3.666  0.0112 -0.5815  0.8856
 5444SOL    HW127968   1.509   1.527   3.640  0.4927 -1.2564 -1.2004
 5444SOL    HW227969   1.612   1.431   3.619 -0.7055 -1.0576  1.5480
 5445SOL     OW27970   1.222   3.516  11.424  0.1370 -0.3396  0.8031
 5445SOL    HW127971   1.313   3.527  11.399  0.9639 -3.1290  2.5935
 5445SOL    HW227972   1.223   3.515  11.519 -1.0523 -1.8037  0.8036
 5446SOL     OW27973   1.388   1.723   2.490  0.1696  0.3420 -0.1858
 5446SOL    HW127974   1.301   1.701   2.457  0.0329  2.7890 -1.5329
 5446SOL    HW227975   1.382   1.723   2.585  1.5354 -1.4324 -0.1075
 5447SOL     OW27976   0.057   0.844   8.429  0.3901 -0.3126  0.2330
 5447SOL    HW127977   0.002   0.918   8.455  0.5552  0.1541 -0.7184
 5447SOL    HW227978   0.122   0.846   8.499  1.3038  0.1200 -0.6128
 5448SOL     OW27979   3.806   1.667   8.236 -0.0731  0.3149 -0.1168
 5448SOL    HW127980   3.899   1.689   8.245  0.1971 -0.0924 -1.7769
 5448SOL    HW227981   3.775   1.748   8.195 -2.0631 -1.5720 -2.3508
 5449SOL     OW27982   3.838   1.634   9.462  0.3858  0.1876  0.2316
 5449SOL    HW127983   3.799   1.578   9.530  2.1700 -0.9308  0.3183
 5449SOL    HW227984   3.839   1.718   9.507 -3.2259  0.1711  0.3895
 5450SOL     OW27985   1.083   1.195  17.725  0.4537  0.0169  0.3742
 5450SOL    HW127986   1.149   1.143   0.019  0.6587  0.7644  0.9474
 5450SOL    HW227987   1.024   1.128  17.691 -0.8215  0.2657  2.1018
 5451SOL     OW27988   0.045   2.291  12.185 -0.2718  0.1710  0.0041
 5451SOL    HW127989   0.056   2.213  12.131 -0.0438  0.1328  0.1077
 5451SOL    HW227990   0.072   2.258  12.271 -0.9093 -1.7882 -0.5526
 5452SOL     OW27991   3.647   3.722   6.890 -0.3276 -0.5374  0.5797
 5452SOL    HW127992   3.665   3.816   6.885  2.3466 -0.9741  2.3253
 5452SOL    HW227993   3.722   3.684   6.936  0.1612 -0.0557  0.1836
 5453SOL     OW27994   1.202   2.307   7.971  0.0074  0.2662 -0.2309
 5453SOL    HW127995   1.116   2.331   8.006  0.7041  0.7017  1.2016
 5453SOL    HW227996   1.176   2.262   7.891  1.4773  0.8184 -1.0153
 5454SOL     OW27997   2.476   3.102   9.193  0.1245 -0.7476  0.6852
 5454SOL    HW127998   2.496   3.024   9.246  0.3035 -2.1961 -1.4951
 5454SOL    HW227999   2.484   3.063   9.105  0.4962 -0.6779  0.6872
 5455SOL     OW28000   2.164   2.047   2.857 -0.5206 -0.4027 -0.4722
 5455SOL    HW128001   2.097   2.093   2.907 -1.1446 -0.2131 -1.4887
 5455SOL    HW228002   2.235   2.064   2.919  0.5763 -0.4963 -1.7098
 5456SOL     OW28003   2.063   3.964   2.273  0.1337  0.7504 -0.5990
 5456SOL    HW128004   1.986   3.999   2.319  0.4068  1.2513 -0.5212
 5456SOL    HW228005   2.109   4.047   2.264 -0.1120  1.0397  0.7320
 5457SOL     OW28006   2.792   3.082  14.854 -0.3337  0.3115 -0.1316
 5457SOL    HW128007   2.719   3.121  14.806 -2.0035 -0.8394  1.4815
 5457SOL    HW228008   2.759   2.998  14.884  1.2702  0.1247  1.1141
 5458SOL     OW28009   0.186   0.165   4.371 -0.2580 -0.7544 -0.0748
 5458SOL    HW128010   0.158   0.078   4.400 -1.0589 -0.2413  0.6839
 5458SOL    HW228011   0.231   0.151   4.287 -1.7134 -0.0828 -0.9599
 5459SOL     OW28012   0.214   3.396  10.876  0.0511  0.2143 -0.4953
 5459SOL    HW128013   0.163   3.412  10.955  0.6954  0.5222 -0.1431
 5459SOL    HW228014   0.283   3.460  10.894 -1.4126  1.0199  2.2283
 5460SOL     OW28015   2.103   3.462   3.123 -0.4977 -0.7497 -0.1149
 5460SOL    HW128016   2.184   3.412   3.135 -0.2862 -0.3582  0.0690
 5460SOL    HW228017   2.046   3.426   3.191 -1.8024 -2.3928 -2.0488
 5461SOL     OW28018   0.987   2.955   6.697  0.3597  0.1430 -0.6170
 5461SOL    HW128019   0.953   3.030   6.746 -0.1914  0.0659 -0.8805
 5461SOL    HW228020   0.928   2.887   6.732  1.4156 -0.1756  0.5518
 5462SOL     OW28021   3.457   2.490   5.448  0.0352 -0.4697 -0.3241
 5462SOL    HW128022   3.389   2.452   5.394 -0.5786 -1.5892  1.2184
 5462SOL    HW228023   3.517   2.525   5.382 -0.3042 -0.2537 -0.5132
 5463SOL     OW28024   2.275   0.488   9.054  0.2825 -0.2196 -0.2266
 5463SOL    HW128025   2.249   0.396   9.053 -1.6191  0.2914  1.2685
 5463SOL    HW228026   2.315   0.490   9.141  2.7902 -0.1914 -1.3825
 5464SOL     OW28027   3.545   4.120   9.845  0.3133  0.1836 -0.1051
 5464SOL    HW128028   3.489   4.166   9.783 -0.5558  2.3361  2.3079
 5464SOL    HW228029   3.620   4.174   9.870  1.6223 -2.6971  2.3039
 5465SOL     OW28030   4.212   0.126   6.300 -0.1275  0.4635  0.4603
 5465SOL    HW128031   4.161   0.202   6.328 -2.0649  0.1150 -2.0418
 5465SOL    HW228032   4.272   0.109   6.372  0.1688  0.0060  0.1017
 5466SOL     OW28033   3.040   2.982   2.991 -0.2414 -0.6965  0.1712
 5466SOL    HW128034   2.984   3.024   2.926  0.5138  1.7251  1.0980
 5466SOL    HW228035   3.114   3.042   2.996 -0.1373 -0.8314  0.2382
 5467SOL     OW28036   2.505   2.141   4.905 -0.0736  0.4221  0.1554
 5467SOL    HW128037   2.451   2.065   4.926  0.0611  1.1155  3.0731
 5467SOL    HW228038   2.590   2.129   4.946 -0.7216 -2.1342  0.7165
 5468SOL     OW28039   3.147   3.809  12.931  0.5007  0.5146  0.4310
 5468SOL    HW128040   3.168   3.723  12.969 -0.7289  0.7162  1.5515
 5468SOL    HW228041   3.172   3.878  12.992  0.7064  1.2074 -0.4478
 5469SOL     OW28042   3.990   1.942   9.148 -0.1053  0.6652  0.3386
 5469SOL    HW128043   3.915   1.956   9.090  0.1237  0.7106  0.0582
 5469SOL    HW228044   3.972   2.004   9.219  1.0817 -1.1424  2.2234
 5470SOL     OW28045   2.503   0.595  13.620  0.1110  1.1675  0.2850
 5470SOL    HW128046   2.535   0.631  13.537  1.1247 -1.6179 -0.5420
 5470SOL    HW228047   2.586   0.584  13.667  1.2144 -1.3993 -2.2609
 5471SOL     OW28048   0.997   2.183  12.468 -0.0248  0.3794  0.3816
 5471SOL    HW128049   1.060   2.124  12.508  2.9193  1.7289 -2.2612
 5471SOL    HW228050   0.926   2.122  12.452  0.5715  0.1670 -1.4824
 5472SOL     OW28051   2.665   0.361   7.202 -0.1980  0.5099  0.9283
 5472SOL    HW128052   2.707   0.296   7.145 -0.2829  0.7595  0.5861
 5472SOL    HW228053   2.741   0.390   7.253 -1.2856  2.1825  1.5799
 5473SOL     OW28054   1.418   1.437   1.877 -0.7847  0.1973  0.1282
 5473SOL    HW128055   1.377   1.396   1.801 -0.6138  1.2269 -0.5322
 5473SOL    HW228056   1.485   1.491   1.834  1.3536 -1.0241  1.9392
 5474SOL     OW28057   2.251   1.220   7.021  0.4503 -0.3667 -0.7957
 5474SOL    HW128058   2.307   1.142   7.020 -0.9847 -1.4154 -0.3682
 5474SOL    HW228059   2.312   1.291   7.036  0.0009  0.0898 -1.1062
 5475SOL     OW28060   2.485   2.220   3.627  0.1156 -0.2905  0.2961
 5475SOL    HW128061   2.522   2.265   3.551 -3.3666 -1.0607 -1.8704
 5475SOL    HW228062   2.564   2.176   3.657  0.1509  0.9039  1.9396
 5476SOL     OW28063   0.406   2.809   1.120  0.2880  0.2919  0.1101
 5476SOL    HW128064   0.482   2.865   1.134 -0.8956  1.8124  0.4449
 5476SOL    HW228065   0.376   2.791   1.209  1.7068  0.1860  0.5702
 5477SOL     OW28066   4.590   4.316   4.574 -0.3021 -0.6464 -0.3916
 5477SOL    HW128067   4.583   4.342   4.482  0.5389  1.0825  0.0441
 5477SOL    HW228068   4.561   4.394   4.621  1.9889 -0.0157 -0.0544
 5478SOL     OW28069   3.328   4.047   6.938 -0.5388 -0.1837 -0.1781
 5478SOL    HW128070   3.390   4.051   6.865  1.5167 -0.3141  1.5945
 5478SOL    HW228071   3.346   4.130   6.982  1.0543 -0.1150 -0.9782
 5479SOL     OW28072   0.573   3.150   2.429  0.1405 -0.2156 -0.4881
 5479SOL    HW128073   0.637   3.156   2.359 -0.6335 -1.0652 -1.2567
 5479SOL    HW228074   0.625   3.192   2.498  0.3492 -0.2985 -0.5958
 5480SOL     OW28075   1.830   2.070   4.631  0.8933  0.1444  0.4145
 5480SOL    HW128076   1.739   2.100   4.631  1.0523  0.6209  0.4469
 5480SOL    HW228077   1.872   2.150   4.600  0.1396 -0.3350 -1.8712
 5481SOL     OW28078   4.719   3.399   8.886 -0.0206  0.1151 -0.5799
 5481SOL    HW128079   4.732   3.352   8.969  2.2187  0.0307 -0.9871
 5481SOL    HW228080   0.048   3.355   8.834  0.3252  0.1973 -0.2075
 5482SOL     OW28081   0.974   0.205   2.449 -0.0383 -0.0275  0.0588
 5482SOL    HW128082   0.936   0.141   2.509  0.5311 -1.3731 -0.9971
 5482SOL    HW228083   0.932   0.288   2.471  0.8582 -0.5528  3.6193
 5483SOL     OW28084   1.968   0.943   6.383  0.0504  0.7121 -0.3920
 5483SOL    HW128085   2.047   0.962   6.435 -1.4728 -2.0835  2.9777
 5483SOL    HW228086   1.992   0.986   6.301 -0.6619  0.1618 -0.8897
 5484SOL     OW28087   3.066   3.578   5.311 -0.0550 -0.0612 -0.0951
 5484SOL    HW128088   3.103   3.498   5.276 -1.1005 -1.0533  1.0282
 5484SOL    HW228089   2.987   3.587   5.258 -0.8813  2.1486  1.4899
 5485SOL     OW28090   4.230   3.083  14.919  0.0737  0.5339  0.8674
 5485SOL    HW128091   4.158   3.023  14.902  1.9427 -1.4563 -0.0445
 5485SOL    HW228092   4.191   3.165  14.889  2.4903  1.4214  0.1598
 5486SOL     OW28093   1.728   3.264  15.313 -0.1453 -0.0008  0.0783
 5486SOL    HW128094   1.717   3.188  15.370  2.3270 -0.9074 -0.6588
 5486SOL    HW228095   1.755   3.328  15.379 -2.2108  3.1193 -2.0825
 5487SOL     OW28096   3.784   0.161   1.054  0.0715 -0.5327 -0.3846
 5487SOL    HW128097   3.793   0.109   1.134 -0.6106 -0.0661 -0.0025
 5487SOL    HW228098   3.783   0.252   1.085  0.7651 -0.5264 -0.3941
 5488SOL     OW28099   1.530   1.852   4.111  0.3947  0.4280 -0.0250
 5488SOL    HW128100   1.568   1.787   4.052  0.7890  1.5055 -0.9635
 5488SOL    HW228101   1.475   1.803   4.171  0.2280  0.3957 -0.2039
 5489SOL     OW28102   1.510   2.072   3.973  0.5869 -0.0550  0.0555
 5489SOL    HW128103   1.539   2.017   4.045  1.1313  2.1224  1.5049
 5489SOL    HW228104   1.575   2.042   3.909 -0.1425 -3.8918  1.1514
 5490SOL     OW28105   3.117   1.620  15.320  0.3523 -0.3407  0.2424
 5490SOL    HW128106   3.084   1.571  15.395  0.1065 -0.0839  0.3002
 5490SOL    HW228107   3.114   1.711  15.349  1.0372 -1.0637  2.6087
 5491SOL     OW28108   1.953   3.455   0.539  0.7176 -0.0233 -0.5198
 5491SOL    HW128109   1.989   3.431   0.624 -1.3444  0.3160  0.4545
 5491SOL    HW228110   1.980   3.374   0.497  0.1278 -0.7666  0.5581
 5492SOL     OW28111   2.395   4.463   7.724  0.3847 -0.1656 -0.1024
 5492SOL    HW128112   2.313   4.444   7.679  1.1298 -1.5286 -0.9140
 5492SOL    HW228113   2.467   4.436   7.666  0.2625  1.6911 -1.1188
 5493SOL     OW28114   3.873   2.954   2.792 -0.3063 -0.2141  0.2531
 5493SOL    HW128115   3.954   2.985   2.833  0.1209  0.6460 -1.2419
 5493SOL    HW228116   3.815   3.027   2.812  1.9447  0.0022  5.9864
 5494SOL     OW28117   4.670   3.526   1.949 -0.1296  0.1630 -0.2462
 5494SOL    HW128118   4.626   3.609   1.932 -1.9326 -0.6988  0.1636
 5494SOL    HW228119   4.663   3.503   2.041 -0.3844 -1.2650 -0.6072
 5495SOL     OW28120   3.100   1.712   4.979  0.0119  0.4420  0.1314
 5495SOL    HW128121   3.091   1.633   4.926 -0.2939  0.1421  0.6395
 5495SOL    HW228122   3.124   1.769   4.905  0.4699  0.8115  0.5635
 5496SOL     OW28123   2.400   3.644   2.969 -0.3585 -0.2233 -0.4332
 5496SOL    HW128124   2.344   3.585   2.919  0.2156 -0.3151 -0.9706
 5496SOL    HW228125   2.456   3.581   3.014  0.7646  2.6255  2.1408
 5497SOL     OW28126   1.534   4.354   1.532 -0.1829  0.1816 -0.1511
 5497SOL    HW128127   1.462   4.418   1.538  0.4065  0.5428  2.6647
 5497SOL    HW228128   1.596   4.417   1.495  1.6480 -0.8872  1.0992
 5498SOL     OW28129   0.219   1.780   5.573  0.0135  0.3681  0.5154
 5498SOL    HW128130   0.158   1.707   5.569 -1.5955  1.7428  0.3792
 5498SOL    HW228131   0.201   1.822   5.489 -0.3611 -2.0974 -0.6443
 5499SOL     OW28132   0.675   0.392   4.634  0.1427 -0.4920  0.0985
 5499SOL    HW128133   0.655   0.371   4.543  1.8480  0.1561 -0.4137
 5499SOL    HW228134   0.609   0.460   4.646  1.7820  1.1236 -0.0750
 5500SOL     OW28135   2.103   3.362   4.452  0.0506  0.0202 -0.0442
 5500SOL    HW128136   2.047   3.293   4.418 -0.2417  0.6196 -0.7700
 5500SOL    HW228137   2.061   3.439   4.415 -0.1852  0.3334  0.8606
 5501SOL     OW28138   4.176   1.202   5.247  0.0842  0.7424 -0.0458
 5501SOL    HW128139   4.115   1.207   5.321  1.2398  0.8119  0.9057
 5501SOL    HW228140   4.207   1.113   5.263 -1.1913  0.4997  1.0227
 5502SOL     OW28141   1.380   2.404   0.312  0.3336 -0.1193 -0.1300
 5502SOL    HW128142   1.463   2.371   0.345  0.2994 -0.3083 -0.2334
 5502SOL    HW228143   1.403   2.425   0.222 -0.8283  1.0881 -0.1605
 5503SOL     OW28144   3.965   3.490   8.863  0.6155 -0.3702  0.4172
 5503SOL    HW128145   4.011   3.546   8.800 -1.2397  0.8125  0.1225
 5503SOL    HW228146   3.980   3.402   8.829 -2.7858 -0.9529  0.4069
 5504SOL     OW28147   1.169   2.219   5.129  0.1092 -0.1765  0.3985
 5504SOL    HW128148   1.092   2.238   5.075  0.1785 -1.0312 -0.0029
 5504SOL    HW228149   1.150   2.130   5.159 -1.4430  0.2814  0.7725
 5505SOL     OW28150   4.205   3.421   7.722  0.2182  0.9246 -0.0818
 5505SOL    HW128151   4.234   3.360   7.789  1.0143 -0.4375 -1.6859
 5505SOL    HW228152   4.121   3.382   7.701  0.4008 -0.2067  1.3023
 5506SOL     OW28153   3.905   4.260  12.907 -0.0425 -0.0471 -0.1339
 5506SOL    HW128154   3.951   4.224  12.983  1.6941  1.8495 -0.3060
 5506SOL    HW228155   3.824   4.208  12.918 -0.4634  1.0971  2.2992
 5507SOL     OW28156   4.417   1.374   0.383  0.0717 -0.0648 -0.6800
 5507SOL    HW128157   4.486   1.400   0.444 -0.0254 -2.5964  0.4874
 5507SOL    HW228158   4.340   1.427   0.405  1.2782  0.7471  1.5241
 5508SOL     OW28159   2.690   2.399   3.576 -0.8174  0.0615  0.3517
 5508SOL    HW128160   2.702   2.441   3.490  2.1381 -2.7949 -0.6106
 5508SOL    HW228161   2.775   2.361   3.594 -0.6618  0.6752  0.9310
 5509SOL     OW28162   0.775   1.868  11.629  0.3798  0.0790  0.2744
 5509SOL    HW128163   0.811   1.788  11.668 -0.7198 -0.3418  0.4281
 5509SOL    HW228164   0.684   1.868  11.661 -0.5226  1.8738 -2.3601
 5510SOL     OW28165   2.069   0.364   1.299  0.5777 -0.6338 -0.1644
 5510SOL    HW128166   2.124   0.441   1.284 -0.1219  0.0009  0.5090
 5510SOL    HW228167   2.112   0.342   1.382 -1.4334  1.0370  1.3115
 5511SOL     OW28168   0.969   4.000   7.315 -0.0774 -0.7197  0.2473
 5511SOL    HW128169   0.877   4.015   7.338 -0.0106 -2.0551  1.4464
 5511SOL    HW228170   0.983   4.082   7.268 -0.9662 -1.5228 -1.4295
 5512SOL     OW28171   1.759   0.040   2.863 -0.8565  0.0452  0.2398
 5512SOL    HW128172   1.845   0.070   2.893 -1.4399  1.9828 -0.0578
 5512SOL    HW228173   1.767   0.048   2.768  1.7295 -2.5456  0.2333
 5513SOL     OW28174   2.881   4.403   4.300  0.2575  0.3490 -0.3635
 5513SOL    HW128175   2.866   4.392   4.394  0.4585 -1.1763 -0.5057
 5513SOL    HW228176   2.971   4.379   4.279  0.3758  0.4908 -0.0190
 5514SOL     OW28177   0.527   3.241   4.485  0.3902 -0.6990 -0.4502
 5514SOL    HW128178   0.618   3.216   4.468  0.4841 -0.4152 -0.3732
 5514SOL    HW228179   0.549   3.318   4.538 -0.1722 -1.1587  0.4426
 5515SOL     OW28180   0.739   2.846   6.276 -0.7134 -0.2923  0.1766
 5515SOL    HW128181   0.694   2.824   6.195  1.5128  1.1351 -1.4590
 5515SOL    HW228182   0.688   2.793   6.337 -0.2669  0.6734  1.3764
 5516SOL     OW28183   1.127   4.671   9.718  0.6328  0.1839  0.2247
 5516SOL    HW128184   1.082   0.002   9.765  1.2757  0.4094  0.5056
 5516SOL    HW228185   1.134   4.608   9.790  2.3103 -1.2825 -1.2131
 5517SOL     OW28186   1.158   2.753   1.196  0.0445  0.4286  0.2667
 5517SOL    HW128187   1.116   2.706   1.123  0.9951 -1.1529  0.7370
 5517SOL    HW228188   1.201   2.683   1.244  0.8148  0.1322 -0.8419
 5518SOL     OW28189   2.330   1.753   9.234  0.2491 -0.1983  0.1194
 5518SOL    HW128190   2.253   1.718   9.278  1.0814 -1.1160  0.8394
 5518SOL    HW228191   2.305   1.724   9.146  0.0880 -0.1874  0.1630
 5519SOL     OW28192   1.327   4.140   2.815 -0.2598 -0.5541  0.1677
 5519SOL    HW128193   1.325   4.067   2.877  4.0981 -2.4304 -1.9565
 5519SOL    HW228194   1.259   4.202   2.843 -0.1027 -0.6016  0.6595
 5520SOL     OW28195   2.152   3.658   7.217  0.3852  0.0067  0.4805
 5520SOL    HW128196   2.087   3.671   7.147 -0.9196  0.3752  1.7588
 5520SOL    HW228197   2.120   3.709   7.292 -0.1584 -0.3207  0.4698
 5521SOL     OW28198   3.569   2.256   0.636  0.3816 -0.6465  0.0837
 5521SOL    HW128199   3.618   2.175   0.623  2.6113  0.8354 -0.6206
 5521SOL    HW228200   3.537   2.245   0.726  0.1342 -0.4940  0.0135
 5522SOL     OW28201   0.572   1.396   9.961 -0.0737 -0.1178 -0.2142
 5522SOL    HW128202   0.515   1.472   9.972 -0.4448 -0.4725  0.3675
 5522SOL    HW228203   0.653   1.446   9.969  0.7679 -1.6833  1.3060
 5523SOL     OW28204   3.976   2.153   4.996  0.3806  0.6920 -0.5330
 5523SOL    HW128205   4.016   2.174   5.081  3.2434 -3.5818 -0.8409
 5523SOL    HW228206   3.950   2.063   5.014  2.4284 -0.1409 -1.6827
 5524SOL     OW28207   2.170   2.185   0.878  0.1418 -0.5585  0.0140
 5524SOL    HW128208   2.159   2.091   0.865  1.0104 -0.2227 -3.1513
 5524SOL    HW228209   2.161   2.212   0.786  0.5282 -1.9280 -0.4325
 5525SOL     OW28210   1.089   2.569   1.390 -0.1601  0.5568  0.1239
 5525SOL    HW128211   1.142   2.494   1.363 -0.3506  0.5794 -0.2994
 5525SOL    HW228212   1.065   2.542   1.479 -0.7643 -2.2259 -0.8917
 5526SOL     OW28213   2.376   0.474   9.319 -0.5748 -0.2520 -0.1311
 5526SOL    HW128214   2.452   0.424   9.347 -0.1777  0.3070 -0.1946
 5526SOL    HW228215   2.306   0.421   9.355 -1.6290  2.9455  2.4884
 5527SOL     OW28216   1.024   4.004   1.766 -0.3773  0.0300 -0.0273
 5527SOL    HW128217   1.051   3.938   1.830 -1.5147 -0.5019 -0.0919
 5527SOL    HW228218   1.005   4.074   1.829  0.6743  0.1988  0.1049
 5528SOL     OW28219   0.483   0.987   0.510 -0.3179 -0.2185 -0.5622
 5528SOL    HW128220   0.541   1.012   0.582 -2.2839  0.2048  0.8821
 5528SOL    HW228221   0.549   0.948   0.453  1.4022 -0.2167  1.4094
 5529SOL     OW28222   1.812   3.261   7.280  0.1092  0.4393 -0.4088
 5529SOL    HW128223   1.788   3.170   7.265  0.2673  0.8968 -3.4043
 5529SOL    HW228224   1.906   3.250   7.296 -0.0821  1.7626  1.6592
 5530SOL     OW28225   2.522   0.948   4.680 -0.4903 -0.7136 -0.3201
 5530SOL    HW128226   2.440   0.934   4.633 -2.6118  1.7841  2.6663
 5530SOL    HW228227   2.559   0.860   4.677 -0.3275 -0.7262  1.8406
 5531SOL     OW28228   4.085   0.327   3.128 -0.1249 -0.0722 -0.6099
 5531SOL    HW128229   4.017   0.310   3.194  0.2273  2.1581  0.3176
 5531SOL    HW228230   4.069   0.276   3.048  2.3839  3.0516 -3.0930
 5532SOL     OW28231   2.359   2.983   4.214 -0.0846  0.2604 -0.3351
 5532SOL    HW128232   2.366   3.055   4.277  1.3353 -0.2243  0.0580
 5532SOL    HW228233   2.291   2.935   4.261  0.7592 -1.2200 -0.6196
 5533SOL     OW28234   2.399   2.137  11.012 -0.3026 -0.1516  0.1441
 5533SOL    HW128235   2.476   2.086  10.986  1.2505  2.0558  0.4458
 5533SOL    HW228236   2.329   2.073  11.025  0.0755 -0.2572  1.5850
 5534SOL     OW28237   2.307   0.022   4.317 -0.1970 -0.2178  0.2789
 5534SOL    HW128238   2.212   0.030   4.325 -0.4543 -1.3806 -1.7284
 5534SOL    HW228239   2.331   0.049   4.405  4.6456 -0.5109 -0.9474
 5535SOL     OW28240   0.304   2.071   8.028  0.3967 -0.5983  0.0690
 5535SOL    HW128241   0.386   2.120   8.031  0.0269  0.0276 -0.1559
 5535SOL    HW228242   0.254   2.111   7.957 -0.0303 -3.2514 -1.1442
 5536SOL     OW28243   3.607   3.626  10.409 -0.0320 -0.0407 -0.1750
 5536SOL    HW128244   3.665   3.608  10.483 -1.9554 -0.4218  1.2091
 5536SOL    HW228245   3.557   3.545  10.411 -1.3257  0.7467 -0.9270
 5537SOL     OW28246   4.724   0.151   8.745  0.0990 -0.1401 -0.2928
 5537SOL    HW128247   4.630   0.139   8.735 -0.2224  1.5802  0.6227
 5537SOL    HW228248   0.009   0.128   8.655 -1.0034  2.3999 -1.2260
 5538SOL     OW28249   0.881   2.871   7.133  0.0413  0.0250  0.1839
 5538SOL    HW128250   0.817   2.810   7.097 -1.3294  1.7571 -0.2948
 5538SOL    HW228251   0.836   2.950   7.104 -0.0271 -0.8374 -2.0556
 5539SOL     OW28252   0.523   1.314  11.605  0.1682 -0.1486 -0.0350
 5539SOL    HW128253   0.559   1.242  11.658 -1.5300 -0.7501  0.2817
 5539SOL    HW228254   0.563   1.306  11.519 -0.3853  1.7768 -0.4677
 5540SOL     OW28255   0.199   0.975   4.608  0.0696 -0.3908 -0.3580
 5540SOL    HW128256   0.211   1.020   4.692  0.3083 -0.8921 -0.1261
 5540SOL    HW228257   0.202   0.884   4.637  1.5292 -0.7156 -1.5122
 5541SOL     OW28258   2.802   3.234   7.938  0.2817 -0.3585 -0.3804
 5541SOL    HW128259   2.892   3.201   7.947  0.0423 -0.8772  0.1058
 5541SOL    HW228260   2.780   3.228   7.845  0.6498  1.1029 -0.5540
 5542SOL     OW28261   4.695   2.347   4.595 -0.0523  0.5395  0.2631
 5542SOL    HW128262   4.609   2.372   4.627 -0.0795  0.2276  0.4305
 5542SOL    HW228263   0.013   2.403   4.648  1.0328 -1.1319  0.8892
 5543SOL     OW28264   0.731   2.824   1.966  0.3663  0.2669  0.0223
 5543SOL    HW128265   0.824   2.845   1.968  0.9760 -2.1811 -2.8778
 5543SOL    HW228266   0.728   2.748   2.024  3.1351 -0.6573 -1.0635
 5544SOL     OW28267   1.640   3.749   5.167  0.1436 -0.7971  0.2268
 5544SOL    HW128268   1.578   3.806   5.122 -0.8898 -0.8429  1.5731
 5544SOL    HW228269   1.614   3.765   5.258 -1.0831 -1.3338 -0.0322
 5545SOL     OW28270   0.448   0.712   8.561 -0.4476 -0.9095 -0.0866
 5545SOL    HW128271   0.378   0.755   8.609 -1.8008 -2.1047 -0.9939
 5545SOL    HW228272   0.528   0.735   8.609 -1.0763  1.6393 -0.2428
 5546SOL     OW28273   4.374   1.946  17.635 -0.7106 -0.1257  0.3295
 5546SOL    HW128274   4.370   1.963  17.541  2.1814 -0.4072  0.1630
 5546SOL    HW228275   4.323   2.022  17.660 -1.5882 -0.9118  0.9100
 5547SOL     OW28276   2.569   3.546   5.407  0.6011 -0.3860 -0.5731
 5547SOL    HW128277   2.497   3.517   5.350  2.2185  1.2010 -3.4292
 5547SOL    HW228278   2.606   3.460   5.427 -0.2799 -0.1522  2.0052
 5548SOL     OW28279   1.183   1.646   7.974  0.2226  0.1455  0.1483
 5548SOL    HW128280   1.097   1.605   7.963 -0.2861  1.0642  0.7359
 5548SOL    HW228281   1.172   1.728   8.021 -0.5657  0.6842 -0.9879
 5549SOL     OW28282   2.435   2.260   8.483  0.0589  0.1424 -0.1816
 5549SOL    HW128283   2.374   2.263   8.410  1.3345  0.7305 -1.2075
 5549SOL    HW228284   2.372   2.247   8.555 -0.8671  1.8549 -0.6978
 5550SOL     OW28285   3.208   3.478   6.512 -0.3229 -0.3118  0.3268
 5550SOL    HW128286   3.194   3.425   6.591 -1.6634  1.2726  1.1477
 5550SOL    HW228287   3.170   3.410   6.455  0.1704 -0.2324 -0.0972
 5551SOL     OW28288   1.452   0.277   3.763 -0.1094  0.5195 -0.5080
 5551SOL    HW128289   1.463   0.240   3.850 -1.4533  0.8650 -0.1958
 5551SOL    HW228290   1.359   0.263   3.747 -0.3688  0.0841  1.4539
 5552SOL     OW28291   0.089   0.653   5.187  0.1685  0.3615  0.2115
 5552SOL    HW128292   0.024   0.600   5.235 -0.8222  1.2045 -0.2121
 5552SOL    HW228293   0.165   0.595   5.195 -0.4373 -0.5059 -0.2682
 5553SOL     OW28294   4.186   4.005  17.584  0.5035 -0.2859 -0.3485
 5553SOL    HW128295   4.102   3.959  17.595  0.5729 -0.5583 -0.9258
 5553SOL    HW228296   4.250   3.936  17.602  1.3265  0.9984  1.6288
 5554SOL     OW28297   0.596   0.087   4.922 -1.1141 -0.5206  0.0069
 5554SOL    HW128298   0.549   0.135   4.990  0.7657  1.4266 -0.0470
 5554SOL    HW228299   0.533   0.094   4.849  1.1462  0.0386 -1.8943
 5555SOL     OW28300   3.989   1.406   2.083 -0.2486 -0.3720  0.0210
 5555SOL    HW128301   4.016   1.351   2.009 -5.3031  0.1110 -2.1801
 5555SOL    HW228302   3.925   1.343   2.116 -0.1682 -1.8088 -2.5344
 5556SOL     OW28303   4.552   3.179  10.030  0.3258  0.2989 -0.3322
 5556SOL    HW128304   4.541   3.259  10.083  1.2078  0.6081 -0.6106
 5556SOL    HW228305   4.480   3.177   9.967  0.6229  2.4343 -0.7412
 5557SOL     OW28306   1.158   1.407   1.082  0.1512 -0.0777  0.3859
 5557SOL    HW128307   1.146   1.502   1.079  0.0550 -0.0797  0.7401
 5557SOL    HW228308   1.172   1.403   0.988 -1.7985  1.1724  0.0307
 5558SOL     OW28309   4.259   1.932   6.668 -0.5916  0.2498 -0.4054
 5558SOL    HW128310   4.216   1.847   6.670 -2.6143  1.3429  2.3751
 5558SOL    HW228311   4.229   1.966   6.584 -1.0071 -0.1340 -0.4116
 5559SOL     OW28312   2.412   0.220  16.752  0.3644  0.6105 -0.1112
 5559SOL    HW128313   2.392   0.269  16.672  0.7919  0.6030 -0.2253
 5559SOL    HW228314   2.368   0.279  16.813 -0.2073  1.2228 -1.1176
 5560SOL     OW28315   3.141   3.280  10.116 -0.3328  1.0744 -0.7364
 5560SOL    HW128316   3.142   3.337  10.039 -0.6896 -1.0395 -2.3045
 5560SOL    HW228317   3.189   3.200  10.093  0.9989  2.6678 -3.6030
 5561SOL     OW28318   0.142   1.279   3.767 -0.1284  0.6440  0.0249
 5561SOL    HW128319   0.184   1.263   3.852  0.8654  0.7631 -0.4437
 5561SOL    HW228320   0.066   1.332   3.791  0.8688  1.4690  1.3611
 5562SOL     OW28321   0.621   0.731   4.542  0.1415  0.2493 -0.0820
 5562SOL    HW128322   0.618   0.826   4.531 -0.1870  0.4228  1.4197
 5562SOL    HW228323   0.573   0.704   4.464 -1.8353 -0.1599  1.2780
 5563SOL     OW28324   3.971   0.389   7.241 -0.1677  0.1404 -0.0961
 5563SOL    HW128325   3.925   0.320   7.290 -0.7003 -2.1920 -3.9193
 5563SOL    HW228326   3.947   0.459   7.302  1.3089  2.3515 -2.0848
 5564SOL     OW28327   4.387   0.939   5.696 -0.3257 -0.0701 -0.5002
 5564SOL    HW128328   4.350   1.017   5.654 -1.8016  0.9483  2.6021
 5564SOL    HW228329   4.474   0.972   5.720  0.2825 -1.0546 -1.3879
 5565SOL     OW28330   2.127   0.267  15.204 -0.3504 -0.5612 -0.0708
 5565SOL    HW128331   2.192   0.271  15.274  0.8252  2.2570 -1.3157
 5565SOL    HW228332   2.166   0.324  15.138 -0.9228 -0.2344 -0.1289
 5566SOL     OW28333   3.028   4.395   3.572  0.4509 -0.5423  0.4071
 5566SOL    HW128334   2.935   4.415   3.569  0.3588 -0.8798  0.8969
 5566SOL    HW228335   3.026   4.321   3.633  0.8905 -0.9400 -0.0599
 5567SOL     OW28336   1.876   3.794   8.435 -0.3656  0.2935 -0.7585
 5567SOL    HW128337   1.821   3.766   8.362  1.3255 -2.1530 -1.0928
 5567SOL    HW228338   1.855   3.722   8.495 -1.1147  0.0457 -1.3229
 5568SOL     OW28339   1.874   0.711   1.256  0.0623  0.1888 -0.0808
 5568SOL    HW128340   1.866   0.652   1.181 -0.4051 -1.6580  1.4357
 5568SOL    HW228341   1.967   0.723   1.239 -0.2593  1.4563 -0.9567
 5569SOL     OW28342   2.802   3.774   9.154 -0.1633 -0.1012 -0.5539
 5569SOL    HW128343   2.867   3.843   9.167  0.0482 -0.2037 -1.0838
 5569SOL    HW228344   2.766   3.763   9.242  0.3777 -2.3657 -0.6200
 5570SOL     OW28345   3.523   4.131   5.724 -0.2139  0.4618  0.1369
 5570SOL    HW128346   3.455   4.094   5.667  0.4532  1.5612 -1.3705
 5570SOL    HW228347   3.603   4.120   5.672  0.8115 -1.4967  2.1049
 5571SOL     OW28348   1.874   0.632   7.553 -0.4668 -0.3510  0.0188
 5571SOL    HW128349   1.843   0.594   7.470 -0.2998 -0.6630  0.0990
 5571SOL    HW228350   1.901   0.554   7.601 -2.3383 -0.5769  0.7098
 5572SOL     OW28351   0.341   2.033   1.559 -0.2367  0.2369 -0.0909
 5572SOL    HW128352   0.266   2.047   1.502  0.8273  0.3132 -1.4783
 5572SOL    HW228353   0.398   1.975   1.508  1.3507  1.3371  0.4033
 5573SOL     OW28354   1.936   2.813   4.100 -0.1789  0.4325 -0.1481
 5573SOL    HW128355   1.885   2.857   4.033  1.2062 -1.0970 -2.2164
 5573SOL    HW228356   2.005   2.785   4.040 -0.6581  0.5387 -0.7449
 5574SOL     OW28357   1.728   1.073   1.434  0.4443 -0.2637  0.1641
 5574SOL    HW128358   1.694   1.157   1.466  0.3821  0.1453 -0.9859
 5574SOL    HW228359   1.675   1.055   1.357  2.4132  0.2071 -1.3205
 5575SOL     OW28360   1.400   3.485   6.921  0.1833  0.2392  0.4511
 5575SOL    HW128361   1.346   3.506   6.845 -1.3625 -0.2090  1.4265
 5575SOL    HW228362   1.369   3.550   6.984 -1.1286  1.1309 -1.1229
 5576SOL     OW28363   2.664   2.803   5.031  0.4129 -0.5194  0.4100
 5576SOL    HW128364   2.666   2.834   5.121 -1.4072 -2.3309  1.0713
 5576SOL    HW228365   2.745   2.841   4.997  0.0985 -1.2427 -1.1477
 5577SOL     OW28366   1.994   4.223   2.266 -1.0648 -0.2070  0.3020
 5577SOL    HW128367   1.912   4.259   2.301 -1.5469  0.4069 -1.4246
 5577SOL    HW228368   2.059   4.293   2.273  0.5630 -1.5846 -1.2104
 5578SOL     OW28369   0.222   1.943  14.659  0.6031 -0.1159 -0.4872
 5578SOL    HW128370   0.188   1.913  14.743  2.3454  2.9648  1.3409
 5578SOL    HW228371   0.179   1.886  14.595  0.4707 -0.2957 -0.2361
 5579SOL     OW28372   1.097   3.216   7.049 -0.2596  0.5122  0.7515
 5579SOL    HW128373   1.115   3.238   7.140  0.4910 -2.8410  1.4071
 5579SOL    HW228374   1.176   3.166   7.029  1.6952  3.4036  1.3252
 5580SOL     OW28375   1.757   4.495  11.088 -0.6106  0.1088  0.0131
 5580SOL    HW128376   1.689   4.562  11.088 -1.3827 -0.6500 -1.4225
 5580SOL    HW228377   1.761   4.490  10.992  1.5073  0.2318  0.0929
 5581SOL     OW28378   4.051   0.742   3.938  0.3463 -0.2367 -0.0879
 5581SOL    HW128379   3.959   0.767   3.949  0.7550  0.8623  0.7676
 5581SOL    HW228380   4.079   0.756   4.029 -1.2828  1.2071  0.1976
 5582SOL     OW28381   4.364   0.768  10.840  0.0957 -0.0892  0.3329
 5582SOL    HW128382   4.383   0.700  10.776  1.3045  0.4540  0.1013
 5582SOL    HW228383   4.336   0.712  10.912  0.0382  0.8988  1.0782
 5583SOL     OW28384   1.222   0.232   8.508 -0.2058 -0.5807 -0.0152
 5583SOL    HW128385   1.284   0.162   8.529  2.3272  2.0013  1.1849
 5583SOL    HW228386   1.148   0.180   8.479 -1.0393  0.4156  0.3331
 5584SOL     OW28387   4.554   2.280   7.835 -0.0572  0.4273  0.1233
 5584SOL    HW128388   4.514   2.256   7.751  0.7325  2.7857 -0.9388
 5584SOL    HW228389   4.476   2.266   7.889 -0.6331 -1.3997 -1.1683
 5585SOL     OW28390   4.246   3.922   3.639  0.3490  0.2356  0.3473
 5585SOL    HW128391   4.254   4.009   3.599  0.4657 -0.5141 -1.2646
 5585SOL    HW228392   4.156   3.923   3.671 -0.3498  1.2959 -1.6312
 5586SOL     OW28393   4.034   3.465   8.513 -0.7376  0.1225  0.1644
 5586SOL    HW128394   4.099   3.523   8.473 -1.7348 -0.0077 -1.6305
 5586SOL    HW228395   4.085   3.385   8.528 -0.5225  0.4951  1.3713
 5587SOL     OW28396   4.673   2.746   4.143 -0.5985  0.2981  0.1489
 5587SOL    HW128397   4.694   2.707   4.058 -0.2846  0.4088  0.1747
 5587SOL    HW228398   0.018   2.778   4.178 -0.6158 -0.0590  0.5098
 5588SOL     OW28399   0.378   2.070  12.284  0.1268 -0.4774 -0.1671
 5588SOL    HW128400   0.396   2.160  12.309 -0.6826 -0.3003 -0.2336
 5588SOL    HW228401   0.336   2.035  12.363 -2.4718  1.6143 -0.6235
 5589SOL     OW28402   3.115   1.997   7.895 -0.0854  0.2515  0.2623
 5589SOL    HW128403   3.069   2.004   7.811  0.0804 -1.5428  0.0176
 5589SOL    HW228404   3.194   1.946   7.880 -0.9496 -1.1718  0.4813
 5590SOL     OW28405   4.230   4.249  11.823 -0.1836  0.0504 -0.1474
 5590SOL    HW128406   4.302   4.253  11.886  0.9767  2.2358 -1.6194
 5590SOL    HW228407   4.166   4.216  11.886 -1.0736  1.8163 -0.1102
 5591SOL     OW28408   3.415   3.406   4.537 -0.2585  0.6921 -0.0270
 5591SOL    HW128409   3.499   3.449   4.523 -0.3528 -0.1514 -3.1083
 5591SOL    HW228410   3.363   3.482   4.510 -0.0124  0.9340  0.1944
 5592SOL     OW28411   3.776   3.359  13.577 -0.1667 -0.5828  0.0895
 5592SOL    HW128412   3.787   3.296  13.506  2.3576 -2.1799  1.8711
 5592SOL    HW228413   3.736   3.435  13.536  1.1161  0.5958  0.9954
 5593SOL     OW28414   2.552   3.077  10.064 -0.1495  0.3528  0.5574
 5593SOL    HW128415   2.603   3.149  10.101  2.4517 -0.8356 -0.7205
 5593SOL    HW228416   2.462   3.109  10.077 -0.3694 -0.5420  1.2448
 5594SOL     OW28417   0.777   2.451   4.193 -0.2974  0.3529  0.9200
 5594SOL    HW128418   0.766   2.490   4.279 -3.3024 -0.8820  1.1135
 5594SOL    HW228419   0.868   2.469   4.169 -0.5778  0.4283 -0.0868
 5595SOL     OW28420   1.160   4.188  11.849  0.5156  0.2549 -0.1737
 5595SOL    HW128421   1.086   4.154  11.899 -0.4613  1.3744 -0.8673
 5595SOL    HW228422   1.201   4.242  11.917 -3.1060  0.9811  1.4300
 5596SOL     OW28423   3.334   3.357   8.437  0.1622 -0.7192 -0.2444
 5596SOL    HW128424   3.273   3.302   8.486  1.5448  0.1765  2.4819
 5596SOL    HW228425   3.284   3.412   8.376 -0.3843  0.0212  0.8910
 5597SOL     OW28426   3.973   1.355   0.271  0.2934  0.4965 -0.0087
 5597SOL    HW128427   3.889   1.388   0.239  0.6121  1.2330 -0.0852
 5597SOL    HW228428   3.946   1.308   0.350  0.7746  0.0636 -0.1029
 5598SOL     OW28429   2.584   3.529   9.335  0.4424  0.0876  0.2893
 5598SOL    HW128430   2.657   3.570   9.381  0.1533  0.3865  0.4855
 5598SOL    HW228431   2.515   3.543   9.401  0.3355  3.8756 -0.5947
 5599SOL     OW28432   1.656   3.473   6.968  0.2322  0.5617  0.5484
 5599SOL    HW128433   1.562   3.479   6.955  0.3289  2.3035  0.6590
 5599SOL    HW228434   1.677   3.392   6.922 -0.4404  0.1311  1.0089
 5600SOL     OW28435   1.338   2.529   2.287 -0.3569  0.3821  0.7360
 5600SOL    HW128436   1.372   2.444   2.258 -0.1412  0.1972  1.5457
 5600SOL    HW228437   1.252   2.508   2.323 -0.5773 -2.3176 -1.3525
 5601SOL     OW28438   3.073   3.055   3.952 -0.0843  0.4286 -0.5028
 5601SOL    HW128439   3.049   3.046   3.860  1.3020  0.0509 -0.8320
 5601SOL    HW228440   3.083   3.149   3.967  0.3271  0.2783  0.1474
 5602SOL     OW28441   1.903   2.168   6.093 -0.6059 -0.0802 -0.0143
 5602SOL    HW128442   1.819   2.213   6.099  0.0492  1.1579 -0.1419
 5602SOL    HW228443   1.958   2.223   6.149  0.0643 -1.2741  0.4942
 5603SOL     OW28444   4.286   4.080   4.231 -0.0522 -0.1176  0.1236
 5603SOL    HW128445   4.365   4.051   4.276 -0.7894 -1.6849  0.4135
 5603SOL    HW228446   4.332   4.126   4.161 -0.3389  0.0385  0.0366
 5604SOL     OW28447   3.267   0.154   6.357 -0.2697  0.1294 -0.2290
 5604SOL    HW128448   3.350   0.194   6.384 -0.1733 -0.4952  0.4074
 5604SOL    HW228449   3.211   0.231   6.360  1.3978  1.2448  2.3897
 5605SOL     OW28450   0.462   1.564   3.111  0.1919  0.2523 -0.8835
 5605SOL    HW128451   0.368   1.573   3.096  0.3906  4.3291  0.4776
 5605SOL    HW228452   0.489   1.595   3.024  0.4097 -0.9122 -1.2324
 5606SOL     OW28453   3.250   2.135   4.200 -0.3445  0.5318  0.3811
 5606SOL    HW128454   3.320   2.172   4.146  0.4824 -1.4008  0.1263
 5606SOL    HW228455   3.284   2.060   4.249 -3.9865 -0.9798  0.6501
 5607SOL     OW28456   4.585   2.540  16.340 -0.0488  0.4538 -0.0106
 5607SOL    HW128457   4.589   2.635  16.343 -3.0417  0.4915  2.3361
 5607SOL    HW228458   4.675   2.526  16.367  0.0201  0.8414 -0.0496
 5608SOL     OW28459   3.034   3.047   8.690  0.0056  0.1129  0.2090
 5608SOL    HW128460   3.007   2.956   8.698  0.2771 -0.0128 -0.3016
 5608SOL    HW228461   2.959   3.082   8.642  0.0396  0.1204  0.1616
 5609SOL     OW28462   3.446   1.449  15.482 -0.2417 -0.2820 -0.2104
 5609SOL    HW128463   3.534   1.471  15.452 -0.5568 -0.4443 -1.2823
 5609SOL    HW228464   3.413   1.520  15.536  1.4716  0.2935  0.0512
 5610SOL     OW28465   2.004   1.255  15.406  0.7197 -0.1379 -0.4435
 5610SOL    HW128466   2.057   1.219  15.477  0.2449 -1.0102 -0.5352
 5610SOL    HW228467   2.017   1.349  15.416  0.1908 -0.1318  0.1795
 5611SOL     OW28468   2.728   1.172   7.763  0.1030 -0.3323 -0.5845
 5611SOL    HW128469   2.721   1.097   7.704  3.8114 -1.0058 -0.2108
 5611SOL    HW228470   2.636   1.182   7.787  0.2935  0.4137 -0.1628
 5612SOL     OW28471   2.388   0.021   5.930  0.0561  0.4698  0.3149
 5612SOL    HW128472   2.330   0.058   5.996 -0.9351 -0.7558  0.1185
 5612SOL    HW228473   2.326   4.730   5.863  0.2205  0.6928  0.0632
 5613SOL     OW28474   0.805   1.435   7.769 -0.0940 -0.2313 -0.2756
 5613SOL    HW128475   0.840   1.413   7.683  2.8511  1.5628  0.4420
 5613SOL    HW228476   0.778   1.524   7.748  0.3984  0.8780  3.7549
 5614SOL     OW28477   1.215   1.178   4.339  0.2740 -1.3759 -0.0140
 5614SOL    HW128478   1.123   1.181   4.365 -0.3306  0.5494 -2.4786
 5614SOL    HW228479   1.240   1.265   4.369  0.1577 -1.2466 -0.2969
 5615SOL     OW28480   1.290   1.344   0.243 -0.1027  0.1971  0.5897
 5615SOL    HW128481   1.334   1.398   0.177  2.3191 -2.5365 -0.0125
 5615SOL    HW228482   1.351   1.371   0.311  1.4737  1.0611 -1.1513
 5616SOL     OW28483   0.257   1.439   0.932  0.0240 -0.5325  0.0474
 5616SOL    HW128484   0.287   1.348   0.922  0.2131 -0.4074 -0.4800
 5616SOL    HW228485   0.326   1.488   0.888 -1.1034 -0.0980 -1.2158
 5617SOL     OW28486   2.343   4.435   9.867 -0.1610 -0.0589  0.5080
 5617SOL    HW128487   2.272   4.485   9.909 -0.1947  0.1255  0.2347
 5617SOL    HW228488   2.407   4.438   9.938 -1.5941 -1.1105  1.8295
 5618SOL     OW28489   4.608   3.682  14.605 -0.1210  0.2198 -0.2998
 5618SOL    HW128490   4.566   3.711  14.524  0.0190 -0.0740 -0.4795
 5618SOL    HW228491   4.570   3.594  14.612  1.2116 -0.2830  0.5844
 5619SOL     OW28492   2.935   1.236   1.614  0.0278 -0.1033  0.6176
 5619SOL    HW128493   2.892   1.153   1.630 -0.3295  0.0463  0.4363
 5619SOL    HW228494   3.024   1.208   1.632 -0.0196 -0.5602  0.1630
 5620SOL     OW28495   2.762   1.132   6.383  0.0362  0.1164  0.1333
 5620SOL    HW128496   2.689   1.186   6.352 -0.4343  0.1666  1.3400
 5620SOL    HW228497   2.733   1.051   6.341 -0.9451 -0.1920  1.3864
 5621SOL     OW28498   3.646   0.037   5.903 -0.0858  0.1948  0.0392
 5621SOL    HW128499   3.611   0.112   5.951  0.5243 -0.2005  1.1227
 5621SOL    HW228500   3.575   4.713   5.889 -0.0788  0.1907  0.0218
 5622SOL     OW28501   4.225   0.449   4.230  0.2772  0.3015 -0.0731
 5622SOL    HW128502   4.243   0.355   4.221 -0.8543 -0.0455  1.1795
 5622SOL    HW228503   4.136   0.453   4.194  1.1034 -0.4719 -2.2475
 5623SOL     OW28504   2.290   0.428  11.154  0.0049  0.0418 -0.2064
 5623SOL    HW128505   2.212   0.400  11.202 -0.9583  1.5402 -0.8951
 5623SOL    HW228506   2.319   0.492  11.219 -2.8448 -1.6594  2.7660
 5624SOL     OW28507   1.753   2.026   7.165  0.1844 -0.4104 -0.0604
 5624SOL    HW128508   1.809   2.036   7.242 -0.2611 -0.5317  0.2767
 5624SOL    HW228509   1.812   1.965   7.119  2.6573  2.0031 -0.1133
 5625SOL     OW28510   4.472   0.374   5.689 -0.0034  0.0150  0.5216
 5625SOL    HW128511   4.382   0.340   5.687 -0.3344  1.2121 -3.2888
 5625SOL    HW228512   4.510   0.290   5.718  0.6410 -1.1493 -3.7273
 5626SOL     OW28513   0.532   1.748  10.308 -0.6033  0.0206 -0.6664
 5626SOL    HW128514   0.617   1.785  10.329 -0.2856  0.4721 -2.7064
 5626SOL    HW228515   0.541   1.653  10.297 -0.6677 -0.1005  0.3856
 5627SOL     OW28516   3.005   4.453  13.650 -0.3447  0.5185 -0.0817
 5627SOL    HW128517   3.031   4.536  13.689  0.5263  0.5141 -0.6662
 5627SOL    HW228518   3.027   4.484  13.563 -0.1992  0.4240 -0.0770
 5628SOL     OW28519   2.430   2.912   5.814 -0.3338  0.4128 -0.1001
 5628SOL    HW128520   2.443   2.824   5.778 -1.3429  0.6717 -1.1135
 5628SOL    HW228521   2.519   2.943   5.827 -0.0308 -0.5293  0.0607
 5629SOL     OW28522   0.039   3.467  11.111 -0.5173 -0.0330 -0.5479
 5629SOL    HW128523   0.039   3.404  11.182  2.0985 -0.1873 -0.6672
 5629SOL    HW228524   0.080   3.541  11.156 -1.0890 -0.6054  0.8967
 5630SOL     OW28525   1.832   3.847   8.071 -0.4585 -0.3040 -0.0833
 5630SOL    HW128526   1.890   3.781   8.033 -0.0352  0.1695 -0.2566
 5630SOL    HW228527   1.784   3.780   8.119  1.0764 -1.6031 -0.3535
 5631SOL     OW28528   1.899   3.487   8.218  0.1186  0.1825  0.3800
 5631SOL    HW128529   1.889   3.406   8.168  2.2239  1.4622 -2.1314
 5631SOL    HW228530   1.954   3.535   8.155 -1.8359  0.7412 -0.8920
 5632SOL     OW28531   0.858   3.193   7.299  0.0376 -0.4911 -0.5531
 5632SOL    HW128532   0.937   3.187   7.352  0.3420 -0.5390 -1.0116
 5632SOL    HW228533   0.802   3.121   7.327  1.0066 -0.7460  0.6971
 5633SOL     OW28534   2.880   1.047   4.102 -0.4815  0.1110  1.2609
 5633SOL    HW128535   2.974   1.060   4.105 -0.3843 -0.3211 -0.0115
 5633SOL    HW228536   2.866   0.986   4.175  0.5064  0.4344  1.7167
 5634SOL     OW28537   1.047   4.488   0.798  0.0457 -0.3154 -0.2093
 5634SOL    HW128538   1.050   4.395   0.775  0.0144 -0.3193 -0.1988
 5634SOL    HW228539   0.975   4.535   0.756  1.4220 -0.8173 -3.0724
 5635SOL     OW28540   0.794   2.628   2.392  0.2787  0.0624  0.2432
 5635SOL    HW128541   0.758   2.713   2.420  0.5230  0.9876 -2.2288
 5635SOL    HW228542   0.781   2.639   2.298  1.2757 -0.0446  0.0930
 5636SOL     OW28543   2.489   4.729   9.389 -0.0958  0.0534 -0.4088
 5636SOL    HW128544   2.505   4.637   9.366  0.1443  0.0944 -0.3998
 5636SOL    HW228545   2.578   0.025   9.392  0.1979 -0.5993 -1.7728
 5637SOL     OW28546   2.172   2.378   3.210 -0.0059 -0.2600  0.4884
 5637SOL    HW128547   2.159   2.445   3.143  2.7751 -0.2473 -0.0510
 5637SOL    HW228548   2.135   2.299   3.170 -2.0585 -0.4954  2.8043
 5638SOL     OW28549   2.311   2.918   9.731 -0.6523 -0.2377  0.3933
 5638SOL    HW128550   2.356   2.989   9.776 -2.5738  1.4086 -0.2661
 5638SOL    HW228551   2.327   2.838   9.780  1.1986 -0.0836  0.0318
 5639SOL     OW28552   2.646   4.181   1.787 -0.0816  0.0228 -0.1782
 5639SOL    HW128553   2.591   4.103   1.786  1.1569 -0.8735  0.9719
 5639SOL    HW228554   2.646   4.200   1.881 -0.1889  2.0160 -0.5697
 5640SOL     OW28555   2.263   1.788  17.712 -0.7194 -0.7102 -0.8204
 5640SOL    HW128556   2.267   1.818  17.621  0.4547  3.6353  0.6586
 5640SOL    HW228557   2.333   1.723  17.715  0.1094  0.0319 -4.3514
 5641SOL     OW28558   0.045   3.882  13.225  0.7337  0.2242  0.4669
 5641SOL    HW128559   4.696   3.852  13.251  0.8377 -1.0324 -0.6955
 5641SOL    HW228560   0.021   3.974  13.238 -1.1526  0.0466 -1.8697
 5642SOL     OW28561   1.189   4.239  16.228  0.1941 -0.0099  0.2496
 5642SOL    HW128562   1.271   4.226  16.276 -0.0745  1.0834  1.0016
 5642SOL    HW228563   1.146   4.303  16.286 -1.5870 -2.1640  1.3222
 5643SOL     OW28564   4.543   0.844  12.240  0.4282  0.1958 -0.1930
 5643SOL    HW128565   4.519   0.932  12.210 -3.1342 -0.5966  0.3374
 5643SOL    HW228566   4.460   0.824  12.283  1.5057 -1.6497  1.0742
 5644SOL     OW28567   4.211   0.628   3.024  0.0916 -0.2233 -0.1879
 5644SOL    HW128568   4.164   0.644   3.106 -0.1374 -0.3373 -0.2987
 5644SOL    HW228569   4.160   0.560   2.980 -0.1318 -0.4317  0.3879
 5645SOL     OW28570   3.869   1.020   9.281  0.1993  0.5992  0.0904
 5645SOL    HW128571   3.962   1.044   9.286  1.4969 -4.5708  0.1816
 5645SOL    HW228572   3.821   1.100   9.306  0.7907  0.9716  0.0397
 5646SOL     OW28573   2.692   1.564   8.213 -0.2873 -0.2990  0.1985
 5646SOL    HW128574   2.640   1.508   8.156  1.7706 -2.1515  0.1410
 5646SOL    HW228575   2.696   1.646   8.163 -0.2010 -0.9139 -0.7956
 5647SOL     OW28576   0.098   2.269   6.076 -0.2138 -0.4564 -0.5384
 5647SOL    HW128577   0.134   2.254   6.164  1.2508 -1.7073 -1.3606
 5647SOL    HW228578   0.097   2.365   6.084  1.1755 -0.6263  1.6997
 5648SOL     OW28579   2.223   0.560   0.348 -0.1256 -0.5939 -0.3889
 5648SOL    HW128580   2.272   0.622   0.295 -0.5429 -1.2387 -1.5347
 5648SOL    HW228581   2.266   0.476   0.331  1.6246  0.2935 -0.2828
 5649SOL     OW28582   4.217   2.001   1.458  0.0780 -0.3367  0.2206
 5649SOL    HW128583   4.286   2.067   1.466 -0.1837  0.1144 -1.3710
 5649SOL    HW228584   4.166   2.041   1.388  0.0066  0.7144  0.8785
 5650SOL     OW28585   3.430   1.153   5.259  0.2118  0.2292  0.9866
 5650SOL    HW128586   3.493   1.177   5.191  0.2179  0.6091  1.1245
 5650SOL    HW228587   3.488   1.103   5.317  1.4377 -0.7103 -1.0537
 5651SOL     OW28588   2.224   0.975   6.478 -0.3867  0.4256 -1.0312
 5651SOL    HW128589   2.252   1.062   6.450 -0.0859  0.7853  0.3913
 5651SOL    HW228590   2.270   0.915   6.419  0.7939 -0.3153  0.6078
 5652SOL     OW28591   1.284   3.322  12.024  0.3236 -0.4181 -0.0616
 5652SOL    HW128592   1.253   3.306  12.113 -1.4112  0.3302 -0.5332
 5652SOL    HW228593   1.376   3.336  12.044  0.5602 -0.9629 -0.7562
 5653SOL     OW28594   0.114   4.391   2.780 -0.3393 -0.5002  0.1895
 5653SOL    HW128595   0.073   4.356   2.701 -0.5854 -2.2738  1.0967
 5653SOL    HW228596   0.206   4.407   2.757 -1.1114  0.4224 -2.2903
 5654SOL     OW28597   1.577   2.828  15.628 -0.3169 -0.4642  0.9999
 5654SOL    HW128598   1.609   2.783  15.549 -0.6173 -2.3505  1.9484
 5654SOL    HW228599   1.521   2.759  15.663  0.1117 -0.4231  1.7631
 5655SOL     OW28600   1.575   0.378   1.887 -0.5241 -0.0471  0.2040
 5655SOL    HW128601   1.582   0.359   1.980 -2.8638 -1.7343  0.0465
 5655SOL    HW228602   1.590   0.291   1.850  2.6550  0.7255 -0.3021
 5656SOL     OW28603   2.750   2.042   4.960  0.3494 -0.0815 -0.5818
 5656SOL    HW128604   2.730   1.997   5.043  2.0217 -1.7665 -1.1208
 5656SOL    HW228605   2.811   1.980   4.921 -0.6183 -1.6939  0.4378
 5657SOL     OW28606   2.557   0.362   4.674 -0.0401 -0.1498 -0.2314
 5657SOL    HW128607   2.510   0.438   4.707 -0.7150 -0.3373 -0.7592
 5657SOL    HW228608   2.612   0.340   4.750 -0.8471 -0.1710  0.3440
 5658SOL     OW28609   0.651   4.199   1.308  0.7571 -0.2458  0.1891
 5658SOL    HW128610   0.618   4.142   1.237 -0.2947  4.9094 -3.4298
 5658SOL    HW228611   0.617   4.283   1.278  1.3166 -1.2241 -3.2103
 5659SOL     OW28612   1.534   1.868   5.295  0.1473 -0.2151  0.2722
 5659SOL    HW128613   1.480   1.947   5.287  0.6926  0.1119 -0.1890
 5659SOL    HW228614   1.511   1.836   5.382 -1.0584  2.2120  0.8563
 5660SOL     OW28615   4.235   1.337   1.705 -0.0330  0.0245 -0.7501
 5660SOL    HW128616   4.275   1.383   1.631  2.2727 -0.6195  0.0760
 5660SOL    HW228617   4.309   1.280   1.728  1.6267  2.0802 -1.0325
 5661SOL     OW28618   4.296   4.501  16.585 -0.0089 -0.0617  0.1431
 5661SOL    HW128619   4.330   4.580  16.627 -0.5720  0.7937 -0.9901
 5661SOL    HW228620   4.319   4.536  16.499 -0.3585 -3.5354 -1.3368
 5662SOL     OW28621   1.469   3.542   7.606  0.4104 -0.0970 -0.5780
 5662SOL    HW128622   1.476   3.470   7.544 -0.2504 -1.3424  0.7958
 5662SOL    HW228623   1.554   3.557   7.646  1.0299 -1.7138 -1.3205
 5663SOL     OW28624   2.329   3.924   7.199  0.9641 -0.3823 -0.2894
 5663SOL    HW128625   2.360   3.968   7.278  1.0432 -0.4531 -0.2818
 5663SOL    HW228626   2.319   3.840   7.244 -1.1634 -0.3216 -0.6626
 5664SOL     OW28627   0.919   0.098   4.352 -0.1661 -0.4816  0.1276
 5664SOL    HW128628   1.010   0.076   4.371 -0.7935 -2.3444  0.8584
 5664SOL    HW228629   0.873   0.029   4.398 -2.8659  0.3786 -1.2606
 5665SOL     OW28630   3.478   2.396   5.071 -0.7657 -0.1991 -0.0273
 5665SOL    HW128631   3.441   2.307   5.066 -0.5533 -0.2585 -0.5110
 5665SOL    HW228632   3.559   2.390   5.021  0.1181  1.8449  1.2075
 5666SOL     OW28633   1.897   0.761   0.612 -0.6088 -0.5225 -0.1064
 5666SOL    HW128634   1.935   0.700   0.549  0.8551 -1.1282  1.3829
 5666SOL    HW228635   1.803   0.748   0.598 -1.0173  1.2257  1.0142
 5667SOL     OW28636   3.456   1.529   2.951  0.2389  0.1399  0.2584
 5667SOL    HW128637   3.416   1.475   3.019 -1.1384  1.6394  0.6517
 5667SOL    HW228638   3.410   1.610   2.974  0.3154  0.0011  0.8866
 5668SOL     OW28639   2.665   3.344   8.810 -0.5873 -0.4516  0.0749
 5668SOL    HW128640   2.655   3.305   8.897  1.5587 -1.6725 -0.2137
 5668SOL    HW228641   2.623   3.275   8.759  3.6883 -3.9646  1.2657
 5669SOL     OW28642   0.180   0.847   2.066 -0.3139 -0.3107 -0.3072
 5669SOL    HW128643   0.170   0.861   1.972 -0.5621  1.0835 -0.0720
 5669SOL    HW228644   0.180   0.751   2.064  0.1013 -0.3504  1.5416
 5670SOL     OW28645   3.884   1.424   6.679  0.4643 -0.8022 -0.0083
 5670SOL    HW128646   3.948   1.355   6.663  2.3943  0.3962  2.6770
 5670SOL    HW228647   3.818   1.413   6.609  1.2044 -0.9345 -0.6842
 5671SOL     OW28648   1.118   1.965   5.517  0.5428  0.0272  0.9937
 5671SOL    HW128649   1.121   1.933   5.607 -0.8527  0.1907  1.1032
 5671SOL    HW228650   1.122   2.060   5.528 -0.6628  0.2579 -0.6602
 5672SOL     OW28651   4.133   0.597   3.521 -0.5783  0.6112  0.1201
 5672SOL    HW128652   4.212   0.545   3.500 -0.9589 -0.8081  2.2081
 5672SOL    HW228653   4.092   0.613   3.436 -1.8465  1.5610  0.9273
 5673SOL     OW28654   2.667   3.654   4.291 -0.0432  0.0540  0.2961
 5673SOL    HW128655   2.693   3.732   4.241 -2.8241  1.9297  1.7511
 5673SOL    HW228656   2.705   3.586   4.236  1.0013  1.3436 -0.5896
 5674SOL     OW28657   4.401   4.050   6.486 -0.2474  0.0806  0.5637
 5674SOL    HW128658   4.398   3.957   6.507  1.0024 -0.0015  0.4156
 5674SOL    HW228659   4.412   4.045   6.391  1.5417 -0.8553  0.8143
 5675SOL     OW28660   3.301   0.380   4.494 -0.2378  0.0518  0.2145
 5675SOL    HW128661   3.362   0.315   4.461  0.0065  0.1750  0.4232
 5675SOL    HW228662   3.351   0.438   4.551 -0.1779 -1.2233  1.4755
 5676SOL     OW28663   2.083   1.547   3.243 -0.2537  0.6912  0.0573
 5676SOL    HW128664   2.119   1.522   3.329 -0.1968  0.3321 -0.0698
 5676SOL    HW228665   1.991   1.525   3.256  0.6403 -3.0712  0.2071
 5677SOL     OW28666   0.453   0.598  16.988  0.0855 -0.0339  0.2502
 5677SOL    HW128667   0.511   0.673  16.975 -1.6287  1.3170  0.4340
 5677SOL    HW228668   0.492   0.537  16.925 -1.7260  1.2702 -2.1233
 5678SOL     OW28669   0.961   4.695   2.106  0.3110 -0.9110 -0.0180
 5678SOL    HW128670   0.910   0.037   2.110  1.8589  0.1099 -1.0826
 5678SOL    HW228671   0.910   4.643   2.168  0.1398  0.6337  1.1460
 5679SOL     OW28672   3.656   4.735  10.395  0.1668 -0.4809 -0.6436
 5679SOL    HW128673   3.728   0.053  10.366 -1.1499  2.7910  2.5089
 5679SOL    HW228674   3.588   0.065  10.395 -0.1271 -0.7999  1.3514
 5680SOL     OW28675   1.679   1.481   8.402  0.1276  0.1745 -0.2069
 5680SOL    HW128676   1.641   1.541   8.337  1.1964 -1.3198 -2.2194
 5680SOL    HW228677   1.699   1.410   8.341 -1.4883 -0.2058 -0.2961
 5681SOL     OW28678   2.822   2.060   9.101 -0.1934 -0.3216  0.1074
 5681SOL    HW128679   2.810   2.155   9.105 -0.8288 -0.4162  0.4058
 5681SOL    HW228680   2.895   2.030   9.155  0.9345 -0.4017 -1.4597
 5682SOL     OW28681   0.501   2.129   5.512 -0.2913  0.7826 -0.3429
 5682SOL    HW128682   0.593   2.153   5.517 -0.3038  0.6436  0.4504
 5682SOL    HW228683   0.513   2.035   5.501  0.8531  1.0293 -1.1396
 5683SOL     OW28684   2.831   1.330  17.424  0.2827  0.7004 -0.0482
 5683SOL    HW128685   2.898   1.352  17.488  0.6920 -0.6278 -0.0224
 5683SOL    HW228686   2.784   1.413  17.425 -0.6149  0.2389 -2.9682
 5684SOL     OW28687   4.421   3.437   2.378 -0.0407  0.2657  0.6371
 5684SOL    HW128688   4.365   3.370   2.341  0.4696 -0.3673  1.0126
 5684SOL    HW228689   4.413   3.424   2.473  0.8925 -1.2144  0.5125
 5685SOL     OW28690   0.347   0.281  15.016 -0.3669 -0.1469 -0.1223
 5685SOL    HW128691   0.284   0.341  14.976 -1.1504 -1.6488 -1.1240
 5685SOL    HW228692   0.300   0.204  15.049  1.2125 -0.1686  2.0590
 5686SOL     OW28693   4.201   2.426  15.874 -0.1532 -0.2688 -0.1174
 5686SOL    HW128694   4.247   2.344  15.894 -0.0583 -0.0522  0.5441
 5686SOL    HW228695   4.109   2.400  15.878 -0.3455  0.1705 -1.7691
 5687SOL     OW28696   0.697   0.378   9.521 -0.2545  0.3796 -0.0749
 5687SOL    HW128697   0.756   0.322   9.471  0.9725  1.2267  0.4333
 5687SOL    HW228698   0.610   0.340   9.511  0.1265  0.1441 -2.5506
 5688SOL     OW28699   3.572   1.944   8.778 -0.2062 -0.4026  0.1710
 5688SOL    HW128700   3.566   1.934   8.683  1.5345 -2.2263  0.2572
 5688SOL    HW228701   3.485   1.914   8.806 -2.0445  1.8164 -3.1006
 5689SOL     OW28702   4.587   4.498   7.004 -0.1328 -0.4304 -0.0553
 5689SOL    HW128703   4.622   4.473   7.089  1.7904  1.4509 -0.3039
 5689SOL    HW228704   4.663   4.482   6.948  0.1833 -2.6045  0.9893
 5690SOL     OW28705   3.688   2.931   7.168 -0.0641 -0.1019 -0.2650
 5690SOL    HW128706   3.625   2.913   7.237  0.2666 -0.5490 -0.0760
 5690SOL    HW228707   3.670   3.025   7.166 -0.5692 -0.2409 -2.6670
 5691SOL     OW28708   0.832   0.240   5.270  0.3829  0.2489  0.2450
 5691SOL    HW128709   0.816   0.313   5.211 -3.8777 -2.8586 -2.4388
 5691SOL    HW228710   0.911   0.203   5.230  0.5804 -2.4488  3.1192
 5692SOL     OW28711   0.578   4.553   7.639  0.9198  0.3404 -0.1832
 5692SOL    HW128712   0.578   4.542   7.544  0.0889  0.4174 -0.1863
 5692SOL    HW228713   0.548   4.471   7.677  2.8266 -0.8155 -1.1586
 5693SOL     OW28714   3.131   3.779   9.336  0.3076  0.4440 -0.1974
 5693SOL    HW128715   3.058   3.721   9.314  0.9342 -0.0058 -1.0973
 5693SOL    HW228716   3.204   3.716   9.338  0.8878  1.0558 -2.1214
 5694SOL     OW28717   0.888   2.941  16.136  0.0035  0.3150  0.2070
 5694SOL    HW128718   0.840   3.010  16.090 -1.8892 -0.0510  1.6590
 5694SOL    HW228719   0.979   2.957  16.109  0.2538 -1.9455 -0.2888
 5695SOL     OW28720   1.752   1.797   8.837 -0.1059  0.4047 -0.1427
 5695SOL    HW128721   1.763   1.729   8.770 -1.2419  0.4760 -0.3945
 5695SOL    HW228722   1.687   1.855   8.796 -1.2611 -0.2159  0.8017
 5696SOL     OW28723   2.817   3.349   0.716 -0.5866  0.4528 -0.1312
 5696SOL    HW128724   2.726   3.378   0.717 -1.0673 -1.0985  0.7919
 5696SOL    HW228725   2.817   3.266   0.667 -2.1981  0.7081 -0.5692
 5697SOL     OW28726   2.149   1.652  12.464  0.2754  0.3681  0.3518
 5697SOL    HW128727   2.243   1.671  12.455  0.4293 -1.0938 -1.1295
 5697SOL    HW228728   2.119   1.669  12.375 -0.8537 -0.2020  0.6272
 5698SOL     OW28729   4.039   2.106  12.518  0.4982  0.1472  0.2084
 5698SOL    HW128730   4.082   2.149  12.444  3.1442 -2.3436  0.2962
 5698SOL    HW228731   3.983   2.171  12.560  0.0764  1.6917 -2.6826
 5699SOL     OW28732   3.825   2.385   5.370  0.2494 -0.4453  0.1077
 5699SOL    HW128733   3.771   2.307   5.359 -1.0268  0.7387 -2.0734
 5699SOL    HW228734   3.891   2.355   5.432  1.3563 -0.3137 -0.9958
 5700SOL     OW28735   2.785   1.644   2.375  0.5570 -0.0804  0.0360
 5700SOL    HW128736   2.863   1.649   2.320  0.8966 -0.1510  0.5064
 5700SOL    HW228737   2.800   1.714   2.439  1.4726  0.4153 -0.7191
 5701SOL     OW28738   4.365   1.495   5.288 -0.1951  0.2506 -0.1567
 5701SOL    HW128739   4.363   1.458   5.377 -2.3673  1.2712  0.2065
 5701SOL    HW228740   4.458   1.515   5.280 -0.0100 -1.3711 -2.0394
 5702SOL     OW28741   1.651   4.725  17.202 -0.3502 -0.1083  0.4888
 5702SOL    HW128742   1.682   4.661  17.266  0.2059  0.1902  0.5196
 5702SOL    HW228743   1.561   4.731  17.235 -0.1374 -3.4630  1.6613
 5703SOL     OW28744   3.520   0.609   8.347  0.3278 -0.5075  0.2587
 5703SOL    HW128745   3.614   0.627   8.355  0.0937  0.7015  0.2511
 5703SOL    HW228746   3.527   0.515   8.327 -3.0702 -0.9906  1.3812
 5704SOL     OW28747   1.216   0.937   3.610 -0.0397 -0.0630  0.4199
 5704SOL    HW128748   1.172   1.018   3.583  0.9395  0.9466  1.8476
 5704SOL    HW228749   1.207   0.943   3.705  2.9771  0.8924  0.6642
 5705SOL     OW28750   2.439   3.164   9.778 -0.1120  0.4011 -0.6024
 5705SOL    HW128751   2.520   3.187   9.734 -0.0709 -1.7727 -1.6671
 5705SOL    HW228752   2.442   3.235   9.842 -3.0085 -1.3945  1.5991
 5706SOL     OW28753   1.664   2.293   8.247  0.2202  0.4776  0.4654
 5706SOL    HW128754   1.580   2.335   8.229  0.0109 -0.2672 -0.2967
 5706SOL    HW228755   1.648   2.313   8.339 -0.1272  0.2618  0.4517
 5707SOL     OW28756   4.055   1.723   9.884 -0.5499 -0.2178 -0.1768
 5707SOL    HW128757   4.135   1.700   9.931  0.5125  1.3497 -1.2510
 5707SOL    HW228758   4.001   1.767   9.950 -2.5028  0.5311 -2.2824
 5708SOL     OW28759   0.904   2.569   2.630  0.8725  0.1088  0.7513
 5708SOL    HW128760   0.873   2.546   2.542 -1.0677  0.1121  1.4253
 5708SOL    HW228761   0.820   2.578   2.675  0.6251 -0.0021  0.3151
 5709SOL     OW28762   1.290   4.157  14.325  0.5202 -0.1937  0.2691
 5709SOL    HW128763   1.294   4.069  14.362  3.5564  0.0651  0.5310
 5709SOL    HW228764   1.365   4.155  14.266  1.0472 -3.1690  1.0401
 5710SOL     OW28765   2.512   2.200   5.697  0.2292 -0.4831 -0.7437
 5710SOL    HW128766   2.522   2.127   5.758  2.5109  1.9674  1.8326
 5710SOL    HW228767   2.530   2.274   5.754 -0.2675 -1.0711  0.1816
 5711SOL     OW28768   4.282   2.044   3.666 -0.2896 -0.1475  0.0005
 5711SOL    HW128769   4.236   1.993   3.734 -0.0431 -2.0146 -1.2324
 5711SOL    HW228770   4.355   2.078   3.717 -0.9428  1.2389  0.0183
 5712SOL     OW28771   0.994   0.122   8.802  0.2872 -0.4188  0.1762
 5712SOL    HW128772   0.911   0.124   8.755 -0.2978 -0.0223  1.2195
 5712SOL    HW228773   0.960   0.094   8.887 -0.7477  0.8456  0.1719
 5713SOL     OW28774   2.927   0.241   4.243  0.0234  0.1580 -0.0187
 5713SOL    HW128775   2.976   0.291   4.309 -0.0337  0.6199 -0.3321
 5713SOL    HW228776   2.979   0.244   4.163  1.3199  0.2755  0.8216
 5714SOL     OW28777   2.128   0.189   3.704  0.4789  1.0108 -0.0595
 5714SOL    HW128778   2.098   0.125   3.769  2.5257  0.3225  0.2115
 5714SOL    HW228779   2.074   0.266   3.723 -0.5975 -0.0942  1.4006
 5715SOL     OW28780   4.608   3.437   0.129  0.1377 -0.1426  0.1219
 5715SOL    HW128781   4.637   3.392   0.050  1.4913  1.2183 -0.1489
 5715SOL    HW228782   4.693   3.451   0.171  0.9513 -0.5609 -1.3603
 5716SOL     OW28783   2.905   3.124  10.144  0.2249  0.7905 -0.2466
 5716SOL    HW128784   2.848   3.178  10.199 -0.6155  0.7589 -1.0910
 5716SOL    HW228785   2.983   3.179  10.141  1.6511 -1.2125  0.0979
 5717SOL     OW28786   4.289   0.282   2.406  0.0527  0.2006  0.1517
 5717SOL    HW128787   4.260   0.338   2.335 -0.2311 -0.1540 -0.0082
 5717SOL    HW228788   4.242   0.202   2.385  1.9882 -0.7368 -0.6375
 5718SOL     OW28789   0.123   0.195   7.830  0.4158  0.4500 -0.2345
 5718SOL    HW128790   0.186   0.262   7.857  1.0016 -0.6339  1.1522
 5718SOL    HW228791   0.153   0.127   7.891 -1.2035  1.9220  2.2108
 5719SOL     OW28792   1.511   0.051   5.428 -0.1908 -0.1082  0.1729
 5719SOL    HW128793   1.589   0.106   5.426  0.7993 -1.5566 -1.0919
 5719SOL    HW228794   1.448   0.120   5.450  1.0467  1.1643 -0.2384
 5720SOL     OW28795   1.776   2.880   1.855  0.0732  0.0708 -0.1259
 5720SOL    HW128796   1.832   2.955   1.832 -1.4598  1.0957 -0.4993
 5720SOL    HW228797   1.722   2.850   1.783  1.3738 -0.4400 -0.8834
 5721SOL     OW28798   0.857   4.168   6.781  0.2405 -0.3502 -0.2149
 5721SOL    HW128799   0.865   4.253   6.739  0.7931  0.4205  1.4536
 5721SOL    HW228800   0.795   4.182   6.853  0.2177  0.0455 -0.3110
 5722SOL     OW28801   1.520   2.125  17.377  1.4016  0.4416  0.2789
 5722SOL    HW128802   1.460   2.100  17.447  0.9196 -1.1075 -0.6879
 5722SOL    HW228803   1.473   2.194  17.329 -0.4792 -1.8354 -1.1293
 5723SOL     OW28804   2.731   0.598   2.589  0.0626  0.0913 -0.4378
 5723SOL    HW128805   2.817   0.629   2.619  0.1028 -0.7222  0.2838
 5723SOL    HW228806   2.686   0.681   2.600 -1.1721 -0.6535  0.0981
 5724SOL     OW28807   1.540   0.444  15.007  0.0561  0.2471  0.0995
 5724SOL    HW128808   1.527   0.422  15.099  1.6179 -0.7658  0.0785
 5724SOL    HW228809   1.452   0.475  14.986  0.0319 -0.7193 -1.2342
 5725SOL     OW28810   2.200   2.620  14.562  0.4039 -0.3189 -0.3143
 5725SOL    HW128811   2.239   2.561  14.626 -0.4701 -0.6948 -0.1247
 5725SOL    HW228812   2.259   2.612  14.487  0.9582  1.6449 -0.0794
 5726SOL     OW28813   0.591   2.444   4.629 -0.2381  0.3294 -0.1863
 5726SOL    HW128814   0.526   2.478   4.691 -2.3719 -1.1340 -1.6203
 5726SOL    HW228815   0.667   2.464   4.684 -0.7515 -0.2001  0.7164
 5727SOL     OW28816   2.568   0.979  12.268  0.1326  0.4580  0.0413
 5727SOL    HW128817   2.509   0.998  12.341 -0.3100  2.3275 -0.7921
 5727SOL    HW228818   2.620   1.058  12.253 -1.4284  1.5361  0.3724
 5728SOL     OW28819   3.815   3.729   9.605  0.2583 -0.0016 -0.2119
 5728SOL    HW128820   3.851   3.724   9.517  1.1742 -0.4455  0.1899
 5728SOL    HW228821   3.870   3.797   9.644  0.5717 -0.2678 -0.1859
 5729SOL     OW28822   1.272   3.130   1.589  0.0783 -0.4205  0.9169
 5729SOL    HW128823   1.263   3.225   1.593  0.4652 -0.3086 -0.7737
 5729SOL    HW228824   1.367   3.126   1.581  0.0248  0.4645 -0.2878
 5730SOL     OW28825   2.369   3.099   1.187 -0.1213  0.4040  0.1539
 5730SOL    HW128826   2.404   3.037   1.251 -2.4175 -3.7343 -2.6298
 5730SOL    HW228827   2.448   3.146   1.162 -0.3783 -0.5869 -2.4955
 5731SOL     OW28828   4.584   1.649  10.352 -0.2368  0.5587 -0.5389
 5731SOL    HW128829   4.502   1.636  10.400 -0.1588  1.9819 -0.0149
 5731SOL    HW228830   4.555   1.626  10.264  1.0117 -1.0236 -0.5443
 5732SOL     OW28831   2.920   0.204  13.373 -0.9218 -0.0451 -0.2595
 5732SOL    HW128832   2.893   0.296  13.367  0.2457  0.2562 -0.8734
 5732SOL    HW228833   2.853   0.167  13.430 -0.8831  0.4580  0.1208
 5733SOL     OW28834   1.243   4.005   7.007 -0.5689  0.3711  0.3617
 5733SOL    HW128835   1.259   4.096   7.036  2.4363 -0.2464  0.7082
 5733SOL    HW228836   1.267   3.956   7.086  1.6103  0.7031 -0.0870
 5734SOL     OW28837   3.657   2.299   6.799  0.4532  0.0092 -0.1682
 5734SOL    HW128838   3.688   2.339   6.880 -0.2819 -2.7544  1.4646
 5734SOL    HW228839   3.708   2.218   6.801 -0.2626 -0.3930  1.5163
 5735SOL     OW28840   1.739   4.266   6.237  0.0939 -1.0743  0.3832
 5735SOL    HW128841   1.663   4.223   6.277  1.1030 -2.4344  0.8078
 5735SOL    HW228842   1.711   4.354   6.260 -0.1359 -0.8002 -0.9388
 5736SOL     OW28843   1.738   4.159   7.571  0.0383  0.3039  0.2826
 5736SOL    HW128844   1.658   4.151   7.518 -1.4906  2.7803  2.2437
 5736SOL    HW228845   1.795   4.200   7.506 -3.6563  0.9787 -2.5510
 5737SOL     OW28846   0.692   2.629   5.431 -0.1745 -0.2745 -0.5375
 5737SOL    HW128847   0.729   2.560   5.486 -1.3101  0.7558  1.4715
 5737SOL    HW228848   0.624   2.579   5.385 -0.3443  0.1871 -0.7875
 5738SOL     OW28849   1.078   1.625   7.032  0.0650 -0.1100  0.0830
 5738SOL    HW128850   1.090   1.665   7.119  0.7466 -0.8962  0.3482
 5738SOL    HW228851   1.158   1.572   7.039  0.0020 -0.0685  1.2149
 5739SOL     OW28852   3.988   2.513   7.905  0.1290 -0.2183 -0.5073
 5739SOL    HW128853   4.010   2.478   7.818 -0.9311 -0.1916 -0.7845
 5739SOL    HW228854   3.910   2.460   7.923  0.0834 -0.2979 -0.9335
 5740SOL     OW28855   2.170   0.923  10.515  0.3475  0.1250 -0.8138
 5740SOL    HW128856   2.146   1.013  10.494 -0.1771  0.2934  0.5169
 5740SOL    HW228857   2.199   0.907  10.425 -1.4946  0.0399 -1.3979
 5741SOL     OW28858   2.009   3.114   4.360  0.2124  0.1349  0.3157
 5741SOL    HW128859   1.980   3.145   4.274 -2.2353 -3.7902 -0.3292
 5741SOL    HW228860   2.048   3.030   4.334  2.5263  0.4984  2.7343
 5742SOL     OW28861   4.473   2.314  12.169  0.1095  0.1647 -0.2325
 5742SOL    HW128862   4.565   2.328  12.192  0.4157 -1.9198 -0.1413
 5742SOL    HW228863   4.437   2.321  12.258  2.2922  0.7986  0.5955
 5743SOL     OW28864   2.730   1.604  17.388  0.3279  0.3913  0.4273
 5743SOL    HW128865   2.748   1.583  17.297  0.1710  1.6337  0.1061
 5743SOL    HW228866   2.736   1.700  17.383 -2.0550  0.5408  0.3515
 5744SOL     OW28867   1.415   3.506  12.606 -0.0340 -0.2075  0.3465
 5744SOL    HW128868   1.319   3.513  12.608 -0.2606 -3.2209  0.2483
 5744SOL    HW228869   1.440   3.418  12.636 -3.4050 -1.1850  0.2926
 5745SOL     OW28870   3.240   1.169   4.795  0.3788  0.1061  0.3628
 5745SOL    HW128871   3.260   1.249   4.745  0.2536  0.0368  0.2005
 5745SOL    HW228872   3.170   1.124   4.748  1.5393 -1.9549  0.6193
 5746SOL     OW28873   1.082   1.419   1.770  0.0259 -0.1900  0.2703
 5746SOL    HW128874   1.017   1.416   1.699 -0.7823  1.0125  0.9489
 5746SOL    HW228875   1.136   1.496   1.751  0.2544 -0.3711  0.1924
 5747SOL     OW28876   4.289   1.627  11.363  0.1452  0.3088  0.7742
 5747SOL    HW128877   4.236   1.548  11.374 -0.3068  0.4167 -0.6526
 5747SOL    HW228878   4.229   1.697  11.387 -0.8473 -0.9696  2.0394
 5748SOL     OW28879   3.781   4.102   4.723  0.5449 -0.1955  0.3805
 5748SOL    HW128880   3.792   4.022   4.774 -0.6758  0.7142  2.0886
 5748SOL    HW228881   3.760   4.072   4.635  1.5164 -4.0359  1.4625
 5749SOL     OW28882   3.708   4.412  16.507  0.1553  0.6191 -0.5025
 5749SOL    HW128883   3.721   4.369  16.591  0.8599 -0.2446 -1.0494
 5749SOL    HW228884   3.613   4.404  16.499 -0.0440  4.1832 -1.7767
 5750SOL     OW28885   4.420   2.936   5.614 -0.2001  0.3347  1.1026
 5750SOL    HW128886   4.488   2.869   5.605 -1.4259 -0.7099 -0.5653
 5750SOL    HW228887   4.443   2.984   5.693 -2.4751  2.0038  0.7716
 5751SOL     OW28888   2.360   0.158   5.689 -0.1216  0.3661  0.8800
 5751SOL    HW128889   2.414   0.237   5.682  0.5900  0.0516  2.7579
 5751SOL    HW228890   2.363   0.145   5.784 -0.6787 -1.9146  0.5833
 5752SOL     OW28891   2.262   4.332   6.020 -0.1967 -0.0816  0.4130
 5752SOL    HW128892   2.191   4.374   5.972  0.2762  0.9781  0.6254
 5752SOL    HW228893   2.224   4.250   6.049 -0.1962  0.3264  1.5696
 5753SOL     OW28894   1.973   4.623  17.188 -0.0827  0.6963  0.0106
 5753SOL    HW128895   2.060   4.624  17.148 -1.4250 -0.2619 -2.8950
 5753SOL    HW228896   1.988   4.641  17.281 -0.5745 -1.5960  0.5348
 5754SOL     OW28897   3.457   1.102  15.711 -0.0458  0.1210  0.0456
 5754SOL    HW128898   3.493   1.190  15.715  0.4565 -0.0339 -0.8977
 5754SOL    HW228899   3.463   1.079  15.618 -1.2487  1.2470 -0.3046
 5755SOL     OW28900   0.162   3.909  12.791 -0.7069 -0.0478  0.1819
 5755SOL    HW128901   0.215   3.987  12.774 -0.6418  0.1926  1.5005
 5755SOL    HW228902   0.198   3.887  12.877 -0.9081  0.8310  0.4919
 5756SOL     OW28903   4.428   4.639   8.429 -0.0769  0.3720 -0.3429
 5756SOL    HW128904   4.522   4.640   8.412 -0.0154 -1.0538 -0.0723
 5756SOL    HW228905   4.401   4.709   8.370  2.0730  0.1511 -1.5836
 5757SOL     OW28906   2.507   4.134   2.353  0.3669  0.2322  0.8917
 5757SOL    HW128907   2.434   4.164   2.408  0.8239  1.1258  1.0187
 5757SOL    HW228908   2.576   4.187   2.395  2.1120 -0.2175 -1.4079
 5758SOL     OW28909   1.298   3.057  15.890  0.1499 -0.3627 -0.1655
 5758SOL    HW128910   1.279   3.146  15.861 -1.6070 -1.0574 -1.1607
 5758SOL    HW228911   1.259   3.050  15.978  0.5233 -1.7747 -0.1009
 5759SOL     OW28912   0.406   3.774  13.737 -0.1101  0.1579  0.2449
 5759SOL    HW128913   0.311   3.763  13.739 -0.1808  0.4369 -1.2634
 5759SOL    HW228914   0.420   3.699  13.680 -0.0613 -0.0683  0.5579
 5760SOL     OW28915   1.131   3.939   9.508  0.3636 -0.5064 -0.0691
 5760SOL    HW128916   1.210   3.964   9.556 -0.6904 -2.0805  2.4967
 5760SOL    HW228917   1.154   3.851   9.478  2.1033 -0.4309  1.0208
 5761SOL     OW28918   4.050   0.755  10.766 -0.1056 -0.1524  0.1167
 5761SOL    HW128919   4.002   0.801  10.835  0.8923 -0.1290  0.7906
 5761SOL    HW228920   4.128   0.730  10.815  0.4015  0.9979 -0.0866
 5762SOL     OW28921   0.250   4.729  13.505  0.1109  0.1544  0.1600
 5762SOL    HW128922   0.290   0.077  13.492  0.4874  0.1971  1.5629
 5762SOL    HW228923   0.269   4.709  13.597  0.2747  2.3908  0.6342
 5763SOL     OW28924   2.148   0.124   8.611 -0.0242  0.7893 -0.1070
 5763SOL    HW128925   2.127   0.050   8.667  0.1668  0.0211 -1.0517
 5763SOL    HW228926   2.208   0.080   8.551  1.2431  0.5601  1.3440
 5764SOL     OW28927   4.260   4.325  14.824  0.2111  0.0128 -0.4909
 5764SOL    HW128928   4.272   4.242  14.777 -3.4154  0.3236 -1.9444
 5764SOL    HW228929   4.179   4.362  14.789  0.4692  2.2035  1.1987
 5765SOL     OW28930   3.569   1.479  12.637 -0.2990  0.4424 -0.2093
 5765SOL    HW128931   3.601   1.399  12.678  0.1494 -0.3254 -2.0734
 5765SOL    HW228932   3.647   1.534  12.629  2.7750 -3.7850  1.0236
 5766SOL     OW28933   4.574   4.191  16.428 -0.0313  0.1258 -0.5070
 5766SOL    HW128934   4.544   4.150  16.348  1.1596 -0.8240 -0.4656
 5766SOL    HW228935   4.631   4.260  16.393  0.3046  0.4039  0.5738
 5767SOL     OW28936   2.283   4.031   2.964 -0.2911 -0.0271 -0.3478
 5767SOL    HW128937   2.331   3.993   2.890  0.7044  1.0489 -0.2315
 5767SOL    HW228938   2.276   4.122   2.935 -0.3046 -0.3372 -1.3244
 5768SOL     OW28939   1.041   2.372  10.032  0.2254  0.0888  0.1931
 5768SOL    HW128940   1.030   2.345  10.123  0.4432  0.7029  0.3992
 5768SOL    HW228941   1.129   2.409  10.033  0.8496 -1.3674 -0.7182
 5769SOL     OW28942   2.310   0.037   5.191  0.1357 -0.0808  0.3442
 5769SOL    HW128943   2.365   4.706   5.227  1.6982  0.7515 -0.4533
 5769SOL    HW228944   2.364   0.066   5.118 -1.3626 -0.4572 -0.9186
 5770SOL     OW28945   3.934   2.717   5.311 -0.0158 -0.4243 -0.1230
 5770SOL    HW128946   3.969   2.798   5.274  0.9841 -0.3508  0.9986
 5770SOL    HW228947   4.008   2.685   5.362  1.0791 -0.4461 -1.7282
 5771SOL     OW28948   1.899   2.999   5.949  0.1314  0.2517  0.5068
 5771SOL    HW128949   1.972   3.023   6.006  0.1454  0.7022  0.3043
 5771SOL    HW228950   1.925   2.917   5.909 -1.0214  1.2232 -2.2142
 5772SOL     OW28951   1.546   3.151  10.079  0.2875 -0.2352 -0.1019
 5772SOL    HW128952   1.641   3.136  10.076  0.6879  2.2050 -0.1457
 5772SOL    HW228953   1.529   3.222  10.017  0.6697  1.0337  1.2271
 5773SOL     OW28954   1.090   4.504   1.316  0.1871  0.4612  0.3206
 5773SOL    HW128955   1.083   4.504   1.411 -1.1130 -0.4110  0.2164
 5773SOL    HW228956   1.177   4.541   1.297  0.6802 -0.9543 -0.1329
 5774SOL     OW28957   1.457   2.962   5.657 -0.2259 -0.3142 -1.0894
 5774SOL    HW128958   1.439   3.048   5.693 -1.1337  0.4522 -3.3821
 5774SOL    HW228959   1.392   2.958   5.587 -1.8643  2.2097  0.3044
 5775SOL     OW28960   1.298   1.615   5.039 -0.3123 -0.7985 -0.4670
 5775SOL    HW128961   1.289   1.626   4.944  0.2508  1.2651 -0.2997
 5775SOL    HW228962   1.382   1.657   5.057 -1.1770  1.0503 -0.7475
 5776SOL     OW28963   4.465   4.086   5.073 -0.1154  0.2253 -1.2280
 5776SOL    HW128964   4.476   4.160   5.014  2.5803 -1.5392 -2.9633
 5776SOL    HW228965   4.529   4.107   5.141 -1.3775 -0.8468  0.2939
 5777SOL     OW28966   3.348   1.229   7.898 -0.4800  0.0798 -0.6545
 5777SOL    HW128967   3.307   1.183   7.971  0.3497  1.2800  0.5551
 5777SOL    HW228968   3.270   1.267   7.857 -0.0338  1.1440 -0.5019
 5778SOL     OW28969   1.112   1.548  11.831  0.0534  0.0442 -0.8838
 5778SOL    HW128970   1.029   1.591  11.810  1.1940  1.8196 -1.7302
 5778SOL    HW228971   1.079   1.493  11.902 -1.8083  0.3732 -1.4929
 5779SOL     OW28972   3.139   1.081   4.442 -0.5475 -0.1541  0.0589
 5779SOL    HW128973   3.117   0.992   4.415 -1.2637 -0.2740  1.0347
 5779SOL    HW228974   3.211   1.067   4.502  1.0803  1.9363 -1.4074
 5780SOL     OW28975   2.376   3.404   5.102 -0.2356  0.5349  0.4504
 5780SOL    HW128976   2.328   3.340   5.154 -2.0615  0.2636 -1.5602
 5780SOL    HW228977   2.310   3.406   5.033 -0.9225 -2.0087  1.0412
 5781SOL     OW28978   1.498   0.639   5.172  0.5199 -0.1716 -0.5543
 5781SOL    HW128979   1.430   0.591   5.125  0.4779 -0.5848 -0.0801
 5781SOL    HW228980   1.449   0.661   5.252  1.1201 -0.6517 -0.0505
 5782SOL     OW28981   1.690   4.559   4.392  0.2067 -0.3496 -0.4425
 5782SOL    HW128982   1.721   4.569   4.482 -1.8815 -1.3651  0.4008
 5782SOL    HW228983   1.708   4.468   4.370  2.1099 -0.2548  0.7882
 5783SOL     OW28984   0.547   1.781   6.611 -0.1725 -0.1691 -0.1288
 5783SOL    HW128985   0.537   1.686   6.605 -0.4545 -0.0508 -1.6395
 5783SOL    HW228986   0.493   1.815   6.539 -1.6244 -1.2018  0.4789
 5784SOL     OW28987   0.449   0.190   5.572 -0.8283 -0.2581 -0.5645
 5784SOL    HW128988   0.478   0.280   5.587 -1.6580 -0.3082  1.4327
 5784SOL    HW228989   0.484   0.169   5.486 -0.5032 -0.2377 -0.4392
 5785SOL     OW28990   0.320   0.790   9.369  0.4609 -0.3532  0.1644
 5785SOL    HW128991   0.367   0.736   9.306  0.1770 -1.7562  1.1679
 5785SOL    HW228992   0.374   0.869   9.367 -0.8478  0.5281 -0.5184
 5786SOL     OW28993   1.274   1.363   3.300 -0.0600 -0.1250  0.2814
 5786SOL    HW128994   1.182   1.337   3.301  1.2219 -4.6997 -2.3714
 5786SOL    HW228995   1.304   1.272   3.298 -0.6295 -0.3109  0.0592
 5787SOL     OW28996   3.930   1.609   5.109  0.1494 -0.0760  0.0793
 5787SOL    HW128997   3.925   1.601   5.014  2.0498  0.6127 -0.0941
 5787SOL    HW228998   3.884   1.531   5.138  1.8795 -0.3907  2.0543
 5788SOL     OW28999   0.054   3.688   8.248 -0.1429  0.5411 -0.0588
 5788SOL    HW129000   0.082   3.597   8.263 -1.2014  0.6331  2.3723
 5788SOL    HW229001   4.726   3.672   8.181  0.2055 -2.2713  0.2561
 5789SOL     OW29002   4.112   0.584   9.229  0.5904  0.3679 -0.2996
 5789SOL    HW129003   4.029   0.617   9.265 -0.5507 -0.6390 -1.9861
 5789SOL    HW229004   4.154   0.668   9.213  2.0468  0.3281  3.3720
 5790SOL     OW29005   4.244   4.086   1.459  0.2887 -0.2834  0.2597
 5790SOL    HW129006   4.154   4.103   1.431  1.1304  0.3887 -2.0228
 5790SOL    HW229007   4.281   4.069   1.373 -1.6226 -0.9312 -0.4350
 5791SOL     OW29008   0.100   2.566   0.390 -0.2378 -0.4908 -0.2719
 5791SOL    HW129009   0.095   2.590   0.482  1.2209  3.4811 -1.2095
 5791SOL    HW229010   0.032   2.622   0.353  3.0769  2.4737 -1.8702
 5792SOL     OW29011   2.570   4.085   8.473 -0.4433 -0.7335 -0.4851
 5792SOL    HW129012   2.581   4.122   8.386  1.1965  0.1079  0.0830
 5792SOL    HW229013   2.583   3.990   8.469  0.9527 -0.5981  0.8426
 5793SOL     OW29014   3.698   3.714   8.555  0.0119 -0.3038  0.0735
 5793SOL    HW129015   3.747   3.787   8.593  0.7466 -0.1584 -1.1645
 5793SOL    HW229016   3.616   3.750   8.521 -0.6588  0.9318  2.9634
 5794SOL     OW29017   2.841   2.565  13.467 -0.1053 -0.3240 -0.3349
 5794SOL    HW129018   2.903   2.627  13.505 -0.0193 -0.7161  0.1654
 5794SOL    HW229019   2.758   2.614  13.468 -1.2143 -2.2158  1.3454
 5795SOL     OW29020   0.317   2.587   8.184 -0.1708  0.2895 -0.4809
 5795SOL    HW129021   0.397   2.601   8.234  0.0209  0.8242 -0.9408
 5795SOL    HW229022   0.280   2.512   8.231  3.6111 -1.9617 -1.0773
 5796SOL     OW29023   0.834   1.519   3.389 -0.7468 -0.4272  0.0641
 5796SOL    HW129024   0.742   1.495   3.380 -0.4897 -1.1489 -0.6404
 5796SOL    HW229025   0.861   1.519   3.297  1.5836  0.3411  0.7378
 5797SOL     OW29026   3.787   1.868   8.924  0.1941 -0.2338 -0.2280
 5797SOL    HW129027   3.755   1.892   9.010 -0.4542  2.1639 -1.1420
 5797SOL    HW229028   3.719   1.908   8.869 -0.2678  0.0223  0.5393
 5798SOL     OW29029   2.209   0.958   8.600 -0.0563 -0.4125 -0.1619
 5798SOL    HW129030   2.301   0.966   8.624 -0.5946 -0.1406  1.8729
 5798SOL    HW229031   2.168   0.986   8.682 -2.3434 -1.4618 -0.9222
 5799SOL     OW29032   1.313   2.470  10.016  0.2564 -0.1212  0.1305
 5799SOL    HW129033   1.302   2.560  10.047  0.5736  0.3810 -1.2093
 5799SOL    HW229034   1.380   2.480   9.949  1.4005 -1.6552  1.0304
 5800SOL     OW29035   0.071   1.187   8.114  0.2056 -0.8590  0.7688
 5800SOL    HW129036   0.112   1.100   8.118  2.6111  0.2286 -0.3841
 5800SOL    HW229037   4.732   1.177   8.170 -1.9190  1.9441 -1.6752
 5801SOL     OW29038   1.323   3.991  10.365 -0.5107  0.0888  0.3312
 5801SOL    HW129039   1.364   4.033  10.441  1.6897  0.2443 -0.9622
 5801SOL    HW229040   1.397   3.953  10.318 -1.8322 -2.4088  0.2794
 5802SOL     OW29041   2.730   4.240   5.237 -0.0014 -0.1846  0.0794
 5802SOL    HW129042   2.732   4.250   5.332  0.6110 -0.9167  0.1389
 5802SOL    HW229043   2.819   4.220   5.211  0.0215  0.5022 -0.3665
 5803SOL     OW29044   0.448   1.956   3.140  0.0982 -0.3586 -0.3169
 5803SOL    HW129045   0.354   1.974   3.130 -0.2440 -1.5840  0.6442
 5803SOL    HW229046   0.485   1.986   3.058 -1.0724  4.9355  1.1283
 5804SOL     OW29047   3.953   3.018  12.924  0.0993 -0.0328 -0.6110
 5804SOL    HW129048   3.957   3.033  12.829  1.5416 -1.3215 -0.7539
 5804SOL    HW229049   3.902   3.093  12.953 -0.5313 -1.1106  1.0495
 5805SOL     OW29050   2.041   0.374  17.018 -0.3258  0.3090  0.2230
 5805SOL    HW129051   2.136   0.365  17.022 -0.4658 -0.7805  1.1559
 5805SOL    HW229052   2.031   0.438  16.947  0.5911 -1.4408 -1.5058
 5806SOL     OW29053   0.084   4.654   2.847 -0.3051 -0.8256  0.5170
 5806SOL    HW129054   0.061   4.564   2.826 -2.5122 -0.0784 -0.2700
 5806SOL    HW229055   0.179   4.646   2.855 -0.5736 -1.5198  2.9522
 5807SOL     OW29056   0.134   1.342   6.572 -0.1437 -0.6145 -0.2170
 5807SOL    HW129057   0.215   1.295   6.588 -0.3612 -0.1897  2.0514
 5807SOL    HW229058   0.075   1.313   6.641  1.6602 -1.5139  0.9394
 5808SOL     OW29059   2.490   0.720   1.652  0.1262 -0.4112 -0.2077
 5808SOL    HW129060   2.422   0.762   1.599 -0.7857  0.3467  1.5301
 5808SOL    HW229061   2.569   0.749   1.607 -0.5077 -0.9349 -1.6467
 5809SOL     OW29062   4.049   4.654  12.848  0.1504 -0.1105 -0.1323
 5809SOL    HW129063   3.975   4.670  12.789  0.0145  2.0037  0.6138
 5809SOL    HW229064   4.117   4.658  12.781  1.4515 -0.6457  1.1878
 5810SOL     OW29065   1.366   3.327   4.885 -0.8296 -0.6598 -0.2614
 5810SOL    HW129066   1.424   3.275   4.830 -2.1366 -2.5988  0.2201
 5810SOL    HW229067   1.288   3.313   4.833 -0.4779 -0.2019 -0.9115
 5811SOL     OW29068   1.383   3.583   2.064 -0.2357 -0.5653 -0.0031
 5811SOL    HW129069   1.367   3.490   2.078  0.6027 -0.5462  1.0715
 5811SOL    HW229070   1.398   3.603   2.156 -0.7682  0.3483 -0.1204
 5812SOL     OW29071   4.106   2.360   5.239  0.2285  0.0565  0.0696
 5812SOL    HW129072   4.014   2.384   5.249  0.6055  1.1703  1.0442
 5812SOL    HW229073   4.125   2.392   5.151  0.2247 -1.2186 -0.3937
 5813SOL     OW29074   2.502   2.813  11.365 -0.4533  0.1340 -0.6356
 5813SOL    HW129075   2.506   2.741  11.302  2.2811  0.0737 -0.3994
 5813SOL    HW229076   2.593   2.815  11.397 -0.4086  0.0851 -0.7582
 5814SOL     OW29077   3.844   3.101   6.121  0.3953  0.3045 -0.2078
 5814SOL    HW129078   3.764   3.133   6.079  0.4514  1.3656  0.5054
 5814SOL    HW229079   3.917   3.144   6.076  1.5669 -0.8481  0.5833
 5815SOL     OW29080   3.382   1.615   6.140 -0.6907 -0.3996  0.1358
 5815SOL    HW129081   3.310   1.573   6.186 -0.7012  1.0481  1.4160
 5815SOL    HW229082   3.449   1.610   6.208 -2.2335  3.5748  1.9372
 5816SOL     OW29083   0.318   1.677  13.449 -0.0343  0.2743 -0.4293
 5816SOL    HW129084   0.337   1.704  13.359  0.3738 -1.2708 -0.8104
 5816SOL    HW229085   0.234   1.634  13.437  0.4227  0.0697 -2.9639
 5817SOL     OW29086   1.379   2.879   4.725 -0.2109 -0.0636  0.0203
 5817SOL    HW129087   1.445   2.860   4.791 -3.1602 -1.3599  2.6030
 5817SOL    HW229088   1.304   2.848   4.777 -1.4474  1.5078 -0.8159
 5818SOL     OW29089   2.351   1.566   1.258 -0.0430  0.0547  0.1003
 5818SOL    HW129090   2.258   1.548   1.245 -0.0741  0.8317 -0.7344
 5818SOL    HW229091   2.353   1.661   1.269 -0.8924 -0.1317  1.9205
 5819SOL     OW29092   2.175   0.087  17.284  0.0178  0.4082 -0.1630
 5819SOL    HW129093   2.167   0.006  17.335  2.5657  0.2199 -0.0400
 5819SOL    HW229094   2.217   0.151  17.342  0.0258  0.0566  0.2186
 5820SOL     OW29095   0.317   1.139   0.901  0.3355  0.0139 -0.1676
 5820SOL    HW129096   0.262   1.161   0.977  2.8635 -3.5124  2.6842
 5820SOL    HW229097   0.349   1.053   0.928 -0.9343 -1.7383 -4.2730
 5821SOL     OW29098   2.328   0.170   4.830  0.1457  0.2747  0.0870
 5821SOL    HW129099   2.401   0.159   4.891 -1.1832  0.4199  1.7093
 5821SOL    HW229100   2.276   0.224   4.890  0.4008  0.0951  0.4703
 5822SOL     OW29101   3.886   2.429   4.362  0.2516  0.6471 -0.6645
 5822SOL    HW129102   3.831   2.369   4.311  1.7540 -1.3203  0.0021
 5822SOL    HW229103   3.959   2.441   4.301  1.2088 -0.9020  0.1600
 5823SOL     OW29104   3.967   3.298   7.692  0.2398 -0.2908  0.0134
 5823SOL    HW129105   3.945   3.244   7.768  1.0591 -1.0089 -0.2501
 5823SOL    HW229106   3.872   3.302   7.679  0.2840  0.3310 -0.1031
 5824SOL     OW29107   1.112   3.182   7.488 -0.2749 -0.2651  0.2461
 5824SOL    HW129108   1.116   3.278   7.484  1.3938 -0.2820  1.2357
 5824SOL    HW229109   1.182   3.165   7.425  0.2445  0.0928  0.7151
 5825SOL     OW29110   2.183   1.991   0.337 -0.1619  0.1013 -0.0567
 5825SOL    HW129111   2.147   1.947   0.261 -1.7172 -1.0410  1.3485
 5825SOL    HW229112   2.151   1.935   0.408 -1.5278  1.3920  0.3612
 5826SOL     OW29113   2.052   0.557   9.307 -0.0970  0.9239 -0.3081
 5826SOL    HW129114   2.055   0.648   9.337 -0.9159  0.2146  1.9078
 5826SOL    HW229115   1.995   0.570   9.230  0.7507  1.7480 -0.7989
 5827SOL     OW29116   0.360   1.195   6.618 -0.5650  0.6107  0.0514
 5827SOL    HW129117   0.420   1.187   6.544 -0.9834  1.0518 -0.3348
 5827SOL    HW229118   0.404   1.139   6.681  1.4205 -0.5962 -2.3998
 5828SOL     OW29119   2.766   0.458   7.962  0.4182 -0.8967  0.2497
 5828SOL    HW129120   2.700   0.496   8.020  0.7912  0.6669 -0.3552
 5828SOL    HW229121   2.745   0.492   7.874  1.4341  0.5731  0.5783
 5829SOL     OW29122   2.110   1.726  11.184 -0.1733  0.0816  1.1588
 5829SOL    HW129123   2.084   1.709  11.275 -0.7070  1.6446  1.2956
 5829SOL    HW229124   2.029   1.706  11.137  0.0394 -0.6688  1.1058
 5830SOL     OW29125   3.948   1.733   3.083 -0.3432  0.3516  0.1001
 5830SOL    HW129126   3.859   1.739   3.117  0.2711  1.8061  1.4703
 5830SOL    HW229127   3.955   1.813   3.030 -1.7519  0.6490  0.3714
 5831SOL     OW29128   3.544   4.496  10.282  0.3456 -0.0889  0.3125
 5831SOL    HW129129   3.550   4.580  10.328 -1.7584  0.4835 -0.4674
 5831SOL    HW229130   3.478   4.450  10.335  0.6288  0.6896  1.3564
 5832SOL     OW29131   4.623   1.382   3.806 -0.2845  0.1420  0.2264
 5832SOL    HW129132   4.555   1.319   3.829  0.0804 -0.5340 -0.5283
 5832SOL    HW229133   4.578   1.432   3.738  0.6299 -0.2455 -0.6716
 5833SOL     OW29134   4.369   0.982  10.687  0.2047 -0.3163  0.5911
 5833SOL    HW129135   4.372   0.909  10.749  0.5484  0.3768  1.3731
 5833SOL    HW229136   4.445   0.950  10.637  0.9988 -2.0628  2.9490
 5834SOL     OW29137   2.014   1.781  14.122  0.5396 -0.9228 -0.0516
 5834SOL    HW129138   2.023   1.782  14.217  0.5116 -0.7480 -0.0511
 5834SOL    HW229139   2.036   1.690  14.101  0.5085 -0.9176 -0.1064
 5835SOL     OW29140   4.486   4.062   6.867 -0.3412 -0.1808  0.7759
 5835SOL    HW129141   4.438   4.121   6.809  0.9022 -0.9030 -0.9809
 5835SOL    HW229142   4.519   3.996   6.806  1.6572 -0.1650  1.8353
 5836SOL     OW29143   1.836   1.560   6.163 -0.2670  0.0312  0.0775
 5836SOL    HW129144   1.782   1.541   6.239  1.6504  3.3222  2.2648
 5836SOL    HW229145   1.811   1.648   6.135  1.6478  1.0699  1.5898
 5837SOL     OW29146   1.029   2.622   1.001  0.5915  0.5380 -0.7568
 5837SOL    HW129147   0.960   2.685   0.978 -0.2355 -0.8782 -2.2216
 5837SOL    HW229148   1.052   2.584   0.916  3.0042  1.2334 -0.3920
 5838SOL     OW29149   4.170   4.565   2.295  0.0084 -0.3967  0.1960
 5838SOL    HW129150   4.230   4.639   2.300 -0.0526 -0.5410  3.0776
 5838SOL    HW229151   4.089   4.586   2.343 -0.2917 -3.3412  1.0154
 5839SOL     OW29152   2.560   2.008  13.694 -0.0114 -0.1750 -0.3835
 5839SOL    HW129153   2.497   1.989  13.762  0.5332  2.4993  0.8778
 5839SOL    HW229154   2.564   2.101  13.717  0.6567 -0.4519  0.5857
 5840SOL     OW29155   1.976   0.310  16.285  0.8339  0.2446 -0.2431
 5840SOL    HW129156   1.928   0.228  16.298  0.0834  0.5016 -1.4136
 5840SOL    HW229157   2.017   0.313  16.371 -1.9738 -0.4599  1.1485
 5841SOL     OW29158   4.104   3.981   2.954 -0.3649  0.0845 -0.3607
 5841SOL    HW129159   4.091   4.042   3.027 -0.0312 -2.5907  1.9260
 5841SOL    HW229160   4.189   4.004   2.915  0.8917 -2.8037  0.6878
 5842SOL     OW29161   0.037   4.412   9.422  0.6064  0.0710  0.0500
 5842SOL    HW129162   4.694   4.376   9.458  1.4830  0.0528  1.9856
 5842SOL    HW229163   0.085   4.329   9.420 -0.6546 -0.6646  0.2356
 5843SOL     OW29164   2.670   1.775  11.199  0.1347  0.8923 -0.4346
 5843SOL    HW129165   2.575   1.770  11.208  0.3475  0.7701  1.8006
 5843SOL    HW229166   2.662   1.754  11.106 -1.3689 -0.8981  0.0890
 5844SOL     OW29167   0.554   3.348   5.577 -0.0504 -0.0530 -0.1345
 5844SOL    HW129168   0.534   3.435   5.545  1.4545  1.1108  2.1056
 5844SOL    HW229169   0.635   3.329   5.530 -1.3348  1.2204 -2.8135
 5845SOL     OW29170   3.440   1.714   8.178  0.0925  0.2710  0.8045
 5845SOL    HW129171   3.515   1.766   8.151  0.0750  0.2763  0.7660
 5845SOL    HW229172   3.454   1.639   8.120  1.7517 -0.2024  1.8145
 5846SOL     OW29173   1.174   0.973   2.067 -0.0593  0.3707 -0.0386
 5846SOL    HW129174   1.238   0.999   2.134 -0.4409 -1.0203  0.8869
 5846SOL    HW229175   1.176   0.878   2.054 -5.4761  0.2462 -0.0070
 5847SOL     OW29176   1.600   0.278   4.139  0.0539  0.3090  0.1845
 5847SOL    HW129177   1.600   0.244   4.229 -0.0338  0.1665  0.1306
 5847SOL    HW229178   1.544   0.221   4.087 -1.4824  0.2978  1.8704
 5848SOL     OW29179   4.303   4.711  15.288 -0.3059  0.6134 -0.5174
 5848SOL    HW129180   4.308   4.641  15.353  0.2713  0.6542 -0.5195
 5848SOL    HW229181   4.225   0.017  15.324  0.4978  1.8122 -0.2535
 5849SOL     OW29182   2.794   2.590   5.246  0.3356 -0.0465  0.0118
 5849SOL    HW129183   2.798   2.640   5.328 -1.4456 -0.3823  0.3091
 5849SOL    HW229184   2.738   2.513   5.257 -3.4794  2.8037  0.5313
 5850SOL     OW29185   1.810   3.396   2.539  0.1860 -0.3177  0.0699
 5850SOL    HW129186   1.821   3.340   2.461  2.3797  1.7791 -1.1374
 5850SOL    HW229187   1.774   3.479   2.508  0.2704 -1.2213 -2.4689
 5851SOL     OW29188   2.363   3.824   6.534 -0.1316 -0.1791  0.2101
 5851SOL    HW129189   2.456   3.817   6.556  0.0926  0.0531 -0.6601
 5851SOL    HW229190   2.364   3.914   6.502 -0.3770 -0.8619 -1.7281
 5852SOL     OW29191   0.627   1.014  10.582 -0.3572 -0.2227 -0.0499
 5852SOL    HW129192   0.661   1.074  10.516  0.8566  0.9270  1.6282
 5852SOL    HW229193   0.577   0.947  10.535  1.1730 -1.8432  0.6329
 5853SOL     OW29194   0.855   3.642  17.166  0.3243  0.1252  0.5216
 5853SOL    HW129195   0.811   3.575  17.219  2.2062 -1.6582 -0.1307
 5853SOL    HW229196   0.941   3.599  17.167 -0.7884 -2.0791  1.1572
 5854SOL     OW29197   4.609   2.843   4.406 -0.2202  1.1290 -0.2432
 5854SOL    HW129198   4.650   2.913   4.356  1.6866  0.8724  0.9495
 5854SOL    HW229199   4.593   2.797   4.323  0.0703  3.0784 -1.3872
 5855SOL     OW29200   3.527   0.350   3.109 -0.1415  0.4021 -0.3728
 5855SOL    HW129201   3.448   0.402   3.121  0.0211  0.6541 -0.4032
 5855SOL    HW229202   3.557   0.345   3.200 -0.2404  3.9455 -0.1571
 5856SOL     OW29203   4.240   2.005   2.156  0.1563 -0.0286 -0.3558
 5856SOL    HW129204   4.330   1.972   2.156  0.5695  1.0848 -1.1831
 5856SOL    HW229205   4.205   1.960   2.079  0.8863  0.4791 -0.9855
 5857SOL     OW29206   0.380   2.975   2.154 -0.3728 -0.2997 -0.1735
 5857SOL    HW129207   0.403   2.896   2.203 -1.0322  0.1025  0.8025
 5857SOL    HW229208   0.424   2.963   2.070 -1.8047 -0.5646 -0.8928
 5858SOL     OW29209   1.717   3.133   7.571  0.1879  0.0416 -0.4607
 5858SOL    HW129210   1.684   3.079   7.642  2.1981 -2.3908 -1.3770
 5858SOL    HW229211   1.767   3.071   7.517  0.9029  1.8254 -1.8915
 5859SOL     OW29212   1.704   3.959   4.801 -0.1045 -0.0072  0.5396
 5859SOL    HW129213   1.787   4.000   4.825 -0.0434  0.2398 -0.0788
 5859SOL    HW229214   1.709   3.877   4.850  1.3088  0.3214  0.9394
 5860SOL     OW29215   1.946   4.055   8.734  0.4179 -0.1320 -0.4914
 5860SOL    HW129216   2.005   4.111   8.783 -2.4207  2.1260  0.3378
 5860SOL    HW229217   1.911   4.116   8.669  0.8135  1.0873  0.4379
 5861SOL     OW29218   4.239   1.389  11.785 -0.4523  0.3631  0.1373
 5861SOL    HW129219   4.188   1.359  11.861 -2.3257 -0.3272 -1.3890
 5861SOL    HW229220   4.217   1.482  11.791 -2.3343 -0.0457 -0.3287
 5862SOL     OW29221   2.930   1.452   5.259  0.2993  0.2228 -0.2076
 5862SOL    HW129222   3.006   1.508   5.277 -1.0896  1.8245  0.7035
 5862SOL    HW229223   2.932   1.398   5.338 -1.0212  1.5910  0.7735
 5863SOL     OW29224   3.699   3.048   6.478 -1.1903 -0.1461  0.3100
 5863SOL    HW129225   3.737   3.136   6.473  0.4303 -0.9468 -1.2366
 5863SOL    HW229226   3.779   2.997   6.489 -0.0076  1.3700 -1.3500
 5864SOL     OW29227   0.501   3.996   3.393  0.3334 -0.1034  0.5906
 5864SOL    HW129228   0.421   4.012   3.443 -0.3291  0.0470 -0.5197
 5864SOL    HW229229   0.457   3.971   3.311  0.5367  0.0904  0.4253
 5865SOL     OW29230   1.463   0.302   6.840 -0.3287  0.2228  0.6165
 5865SOL    HW129231   1.396   0.235   6.853  0.3766 -1.1213 -2.7230
 5865SOL    HW229232   1.426   0.350   6.765  2.6580  2.2089  0.4204
 5866SOL     OW29233   1.712   2.099   2.385  0.0668 -0.2355 -0.0869
 5866SOL    HW129234   1.728   2.166   2.451  2.6327 -0.7053 -0.2556
 5866SOL    HW229235   1.800   2.074   2.359  0.9287  0.2190  2.3635
 5867SOL     OW29236   3.314   2.413   4.519  0.1299  0.0798  0.3370
 5867SOL    HW129237   3.306   2.419   4.423  0.6127 -1.2636  0.2230
 5867SOL    HW229238   3.397   2.368   4.530  1.2908  2.4454  1.2050
 5868SOL     OW29239   0.276   3.136   3.625 -0.0940  0.0510 -0.6015
 5868SOL    HW129240   0.300   3.110   3.537 -0.8258  1.4556 -1.2162
 5868SOL    HW229241   0.191   3.093   3.636 -0.0876  0.6119  1.7223
 5869SOL     OW29242   3.202   1.943  14.648  0.4719  0.1126 -0.5406
 5869SOL    HW129243   3.193   1.861  14.696  1.8507  0.2917  0.0366
 5869SOL    HW229244   3.209   1.922  14.555  1.8522 -1.1192 -0.1661
 5870SOL     OW29245   1.586   2.207   1.794 -0.6355  0.4363  0.1353
 5870SOL    HW129246   1.602   2.299   1.775 -0.1845  0.6282  1.3860
 5870SOL    HW229247   1.649   2.185   1.863 -4.1700  1.6972  3.7660
 5871SOL     OW29248   2.976   2.361   3.662  0.4888 -1.0074  0.1380
 5871SOL    HW129249   3.001   2.310   3.739  3.0124 -2.4908 -1.6700
 5871SOL    HW229250   3.038   2.433   3.675  1.2371 -1.7272  0.6033
 5872SOL     OW29251   1.005   3.979  15.789 -0.1479  0.2130  0.0776
 5872SOL    HW129252   1.025   4.052  15.848  1.4486 -0.5214  0.4242
 5872SOL    HW229253   0.974   3.910  15.848  2.8850  0.3999  1.8571
 5873SOL     OW29254   4.351   2.266   0.175 -0.0127  0.5974  0.3109
 5873SOL    HW129255   4.428   2.219   0.207  0.5963  0.2991 -1.6198
 5873SOL    HW229256   4.354   2.264   0.079 -1.2468 -0.4377  0.2834
 5874SOL     OW29257   0.689   3.421   6.829 -0.7472 -0.0489  0.3002
 5874SOL    HW129258   0.771   3.447   6.870  0.7516 -2.6221 -1.0572
 5874SOL    HW229259   0.661   3.345   6.881  0.1262  0.9154  2.1593
 5875SOL     OW29260   1.876   3.425  15.672  0.4216 -0.4665 -0.1681
 5875SOL    HW129261   1.837   3.359  15.728 -2.0373  1.5525  0.4758
 5875SOL    HW229262   1.801   3.451  15.619 -0.1604 -0.3259  0.7339
 5876SOL     OW29263   3.252   2.137   5.541 -0.7550 -0.7067 -0.2768
 5876SOL    HW129264   3.340   2.103   5.530  0.0422  0.4134  2.6942
 5876SOL    HW229265   3.252   2.163   5.634  0.3833 -1.6365 -0.0230
 5877SOL     OW29266   2.308   0.396   9.668 -0.2902 -0.5586 -0.0829
 5877SOL    HW129267   2.245   0.405   9.596 -2.0544 -1.4578  1.3658
 5877SOL    HW229268   2.261   0.341   9.730 -0.3356 -0.7860 -0.3179
 5878SOL     OW29269   0.687   3.911  15.996 -0.3208  0.2626  0.2053
 5878SOL    HW129270   0.680   3.860  15.915  1.1990 -0.0305  0.2561
 5878SOL    HW229271   0.780   3.898  16.017 -0.7559 -1.8000  0.8404
 5879SOL     OW29272   1.637   2.436  13.931 -0.4933  0.5659 -0.3238
 5879SOL    HW129273   1.556   2.442  13.880 -0.3500 -1.0186 -0.7365
 5879SOL    HW229274   1.692   2.421  13.854  0.0010 -0.1354  0.1574
 5880SOL     OW29275   2.562   3.085   8.152 -0.2649 -0.0979 -0.4252
 5880SOL    HW129276   2.624   3.101   8.081  2.6538  0.6350  2.3040
 5880SOL    HW229277   2.474   3.113   8.124 -0.7629  0.0883  1.3216
 5881SOL     OW29278   0.407   1.229  10.461 -0.1119 -0.1263 -0.2096
 5881SOL    HW129279   0.385   1.160  10.398 -1.2429 -0.1700  0.2338
 5881SOL    HW229280   0.501   1.237  10.447  0.0216 -2.4078 -0.6076
 5882SOL     OW29281   0.704   1.149  10.352  0.1749 -0.3330 -0.5050
 5882SOL    HW129282   0.794   1.176  10.333 -0.3329  1.0817 -0.8821
 5882SOL    HW229283   0.680   1.129  10.262 -0.0587 -2.5184  0.0274
 5883SOL     OW29284   3.029   2.506   6.821 -0.2802 -0.5632  0.0247
 5883SOL    HW129285   2.946   2.483   6.781 -0.1090 -1.3681  0.1258
 5883SOL    HW229286   3.001   2.505   6.913  1.6449  1.4152  0.6256
 5884SOL     OW29287   4.613   2.476  17.075  0.0031 -0.6802 -0.2293
 5884SOL    HW129288   4.703   2.445  17.060 -0.0236 -0.3208 -1.1907
 5884SOL    HW229289   4.583   2.510  16.990  1.9550  0.2954 -0.5411
 5885SOL     OW29290   2.596   0.013  17.370 -0.1181 -0.0330 -0.0964
 5885SOL    HW129291   2.615   0.029  17.462 -1.7330  1.3600  0.0198
 5885SOL    HW229292   2.685   0.003  17.338  0.1701 -1.1997  1.0858
 5886SOL     OW29293   4.209   0.268   5.702  0.0010 -0.3818 -0.3571
 5886SOL    HW129294   4.224   0.213   5.626 -2.8299  1.0230 -1.9714
 5886SOL    HW229295   4.135   0.229   5.749  1.7769  0.8089  3.4382
 5887SOL     OW29296   4.544   0.942  17.469 -0.6252 -0.8104 -0.0448
 5887SOL    HW129297   4.571   0.877  17.534 -3.6672 -0.2646  1.7337
 5887SOL    HW229298   4.597   0.912  17.395  0.5764  2.8749 -0.6912
 5888SOL     OW29299   4.410   1.198  11.386  0.1491 -0.1248  0.0305
 5888SOL    HW129300   4.474   1.244  11.333 -1.2374 -1.9006 -3.2495
 5888SOL    HW229301   4.452   1.119  11.422  0.7268  0.3107  0.3109
 5889SOL     OW29302   2.634   2.956   9.854 -0.2809  0.4326 -0.4245
 5889SOL    HW129303   2.553   2.974   9.807 -0.7520 -2.7905 -0.8717
 5889SOL    HW229304   2.631   2.993   9.942  0.0892  1.0329 -0.6636
 5890SOL     OW29305   3.605   0.180   4.620  0.1716 -0.0917  0.3496
 5890SOL    HW129306   3.553   0.122   4.675 -1.6124  1.0897 -0.1002
 5890SOL    HW229307   3.639   0.118   4.556 -0.1900  2.7140 -2.5560
 5891SOL     OW29308   0.657   0.374  17.192  0.1330 -0.0368 -0.0921
 5891SOL    HW129309   0.704   0.334  17.266  0.3714  2.5729  1.1708
 5891SOL    HW229310   0.691   0.323  17.119 -1.4129  0.0538 -0.8680
 5892SOL     OW29311   0.436   0.525  17.245 -0.5197  0.5195 -0.0303
 5892SOL    HW129312   0.515   0.471  17.242 -0.1621  0.9863  0.8769
 5892SOL    HW229313   0.418   0.539  17.152 -1.7573 -0.0253  0.1272
 5893SOL     OW29314   1.136   1.082  14.843 -0.2727  0.2433  0.2034
 5893SOL    HW129315   1.186   1.003  14.861 -1.1428 -0.3915 -0.1682
 5893SOL    HW229316   1.058   1.074  14.900 -1.0911 -0.4586 -1.0234
 5894SOL     OW29317   3.001   1.271  16.727  0.1985 -0.1999  0.3129
 5894SOL    HW129318   2.931   1.257  16.792 -0.3935 -0.2558 -0.3430
 5894SOL    HW229319   2.983   1.361  16.699 -2.1448 -0.8111 -0.1484
 5895SOL     OW29320   4.664   1.545   5.343 -0.3224 -0.0935 -0.0741
 5895SOL    HW129321   4.730   1.510   5.284 -0.8234  0.0506 -0.7185
 5895SOL    HW229322   4.671   1.640   5.329 -3.9330  0.1369 -0.1988
 5896SOL     OW29323   3.756   3.008   8.998  0.0578 -0.0618 -0.0845
 5896SOL    HW129324   3.775   3.091   9.042 -1.9201  0.1963  0.3018
 5896SOL    HW229325   3.739   2.949   9.071  0.7158 -0.7814 -0.5195
 5897SOL     OW29326   4.533   3.359  14.288 -0.3050 -0.6179  0.1949
 5897SOL    HW129327   4.526   3.396  14.376 -1.7530 -1.7712  0.5803
 5897SOL    HW229328   4.592   3.287  14.308  0.2226 -0.3630 -0.4258
 5898SOL     OW29329   2.001   0.569   5.708 -0.3893 -0.0710  0.1817
 5898SOL    HW129330   1.915   0.589   5.670  0.5617  0.2910 -1.7850
 5898SOL    HW229331   1.995   0.620   5.789 -1.6391  0.1161 -0.0303
 5899SOL     OW29332   2.664   3.777   2.960  0.3720  0.1693 -0.2279
 5899SOL    HW129333   2.760   3.784   2.964  0.4645 -1.8689  1.6814
 5899SOL    HW229334   2.653   3.682   2.966 -0.5326  0.4041  2.0852
 5900SOL     OW29335   2.748   1.879   5.208  0.0172  0.2134 -0.6639
 5900SOL    HW129336   2.841   1.858   5.216 -0.0446  0.5247  0.9076
 5900SOL    HW229337   2.746   1.942   5.280  0.3337  1.5019 -1.7765
 5901SOL     OW29338   0.576   2.719   8.831  0.2989  0.5743  0.0594
 5901SOL    HW129339   0.664   2.686   8.851 -0.0109  0.2766  0.9501
 5901SOL    HW229340   0.525   2.705   8.911  0.0985  1.3144  0.0593
 5902SOL     OW29341   1.681   1.832   3.321 -0.6478  0.3897  0.8701
 5902SOL    HW129342   1.742   1.846   3.249 -1.7796  0.2595 -0.1155
 5902SOL    HW229343   1.741   1.812   3.392 -0.7961 -0.5902  0.7096
 5903SOL     OW29344   1.474   3.435   7.937 -0.7333  0.1162 -0.1829
 5903SOL    HW129345   1.417   3.374   7.984  1.4844 -0.2767  1.9962
 5903SOL    HW229346   1.491   3.379   7.862  0.1279 -1.2220  1.0008
 5904SOL     OW29347   4.143   1.738   3.273 -0.0199  0.1788  0.1583
 5904SOL    HW129348   4.104   1.761   3.189  2.3714 -1.0306 -1.2899
 5904SOL    HW229349   4.161   1.646   3.255  0.7407  0.3965 -0.2246
 5905SOL     OW29350   3.939   0.025   4.725  0.0340 -0.1093  0.2711
 5905SOL    HW129351   3.908   0.055   4.640  2.4132  0.1861 -0.4814
 5905SOL    HW229352   4.002   0.094   4.746 -0.2699 -0.3681  2.0488
 5906SOL     OW29353   0.783   0.237   2.673  0.4834  0.0737  0.3246
 5906SOL    HW129354   0.749   0.325   2.660  0.6572  0.1735  0.5498
 5906SOL    HW229355   0.707   0.202   2.719 -0.7475  1.6370 -0.5427
 5907SOL     OW29356   1.672   1.761  15.035 -0.7069 -0.0653  0.1062
 5907SOL    HW129357   1.723   1.681  15.048  1.4207  1.3188  0.2752
 5907SOL    HW229358   1.721   1.827  15.085  0.5893 -1.3043  0.4773
 5908SOL     OW29359   2.422   2.071   1.544 -0.0484 -0.2938  0.0029
 5908SOL    HW129360   2.443   2.111   1.460 -1.5409  0.1275 -0.1623
 5908SOL    HW229361   2.359   2.139   1.568  0.9204  0.2965  0.8447
 5909SOL     OW29362   4.079   2.671   9.294 -0.1510  0.5531 -0.1750
 5909SOL    HW129363   4.050   2.668   9.203  1.3687 -1.4459 -0.5888
 5909SOL    HW229364   3.992   2.664   9.332  1.0841 -1.8523  2.1551
 5910SOL     OW29365   1.210   0.109   1.121 -0.5872  0.2077  0.2831
 5910SOL    HW129366   1.302   0.085   1.122 -0.2085  1.6789  0.7664
 5910SOL    HW229367   1.179   0.049   1.053  0.6481 -2.1498  1.8212
 5911SOL     OW29368   1.213   0.172   6.155  0.3808 -0.4468 -0.0713
 5911SOL    HW129369   1.162   0.193   6.076 -3.1449 -0.4279  2.1741
 5911SOL    HW229370   1.306   0.175   6.133  0.2742 -0.1679 -0.4890
 5912SOL     OW29371   2.757   4.617   5.155  0.8692 -0.4198 -0.1394
 5912SOL    HW129372   2.670   4.583   5.175  0.6991  1.4603  2.2255
 5912SOL    HW229373   2.787   4.544   5.100 -0.4278 -0.0154 -1.4047
 5913SOL     OW29374   0.600   1.326  10.912 -0.8559 -0.0675  0.1499
 5913SOL    HW129375   0.659   1.265  10.868 -3.1099 -1.8255 -0.4242
 5913SOL    HW229376   0.513   1.292  10.897 -2.5652  4.1184  0.4472
 5914SOL     OW29377   2.389   3.829   3.454  0.3585 -0.3931  0.5342
 5914SOL    HW129378   2.408   3.815   3.361 -1.0327  1.9370 -0.0735
 5914SOL    HW229379   2.444   3.906   3.467  0.5658 -0.1687 -1.7190
 5915SOL     OW29380   0.726   1.413   1.051 -0.7765 -0.0942  0.0780
 5915SOL    HW129381   0.793   1.442   0.989 -0.4235 -0.8115  0.1205
 5915SOL    HW229382   0.757   1.325   1.071 -1.4142 -0.9926 -2.8366
 5916SOL     OW29383   2.492   2.031   1.831  0.1057  0.0432  0.3841
 5916SOL    HW129384   2.477   2.044   1.738  1.3400  2.5636  0.5540
 5916SOL    HW229385   2.560   2.097   1.839  0.5021 -0.2080 -0.9919
 5917SOL     OW29386   0.230   0.364  15.311  0.2353 -0.1354 -0.2267
 5917SOL    HW129387   0.161   0.323  15.364 -1.4655  0.8289 -1.7093
 5917SOL    HW229388   0.235   0.303  15.238 -0.6446 -0.6800  0.1731
 5918SOL     OW29389   4.305   2.079   8.410 -0.0446 -0.0371  0.1179
 5918SOL    HW129390   4.212   2.058   8.408  0.1944 -0.9917 -0.7883
 5918SOL    HW229391   4.307   2.175   8.411 -0.8963 -0.0249  0.0165
 5919SOL     OW29392   4.126   2.631   8.640 -0.0021 -0.0561  0.2551
 5919SOL    HW129393   4.189   2.595   8.702 -0.1207  0.7629  0.8594
 5919SOL    HW229394   4.091   2.705   8.690 -1.5108 -1.1022  0.7300
 5920SOL     OW29395   1.215   3.099   9.549 -0.0960 -0.1121 -0.0296
 5920SOL    HW129396   1.279   3.109   9.619 -1.9208 -0.1683  1.6207
 5920SOL    HW229397   1.194   3.006   9.559 -1.1714  0.4228  2.7040
 5921SOL     OW29398   1.168   4.273   3.563  0.0277 -0.0467  0.8487
 5921SOL    HW129399   1.105   4.312   3.624 -1.1785  0.7486 -0.8878
 5921SOL    HW229400   1.117   4.240   3.489 -1.5789 -0.2219  2.0164
 5922SOL     OW29401   2.655   0.859  12.909  0.2375  0.1023  0.4484
 5922SOL    HW129402   2.726   0.806  12.947  0.1482 -0.9498 -0.8426
 5922SOL    HW229403   2.663   0.937  12.963  0.0822  0.2809  0.2111
 5923SOL     OW29404   3.629   4.614  14.104 -0.0668 -0.1101 -0.2218
 5923SOL    HW129405   3.661   4.673  14.036  0.2874  0.5847  0.5401
 5923SOL    HW229406   3.538   4.640  14.118 -0.7279 -0.6420 -3.6388
 5924SOL     OW29407   3.501   3.355   6.096  0.0545  0.0683  0.1781
 5924SOL    HW129408   3.527   3.278   6.046 -0.7668  0.8055 -1.4038
 5924SOL    HW229409   3.588   3.391   6.116  0.5468 -0.4757 -0.9520
 5925SOL     OW29410   1.122   1.819   0.488 -0.6970 -0.1654 -0.5353
 5925SOL    HW129411   1.209   1.832   0.526  0.4697 -1.1908 -2.8880
 5925SOL    HW229412   1.130   1.858   0.402 -0.0513 -1.7580 -1.2071
 5926SOL     OW29413   1.241   4.607  17.412  0.1650 -0.2300 -0.1992
 5926SOL    HW129414   1.163   4.611  17.357 -0.8233  0.2432  1.2146
 5926SOL    HW229415   1.205   4.632  17.498  1.2607 -1.9475  0.7641
 5927SOL     OW29416   1.622   2.604  16.106 -0.2878 -0.4276 -0.1662
 5927SOL    HW129417   1.603   2.518  16.144 -0.5313 -0.0556  0.5517
 5927SOL    HW229418   1.680   2.646  16.169 -0.5425  0.0283 -0.2346
 5928SOL     OW29419   1.751   3.664   8.862  0.7872  0.8607  0.4094
 5928SOL    HW129420   1.807   3.651   8.786  1.0985  1.8867  0.4659
 5928SOL    HW229421   1.710   3.579   8.881  1.1230  0.2098 -1.7455
 5929SOL     OW29422   4.491   0.793   5.412 -0.0721  0.4904  0.0983
 5929SOL    HW129423   4.579   0.821   5.436  0.9911 -0.5396 -2.5212
 5929SOL    HW229424   4.491   0.699   5.428  1.8634  0.5714  0.6359
 5930SOL     OW29425   0.035   2.400   3.198  0.0380 -0.5191  0.8692
 5930SOL    HW129426   4.701   2.384   3.259  1.7032 -1.9727  2.4179
 5930SOL    HW229427   0.023   2.320   3.147 -0.9574 -0.1033  0.4330
 5931SOL     OW29428   3.784   3.948   5.052 -0.6291  0.2123 -0.4977
 5931SOL    HW129429   3.874   3.979   5.041 -1.4706  3.3421  1.5167
 5931SOL    HW229430   3.790   3.859   5.017  1.3952  0.0434  0.2854
 5932SOL     OW29431   0.627   0.025  12.152 -0.6617  0.6798 -0.2705
 5932SOL    HW129432   0.712   0.053  12.186 -1.2641  1.6461  0.4219
 5932SOL    HW229433   0.637   4.675  12.115 -0.1731  0.3840  0.5817
 5933SOL     OW29434   0.057   0.672   8.095  0.4333 -0.8456 -0.0647
 5933SOL    HW129435   4.707   0.648   8.122  0.8626 -1.3900  0.8622
 5933SOL    HW229436   0.049   0.704   8.005 -0.2183  2.2306  1.0846
 5934SOL     OW29437   2.851   2.634   2.959  0.0813 -0.2301 -0.1041
 5934SOL    HW129438   2.759   2.637   2.936 -0.1658 -1.2392  0.7481
 5934SOL    HW229439   2.843   2.631   3.054 -1.1492 -1.8955 -0.2622
 5935SOL     OW29440   3.400   3.207   9.183  0.3788  0.0947 -0.3785
 5935SOL    HW129441   3.380   3.167   9.099 -1.4924  1.0564 -0.4079
 5935SOL    HW229442   3.319   3.206   9.235 -0.0899 -1.7615 -1.1347
 5936SOL     OW29443   4.621   1.030   3.137  0.5002 -0.0471 -0.0592
 5936SOL    HW129444   4.557   0.983   3.190 -0.6706 -0.4282 -1.8079
 5936SOL    HW229445   4.638   0.968   3.065  3.8358  1.2779 -0.4293
 5937SOL     OW29446   4.002   3.461  12.699 -0.1923  0.6286 -0.2276
 5937SOL    HW129447   3.991   3.506  12.783  0.9659  1.8227 -0.7101
 5937SOL    HW229448   4.003   3.539  12.644  1.4904 -0.2690 -1.4880
 5938SOL     OW29449   1.159   1.116   4.075 -0.3124  0.1563  0.2718
 5938SOL    HW129450   1.074   1.118   4.120 -0.1773  0.7836  0.5056
 5938SOL    HW229451   1.204   1.128   4.158 -2.9194 -0.1014  1.7063
 5939SOL     OW29452   1.370   1.335   7.774  0.3792  0.3966 -0.0549
 5939SOL    HW129453   1.314   1.336   7.852  0.5662  1.0715  0.0701
 5939SOL    HW229454   1.454   1.297   7.801 -0.8767 -3.1774 -1.1602
 5940SOL     OW29455   3.834   1.177   2.894 -0.1957  0.1016  0.5036
 5940SOL    HW129456   3.742   1.163   2.914 -0.2320 -1.4276 -0.8170
 5940SOL    HW229457   3.845   1.269   2.920 -0.1351  0.5893 -1.2122
 5941SOL     OW29458   4.279   1.416   4.592 -0.4734 -0.4047 -0.4839
 5941SOL    HW129459   4.265   1.321   4.593  2.2311 -0.7677  3.4705
 5941SOL    HW229460   4.227   1.442   4.668  0.5424  1.7028 -0.5092
 5942SOL     OW29461   2.973   3.725   5.754  0.3640 -0.1815  0.4231
 5942SOL    HW129462   2.886   3.685   5.763 -0.4153  1.4302  0.1088
 5942SOL    HW229463   2.960   3.814   5.787  0.9429 -0.1054  0.4409
 5943SOL     OW29464   2.487   1.813   5.420  0.5715 -0.6067  0.0006
 5943SOL    HW129465   2.541   1.855   5.487  1.5244 -0.3929 -0.9108
 5943SOL    HW229466   2.428   1.882   5.391 -1.8295 -2.5873  0.1210
 5944SOL     OW29467   1.894   4.334   6.979 -0.3554  0.1734 -0.0718
 5944SOL    HW129468   1.892   4.347   7.074 -1.7630 -1.6324  0.1452
 5944SOL    HW229469   1.969   4.383   6.945  0.2012 -0.6554 -0.0439
 5945SOL     OW29470   2.851   3.654   8.049 -0.2070 -0.4873 -0.1584
 5945SOL    HW129471   2.841   3.607   7.966  0.1540 -1.1579  0.1755
 5945SOL    HW229472   2.893   3.584   8.100  1.5602  0.1321 -0.7472
 5946SOL     OW29473   0.494   4.519  12.875  0.6231  0.0499 -0.0139
 5946SOL    HW129474   0.434   4.509  12.949  1.7256  0.9612  0.9993
 5946SOL    HW229475   0.482   4.613  12.863  1.6108  0.0386 -1.1270
 5947SOL     OW29476   3.547   2.610   4.161 -0.1125 -0.3386 -0.5853
 5947SOL    HW129477   3.453   2.619   4.173  0.0922 -1.5016  1.8230
 5947SOL    HW229478   3.565   2.528   4.206 -0.4360 -0.8456 -1.3798
 5948SOL     OW29479   1.425   1.704   4.339  0.3447  0.2503 -0.1264
 5948SOL    HW129480   1.389   1.719   4.426 -2.0005 -2.5196 -0.5933
 5948SOL    HW229481   1.493   1.770   4.332  2.1680 -1.6339  0.0071
 5949SOL     OW29482   1.235   4.463  17.043  0.3566  0.1418  0.1817
 5949SOL    HW129483   1.198   4.375  17.034  1.1279  0.0866 -2.4947
 5949SOL    HW229484   1.328   4.445  17.050  0.1205 -1.8697 -1.7926
 5950SOL     OW29485   2.030   4.463  10.849  0.0750  0.0881 -0.1573
 5950SOL    HW129486   1.936   4.474  10.839  0.3491 -0.7749 -3.5228
 5950SOL    HW229487   2.056   4.383  10.803 -0.7089 -1.2515  1.7431
 5951SOL     OW29488   0.866   0.200   5.813 -0.3452 -0.4999  0.5452
 5951SOL    HW129489   0.772   0.214   5.810 -0.4275 -0.5523  2.6947
 5951SOL    HW229490   0.871   0.159   5.899  3.0501 -0.2607  0.4641
 5952SOL     OW29491   1.786   2.152   3.423  0.0683  0.1831 -0.2256
 5952SOL    HW129492   1.708   2.183   3.469  0.9372  1.7838  0.1813
 5952SOL    HW229493   1.839   2.232   3.421 -1.1632  1.0260  0.4912
 5953SOL     OW29494   0.127   2.520   6.145  0.2739  0.6071  0.1935
 5953SOL    HW129495   0.195   2.568   6.192  0.4984  0.7197 -0.2472
 5953SOL    HW229496   0.125   2.574   6.066  1.0114  1.1914  0.5758
 5954SOL     OW29497   4.086   1.644   8.111  0.4881  0.2638 -0.4523
 5954SOL    HW129498   4.175   1.644   8.077 -0.7070 -0.6278 -3.6148
 5954SOL    HW229499   4.079   1.548   8.116 -0.3053  0.5695  4.1232
 5955SOL     OW29500   0.779   1.108   2.643 -0.3439 -0.1884 -0.0550
 5955SOL    HW129501   0.872   1.114   2.619 -0.4423 -0.5695 -0.5415
 5955SOL    HW229502   0.795   1.033   2.700  1.0692  0.1112 -0.0594
 5956SOL     OW29503   3.927   0.136  13.179  0.4321 -0.1317  0.1934
 5956SOL    HW129504   3.942   0.230  13.174 -0.0922 -0.0377  0.4039
 5956SOL    HW229505   3.855   0.128  13.116 -0.1422 -2.3424  1.1178
 5957SOL     OW29506   3.962   1.196  15.634  0.4073  0.0257  0.4075
 5957SOL    HW129507   3.872   1.177  15.661  0.9722 -1.4208  1.2786
 5957SOL    HW229508   3.952   1.265  15.568  3.7380  1.7353  1.7078
 5958SOL     OW29509   3.670   1.644   2.849  0.5111 -0.0619 -0.2620
 5958SOL    HW129510   3.690   1.726   2.895  1.4562  0.0702 -0.8870
 5958SOL    HW229511   3.583   1.616   2.876 -0.1415  2.1236 -0.1060
 5959SOL     OW29512   3.134   3.003  11.887  0.1328 -0.0003 -0.5837
 5959SOL    HW129513   3.052   3.045  11.863 -0.1055 -0.1418 -0.0249
 5959SOL    HW229514   3.165   3.053  11.962 -1.2352  0.3605 -0.2688
 5960SOL     OW29515   1.168   2.562  15.347  0.1409 -0.3454 -0.4755
 5960SOL    HW129516   1.162   2.534  15.438  0.0496  1.9520  0.2349
 5960SOL    HW229517   1.083   2.598  15.320  0.6505  0.9303 -0.3670
 5961SOL     OW29518   3.224   2.412   8.609  0.5586  0.6906 -0.0874
 5961SOL    HW129519   3.284   2.383   8.540  0.6478  0.3557  0.1308
 5961SOL    HW229520   3.222   2.336   8.668  2.2456  1.6790  1.2480
 5962SOL     OW29521   2.950   1.539  11.953  0.3612 -0.7706  0.5893
 5962SOL    HW129522   2.885   1.583  11.897  0.5257 -1.5344 -0.2131
 5962SOL    HW229523   3.000   1.615  11.981 -0.1650 -0.3012  0.2447
 5963SOL     OW29524   3.976   3.534   3.905  0.5378  0.3055  0.7414
 5963SOL    HW129525   4.017   3.587   3.974 -0.1453  1.2830  0.3876
 5963SOL    HW229526   4.051   3.487   3.868 -0.4215  0.4795 -1.4411
 5964SOL     OW29527   0.944   0.467  14.757 -0.2563 -0.1869  0.3827
 5964SOL    HW129528   0.870   0.427  14.802  0.8363 -1.3724  1.1498
 5964SOL    HW229529   0.899   0.482  14.674 -0.1187 -2.0446 -0.0323
 5965SOL     OW29530   1.971   3.661   2.970 -0.5034 -0.7431  0.0524
 5965SOL    HW129531   2.035   3.603   3.011  0.9857  1.8119  1.3212
 5965SOL    HW229532   1.927   3.680   3.053 -0.0000 -0.9586  0.3704
 5966SOL     OW29533   1.614   0.498   3.812  0.1385 -0.2454  0.3809
 5966SOL    HW129534   1.569   0.414   3.799 -1.4685  0.5467  0.8492
 5966SOL    HW229535   1.636   0.515   3.721 -0.6698 -0.4117  0.1512
 5967SOL     OW29536   2.648   4.433   4.501  0.1262 -0.1300  0.1575
 5967SOL    HW129537   2.647   4.525   4.528 -1.1984 -0.7702  2.2657
 5967SOL    HW229538   2.560   4.420   4.466  0.2122 -0.8232  0.2041
 5968SOL     OW29539   0.146   1.982  11.469 -0.3043 -0.5406 -0.5478
 5968SOL    HW129540   0.179   1.951  11.552  0.3130  0.9725 -0.2254
 5968SOL    HW229541   0.173   1.905  11.419  0.3530 -0.7251  0.1010
 5969SOL     OW29542   3.664   0.602   5.756  0.0793 -0.4816 -0.0311
 5969SOL    HW129543   3.671   0.679   5.814  3.5872 -1.4847  0.8797
 5969SOL    HW229544   3.569   0.598   5.749  0.1186 -1.0316 -0.2042
 5970SOL     OW29545   0.190   4.596   4.587 -0.2235 -0.0819 -0.1089
 5970SOL    HW129546   0.138   4.622   4.511  1.3207 -0.2486 -1.2175
 5970SOL    HW229547   0.241   4.521   4.554 -2.1560 -1.0286 -0.9499
 5971SOL     OW29548   1.768   4.018   2.466  0.0839 -0.2695  0.4254
 5971SOL    HW129549   1.780   3.986   2.555  0.5904 -0.3706  0.3199
 5971SOL    HW229550   1.731   3.940   2.425  0.7182 -0.6209  0.5269
 5972SOL     OW29551   1.370   3.027   8.594  0.0548 -0.0750 -0.4324
 5972SOL    HW129552   1.296   3.053   8.538 -0.0974 -0.4664 -0.4083
 5972SOL    HW229553   1.380   3.113   8.635 -1.8627 -0.2697  0.4178
 5973SOL     OW29554   1.916   3.442  12.083 -0.0725 -0.1746  0.1184
 5973SOL    HW129555   1.990   3.390  12.051 -0.8196 -1.7576  0.9644
 5973SOL    HW229556   1.840   3.405  12.040 -1.1787  0.8579  1.1636
 5974SOL     OW29557   4.345   0.463   8.385  0.1408 -0.5089  0.3182
 5974SOL    HW129558   4.289   0.389   8.412  0.3690 -0.6976  0.2700
 5974SOL    HW229559   4.430   0.435   8.420  1.0736  0.2316 -1.4053
 5975SOL     OW29560   4.608   0.766   4.948  0.3070 -0.9400 -0.4523
 5975SOL    HW129561   4.596   0.673   4.967 -0.8024 -0.9870 -1.4149
 5975SOL    HW229562   4.518   0.795   4.940  0.1851 -1.8153 -2.2311
 5976SOL     OW29563   1.447   4.267   4.515  0.0149  0.2567 -0.4801
 5976SOL    HW129564   1.497   4.268   4.596 -1.0333  1.3266  0.1571
 5976SOL    HW229565   1.521   4.255   4.456  1.2057  1.0679  0.8667
 5977SOL     OW29566   3.208   2.593   7.286  0.1222 -0.3770 -0.1147
 5977SOL    HW129567   3.268   2.519   7.274 -0.2296 -1.0568  2.3630
 5977SOL    HW229568   3.240   2.625   7.370  1.6799  1.3648 -1.3915
 5978SOL     OW29569   1.432   0.568   1.523  0.8273 -0.2616 -0.5333
 5978SOL    HW129570   1.520   0.575   1.488  1.1003 -2.8903 -0.3640
 5978SOL    HW229571   1.394   0.618   1.451  0.1177  0.9124  0.6640
 5979SOL     OW29572   2.792   2.701   7.957  0.3246  0.1085 -0.6828
 5979SOL    HW129573   2.782   2.606   7.948  0.4648  0.0375 -0.0669
 5979SOL    HW229574   2.737   2.726   8.032  1.7579  0.9294  0.0946
 5980SOL     OW29575   2.903   1.429   9.225  0.2222 -0.3897  0.2902
 5980SOL    HW129576   2.994   1.425   9.255  1.2606 -0.5646 -2.9538
 5980SOL    HW229577   2.876   1.340   9.246  2.2493 -0.4666  2.6365
 5981SOL     OW29578   0.251   0.391   6.736  0.6223 -0.0619  0.2153
 5981SOL    HW129579   0.205   0.470   6.766 -1.4602 -0.6149 -1.5201
 5981SOL    HW229580   0.340   0.403   6.767  0.4106  1.7841  0.1179
 5982SOL     OW29581   2.555   3.820   9.623 -0.1181  0.0120  0.4575
 5982SOL    HW129582   2.624   3.845   9.685 -0.2702  0.3823  0.4781
 5982SOL    HW229583   2.498   3.896   9.639  0.0820  0.0925  0.7891
 5983SOL     OW29584   1.754   1.142   5.389  0.1446  0.0695 -0.3531
 5983SOL    HW129585   1.832   1.177   5.346  0.0801 -1.4153 -1.6991
 5983SOL    HW229586   1.723   1.219   5.436 -2.9916  0.2735 -2.7060
 5984SOL     OW29587   1.648   4.493   6.921 -0.2159  0.1187 -0.1248
 5984SOL    HW129588   1.706   4.477   6.995 -2.8061 -0.0485  1.9009
 5984SOL    HW229589   1.698   4.466   6.844  1.7240 -1.1898  1.6055
 5985SOL     OW29590   0.848   0.690  15.002  0.3085  0.3269  0.3600
 5985SOL    HW129591   0.760   0.721  15.023  0.0315 -0.9522  1.0801
 5985SOL    HW229592   0.824   0.652  14.918 -0.8822 -2.6677  2.0320
 5986SOL     OW29593   3.494   4.035   4.220 -0.8972 -0.0359 -0.5566
 5986SOL    HW129594   3.493   4.074   4.308 -0.1458  1.3305 -1.1500
 5986SOL    HW229595   3.585   4.042   4.190 -0.4922  0.6139  0.8194
 5987SOL     OW29596   0.861   2.822   1.461 -0.3025 -0.6591 -0.1144
 5987SOL    HW129597   0.846   2.821   1.556 -0.7035 -1.6959 -0.1941
 5987SOL    HW229598   0.954   2.841   1.449 -0.0773 -0.0332  2.6759
 5988SOL     OW29599   0.412   2.180   7.580  0.3463  0.6391  0.1306
 5988SOL    HW129600   0.448   2.208   7.496  2.6262  0.1909  0.9711
 5988SOL    HW229601   0.318   2.188   7.563 -0.3188 -0.7799  3.0282
 5989SOL     OW29602   1.255   4.271  17.490 -0.4037  0.1185 -0.1711
 5989SOL    HW129603   1.209   4.217  17.554  0.3262  0.4004  0.5799
 5989SOL    HW229604   1.333   4.300  17.538  1.0898 -1.6386 -1.5064
 5990SOL     OW29605   2.445   3.828   2.771 -0.2781  0.1854  0.0403
 5990SOL    HW129606   2.428   3.749   2.822 -3.4078  1.7794  1.4638
 5990SOL    HW229607   2.532   3.830   2.811 -0.0852 -0.1027 -0.3595
 5991SOL     OW29608   4.050   0.275   7.887 -0.5973 -0.4319 -0.0242
 5991SOL    HW129609   3.978   0.270   7.951 -0.5235  0.9160  0.1808
 5991SOL    HW229610   4.026   0.214   7.818  1.1824 -1.9192  0.6859
 5992SOL     OW29611   1.631   1.271  13.488 -0.0173  0.1430 -0.6677
 5992SOL    HW129612   1.663   1.340  13.545 -2.3468 -1.1096  2.1398
 5992SOL    HW229613   1.661   1.196  13.540 -1.4968  0.1481  0.1996
 5993SOL     OW29614   2.953   2.375  10.968 -0.1027  0.0063  0.1985
 5993SOL    HW129615   2.870   2.349  11.007 -0.1316 -1.0371 -0.5794
 5993SOL    HW229616   3.001   2.293  10.979 -1.0661 -0.7148 -1.1553
 5994SOL     OW29617   2.912   1.354   2.461 -0.0495  0.2131  0.0460
 5994SOL    HW129618   2.889   1.309   2.542 -0.1787  1.1774  0.5511
 5994SOL    HW229619   2.911   1.284   2.396 -0.1411  0.9987 -0.7944
 5995SOL     OW29620   3.875   0.687   4.366  0.1577 -0.3696  0.4565
 5995SOL    HW129621   3.831   0.635   4.433  0.4394  0.4647  1.2943
 5995SOL    HW229622   3.798   0.692   4.310 -0.2046 -2.9887  0.7535
 5996SOL     OW29623   0.952   2.834  16.380 -0.2936  0.3091  0.1109
 5996SOL    HW129624   0.920   2.882  16.304  0.6909 -0.5753 -0.8513
 5996SOL    HW229625   0.869   2.840  16.428 -0.4299 -2.1341  0.1633
 5997SOL     OW29626   0.854   0.508   4.822 -0.0998  0.3462  0.0758
 5997SOL    HW129627   0.871   0.590   4.776  0.4202  0.4019  0.3561
 5997SOL    HW229628   0.813   0.447   4.760 -0.2311 -0.5966  1.0821
 5998SOL     OW29629   3.631   4.367   4.604  0.2011  0.0450  0.2684
 5998SOL    HW129630   3.694   4.421   4.652 -0.4996  0.6759  0.4768
 5998SOL    HW229631   3.556   4.355   4.663  1.1039 -1.1853  1.1641
 5999SOL     OW29632   1.774   3.811   9.168  0.1653  0.3035  0.1300
 5999SOL    HW129633   1.810   3.900   9.171 -0.5381  0.6708 -1.6811
 5999SOL    HW229634   1.764   3.801   9.073 -0.2517  2.0147 -0.0081
 6000SOL     OW29635   3.040   1.433   1.961  0.1974  0.1653 -0.2105
 6000SOL    HW129636   3.048   1.519   2.001  0.5333  0.1449 -0.2309
 6000SOL    HW229637   2.974   1.391   2.016  1.3104 -0.5808  0.5673
 6001SOL     OW29638   2.008   2.866  16.722 -0.0596 -0.4965  0.0471
 6001SOL    HW129639   2.036   2.786  16.677 -0.5289 -0.9620  0.5868
 6001SOL    HW229640   1.954   2.902  16.651 -0.3183 -0.1527  0.4223
 6002SOL     OW29641   3.958   2.202   7.228 -0.3693 -0.5102  0.8567
 6002SOL    HW129642   3.924   2.258   7.298 -0.4536 -0.0674  0.4573
 6002SOL    HW229643   3.888   2.137   7.223 -1.3295  0.5437  0.7585
 6003SOL     OW29644   2.549   2.021   3.345  0.7039  0.0599 -0.0739
 6003SOL    HW129645   2.556   2.087   3.276  0.3733  1.5709  1.3306
 6003SOL    HW229646   2.642   2.019   3.364  0.1250 -1.3801  2.7190
 6004SOL     OW29647   2.752   0.623   4.787 -0.0602  0.0938 -0.1508
 6004SOL    HW129648   2.753   0.685   4.859  2.8169 -0.4306  0.2775
 6004SOL    HW229649   2.721   0.542   4.829  1.2204 -0.3873 -0.1406
 6005SOL     OW29650   2.978   0.332   5.772 -0.2418 -0.2377 -0.0369
 6005SOL    HW129651   3.071   0.354   5.774 -0.3928  0.3838  0.0053
 6005SOL    HW229652   2.970   0.288   5.858 -2.4036 -1.2326 -0.7391
 6006SOL     OW29653   0.039   2.687  13.768 -0.6724  0.0823  0.2904
 6006SOL    HW129654   0.121   2.718  13.731 -0.1733 -2.6414 -0.9421
 6006SOL    HW229655   0.047   2.708  13.860  0.7047 -0.2809  0.2462
 6007SOL     OW29656   1.162   3.612   8.259  0.3693  0.6434 -0.4630
 6007SOL    HW129657   1.230   3.662   8.304 -0.5437  2.9436 -1.6358
 6007SOL    HW229658   1.181   3.614   8.165  1.2720  0.3410 -0.2884
 6008SOL     OW29659   3.190   3.943   9.721 -0.4412 -0.4107 -0.2702
 6008SOL    HW129660   3.204   3.946   9.816 -0.7387 -0.3029 -0.2316
 6008SOL    HW229661   3.118   4.004   9.704 -0.2747 -0.0029  0.4589
 6009SOL     OW29662   2.567   0.050   8.172 -1.2182 -0.1291 -0.2319
 6009SOL    HW129663   2.542   0.056   8.264 -2.5892 -3.0531 -0.4162
 6009SOL    HW229664   2.516   0.122   8.135 -3.6735 -1.3926  0.6323
 6010SOL     OW29665   2.733   1.354   7.533 -0.2887 -0.2520  0.3616
 6010SOL    HW129666   2.753   1.314   7.618 -3.5257 -0.9336  0.8189
 6010SOL    HW229667   2.791   1.305   7.475  2.7412  2.7176  0.8504
 6011SOL     OW29668   3.769   0.536   7.413  0.3462  0.5012  0.4000
 6011SOL    HW129669   3.814   0.607   7.459  0.6259  1.2012 -0.9595
 6011SOL    HW229670   3.681   0.545   7.451  0.2589 -2.2127  0.8817
 6012SOL     OW29671   1.704   1.158   5.739  0.4941  0.4586  0.2179
 6012SOL    HW129672   1.795   1.152   5.707  0.4572 -0.7364  0.3573
 6012SOL    HW229673   1.707   1.219   5.813 -2.4276 -0.5351  1.1205
 6013SOL     OW29674   3.108   4.328   1.934  0.0842  0.0557  0.2734
 6013SOL    HW129675   3.032   4.282   1.970 -0.4937  0.5927 -0.2597
 6013SOL    HW229676   3.063   4.370   1.861  0.9095  3.3276  1.6287
 6014SOL     OW29677   3.307   1.338   3.541  0.2159  0.0935 -0.1261
 6014SOL    HW129678   3.226   1.343   3.489  0.8798  1.2273 -1.0602
 6014SOL    HW229679   3.321   1.429   3.566  1.4036  0.2224 -1.2444
 6015SOL     OW29680   0.160   4.641   9.358 -0.3305 -0.2254  0.3464
 6015SOL    HW129681   0.126   4.558   9.392  1.7355 -0.3521  2.1336
 6015SOL    HW229682   0.102   4.703   9.404 -0.3789  1.5704 -2.1670
 6016SOL     OW29683   4.718   0.319  11.211  0.2343  0.8237 -0.1677
 6016SOL    HW129684   4.655   0.355  11.148  0.4828 -1.0652 -1.5045
 6016SOL    HW229685   0.025   0.253  11.158 -0.6791  0.7530 -0.8639
 6017SOL     OW29686   1.630   3.963   8.488 -0.3939  0.1091 -0.8784
 6017SOL    HW129687   1.725   3.968   8.501 -0.5749  3.0590 -0.6704
 6017SOL    HW229688   1.610   3.874   8.517  0.6465  0.2038  0.1264
 6018SOL     OW29689   3.501   1.390   2.260  0.6730  0.3281  0.0034
 6018SOL    HW129690   3.558   1.448   2.210 -0.9689  0.7066 -1.4476
 6018SOL    HW229691   3.567   1.335   2.301 -0.8323 -1.2533  0.3429
 6019SOL     OW29692   0.677   2.068   7.250 -0.5538 -0.5901 -0.0542
 6019SOL    HW129693   0.759   2.050   7.295  0.1277 -2.1296 -1.9104
 6019SOL    HW229694   0.621   2.019   7.310  0.6467  0.1195  1.6255
 6020SOL     OW29695   0.348   1.381   8.684  0.3714  0.0131 -0.1200
 6020SOL    HW129696   0.414   1.433   8.730  0.3859 -0.0333 -0.0875
 6020SOL    HW229697   0.301   1.367   8.767 -0.7260 -1.1306 -0.9466
 6021SOL     OW29698   4.504   3.591   7.713  0.0892  0.8984 -0.7760
 6021SOL    HW129699   4.433   3.528   7.721  1.4979 -0.8391 -2.0432
 6021SOL    HW229700   4.449   3.655   7.668 -2.5804  0.5116  1.9541
 6022SOL     OW29701   0.572   4.364  16.213 -0.5368 -0.3480  0.3733
 6022SOL    HW129702   0.535   4.305  16.279  0.0247  1.1916  2.0648
 6022SOL    HW229703   0.628   4.304  16.164 -0.8918 -0.2690 -0.1348
 6023SOL     OW29704   0.005   1.155   5.670 -0.1920  0.4288 -0.2334
 6023SOL    HW129705   0.088   1.123   5.633 -1.1774 -1.3186 -0.9445
 6023SOL    HW229706   4.699   1.189   5.592  2.1695  1.2672 -1.2073
 6024SOL     OW29707   2.051   3.376   5.153  0.2190 -0.1611 -0.0222
 6024SOL    HW129708   1.978   3.350   5.096  1.3139 -1.4793 -0.8258
 6024SOL    HW229709   2.082   3.442   5.092 -1.3957  2.1645  1.6723
 6025SOL     OW29710   1.695   1.059   3.725  0.0397 -0.5304 -0.7125
 6025SOL    HW129711   1.604   1.062   3.695 -0.3128 -0.0105  0.4163
 6025SOL    HW229712   1.713   0.967   3.744  0.8410 -0.2882 -0.3113
 6026SOL     OW29713   2.299   4.569   2.206  0.0637 -0.1079 -1.0558
 6026SOL    HW129714   2.342   4.514   2.271  0.3571 -0.9324 -1.9504
 6026SOL    HW229715   2.291   4.510   2.131  1.4390  0.5053 -1.6849
 6027SOL     OW29716   2.828   2.694   3.616  0.0653  0.2225 -0.1643
 6027SOL    HW129717   2.878   2.676   3.696 -1.9340 -2.3384  0.4852
 6027SOL    HW229718   2.742   2.709   3.656  0.6505 -1.0716  1.5714
 6028SOL     OW29719   3.838   0.035  14.232 -0.0247 -0.3796 -0.0678
 6028SOL    HW129720   3.887   0.037  14.314  2.2422 -0.4616 -1.4097
 6028SOL    HW229721   3.764   4.718  14.257 -0.1899  0.2118  0.7523
 6029SOL     OW29722   2.649   1.159   1.274  0.7017  0.2718 -0.4268
 6029SOL    HW129723   2.569   1.202   1.306  1.1818  0.8091  0.0423
 6029SOL    HW229724   2.719   1.217   1.302  0.7477 -0.7244  1.4904
 6030SOL     OW29725   0.082   2.210   6.352 -0.5132 -0.4126 -0.5790
 6030SOL    HW129726   0.050   2.187   6.439 -1.1162 -0.6092 -0.8516
 6030SOL    HW229727   0.010   2.268   6.328 -0.0431 -0.2161 -1.5294
 6031SOL     OW29728   2.971   3.277   1.616  0.2449  0.2811  0.6906
 6031SOL    HW129729   2.980   3.371   1.600  2.9560  0.2928  2.3702
 6031SOL    HW229730   3.031   3.263   1.690  0.5785 -0.6850  0.2380
 6032SOL     OW29731   1.673   0.232   6.674  0.5061  0.8067 -0.1982
 6032SOL    HW129732   1.619   0.274   6.607 -1.4310 -1.9376 -0.3688
 6032SOL    HW229733   1.607   0.230   6.744  1.2759 -1.3934  0.4415
 6033SOL     OW29734   4.459   3.483   9.315  0.0424 -0.1245  0.0249
 6033SOL    HW129735   4.386   3.482   9.253  0.1340 -1.7807 -0.0618
 6033SOL    HW229736   4.490   3.394   9.302 -0.2478 -0.1234 -0.6896
 6034SOL     OW29737   4.695   1.779  17.032 -0.3274 -0.3752  0.5964
 6034SOL    HW129738   4.734   1.776  17.119 -0.5568 -0.4978  0.6945
 6034SOL    HW229739   4.621   1.840  17.039  0.2452  0.5724 -1.7421
 6035SOL     OW29740   4.117   2.542   7.237  0.0543 -0.6410  0.4642
 6035SOL    HW129741   4.170   2.614   7.203  2.8259 -2.2708  1.2813
 6035SOL    HW229742   4.070   2.525   7.156 -0.7726 -2.5299  1.3278
 6036SOL     OW29743   0.726   2.170   3.462  0.0117  0.1743 -0.3086
 6036SOL    HW129744   0.750   2.081   3.436 -0.2231  0.6645 -2.2385
 6036SOL    HW229745   0.811   2.213   3.459  0.0151  0.1070 -1.2929
 6037SOL     OW29746   3.314   2.347   8.238  0.2923  0.7835 -0.7830
 6037SOL    HW129747   3.277   2.267   8.200  2.4173 -0.7738  0.3998
 6037SOL    HW229748   3.256   2.403   8.187  1.5683 -0.1327 -3.2572
 6038SOL     OW29749   2.849   3.084   9.236 -0.3863  0.0378 -0.2971
 6038SOL    HW129750   2.761   3.084   9.275 -0.0655 -1.0733  0.4214
 6038SOL    HW229751   2.868   2.993   9.213  0.4733  0.6088 -1.8379
 6039SOL     OW29752   0.813   1.701  11.942 -0.2416  0.1927 -0.8091
 6039SOL    HW129753   0.735   1.756  11.939 -0.1612  0.1963 -2.9126
 6039SOL    HW229754   0.793   1.621  11.991  1.9661 -0.4308 -0.9078
 6040SOL     OW29755   4.502   3.410   6.273 -0.1273 -0.2311  0.4160
 6040SOL    HW129756   4.417   3.427   6.233 -0.5446  0.7934  1.7437
 6040SOL    HW229757   4.472   3.394   6.362  1.8773  2.0428  1.4674
 6041SOL     OW29758   0.508   0.661  12.185 -0.0277 -0.5082 -0.6834
 6041SOL    HW129759   0.562   0.624  12.255 -3.8565  0.7046  2.9262
 6041SOL    HW229760   0.552   0.632  12.106 -0.0329 -0.3926 -0.7290
 6042SOL     OW29761   2.862   4.708   6.113  0.2838 -0.0990 -0.0670
 6042SOL    HW129762   2.831   0.032   6.179  1.8335 -1.0565  1.5492
 6042SOL    HW229763   2.795   4.719   6.045 -1.6123  2.1357  2.1545
 6043SOL     OW29764   4.418   1.091  12.201 -0.4115 -0.5254 -0.3508
 6043SOL    HW129765   4.417   1.183  12.225  1.0344 -0.8556  0.9652
 6043SOL    HW229766   4.378   1.052  12.279  1.1781 -1.5710 -0.0696
 6044SOL     OW29767   4.707   1.382  10.364  0.5231 -0.5166 -0.0033
 6044SOL    HW129768   0.042   1.380  10.303  0.2466  1.0293 -0.3817
 6044SOL    HW229769   4.665   1.467  10.353  2.1845  0.1705 -1.1112
 6045SOL     OW29770   4.184   3.015   4.168 -0.5769 -0.4166 -0.2860
 6045SOL    HW129771   4.158   3.103   4.144  0.9923  0.4887  1.3722
 6045SOL    HW229772   4.148   2.968   4.092 -0.2462  1.2976 -1.5171
 6046SOL     OW29773   2.104   1.961  13.952 -0.5535 -0.2277  0.4217
 6046SOL    HW129774   2.083   1.912  14.032 -0.3202 -2.0437 -0.6363
 6046SOL    HW229775   2.074   2.044  13.991 -1.1212 -0.5935  0.7763
 6047SOL     OW29776   0.385   1.496   1.882  0.2437 -0.2511  0.1364
 6047SOL    HW129777   0.341   1.422   1.840 -3.1405  2.1792 -0.6241
 6047SOL    HW229778   0.325   1.504   1.956 -0.8041  0.9218 -0.8424
 6048SOL     OW29779   1.877   0.660  14.366  0.2532  0.6659  0.3758
 6048SOL    HW129780   1.887   0.598  14.439  0.5014 -2.6095 -2.4566
 6048SOL    HW229781   1.967   0.670  14.335  1.2495 -2.8663  2.0204
 6049SOL     OW29782   0.447   1.291   7.857 -0.3965  0.0185  0.0020
 6049SOL    HW129783   0.430   1.240   7.936  0.0560  0.4825  0.3902
 6049SOL    HW229784   0.525   1.250   7.819  0.4893  2.7222 -1.0534
 6050SOL     OW29785   3.675   1.715   7.328  0.3692  0.3171 -0.0924
 6050SOL    HW129786   3.755   1.668   7.304 -0.0980  0.1385 -1.3003
 6050SOL    HW229787   3.627   1.736   7.248  2.2588  0.4684 -1.1775
 6051SOL     OW29788   1.253   0.695   8.275 -0.1143 -0.4748 -0.5516
 6051SOL    HW129789   1.275   0.740   8.357  0.1384 -0.3739 -0.6755
 6051SOL    HW229790   1.188   0.750   8.231 -1.4894 -1.6536  0.0268
 6052SOL     OW29791   4.725   2.627   6.355 -0.0663 -0.1955  0.3610
 6052SOL    HW129792   0.050   2.697   6.339 -0.0431  0.0445  1.4636
 6052SOL    HW229793   4.736   2.568   6.281  4.0276 -0.2831  1.0500
 6053SOL     OW29794   3.545   3.875   5.984 -0.1654 -0.2160  0.3113
 6053SOL    HW129795   3.493   3.814   5.932  2.8819 -1.9816 -0.7139
 6053SOL    HW229796   3.469   3.914   6.026 -0.6799  0.4528 -1.2287
 6054SOL     OW29797   4.185   2.075   5.253  0.5894  0.0663  0.6265
 6054SOL    HW129798   4.171   2.167   5.233 -2.2747 -0.0895  1.9234
 6054SOL    HW229799   4.195   2.084   5.348 -1.7698  2.8156  0.6206
 6055SOL     OW29800   3.874   3.884   8.898  0.1925  0.5050  0.1982
 6055SOL    HW129801   3.917   3.844   8.822 -0.8981 -0.9254  0.3546
 6055SOL    HW229802   3.797   3.829   8.909  0.0380  0.7992  0.5780
 6056SOL     OW29803   4.369   4.132   7.970  0.6121  0.3341  0.3935
 6056SOL    HW129804   4.416   4.080   8.035 -0.0263  0.4146  0.9213
 6056SOL    HW229805   4.364   4.216   8.015 -0.8379 -0.9213  2.6232
 6057SOL     OW29806   3.920   1.526   3.924  0.4238 -0.2066  0.4789
 6057SOL    HW129807   3.838   1.510   3.877 -0.4803  3.0404  0.9582
 6057SOL    HW229808   3.972   1.464   3.874 -0.5832  0.1891 -1.0664
 6058SOL     OW29809   4.137   2.244   8.755  0.3464  0.0853 -0.4131
 6058SOL    HW129810   4.094   2.259   8.671  1.2386  0.8135 -0.7479
 6058SOL    HW229811   4.132   2.149   8.760 -0.5176  0.1583  0.2652
 6059SOL     OW29812   2.419   2.678   5.536 -0.2119 -0.1653  0.5869
 6059SOL    HW129813   2.326   2.686   5.558 -0.2197 -3.3947  1.7766
 6059SOL    HW229814   2.407   2.720   5.451 -0.8558  0.7853  1.1514
 6060SOL     OW29815   2.847   2.926   5.334  0.1685 -0.3922  0.3735
 6060SOL    HW129816   2.941   2.906   5.338 -0.1334 -1.4550  2.0289
 6060SOL    HW229817   2.818   2.862   5.398 -1.1659  0.7150  0.8711
 6061SOL     OW29818   1.484   2.059   3.501  0.1063 -0.5751 -0.6626
 6061SOL    HW129819   1.482   2.010   3.419 -1.1426 -1.7210  0.0400
 6061SOL    HW229820   1.456   1.994   3.565 -1.1810 -0.8071 -1.4670
 6062SOL     OW29821   1.327   1.946   0.071 -0.3142 -0.4554  0.6072
 6062SOL    HW129822   1.232   1.951   0.080 -0.4745 -2.2097 -0.0605
 6062SOL    HW229823   1.337   1.875   0.135  0.1309  1.6426  2.8376
 6063SOL     OW29824   2.714   1.469   3.266  0.0759 -0.1582 -0.2093
 6063SOL    HW129825   2.669   1.385   3.257 -2.7657  1.4652 -1.0742
 6063SOL    HW229826   2.703   1.462   3.361  0.9076 -3.3629 -0.3319
 6064SOL     OW29827   1.662   3.913  10.412  0.2303  0.1268  0.3118
 6064SOL    HW129828   1.634   3.995  10.372  2.1936  0.2869 -0.7607
 6064SOL    HW229829   1.704   3.867  10.339 -0.9847 -0.8219  0.2242
 6065SOL     OW29830   0.740   3.125  10.437 -0.2994  0.2426 -0.4139
 6065SOL    HW129831   0.695   3.146  10.519 -0.7942 -2.6132  0.0491
 6065SOL    HW229832   0.770   3.036  10.459 -0.0874  0.7431  1.2910
 6066SOL     OW29833   1.733   0.945  17.735  0.6764  0.2066  1.0323
 6066SOL    HW129834   1.713   0.926  17.643  0.2567 -0.1219  1.1911
 6066SOL    HW229835   1.803   1.005  17.709  0.5095  0.7928  1.9389
 6067SOL     OW29836   2.520   1.446  13.884  0.0569 -0.1407 -0.0936
 6067SOL    HW129837   2.589   1.407  13.937  0.1924  0.3699  0.1141
 6067SOL    HW229838   2.455   1.379  13.867 -0.5979 -0.0134  1.8628
 6068SOL     OW29839   3.783   2.354  12.198  1.1322  0.1400  0.1185
 6068SOL    HW129840   3.785   2.260  12.217  2.4919 -0.1977 -1.6498
 6068SOL    HW229841   3.785   2.385  12.289 -1.6657 -0.3391  0.3317
 6069SOL     OW29842   0.056   1.040   1.855 -0.1206  0.5922  0.1335
 6069SOL    HW129843   0.103   0.979   1.798 -1.5729  1.5467 -2.0617
 6069SOL    HW229844   4.720   0.983   1.876  0.2464 -0.0637 -0.3400
 6070SOL     OW29845   2.060   4.032  13.780  0.2004 -0.5045  0.3901
 6070SOL    HW129846   2.035   4.076  13.698  2.2235 -0.6920 -0.3251
 6070SOL    HW229847   1.978   3.983  13.785 -0.1103  0.0006  0.3316
 6071SOL     OW29848   4.285   3.133   5.478 -0.4665 -0.2961 -0.4776
 6071SOL    HW129849   4.331   3.066   5.528 -1.4089 -0.4765  0.1618
 6071SOL    HW229850   4.277   3.205   5.541  0.3244 -1.8619  1.4464
 6072SOL     OW29851   1.550   0.491   8.465  0.6495 -0.2966  0.5529
 6072SOL    HW129852   1.571   0.415   8.520 -1.8591 -0.8753  0.7181
 6072SOL    HW229853   1.469   0.520   8.507  0.3141  0.0997 -0.3709
 6073SOL     OW29854   3.501   1.741   7.534 -0.6752  0.1505 -0.4541
 6073SOL    HW129855   3.536   1.658   7.501 -3.3341 -0.7136 -1.1043
 6073SOL    HW229856   3.552   1.805   7.485 -2.5964  2.5262  0.6489
 6074SOL     OW29857   2.405   3.500   6.708  0.4245 -0.0010 -0.4503
 6074SOL    HW129858   2.430   3.573   6.765  0.4462  0.6042 -1.2428
 6074SOL    HW229859   2.468   3.503   6.636  0.9759 -1.6709 -0.0349
 6075SOL     OW29860   1.940   0.213   8.445  0.2145  0.0855  0.3881
 6075SOL    HW129861   1.927   0.138   8.386  1.5023  0.1211  0.0694
 6075SOL    HW229862   2.008   0.177   8.501 -0.0479 -1.5534 -0.3168
 6076SOL     OW29863   2.779   4.113  11.415  0.1934  0.3213  0.2970
 6076SOL    HW129864   2.780   4.047  11.484  0.1565  0.1211  0.1046
 6076SOL    HW229865   2.706   4.081  11.362 -0.1889 -0.1557  1.1187
 6077SOL     OW29866   4.431   0.605  10.538 -0.1412  1.0188 -0.3671
 6077SOL    HW129867   4.456   0.532  10.481  2.6839 -0.7703  3.1809
 6077SOL    HW229868   4.386   0.570  10.615  1.6463  0.5362  0.4466
 6078SOL     OW29869   1.729   3.535   7.714  0.1251 -0.1480  0.3247
 6078SOL    HW129870   1.777   3.469   7.764 -1.2500 -0.6625  0.9566
 6078SOL    HW229871   1.776   3.534   7.631  1.9576  0.4901  1.3633
 6079SOL     OW29872   4.597   4.130   7.248 -0.4137 -0.1953  0.2651
 6079SOL    HW129873   4.620   4.084   7.329 -2.3173 -0.0580  0.8678
 6079SOL    HW229874   4.657   4.077   7.195  0.5485  1.2278 -0.0679
 6080SOL     OW29875   3.455   2.409   7.182  0.3823 -0.1533 -0.2551
 6080SOL    HW129876   3.535   2.440   7.140  0.2482 -0.1101 -0.4794
 6080SOL    HW229877   3.413   2.358   7.113 -1.0101  0.4161  0.1673
 6081SOL     OW29878   1.576   4.707  11.134  0.4621 -0.4715 -0.5111
 6081SOL    HW129879   1.525   0.017  11.068 -0.8602 -2.0409 -0.6076
 6081SOL    HW229880   1.507   4.704  11.199  0.8917  1.5558  0.0400
 6082SOL     OW29881   1.015   1.475   4.975 -0.0334 -0.4075  0.1102
 6082SOL    HW129882   1.040   1.501   4.887 -0.4946  1.2013  0.4626
 6082SOL    HW229883   1.101   1.476   5.019  0.7246  2.7045 -1.4496
 6083SOL     OW29884   0.935   0.882  12.994 -0.4057  0.7901 -0.1875
 6083SOL    HW129885   0.848   0.845  13.006 -0.9076  1.8914 -0.4699
 6083SOL    HW229886   0.986   0.801  12.983  0.6959  1.3298  0.9324
 6084SOL     OW29887   3.651   3.182   5.942 -0.1944 -0.0255 -0.1965
 6084SOL    HW129888   3.625   3.111   5.883 -0.8147  0.0683 -0.0312
 6084SOL    HW229889   3.663   3.252   5.878 -1.5706  0.1170 -0.3067
 6085SOL     OW29890   1.355   2.965  11.604  0.3134 -0.1887  0.3356
 6085SOL    HW129891   1.334   3.053  11.634 -0.3434  0.0424 -0.8057
 6085SOL    HW229892   1.287   2.919  11.653  0.6989  0.0641  1.1087
 6086SOL     OW29893   1.465   4.110   4.821  0.5451  0.0410  0.2036
 6086SOL    HW129894   1.507   4.190   4.790  1.3450 -0.4550 -0.0048
 6086SOL    HW229895   1.537   4.047   4.816  1.8572  1.5854 -0.3327
 6087SOL     OW29896   1.898   0.909  10.356 -0.4387 -0.0010  0.3661
 6087SOL    HW129897   1.828   0.924  10.292  1.7253 -1.1042 -2.2757
 6087SOL    HW229898   1.912   0.996  10.394  0.2347  0.6265 -1.3454
 6088SOL     OW29899   3.101   4.695  13.736  0.4190  0.1863 -0.0736
 6088SOL    HW129900   3.169   4.695  13.669  0.8600  0.8389  0.3831
 6088SOL    HW229901   3.098   0.052  13.746  0.8106  0.2412 -0.4640
 6089SOL     OW29902   3.079   2.424   9.530  0.3734  0.2938 -0.3006
 6089SOL    HW129903   3.125   2.393   9.452 -0.5846 -0.7826 -0.4432
 6089SOL    HW229904   3.070   2.344   9.582 -0.1391  0.2313 -0.4817
 6090SOL     OW29905   2.942   4.514   4.680  0.2981 -0.0359 -0.6306
 6090SOL    HW129906   2.945   4.610   4.679 -0.1653 -0.0253 -2.0507
 6090SOL    HW229907   2.848   4.505   4.694 -0.1002  2.7070 -1.5482
 6091SOL     OW29908   4.143   2.993   7.164  0.1047  0.3469 -0.7328
 6091SOL    HW129909   4.069   2.981   7.104 -1.1075  0.7377  0.6911
 6091SOL    HW229910   4.175   2.905   7.180  0.1923  0.2333 -1.5286
 6092SOL     OW29911   2.587   1.330   4.370  0.2446  0.3832  0.1654
 6092SOL    HW129912   2.667   1.282   4.392 -1.2616 -1.2976  1.9476
 6092SOL    HW229913   2.620   1.420   4.366  1.0537  0.0179 -1.2922
 6093SOL     OW29914   1.380   0.438  13.974 -0.7673  0.3272  0.3770
 6093SOL    HW129915   1.353   0.350  13.950  0.8760  0.0810 -0.5703
 6093SOL    HW229916   1.456   0.420  14.029 -0.6738  0.8667  0.4274
 6094SOL     OW29917   0.704   2.214   4.795 -0.7878  0.1629 -0.3955
 6094SOL    HW129918   0.684   2.216   4.702  3.6828  1.5200 -1.3228
 6094SOL    HW229919   0.693   2.307   4.816 -2.4855 -0.1646  0.1581
 6095SOL     OW29920   1.056   2.390   5.641  0.3745  0.3029 -0.2728
 6095SOL    HW129921   0.983   2.441   5.676  0.9102  1.5043 -0.8967
 6095SOL    HW229922   1.069   2.326   5.711  0.6969  0.6750  0.0005
 6096SOL     OW29923   2.935   0.479   5.135  0.1621  0.1375 -0.3059
 6096SOL    HW129924   2.968   0.476   5.225 -0.2247 -0.2219 -0.1771
 6096SOL    HW229925   3.002   0.431   5.085  1.5068  1.8782 -0.1859
 6097SOL     OW29926   2.873   3.838   7.529 -0.4315 -0.4517 -0.3040
 6097SOL    HW129927   2.849   3.864   7.618  1.6336  1.4225 -0.2878
 6097SOL    HW229928   2.969   3.840   7.526 -0.4266  0.4174  0.3644
 6098SOL     OW29929   3.505   4.199   7.312 -0.3660 -0.4821 -0.3937
 6098SOL    HW129930   3.491   4.111   7.348 -0.3957 -0.7766 -1.1320
 6098SOL    HW229931   3.458   4.258   7.371 -0.2249 -0.0222 -0.7439
 6099SOL     OW29932   4.650   1.183   4.472 -0.0064  0.3710  0.0018
 6099SOL    HW129933   4.618   1.230   4.395  0.8444  0.7180 -0.1368
 6099SOL    HW229934   0.001   1.212   4.489  0.8650 -1.6041 -1.2058
 6100SOL     OW29935   4.409   2.322   3.055 -1.3295 -0.5906 -0.0842
 6100SOL    HW129936   4.449   2.348   2.972 -1.7206  4.4995  1.3722
 6100SOL    HW229937   4.317   2.322   3.029 -1.3088  2.5977 -0.1482
 6101SOL     OW29938   3.303   2.576   6.189 -0.3496 -0.0765  1.0538
 6101SOL    HW129939   3.369   2.557   6.256  0.2158  1.4038  0.9268
 6101SOL    HW229940   3.323   2.504   6.129  0.2931  1.5774 -0.7076
 6102SOL     OW29941   0.670   0.286   7.033  0.4657 -0.2823  0.0872
 6102SOL    HW129942   0.727   0.212   7.056 -1.7806 -2.1789 -0.3908
 6102SOL    HW229943   0.590   0.272   7.083 -0.5312  1.8900 -0.9348
 6103SOL     OW29944   1.848   0.086   8.778  0.4433  0.0949  0.1310
 6103SOL    HW129945   1.924   0.045   8.736 -0.5186 -2.1060  0.5930
 6103SOL    HW229946   1.850   0.170   8.731  2.5241  0.9372  1.6697
 6104SOL     OW29947   1.346   3.089  14.744 -0.3773 -0.4276  0.3236
 6104SOL    HW129948   1.393   3.123  14.668 -1.3683  0.3592  0.0556
 6104SOL    HW229949   1.384   3.149  14.807  0.1153 -0.9163  0.4855
 6105SOL     OW29950   3.523   1.601   1.426  0.6227  0.0139 -0.2805
 6105SOL    HW129951   3.503   1.547   1.502 -0.8884 -0.1373 -0.7865
 6105SOL    HW229952   3.618   1.595   1.426  0.5890 -0.7311  2.2200
 6106SOL     OW29953   3.879   0.157   5.508 -0.1017  0.2157 -0.5435
 6106SOL    HW129954   3.788   0.171   5.537  0.4926 -1.6939  2.2534
 6106SOL    HW229955   3.861   0.198   5.424  1.6303  0.1156 -0.9506
 6107SOL     OW29956   4.130   3.313  16.853  0.0670 -0.5318  0.1440
 6107SOL    HW129957   4.173   3.231  16.829  2.1568  0.9817 -1.2870
 6107SOL    HW229958   4.067   3.282  16.918 -1.5404  1.6751 -0.3311
 6108SOL     OW29959   1.299   0.820   3.184 -0.2656  0.8696 -0.2468
 6108SOL    HW129960   1.332   0.787   3.268 -0.0286 -0.5821 -0.9120
 6108SOL    HW229961   1.207   0.793   3.181 -0.1087  0.2548  0.4718
 6109SOL     OW29962   4.723   4.421   1.906  0.5052 -0.1321  0.0296
 6109SOL    HW129963   0.006   4.335   1.870 -0.6031  0.0618 -1.0722
 6109SOL    HW229964   4.628   4.419   1.905  0.4686  2.1136 -1.6502
 6110SOL     OW29965   1.162   4.377   9.084  0.2989 -0.0539 -0.3232
 6110SOL    HW129966   1.091   4.434   9.114 -0.5529 -1.1358 -0.2868
 6110SOL    HW229967   1.122   4.335   9.008 -1.2457 -0.8416  0.9342
 6111SOL     OW29968   0.481   2.751  16.450 -0.2624 -0.3713  0.8583
 6111SOL    HW129969   0.496   2.704  16.369  0.6138  0.2970  0.6317
 6111SOL    HW229970   0.391   2.723  16.466 -0.6674 -0.1061 -1.0318
 6112SOL     OW29971   0.413   3.711  13.194  0.4070  0.3568  0.1293
 6112SOL    HW129972   0.429   3.750  13.280  0.9515 -1.7861  1.0104
 6112SOL    HW229973   0.489   3.740  13.144  1.1195 -1.5836  0.0816
 6113SOL     OW29974   1.602   4.348   3.146 -0.0422  0.3091 -0.1031
 6113SOL    HW129975   1.640   4.386   3.067  2.2591  1.1418  1.3959
 6113SOL    HW229976   1.665   4.277   3.162 -0.0224  0.5304  0.8048
 6114SOL     OW29977   2.116   1.217   0.155  0.6981  0.3970 -0.0810
 6114SOL    HW129978   2.038   1.273   0.154 -0.2449 -0.9291 -1.6254
 6114SOL    HW229979   2.109   1.208   0.250  0.1709  2.4669  0.0810
 6115SOL     OW29980   3.043   3.051  15.027 -0.1819  0.4812  0.5848
 6115SOL    HW129981   2.966   3.080  14.978  0.6638  0.3138 -0.8564
 6115SOL    HW229982   3.005   3.002  15.100  4.7287 -1.0354  2.1375
 6116SOL     OW29983   0.430   3.619   7.035  0.3547 -0.2110 -0.0422
 6116SOL    HW129984   0.518   3.582   7.038  0.4006 -0.1169 -0.2237
 6116SOL    HW229985   0.445   3.712   7.019  0.7044 -0.6660 -2.3719
 6117SOL     OW29986   2.593   1.760  16.248 -0.3649 -0.3550 -0.6806
 6117SOL    HW129987   2.548   1.822  16.191 -0.9499  1.4651  1.8035
 6117SOL    HW229988   2.670   1.812  16.270 -0.1227 -1.2333  0.5558
 6118SOL     OW29989   3.940   3.794   5.383  0.2612  0.2267  0.8655
 6118SOL    HW129990   4.015   3.734   5.380 -1.5456 -1.8324 -2.5561
 6118SOL    HW229991   3.976   3.878   5.355 -1.5247  0.6846 -0.0297
 6119SOL     OW29992   4.195   1.661  11.798 -0.1222 -0.2330  0.2939
 6119SOL    HW129993   4.111   1.703  11.820 -0.2355 -0.4414  0.2648
 6119SOL    HW229994   4.235   1.723  11.738 -1.6069  0.5133  0.0733
 6120SOL     OW29995   0.551   0.329   1.864  0.2880 -0.2718  0.2264
 6120SOL    HW129996   0.541   0.341   1.959  1.7905 -0.6751  0.4444
 6120SOL    HW229997   0.563   0.419   1.834  0.0607 -0.9967 -2.0574
 6121SOL     OW29998   0.475   0.304   3.742  1.0747 -0.4999  0.0481
 6121SOL    HW129999   0.545   0.265   3.690  2.5303 -0.2689  1.8211
 6121SOL    HW230000   0.403   0.298   3.680  1.5197 -2.3071 -0.2903
 6122SOL     OW30001   4.415   4.424   1.315  0.6449  0.3834 -0.2028
 6122SOL    HW130002   4.421   4.390   1.404  1.8568  1.5066  0.1357
 6122SOL    HW230003   4.321   4.428   1.294  0.6220  0.1226 -0.1581
 6123SOL     OW30004   0.819   2.384  14.254 -0.1076 -0.2717  0.2903
 6123SOL    HW130005   0.821   2.354  14.163  0.2141  1.6385 -0.3330
 6123SOL    HW230006   0.887   2.329  14.292 -0.0482  0.6519  1.5204
 6124SOL     OW30007   2.356   2.046   8.223 -0.0954  0.8211  0.2529
 6124SOL    HW130008   2.353   2.142   8.227 -0.9103  0.8283 -0.6899
 6124SOL    HW230009   2.270   2.034   8.183  1.6636 -0.5894 -3.0817
 6125SOL     OW30010   1.224   3.092   3.058 -0.2178 -0.3484 -0.4453
 6125SOL    HW130011   1.148   3.069   3.005 -0.3425  0.3904 -0.5865
 6125SOL    HW230012   1.244   3.177   3.020  0.2602 -0.5150 -0.5673
 6126SOL     OW30013   2.032   4.661  12.746 -0.3165 -0.2512 -0.3272
 6126SOL    HW130014   2.012   4.580  12.793  0.8290  0.1173  0.7865
 6126SOL    HW230015   2.114   4.633  12.707 -0.1355 -1.6071  1.0219
 6127SOL     OW30016   4.480   1.809  14.614 -0.2948 -0.4457  0.5376
 6127SOL    HW130017   4.527   1.893  14.612  1.5024 -1.4503  0.2606
 6127SOL    HW230018   4.523   1.753  14.550 -0.3889 -0.1617  0.2294
 6128SOL     OW30019   1.873   1.012  15.467  0.3003  0.5293  0.4790
 6128SOL    HW130020   1.794   0.995  15.416  0.3678  0.1983  0.4814
 6128SOL    HW230021   1.901   1.095  15.428 -4.0510  0.9824 -1.6584
 6129SOL     OW30022   2.978   0.393   6.653  0.0814 -0.1231 -0.7931
 6129SOL    HW130023   2.985   0.360   6.742  0.6578  1.8070 -0.1163
 6129SOL    HW230024   3.038   0.467   6.650  1.7170 -1.3313  2.9920
 6130SOL     OW30025   4.116   4.285   3.930  0.7512  0.5803 -0.0101
 6130SOL    HW130026   4.128   4.353   3.996  2.1109 -1.5499  1.9482
 6130SOL    HW230027   4.133   4.337   3.852 -0.2858  0.2036 -0.4914
 6131SOL     OW30028   3.159   2.857   4.600  0.0717  0.4781  0.1671
 6131SOL    HW130029   3.239   2.834   4.647  0.0198 -0.2959 -0.1284
 6131SOL    HW230030   3.107   2.779   4.618  0.6912 -0.6028 -2.7528
 6132SOL     OW30031   1.963   3.884  13.051  0.2159 -0.2892 -0.0620
 6132SOL    HW130032   1.937   3.905  13.141 -0.0442 -1.5979  0.1661
 6132SOL    HW230033   2.052   3.850  13.054 -0.2901 -1.6038 -0.2810
 6133SOL     OW30034   4.473   2.272   2.541 -0.2427 -0.0249 -0.2883
 6133SOL    HW130035   4.401   2.266   2.479  0.8689  2.0072 -1.7670
 6133SOL    HW230036   4.425   2.239   2.617  0.7166  0.9687  0.7565
 6134SOL     OW30037   1.145   3.063   5.949  0.3818  0.5664 -0.5642
 6134SOL    HW130038   1.098   2.980   5.955  0.1809  0.7447  0.3055
 6134SOL    HW230039   1.183   3.051   6.036 -0.8574  0.1012 -0.0834
 6135SOL     OW30040   4.304   0.763   8.142 -0.7420 -0.0465  0.1155
 6135SOL    HW130041   4.269   0.850   8.162  0.0093  0.1229  0.6973
 6135SOL    HW230042   4.318   0.771   8.048  0.9000  1.9903  0.5227
 6136SOL     OW30043   2.071   4.654   5.328  0.2585 -0.2900 -0.1308
 6136SOL    HW130044   2.113   4.720   5.272 -0.2180  1.1340  1.2153
 6136SOL    HW230045   2.008   4.624   5.262  0.6489  0.5690 -0.8957
 6137SOL     OW30046   0.278   4.098  16.073 -0.1895  0.4629  0.1497
 6137SOL    HW130047   0.309   4.162  16.137  1.9672 -0.4584  0.0521
 6137SOL    HW230048   0.321   4.144  16.000 -1.1373  1.0550 -0.0354
 6138SOL     OW30049   2.345   3.180   5.984  0.4356  0.3791 -0.8772
 6138SOL    HW130050   2.394   3.118   5.932  1.8074 -0.6067  1.6014
 6138SOL    HW230051   2.405   3.252   6.003  2.5734 -1.6564  0.0162
 6139SOL     OW30052   3.113   3.809   2.704 -0.4694  0.0900 -0.2512
 6139SOL    HW130053   3.075   3.795   2.791  0.3620 -0.5006  0.0240
 6139SOL    HW230054   3.106   3.721   2.667 -3.1649 -0.2672  1.1393
 6140SOL     OW30055   3.990   3.184   5.358 -0.0909 -0.1676 -0.2039
 6140SOL    HW130056   4.079   3.193   5.325  0.5596 -0.2444  1.5090
 6140SOL    HW230057   3.989   3.232   5.441  0.4422  1.5515 -1.1979
 6141SOL     OW30058   0.817   1.547   6.535  0.3800  0.5420  0.3988
 6141SOL    HW130059   0.878   1.583   6.600 -0.2412  1.8495  0.2480
 6141SOL    HW230060   0.870   1.486   6.485 -1.9765 -0.3454 -0.9930
 6142SOL     OW30061   1.950   0.999   1.908 -0.1146  0.2808  0.3726
 6142SOL    HW130062   1.918   1.002   1.998  0.0138 -0.8602  0.4486
 6142SOL    HW230063   1.889   0.936   1.871 -0.9580  0.3582  1.6145
 6143SOL     OW30064   2.159   1.205   5.300  0.3246  0.0489 -0.3281
 6143SOL    HW130065   2.219   1.208   5.225  0.6231  1.1421 -0.0455
 6143SOL    HW230066   2.192   1.273   5.358 -2.2522 -0.6105  1.9023
 6144SOL     OW30067   0.003   0.199   0.277  0.3787 -0.5337  0.2423
 6144SOL    HW130068   0.063   0.269   0.250 -0.7151  0.2459 -0.1803
 6144SOL    HW230069   0.070   0.132   0.288  0.6625 -0.4692 -1.1243
 6145SOL     OW30070   2.972   3.944   8.224  0.4707  0.3191  0.1435
 6145SOL    HW130071   2.916   3.913   8.152 -1.9579 -0.5197  2.3775
 6145SOL    HW230072   2.964   3.878   8.293 -0.5492 -0.7401 -0.9811
 6146SOL     OW30073   4.529   1.289   0.142 -0.0650  0.3108  0.4962
 6146SOL    HW130074   4.530   1.357   0.209  0.0715 -0.5200  1.3437
 6146SOL    HW230075   4.565   1.214   0.190 -1.6635 -0.4900  0.4400
 6147SOL     OW30076   2.394   0.112  17.116  0.0754 -0.5673  0.3307
 6147SOL    HW130077   2.367   0.110  17.208 -0.7692 -0.1611  0.1012
 6147SOL    HW230078   2.488   0.109  17.133 -0.0770  0.2058  1.3982
 6148SOL     OW30079   1.039   0.471   2.748 -0.3649 -0.0343 -0.2056
 6148SOL    HW130080   1.013   0.563   2.752  0.8887  0.2532  1.4067
 6148SOL    HW230081   0.958   0.441   2.706  0.2783  0.2241 -1.6588
 6149SOL     OW30082   3.634   0.867   4.930  0.1623 -0.3736  0.0509
 6149SOL    HW130083   3.700   0.911   4.877  0.0043 -1.7731 -1.3300
 6149SOL    HW230084   3.666   0.885   5.019 -1.8887 -0.8967  0.8870
 6150SOL     OW30085   3.430   1.484   5.838 -0.6175 -0.5544 -0.6751
 6150SOL    HW130086   3.359   1.498   5.775 -0.0887 -3.4750 -1.9026
 6150SOL    HW230087   3.388   1.456   5.919 -0.4161 -1.3567 -0.8463
 6151SOL     OW30088   0.911   3.985   2.143 -0.1632  0.0861 -0.1103
 6151SOL    HW130089   0.999   3.949   2.153  0.4333  1.4426 -0.5206
 6151SOL    HW230090   0.932   4.064   2.092  0.1696  0.9280  1.3434
 6152SOL     OW30091   4.415   4.373  12.215  0.3313  0.1647 -0.0267
 6152SOL    HW130092   4.483   4.331  12.267 -0.3140  0.4338  1.0331
 6152SOL    HW230093   4.336   4.321  12.229  0.4909 -0.6771 -2.2168
 6153SOL     OW30094   2.631   2.383  13.167 -0.5162 -0.2541 -0.1101
 6153SOL    HW130095   2.717   2.356  13.133  0.2749  1.6023  0.4347
 6153SOL    HW230096   2.626   2.333  13.249  3.1469 -1.3866 -0.5489
 6154SOL     OW30097   3.054   1.494   7.761 -0.0832  0.0153 -0.6039
 6154SOL    HW130098   3.058   1.401   7.782  1.7727  0.3203  0.3520
 6154SOL    HW230099   3.109   1.502   7.683 -0.5731 -2.3037 -1.1697
 6155SOL     OW30100   1.060   2.032  17.541  0.6763  0.4916  0.3082
 6155SOL    HW130101   1.053   1.939  17.518 -1.6310  0.6485  0.4422
 6155SOL    HW230102   0.988   2.043  17.602 -0.5936  1.4621 -1.3688
 6156SOL     OW30103   1.456   0.857   1.480 -0.1361  0.5406 -0.0915
 6156SOL    HW130104   1.457   0.918   1.406 -3.8468  3.6594  2.4420
 6156SOL    HW230105   1.414   0.917   1.542 -0.9513  0.5386 -0.6518
 6157SOL     OW30106   1.742   2.644   0.340 -0.6378 -0.0489 -0.6538
 6157SOL    HW130107   1.708   2.731   0.363  1.6478  0.4001  1.0290
 6157SOL    HW230108   1.756   2.654   0.246  0.8799 -1.7397 -0.5970
 6158SOL     OW30109   0.549   2.652   8.318  0.0457 -0.2802  0.4479
 6158SOL    HW130110   0.616   2.713   8.287  1.3332 -2.0567 -0.2218
 6158SOL    HW230111   0.591   2.631   8.401  0.1172  0.5147  0.6107
 6159SOL     OW30112   4.717   0.622   2.572  0.1249  0.9017 -0.1516
 6159SOL    HW130113   4.631   0.611   2.612 -0.0580  0.6397 -0.6143
 6159SOL    HW230114   0.002   0.710   2.601  1.2756  0.5395  0.0048
 6160SOL     OW30115   4.014   2.047   6.226  0.2878  0.0170 -0.3293
 6160SOL    HW130116   4.052   1.960   6.230 -0.2800 -0.2221 -0.1660
 6160SOL    HW230117   4.046   2.084   6.144  2.4316  1.1367  1.0100
 6161SOL     OW30118   1.839   2.840   6.216 -0.6006 -0.0401  0.6209
 6161SOL    HW130119   1.831   2.748   6.192  1.7416  0.3383 -1.6145
 6161SOL    HW230120   1.925   2.861   6.254 -1.2549  0.8272  1.6064
 6162SOL     OW30121   3.312   4.183  11.357 -0.1375  0.3104 -0.2570
 6162SOL    HW130122   3.262   4.148  11.431  1.9298 -1.4145  0.3329
 6162SOL    HW230123   3.281   4.135  11.280 -2.0261 -0.7850  1.1863
 6163SOL     OW30124   0.734   1.523   4.659  0.0543 -0.0774 -0.0589
 6163SOL    HW130125   0.788   1.533   4.581 -1.7655 -0.9564 -1.4059
 6163SOL    HW230126   0.645   1.529   4.624 -0.1111 -1.4292  0.1181
 6164SOL     OW30127   0.339   4.143   4.448  0.3528  0.4608 -0.1727
 6164SOL    HW130128   0.273   4.082   4.480  1.1748  0.1360  0.8977
 6164SOL    HW230129   0.417   4.101   4.485  0.5333 -0.4358 -1.5572
 6165SOL     OW30130   1.341   4.063  14.710  0.3012 -0.6363 -0.0238
 6165SOL    HW130131   1.279   4.034  14.643 -0.2307  0.4447  0.0088
 6165SOL    HW230132   1.414   4.104  14.665 -0.4341  0.4705 -0.2005
 6166SOL     OW30133   0.734   1.665   1.496 -0.4403 -0.5086 -0.1685
 6166SOL    HW130134   0.824   1.686   1.473 -1.0548 -0.0675 -2.1223
 6166SOL    HW230135   0.690   1.741   1.458  0.9200  0.3128 -0.1030
 6167SOL     OW30136   3.858   2.061   1.327  0.4027  0.5065  0.1820
 6167SOL    HW130137   3.780   2.115   1.330  0.1418  0.1090  0.5528
 6167SOL    HW230138   3.825   1.974   1.349 -0.9975  0.7862 -0.8127
 6168SOL     OW30139   3.584   2.069   7.028 -1.1159 -0.0178 -0.1252
 6168SOL    HW130140   3.636   2.119   7.092 -1.3751 -0.8725  0.7426
 6168SOL    HW230141   3.629   1.984   7.030  0.4045  0.7610 -0.7214
 6169SOL     OW30142   4.686   0.174   3.783 -0.1507  0.0183 -0.5358
 6169SOL    HW130143   4.708   0.117   3.710  3.3267  1.6298 -0.7346
 6169SOL    HW230144   0.022   0.160   3.842 -2.0892 -0.8324  1.6945
 6170SOL     OW30145   3.395   2.078   0.432  0.0301 -0.0858 -0.2694
 6170SOL    HW130146   3.362   2.159   0.470 -2.5845 -0.9597 -0.6815
 6170SOL    HW230147   3.408   2.034   0.516 -2.6221  0.8168  0.6156
 6171SOL     OW30148   2.757   3.671   8.911  0.1316 -0.3842  0.5735
 6171SOL    HW130149   2.768   3.692   9.003 -0.6470  2.1126  0.0862
 6171SOL    HW230150   2.707   3.745   8.877  0.1837 -1.1387 -1.1920
 6172SOL     OW30151   1.324   1.188  15.860  0.3217 -0.4461 -0.0602
 6172SOL    HW130152   1.348   1.238  15.938 -0.8858  2.8841 -1.8095
 6172SOL    HW230153   1.314   1.254  15.791  2.0494  0.5184  0.6118
 6173SOL     OW30154   4.418   1.658   6.874 -0.1525  1.0002  0.2233
 6173SOL    HW130155   4.479   1.604   6.823 -1.0001  0.6295 -0.4113
 6173SOL    HW230156   4.475   1.686   6.945 -3.1947  1.5783  2.4429
 6174SOL     OW30157   3.194   2.039   2.921  0.0717 -0.4478  0.4850
 6174SOL    HW130158   3.287   2.020   2.936  0.4576  0.9746 -0.1158
 6174SOL    HW230159   3.208   2.115   2.864 -0.3905 -0.1050  0.8243
 6175SOL     OW30160   2.762   3.239   3.611 -0.3229 -0.5431 -0.1415
 6175SOL    HW130161   2.807   3.160   3.640  0.5953 -0.2923 -0.8868
 6175SOL    HW230162   2.836   3.287   3.574 -0.6922  0.9399  1.0412
 6176SOL     OW30163   2.128   1.444   2.577 -0.1104  0.3005 -0.4332
 6176SOL    HW130164   2.160   1.355   2.559 -0.2075 -0.4018  2.8009
 6176SOL    HW230165   2.192   1.467   2.644 -2.2624  0.5313  1.5770
 6177SOL     OW30166   0.538   0.316   3.015  0.6849  0.5005  0.3237
 6177SOL    HW130167   0.610   0.276   3.063 -0.1597 -0.4016  0.8402
 6177SOL    HW230168   0.578   0.398   2.987  1.5533 -0.1963 -0.4886
 6178SOL     OW30169   1.235   3.622   3.205 -0.0862 -0.2817  0.1479
 6178SOL    HW130170   1.269   3.690   3.146  1.1699 -1.3195 -0.3204
 6178SOL    HW230171   1.277   3.656   3.284  0.9718 -1.8761  0.2608
 6179SOL     OW30172   1.255   2.910   6.686  0.1737 -0.4843 -0.3475
 6179SOL    HW130173   1.166   2.932   6.657 -0.3316 -2.0214  0.0369
 6179SOL    HW230174   1.229   2.855   6.759 -2.4089 -1.4534 -1.9783
 6180SOL     OW30175   0.390   2.723   5.068  0.4345  0.1661 -1.0700
 6180SOL    HW130176   0.461   2.777   5.104  0.6167  0.8020 -2.4176
 6180SOL    HW230177   0.350   2.790   5.014  0.1634  1.8736  1.2253
 6181SOL     OW30178   0.679   0.034  17.083  0.2213  0.0053 -0.2114
 6181SOL    HW130179   0.587   0.018  17.107  1.0893 -2.3900  1.5982
 6181SOL    HW230180   0.658   0.061  16.994 -0.6514  1.6184  0.4696
 6182SOL     OW30181   0.138   2.252   2.569 -0.1807  0.2284 -0.3591
 6182SOL    HW130182   0.225   2.237   2.532 -0.4503 -1.3198 -0.3638
 6182SOL    HW230183   0.101   2.165   2.554  0.3363  0.1330 -1.0594
 6183SOL     OW30184   2.063   3.982   8.440 -0.3515 -0.3195 -0.6543
 6183SOL    HW130185   1.984   3.931   8.423  0.3414 -1.4238 -0.5532
 6183SOL    HW230186   2.087   3.968   8.532 -0.2375 -1.8820 -0.9235
 6184SOL     OW30187   0.883   3.019  16.993 -0.5680  0.0735 -0.1571
 6184SOL    HW130188   0.800   3.059  16.971 -0.4598  1.0207  1.1355
 6184SOL    HW230189   0.850   2.943  17.041 -0.5461  0.4510  0.4638
 6185SOL     OW30190   3.553   1.080  16.096  0.0755  0.0576 -0.5534
 6185SOL    HW130191   3.508   1.002  16.063 -3.4718  2.6499 -1.9103
 6185SOL    HW230192   3.643   1.056  16.075  0.1189 -0.5027  0.2786
 6186SOL     OW30193   3.218   2.272   7.763 -0.1558 -0.0214 -0.4147
 6186SOL    HW130194   3.240   2.191   7.810 -1.6705  0.1727  0.6071
 6186SOL    HW230195   3.272   2.265   7.684  0.8886  1.2812  0.1841
 6187SOL     OW30196   2.484   1.200   2.869 -0.2584  0.0794 -0.1009
 6187SOL    HW130197   2.406   1.147   2.882  0.9054 -2.0941 -1.9930
 6187SOL    HW230198   2.500   1.189   2.775 -1.8840  1.2046 -0.5161
 6188SOL     OW30199   2.217   3.308   5.770 -0.0597  0.2548 -0.2055
 6188SOL    HW130200   2.267   3.269   5.842 -0.7202 -0.8790 -0.3702
 6188SOL    HW230201   2.176   3.232   5.730  1.3304 -0.8313  0.4184
 6189SOL     OW30202   2.112   2.646  16.588 -0.1672 -0.4359  0.0424
 6189SOL    HW130203   2.145   2.689  16.510 -0.0668  0.0867  0.3700
 6189SOL    HW230204   2.179   2.670  16.652 -0.4520  0.6576 -0.0729
 6190SOL     OW30205   1.303   4.189  15.624  0.3457  0.3263 -0.0191
 6190SOL    HW130206   1.292   4.096  15.604  0.1059  0.0315  1.4574
 6190SOL    HW230207   1.343   4.224  15.544  1.1114  0.2835  0.3449
 6191SOL     OW30208   1.374   4.078   3.468  0.7628  0.4248 -0.4792
 6191SOL    HW130209   1.317   4.151   3.443  0.5146  0.3156 -0.2420
 6191SOL    HW230210   1.305   4.014   3.486  1.4447 -0.6757 -1.7276
 6192SOL     OW30211   1.440   3.836   4.991 -0.5030  0.6150 -0.2584
 6192SOL    HW130212   1.417   3.928   4.977 -0.5242  0.5655 -0.5550
 6192SOL    HW230213   1.405   3.793   4.913  0.0207 -0.2306 -0.0239
 6193SOL     OW30214   1.181   4.599   3.441 -0.2238  0.0072 -0.5147
 6193SOL    HW130215   1.260   4.595   3.386  0.0057  0.5101 -0.2214
 6193SOL    HW230216   1.203   4.563   3.526  1.3227 -1.9374 -1.7280
 6194SOL     OW30217   0.086   3.852  15.524  0.4765 -0.0198 -0.1938
 6194SOL    HW130218   0.082   3.775  15.467  3.6161 -1.5697  1.7282
 6194SOL    HW230219   0.082   3.927  15.464  0.3440  0.0864 -0.0514
 6195SOL     OW30220   1.341   0.836   8.497  0.0296  0.4525  0.2525
 6195SOL    HW130221   1.395   0.800   8.568  0.2264 -1.4410 -0.8530
 6195SOL    HW230222   1.256   0.837   8.539 -0.8787  2.0179 -1.6070
 6196SOL     OW30223   0.604   0.315   6.227 -0.2727 -0.3100  0.1450
 6196SOL    HW130224   0.629   0.306   6.319  0.4408 -1.5415 -0.1602
 6196SOL    HW230225   0.513   0.342   6.232 -0.7331 -2.3458  2.5494
 6197SOL     OW30226   4.720   1.896  16.087 -0.9044 -0.8448  0.5658
 6197SOL    HW130227   0.035   1.912  16.009  0.8160 -1.6025  1.5710
 6197SOL    HW230228   4.637   1.866  16.050 -0.9765  2.3952 -1.9124
 6198SOL     OW30229   0.401   3.319   3.274 -0.0405  0.0663  0.1858
 6198SOL    HW130230   0.414   3.409   3.304  2.5385  0.3707 -1.7282
 6198SOL    HW230231   0.473   3.273   3.318  0.2800  0.6760  0.3066
 6199SOL     OW30232   2.894   1.956   7.675  0.5763  0.5845 -0.2513
 6199SOL    HW130233   2.941   1.879   7.642 -2.1554 -1.9758  1.7899
 6199SOL    HW230234   2.840   1.914   7.743  0.2927  0.2014 -0.7109
 6200SOL     OW30235   0.286   1.933  11.833 -0.8454 -0.2320  0.7856
 6200SOL    HW130236   0.265   2.026  11.829  1.9649  0.2993 -1.3703
 6200SOL    HW230237   0.213   1.907  11.776 -1.2238 -1.4067  1.7891
 6201SOL     OW30238   2.012   0.900   7.499 -0.6645 -0.4719  0.0398
 6201SOL    HW130239   1.971   0.816   7.516  1.0474 -1.4302 -0.5846
 6201SOL    HW230240   1.967   0.948   7.569 -0.6338 -0.7779  0.2704
 6202SOL     OW30241   0.706   3.638  16.177  0.2320 -0.1081  0.4051
 6202SOL    HW130242   0.626   3.590  16.195 -0.7617  0.7540 -1.6938
 6202SOL    HW230243   0.706   3.712  16.237 -0.0750  1.5918 -1.6887
 6203SOL     OW30244   2.756   2.496   4.562 -0.0740  0.0520  0.1779
 6203SOL    HW130245   2.850   2.504   4.576  0.2213  0.7234 -2.2322
 6203SOL    HW230246   2.752   2.401   4.565 -0.0259  0.0143 -1.3065
 6204SOL     OW30247   4.292   4.084   9.338 -0.5288 -0.5330 -0.2505
 6204SOL    HW130248   4.352   4.084   9.264 -0.9986 -1.2120 -0.6351
 6204SOL    HW230249   4.218   4.028   9.316 -0.9302  0.0968 -0.5141
 6205SOL     OW30250   1.187   2.268   2.415 -0.4690 -0.2614  0.5176
 6205SOL    HW130251   1.140   2.186   2.430 -1.7101  0.1215 -1.3085
 6205SOL    HW230252   1.222   2.257   2.327  0.9292  1.0698  0.9086
 6206SOL     OW30253   4.486   3.808   8.862 -0.0999 -0.1063 -0.4967
 6206SOL    HW130254   4.581   3.793   8.861 -0.0114  0.5001 -0.7764
 6206SOL    HW230255   4.458   3.716   8.860 -0.3455 -0.0476  0.1186
 6207SOL     OW30256   0.050   2.275   0.009 -0.3196  0.5171 -1.2418
 6207SOL    HW130257   0.049   2.282   0.104 -5.1299  0.2758 -1.2831
 6207SOL    HW230258   0.133   2.229  17.746 -0.2515 -0.1504  1.4052
 6208SOL     OW30259   0.215   0.382   2.570 -0.4235  0.2220  0.0466
 6208SOL    HW130260   0.269   0.317   2.524  1.2028  1.0343  0.7918
 6208SOL    HW230261   0.130   0.350   2.541  0.5597 -1.0725 -1.4492
 6209SOL     OW30262   2.044   1.466  17.029 -0.9795 -0.0026  0.0554
 6209SOL    HW130263   1.974   1.530  17.022  1.0240  2.2556  0.7430
 6209SOL    HW230264   2.107   1.499  16.965 -0.9587 -1.5902 -0.7356
 6210SOL     OW30265   2.480   1.841   4.717  0.1091 -0.2967  0.3995
 6210SOL    HW130266   2.513   1.768   4.769  0.8732 -0.0756  0.2313
 6210SOL    HW230267   2.402   1.877   4.759 -0.9871 -1.0345 -1.0005
 6211SOL     OW30268   0.804   1.868   6.647 -0.3176  0.1834 -0.3065
 6211SOL    HW130269   0.716   1.833   6.656 -0.8609  1.5855 -0.1957
 6211SOL    HW230270   0.837   1.815   6.574  0.1910  1.4182 -0.9654
 6212SOL     OW30271   2.421   0.636   3.075  0.3164  0.5369  0.3444
 6212SOL    HW130272   2.508   0.669   3.055  1.5768 -1.5128  2.4385
 6212SOL    HW230273   2.444   0.547   3.048  0.8589  1.4482 -2.2327
 6213SOL     OW30274   0.182   3.028   4.006 -0.1456 -0.0834 -0.1282
 6213SOL    HW130275   0.116   3.009   3.940  0.0043  0.0425 -0.3152
 6213SOL    HW230276   0.126   3.011   4.082  0.4764 -0.6582  0.2071
 6214SOL     OW30277   0.002   3.453   4.023  0.4906  0.1487 -0.2535
 6214SOL    HW130278   0.082   3.426   3.978 -0.1356 -2.1219 -0.0511
 6214SOL    HW230279   4.688   3.375   4.003  1.6395 -0.6327 -0.2523
 6215SOL     OW30280   1.523   2.197   4.313 -0.2057  0.0596 -0.0480
 6215SOL    HW130281   1.489   2.252   4.242  0.1246  0.0596 -0.2038
 6215SOL    HW230282   1.612   2.228   4.296 -1.5990  5.1591  2.0486
 6216SOL     OW30283   2.596   1.907   6.960 -0.3525 -0.0253  0.2468
 6216SOL    HW130284   2.597   1.969   6.887  0.4164  0.2751  0.5118
 6216SOL    HW230285   2.554   1.837   6.910  1.6654 -0.3947 -0.9655
 6217SOL     OW30286   0.377   0.910   2.593  0.1985  0.2464  0.3193
 6217SOL    HW130287   0.385   0.817   2.616  0.0156 -0.5264 -2.7094
 6217SOL    HW230288   0.368   0.889   2.500  0.3946 -1.6000  0.7103
 6218SOL     OW30289   4.159   1.729   2.839  0.3938  0.4616  0.1710
 6218SOL    HW130290   4.133   1.692   2.755  1.1092  0.1333  0.0913
 6218SOL    HW230291   4.154   1.647   2.887  3.2677 -0.9259 -1.8883
 6219SOL     OW30292   3.827   2.764   4.871 -0.1489 -0.3120 -0.9156
 6219SOL    HW130293   3.899   2.779   4.811 -0.0078  0.3887 -0.5710
 6219SOL    HW230294   3.829   2.669   4.858  1.1164  0.1057 -3.5821
 6220SOL     OW30295   1.471   1.558   1.268  0.2085 -0.2157 -0.3352
 6220SOL    HW130296   1.408   1.491   1.293  2.4390 -2.0402  0.3049
 6220SOL    HW230297   1.415   1.636   1.275  2.6367  1.7408 -2.4620
 6221SOL     OW30298   1.878   2.429   2.757 -0.3390 -0.2898 -0.3541
 6221SOL    HW130299   1.882   2.354   2.697 -1.1012 -0.9741  0.4490
 6221SOL    HW230300   1.788   2.431   2.792 -0.0502  2.3014  0.1944
 6222SOL     OW30301   3.761   3.042   8.137 -0.2719  0.2650 -0.4167
 6222SOL    HW130302   3.692   3.014   8.198  1.6567 -2.7786  0.3820
 6222SOL    HW230303   3.812   3.105   8.188  0.9111 -1.1728  0.1704
 6223SOL     OW30304   3.717   3.386   1.109  0.2832  0.5515 -0.8472
 6223SOL    HW130305   3.733   3.295   1.083 -0.7307 -0.1926  1.0813
 6223SOL    HW230306   3.640   3.379   1.166 -0.1734 -1.2429 -1.6745
 6224SOL     OW30307   2.586   4.013  11.680 -0.3572  0.5788 -0.2182
 6224SOL    HW130308   2.541   3.929  11.690  2.0572 -0.8187 -1.1949
 6224SOL    HW230309   2.622   4.002  11.592  1.2450  1.3621  0.3514
 6225SOL     OW30310   2.544   2.094   6.581  0.1198  0.4522  0.1125
 6225SOL    HW130311   2.611   2.140   6.530  0.9824  0.8183  1.5631
 6225SOL    HW230312   2.588   2.095   6.666 -0.0768 -2.2372  0.2436
 6226SOL     OW30313   4.510   3.701   8.476 -1.0750  0.6523 -0.1850
 6226SOL    HW130314   4.503   3.608   8.451 -1.1843  0.3674  0.9056
 6226SOL    HW230315   4.604   3.720   8.476 -1.0700  0.6264  0.0627
 6227SOL     OW30316   2.272   3.880   8.587  0.3403  0.7338 -0.1097
 6227SOL    HW130317   2.254   3.786   8.583 -1.2945  1.0430  0.0935
 6227SOL    HW230318   2.270   3.893   8.682  1.9266  1.4487 -0.1612
 6228SOL     OW30319   2.070   0.681   1.850  0.4205 -0.4793 -0.3702
 6228SOL    HW130320   2.076   0.731   1.769 -0.4748 -0.7119 -0.5734
 6228SOL    HW230321   2.081   0.591   1.822  0.3928 -0.4622 -0.4365
 6229SOL     OW30322   3.740   3.820   5.624  0.4255 -0.1838 -0.8707
 6229SOL    HW130323   3.794   3.858   5.692  0.1756 -1.6627  0.1640
 6229SOL    HW230324   3.727   3.892   5.562 -0.1260 -1.2268 -1.9775
 6230SOL     OW30325   1.978   2.566   8.202  0.1622  0.2156 -0.2099
 6230SOL    HW130326   2.028   2.567   8.284 -0.0387 -1.8105 -0.0519
 6230SOL    HW230327   1.921   2.640   8.220 -1.1830 -0.0871 -3.2812
 6231SOL     OW30328   1.454   2.333   3.907  0.0961 -0.0441  0.0412
 6231SOL    HW130329   1.439   2.238   3.912 -0.0178 -0.2326 -3.4366
 6231SOL    HW230330   1.546   2.338   3.935  0.1776  2.3990 -0.6759
 6232SOL     OW30331   1.656   3.475   2.282 -0.0828  0.4296  0.2394
 6232SOL    HW130332   1.680   3.507   2.195 -0.5742 -2.0479 -0.8195
 6232SOL    HW230333   1.677   3.383   2.272  1.1170  0.5107  2.0246
 6233SOL     OW30334   1.486   0.122   6.160  0.4501  0.2054 -0.0450
 6233SOL    HW130335   1.447   0.098   6.244  2.2243 -1.6996  0.2422
 6233SOL    HW230336   1.569   0.155   6.195  1.5834 -0.9301 -1.6008
 6234SOL     OW30337   3.767   2.709   0.988  0.0947 -0.2164  0.2906
 6234SOL    HW130338   3.843   2.658   1.016  0.8015  0.8314  0.3126
 6234SOL    HW230339   3.776   2.716   0.893  1.3459 -1.9165  0.2739
 6235SOL     OW30340   3.764   0.043   7.348  0.2934  0.3041  0.0471
 6235SOL    HW130341   3.792   0.130   7.375  0.1087  0.3284  0.1594
 6235SOL    HW230342   3.856   0.015   7.347  0.5743  1.1619  1.2642
 6236SOL     OW30343   3.401   3.552   5.573  0.0415  0.2614  0.3694
 6236SOL    HW130344   3.410   3.491   5.500  1.2760  1.0051 -0.0984
 6236SOL    HW230345   3.305   3.550   5.577 -0.0705  1.9224 -1.1708
 6237SOL     OW30346   0.745   0.377   0.782  0.4547  0.0092  0.0808
 6237SOL    HW130347   0.695   0.296   0.791  0.6086  0.1814  2.4711
 6237SOL    HW230348   0.683   0.431   0.831  1.6767 -0.0157  1.6397
 6238SOL     OW30349   0.501   0.496  16.359 -0.0325  0.4717 -0.1044
 6238SOL    HW130350   0.432   0.491  16.425 -0.5093 -0.7515 -0.7039
 6238SOL    HW230351   0.540   0.580  16.386  0.8149  0.7033 -2.0457
 6239SOL     OW30352   1.547   0.969   4.025  0.4844 -0.0741 -0.4988
 6239SOL    HW130353   1.550   0.873   4.028 -1.4915 -0.1967 -2.6636
 6239SOL    HW230354   1.491   0.976   4.102 -1.2278  0.4755 -1.7889
 6240SOL     OW30355   3.191   0.242  13.427  0.1529 -0.1604 -0.5327
 6240SOL    HW130356   3.210   0.211  13.515 -0.9518 -1.6285 -0.8129
 6240SOL    HW230357   3.096   0.249  13.430  0.1270 -1.4998  1.9065
 6241SOL     OW30358   1.781   1.655   6.712  0.7797 -0.2103 -0.4431
 6241SOL    HW130359   1.836   1.679   6.638 -0.0152  2.2859 -0.2026
 6241SOL    HW230360   1.699   1.698   6.688  0.8863  0.7409  0.8834
 6242SOL     OW30361   2.552   0.276   9.554  0.1094  0.1992 -0.3979
 6242SOL    HW130362   2.616   0.285   9.625  0.6834  0.8789 -1.0154
 6242SOL    HW230363   2.485   0.331   9.595  1.2508  0.4109  1.2164
 6243SOL     OW30364   2.467   1.570   3.149 -0.0043  0.1000  0.4466
 6243SOL    HW130365   2.493   1.519   3.225 -2.0453  0.8102  1.6207
 6243SOL    HW230366   2.391   1.521   3.118 -0.3061 -0.1263  1.5466
 6244SOL     OW30367   4.587   4.094   5.362  0.2215  0.4286  0.1019
 6244SOL    HW130368   4.622   4.022   5.309 -0.6165  0.3963 -0.4052
 6244SOL    HW230369   4.627   4.084   5.449  0.6445 -0.8835 -0.2358
 6245SOL     OW30370   2.010   3.035   7.840  0.3540  0.5906  0.2772
 6245SOL    HW130371   2.090   3.083   7.862 -0.6821  2.1207  0.6156
 6245SOL    HW230372   2.039   2.988   7.761 -2.3016  0.0215 -0.3637
 6246SOL     OW30373   1.272   3.043  11.902  0.2601  0.0844  0.6236
 6246SOL    HW130374   1.285   3.121  11.955  0.5020  0.4434  0.0404
 6246SOL    HW230375   1.265   3.086  11.817 -2.2976  0.4218  1.0293
 6247SOL     OW30376   4.243   0.957   4.059 -0.4712  0.5994  0.2070
 6247SOL    HW130377   4.272   0.985   4.146  2.4345  2.5830 -1.3832
 6247SOL    HW230378   4.275   0.867   4.053  0.7573  0.8779  2.5454
 6248SOL     OW30379   2.263   4.153  14.494  0.6034  1.1902 -0.3585
 6248SOL    HW130380   2.223   4.067  14.476  1.0694  0.6714  1.1198
 6248SOL    HW230381   2.269   4.176  14.401  1.8771 -1.4177 -0.9379
 6249SOL     OW30382   4.009   3.463   8.182  0.2297 -0.0379  0.6667
 6249SOL    HW130383   3.956   3.530   8.225  1.1365  1.2379 -0.2115
 6249SOL    HW230384   4.065   3.519   8.128 -0.0197  3.2996  3.8728
 6250SOL     OW30385   3.475   0.446   4.039 -0.0626 -0.0141  0.5351
 6250SOL    HW130386   3.389   0.436   4.080 -0.3262  1.3444  0.3179
 6250SOL    HW230387   3.443   0.450   3.949  0.7997 -3.2111  0.0856
 6251SOL     OW30388   3.480   0.652  10.120 -0.4431 -0.0054 -0.4865
 6251SOL    HW130389   3.539   0.718  10.084 -0.6731  0.9242  0.8377
 6251SOL    HW230390   3.396   0.677  10.082  1.0812  2.1236 -2.4843
 6252SOL     OW30391   4.325   2.376   5.902 -0.0085 -0.1601 -0.1137
 6252SOL    HW130392   4.392   2.442   5.882 -0.8443  0.4623 -0.8757
 6252SOL    HW230393   4.253   2.439   5.902 -0.9061 -1.2191  2.2600
 6253SOL     OW30394   0.426   2.858   5.604 -0.5271  0.0039 -0.4218
 6253SOL    HW130395   0.402   2.836   5.514 -1.6768 -0.7691  0.0658
 6253SOL    HW230396   0.454   2.949   5.592 -3.7450  1.2420  1.3191
 6254SOL     OW30397   0.424   0.838  12.433  0.0241  0.1039  0.3457
 6254SOL    HW130398   0.387   0.752  12.413  1.7890 -1.0306  1.9565
 6254SOL    HW230399   0.509   0.855  12.392  0.5486 -0.6389  1.1309
 6255SOL     OW30400   0.692   3.337  11.535  0.0752 -0.4028 -0.1196
 6255SOL    HW130401   0.632   3.345  11.461  0.3711  0.3000 -0.2797
 6255SOL    HW230402   0.650   3.268  11.586  2.3344  0.5036  2.9272
 6256SOL     OW30403   2.855   4.278   8.006 -0.3314  0.1535  0.3096
 6256SOL    HW130404   2.877   4.253   7.916 -0.2179  0.7120  0.1836
 6256SOL    HW230405   2.880   4.370   8.012  1.0293 -0.1300 -0.8306
 6257SOL     OW30406   1.367   2.376  17.374 -0.4688 -0.2986  0.4756
 6257SOL    HW130407   1.318   2.428  17.310 -1.4255 -1.5355  0.2066
 6257SOL    HW230408   1.299   2.314  17.399 -0.5268 -0.1554  0.6658
 6258SOL     OW30409   4.645   0.075  12.367 -0.3059  0.4137  0.0253
 6258SOL    HW130410   4.720   0.094  12.311 -1.2843  1.9009 -0.7938
 6258SOL    HW230411   4.571   0.097  12.310  1.3096  1.3444 -1.7121
 6259SOL     OW30412   1.626   4.656   1.717 -0.1951  0.0168 -0.0058
 6259SOL    HW130413   1.580   4.734   1.685  0.1974 -0.7131 -2.3704
 6259SOL    HW230414   1.661   4.628   1.632 -0.1832 -0.7760  0.2621
 6260SOL     OW30415   1.124   0.841   2.746  0.0993  0.4550  0.6510
 6260SOL    HW130416   1.109   0.902   2.818  0.9078  0.3667  0.8882
 6260SOL    HW230417   1.205   0.796   2.764  1.7710  2.6623 -1.2949
 6261SOL     OW30418   4.577   4.500   7.580 -0.0102 -0.0845 -0.2951
 6261SOL    HW130419   4.498   4.513   7.633  0.2481 -0.5490  0.1922
 6261SOL    HW230420   4.551   4.445   7.506  0.6255 -0.0431 -0.5534
 6262SOL     OW30421   2.273   3.520   8.025  0.0081 -0.1677  0.0697
 6262SOL    HW130422   2.363   3.523   7.991 -0.9681  0.5481 -2.4873
 6262SOL    HW230423   2.274   3.444   8.083  0.0050 -0.7670 -0.7209
 6263SOL     OW30424   0.762   4.307   3.627 -0.6210  0.5958  0.5193
 6263SOL    HW130425   0.761   4.371   3.699  1.7767 -0.1801  1.2423
 6263SOL    HW230426   0.769   4.231   3.685 -0.7181  0.2599  0.0879
 6264SOL     OW30427   0.866   2.120   8.212 -0.0085 -0.1243  0.4515
 6264SOL    HW130428   0.929   2.109   8.283  0.0714 -1.3688  0.1802
 6264SOL    HW230429   0.868   2.034   8.172 -1.8289  0.0331  0.0381
 6265SOL     OW30430   1.381   3.811   3.087 -0.2671  0.1285 -0.0682
 6265SOL    HW130431   1.427   3.768   3.015  0.8966 -0.8614  1.2763
 6265SOL    HW230432   1.439   3.883   3.110  0.1890 -0.0322 -0.7128
 6266SOL     OW30433   0.675   4.498   4.654 -0.2564 -0.0780  0.4011
 6266SOL    HW130434   0.734   4.494   4.729  0.0185  2.6515  0.3190
 6266SOL    HW230435   0.739   4.478   4.586 -0.4604 -1.1087  0.5182
 6267SOL     OW30436   2.118   3.894  17.604 -0.0758  0.6051 -0.3260
 6267SOL    HW130437   2.152   3.833  17.539  0.7904  0.3007  0.4277
 6267SOL    HW230438   2.036   3.855  17.633 -0.5049  1.7191 -0.0195
 6268SOL     OW30439   2.699   1.360   3.500  0.0328 -0.2230 -0.3890
 6268SOL    HW130440   2.605   1.367   3.518  0.3461  1.6225  0.6290
 6268SOL    HW230441   2.720   1.273   3.533 -1.0769 -1.1313 -2.1122
 6269SOL     OW30442   4.619   1.650   3.022  0.3456  0.2399 -0.4846
 6269SOL    HW130443   4.712   1.672   3.019  0.8205 -1.3257  3.2697
 6269SOL    HW230444   4.584   1.686   2.940 -1.8262  1.5163  0.9827
 6270SOL     OW30445   2.017   4.011   7.991  0.1737 -0.4443  0.2007
 6270SOL    HW130446   1.947   3.954   8.022 -0.9100  0.3370 -0.8271
 6270SOL    HW230447   2.037   4.039   8.080  1.7459  1.9721 -0.9056
 6271SOL     OW30448   1.061   3.359   2.267  0.4296  0.3723  0.0707
 6271SOL    HW130449   1.152   3.330   2.269  1.0134  2.2941  1.2289
 6271SOL    HW230450   1.073   3.404   2.183 -0.0780  1.6436  0.6745
 6272SOL     OW30451   2.835   3.402   8.572  0.1756 -0.0706  0.4421
 6272SOL    HW130452   2.812   3.421   8.663 -0.6845  1.4068 -0.0758
 6272SOL    HW230453   2.799   3.473   8.518 -0.2580  0.4235  1.3686
 6273SOL     OW30454   2.613   4.515  12.028 -0.0975  0.2830 -0.3493
 6273SOL    HW130455   2.530   4.504  11.981  1.1081 -0.7168 -2.2901
 6273SOL    HW230456   2.607   4.599  12.072  0.1939  0.3585 -0.4457
 6274SOL     OW30457   2.894   0.010   3.840 -0.0515  0.1552 -0.4202
 6274SOL    HW130458   2.910   4.662   3.878 -3.8503 -0.4698 -0.2420
 6274SOL    HW230459   2.831   4.731   3.770 -2.0616  2.8834  0.6907
 6275SOL     OW30460   2.644   3.150  16.879  0.2055  0.1031 -0.2420
 6275SOL    HW130461   2.553   3.172  16.898  0.4627  1.7393 -0.9054
 6275SOL    HW230462   2.646   3.183  16.789  2.6561  0.6892  0.0450
 6276SOL     OW30463   0.465   2.944  12.557  0.1471 -0.4770 -0.0554
 6276SOL    HW130464   0.557   2.922  12.539  0.3861 -0.5538  1.2604
 6276SOL    HW230465   0.466   2.954  12.652  0.5990 -0.0054 -0.1124
 6277SOL     OW30466   1.652   1.234   0.090 -0.3052  0.9404  0.4959
 6277SOL    HW130467   1.614   1.257   0.006  1.0854 -2.6761 -1.1183
 6277SOL    HW230468   1.601   1.157   0.114  0.8430  0.3957  1.2269
 6278SOL     OW30469   0.242   1.700   8.488 -0.0049  0.0256 -0.2957
 6278SOL    HW130470   0.240   1.610   8.456 -2.7603  1.0832 -3.1231
 6278SOL    HW230471   0.195   1.702   8.571  1.8665 -1.9052  0.8014
 6279SOL     OW30472   2.642   2.006  13.439 -1.0814 -0.2593 -0.2235
 6279SOL    HW130473   2.601   2.088  13.412 -0.8590 -0.3068 -0.7024
 6279SOL    HW230474   2.627   2.009  13.534  0.9829 -1.4059  0.1400
 6280SOL     OW30475   2.627   0.776  11.595 -0.2296 -0.2506 -0.1660
 6280SOL    HW130476   2.620   0.742  11.505 -2.9428  2.9846 -1.1726
 6280SOL    HW230477   2.717   0.746  11.606  0.6991  2.6796  0.2962
 6281SOL     OW30478   3.875   0.057   4.477 -0.6517 -0.3116  0.0559
 6281SOL    HW130479   3.857   0.061   4.383  0.6892  0.6920 -0.1533
 6281SOL    HW230480   3.898   0.149   4.490  0.4331 -0.4378 -0.9611
 6282SOL     OW30481   0.120   4.117   4.206 -0.2559 -0.4612 -0.5359
 6282SOL    HW130482   0.184   4.183   4.234 -0.8627  0.5057 -1.4301
 6282SOL    HW230483   0.097   4.076   4.290  2.2545  1.9095  1.3455
 6283SOL     OW30484   3.472   2.543   2.512 -0.2177  0.2444 -0.4664
 6283SOL    HW130485   3.492   2.472   2.452  1.6619  0.9021 -0.6409
 6283SOL    HW230486   3.390   2.513   2.549  0.2311  0.2367  0.5191
 6284SOL     OW30487   0.498   2.972  13.452  0.6559  0.5864 -0.1045
 6284SOL    HW130488   0.417   2.981  13.403 -0.6235  1.4865  2.1826
 6284SOL    HW230489   0.576   2.960  13.398  0.7794 -0.7810  0.3767
 6285SOL     OW30490   2.987   0.646   2.033 -0.1589  0.0686  0.7599
 6285SOL    HW130491   2.913   0.591   2.056  1.0334 -1.5390  0.7781
 6285SOL    HW230492   3.043   0.620   2.106  0.4696 -0.3825  0.1218
 6286SOL     OW30493   0.114   3.014  14.531  0.3603  0.2826  0.6090
 6286SOL    HW130494   0.159   2.933  14.557  0.9613  0.2369 -0.5544
 6286SOL    HW230495   0.190   3.070  14.545 -0.2999  1.8175 -2.0004
 6287SOL     OW30496   4.706   3.272  17.696 -0.5896  0.1736  0.6452
 6287SOL    HW130497   0.062   3.254  17.703 -0.4382 -0.0029 -1.5867
 6287SOL    HW230498   4.674   3.191  17.655  0.4964 -0.0404  0.2151
 6288SOL     OW30499   0.790   4.069   8.144 -0.4609  0.4612  0.9866
 6288SOL    HW130500   0.786   4.158   8.110  1.0214 -0.5550 -1.8730
 6288SOL    HW230501   0.746   4.020   8.074 -0.6073 -1.2443  2.2655
 6289SOL     OW30502   4.118   2.825   8.853  0.0467 -0.0707 -0.2577
 6289SOL    HW130503   4.052   2.891   8.833  1.5375  1.0523 -1.4590
 6289SOL    HW230504   4.188   2.883   8.883  1.2431 -1.5813 -0.0911
 6290SOL     OW30505   3.853   3.726   8.277  0.1062 -0.4546  0.4180
 6290SOL    HW130506   3.924   3.791   8.275  0.0791 -0.3868  1.6534
 6290SOL    HW230507   3.840   3.720   8.371  0.6886 -0.6979  0.4828
 6291SOL     OW30508   2.316   0.708   0.731 -0.4063  0.6173 -0.3028
 6291SOL    HW130509   2.290   0.800   0.736  1.2135  0.9386  2.2899
 6291SOL    HW230510   2.240   0.653   0.749 -0.3702  0.2538 -1.2501
 6292SOL     OW30511   4.467   0.217   9.661 -0.1822  0.4606 -0.2497
 6292SOL    HW130512   4.547   0.268   9.675 -0.3372  0.4290  0.7482
 6292SOL    HW230513   4.452   0.191   9.751 -0.8716  1.2206 -0.1389
 6293SOL     OW30514   4.641   3.076  12.526 -0.0846 -0.2074  0.6639
 6293SOL    HW130515   4.734   3.052  12.521 -0.3376 -1.2604  1.1306
 6293SOL    HW230516   4.638   3.172  12.533  0.5786 -0.3118  2.2720
 6294SOL     OW30517   4.336   1.810  17.129 -0.2039 -0.5221  0.3860
 6294SOL    HW130518   4.373   1.723  17.112 -0.0369 -1.0421  3.4044
 6294SOL    HW230519   4.393   1.875  17.089 -0.5202 -0.1160  0.6031
 6295SOL     OW30520   1.559   2.151   7.284 -0.5412  0.4295  0.0043
 6295SOL    HW130521   1.484   2.093   7.271 -1.9145  2.3850 -0.9876
 6295SOL    HW230522   1.628   2.106   7.236 -0.5942  0.6164 -0.2549
 6296SOL     OW30523   3.688   3.597   6.633 -0.0245  0.3474 -0.1808
 6296SOL    HW130524   3.771   3.643   6.629  0.8829 -1.0201  2.6413
 6296SOL    HW230525   3.640   3.669   6.674 -2.2795 -0.5458 -1.2710
 6297SOL     OW30526   3.826   2.285   8.930  0.1172 -0.4933  0.3697
 6297SOL    HW130527   3.847   2.310   9.020 -0.5109  1.7478 -0.1097
 6297SOL    HW230528   3.913   2.255   8.902 -0.2638 -1.5008  0.2758
 6298SOL     OW30529   0.959   0.088   0.685  0.3078  0.3707 -0.1227
 6298SOL    HW130530   0.967   0.119   0.775  0.0751 -1.1137  0.4100
 6298SOL    HW230531   1.054   0.078   0.674 -0.0271 -3.5497  0.5453
 6299SOL     OW30532   4.307   2.981   6.854  0.8827  0.1702  0.5630
 6299SOL    HW130533   4.382   3.028   6.817  0.0444  2.4219  1.7298
 6299SOL    HW230534   4.271   3.050   6.911  1.3558  1.8954 -1.2165
 6300SOL     OW30535   1.167   4.584   6.752  0.4144  0.1424 -0.5740
 6300SOL    HW130536   1.192   4.507   6.803  5.4586  0.5700 -2.4483
 6300SOL    HW230537   1.094   4.548   6.701 -0.9623  1.8914  0.1494
 6301SOL     OW30538   4.517   1.130   7.238 -0.1001 -0.3016 -0.3346
 6301SOL    HW130539   4.459   1.206   7.233 -1.2791 -1.1515  0.4458
 6301SOL    HW230540   4.591   1.156   7.183  0.0482  2.4169  1.1441
 6302SOL     OW30541   3.314   4.169   6.585 -0.0701 -0.8455  0.1906
 6302SOL    HW130542   3.390   4.137   6.632 -0.1223 -1.2071  0.0289
 6302SOL    HW230543   3.322   4.096   6.524  0.0564 -0.1674 -0.6142
 6303SOL     OW30544   2.449   4.668  15.087 -0.1660 -0.3629  0.0069
 6303SOL    HW130545   2.455   4.726  15.163  1.0582 -0.3646 -0.0922
 6303SOL    HW230546   2.359   4.692  15.065 -0.6605 -3.0288 -0.8757
 6304SOL     OW30547   0.203   0.619   2.411 -0.0834 -0.2077  0.1796
 6304SOL    HW130548   0.112   0.627   2.441 -0.1336  0.6444 -0.2117
 6304SOL    HW230549   0.215   0.529   2.443 -1.5910 -0.4502  0.0844
 6305SOL     OW30550   0.748   1.812  14.047 -0.0067 -0.0706 -0.7269
 6305SOL    HW130551   0.696   1.757  14.105  3.2145 -2.1276  0.1870
 6305SOL    HW230552   0.679   1.816  13.980  0.2760 -0.2642 -1.0309
 6306SOL     OW30553   1.320   1.767  11.890  0.1845  0.5194  0.6520
 6306SOL    HW130554   1.300   1.701  11.824 -0.9458  2.1191 -0.6165
 6306SOL    HW230555   1.235   1.789  11.927 -1.2947  1.8763 -3.5029
 6307SOL     OW30556   4.550   2.317   8.271 -0.1925 -0.3013 -0.0353
 6307SOL    HW130557   4.621   2.369   8.306 -1.0267 -0.0022  1.2221
 6307SOL    HW230558   4.481   2.363   8.319  0.6562  1.1682 -0.2211
 6308SOL     OW30559   0.602   1.964   4.902  0.0291  0.3502  0.5654
 6308SOL    HW130560   0.622   2.040   4.847 -3.3489  1.5599  0.9848
 6308SOL    HW230561   0.663   1.897   4.873  1.3235  1.5228  0.6136
 6309SOL     OW30562   0.970   0.821  14.523  0.2122 -0.4587 -0.1615
 6309SOL    HW130563   1.040   0.835  14.460 -0.1456  2.3244  0.0236
 6309SOL    HW230564   0.928   0.736  14.511 -0.5456 -0.0869 -0.1774
 6310SOL     OW30565   2.061   4.259   5.239  0.0602 -0.1746 -0.4010
 6310SOL    HW130566   2.101   4.179   5.275 -0.8364 -0.1950  0.5449
 6310SOL    HW230567   1.971   4.253   5.271  0.3912  0.1458  0.5864
 6311SOL     OW30568   1.673   1.610   7.626 -0.9763  0.3922 -0.5460
 6311SOL    HW130569   1.671   1.519   7.597  0.3893  0.2678 -0.2872
 6311SOL    HW230570   1.583   1.636   7.609 -0.6909  2.4665  1.0504
 6312SOL     OW30571   0.497   3.301   8.409  0.6293  0.0997 -0.3036
 6312SOL    HW130572   0.528   3.218   8.446 -0.8342 -0.7312 -0.9403
 6312SOL    HW230573   0.409   3.264   8.396  0.9566 -0.0813 -1.9281
 6313SOL     OW30574   1.032   1.326   8.607  0.0861 -0.1613 -0.6379
 6313SOL    HW130575   1.022   1.397   8.544 -1.1638 -0.0432 -0.3020
 6313SOL    HW230576   0.956   1.272   8.585  0.1080 -0.4768  0.0718
 6314SOL     OW30577   0.811   4.025   1.598  0.1684 -0.1110  0.1450
 6314SOL    HW130578   0.848   4.098   1.549  0.2450  1.1085  2.0592
 6314SOL    HW230579   0.890   3.999   1.646  0.1284 -0.3673  0.0737
 6315SOL     OW30580   0.042   3.719   9.242  0.0156 -0.2217  0.0519
 6315SOL    HW130581   0.009   3.630   9.226 -1.7757  0.5316 -0.4492
 6315SOL    HW230582   4.707   3.779   9.227 -1.7631 -1.8264  2.2930
 6316SOL     OW30583   3.864   0.099   3.105  0.0945 -0.1238  0.1688
 6316SOL    HW130584   3.939   0.051   3.069 -1.7103 -1.8148 -1.2661
 6316SOL    HW230585   3.868   0.058   3.191 -0.6842 -0.8867 -0.1602
 6317SOL     OW30586   2.724   4.613   7.053  0.1857 -0.2386  0.1261
 6317SOL    HW130587   2.630   4.596   7.059 -0.2544  2.8174  1.8383
 6317SOL    HW230588   2.738   4.678   6.985 -0.5895 -0.0270  0.1652
 6318SOL     OW30589   2.549   3.813   8.526  0.2519  0.1659 -0.3989
 6318SOL    HW130590   2.455   3.818   8.541  0.0969  2.1830 -2.1537
 6318SOL    HW230591   2.567   3.719   8.535  1.7198  0.5632  0.8321
 6319SOL     OW30592   3.454   3.127  17.570 -0.0174 -0.6969 -0.0875
 6319SOL    HW130593   3.427   3.100  17.483 -1.0190 -0.8511  0.2716
 6319SOL    HW230594   3.376   3.121  17.626  0.0992  0.5395  0.2086
 6320SOL     OW30595   0.580   4.617   3.062  0.2177 -0.2222  0.3808
 6320SOL    HW130596   0.537   4.594   3.144  2.1606  1.6267  1.9276
 6320SOL    HW230597   0.666   4.576   3.068 -0.3419 -1.4463 -0.1019
 6321SOL     OW30598   0.657   3.606   9.525 -0.4354 -0.2228 -0.2162
 6321SOL    HW130599   0.619   3.693   9.534  3.5046  1.5578 -0.5908
 6321SOL    HW230600   0.751   3.627   9.521 -0.0401 -1.9692 -0.0282
 6322SOL     OW30601   0.508   3.091   0.822 -0.3705 -0.3237 -0.0664
 6322SOL    HW130602   0.510   3.150   0.897  2.2155 -0.8014  0.2593
 6322SOL    HW230603   0.433   3.032   0.828 -1.6592  1.2274 -1.0994
 6323SOL     OW30604   1.073   4.309   3.178  0.2619  0.0101  0.5688
 6323SOL    HW130605   1.165   4.320   3.200  0.8330  0.3580 -1.9840
 6323SOL    HW230606   1.033   4.272   3.256 -0.6726 -0.0620  0.0653
 6324SOL     OW30607   3.472   3.699   7.920  0.4281 -0.1538  0.4091
 6324SOL    HW130608   3.421   3.704   8.000 -1.3052 -2.7479 -0.4977
 6324SOL    HW230609   3.440   3.774   7.869  2.9477 -0.2240 -1.2711
 6325SOL     OW30610   1.370   1.682   9.694 -0.1495 -0.5311  0.1749
 6325SOL    HW130611   1.336   1.683   9.784  0.7237  0.8662  0.4836
 6325SOL    HW230612   1.433   1.610   9.695 -0.0182 -0.4111  0.7989
 6326SOL     OW30613   1.731   2.019   1.076  0.3145  0.9647 -0.1442
 6326SOL    HW130614   1.799   1.982   1.020  0.3727  1.5202 -0.4391
 6326SOL    HW230615   1.688   2.083   1.019 -0.2207  0.1817 -0.6149
 6327SOL     OW30616   1.331   1.096   6.688  0.9376 -0.3159 -0.4912
 6327SOL    HW130617   1.325   1.134   6.600 -0.5863  3.6482  1.3225
 6327SOL    HW230618   1.424   1.095   6.712  1.0302 -0.7564 -0.8653
 6328SOL     OW30619   3.626   2.230   7.310  0.1044  0.2526 -0.4774
 6328SOL    HW130620   3.539   2.268   7.295 -0.0244 -0.3714 -1.2904
 6328SOL    HW230621   3.649   2.265   7.396  0.1564 -2.9743  0.8039
 6329SOL     OW30622   2.980   0.613   2.703  0.5502  0.2880 -0.1581
 6329SOL    HW130623   3.050   0.589   2.764 -0.6107  0.7672  1.3521
 6329SOL    HW230624   3.026   0.620   2.619  2.0864  0.0116  0.6635
 6330SOL     OW30625   0.435   3.285  10.177 -0.2190  0.6507  0.2414
 6330SOL    HW130626   0.369   3.217  10.184 -0.3783  0.6931 -0.8106
 6330SOL    HW230627   0.429   3.321  10.266  0.2081  0.6561  0.2692
 6331SOL     OW30628   1.492   2.866   6.348  0.3004  0.0694  0.0495
 6331SOL    HW130629   1.546   2.828   6.417  2.5584 -0.6071 -2.0779
 6331SOL    HW230630   1.405   2.835   6.376 -0.8550  1.1321 -2.3431
 6332SOL     OW30631   0.847   0.595   3.836  0.2278  0.3059  0.6380
 6332SOL    HW130632   0.862   0.609   3.930  1.8569 -2.2890  0.7563
 6332SOL    HW230633   0.767   0.543   3.836  0.1842  0.3697  1.1794
 6333SOL     OW30634   0.534   0.597   2.914  0.3068  0.3255 -0.5805
 6333SOL    HW130635   0.514   0.572   2.824  1.4502 -0.8449 -0.5143
 6333SOL    HW230636   0.447   0.621   2.945  0.4395  0.3331 -0.2197
 6334SOL     OW30637   4.078   0.420  11.568  0.0370  0.5628 -0.0850
 6334SOL    HW130638   4.121   0.504  11.577  0.8765  0.0113  0.9366
 6334SOL    HW230639   4.003   0.435  11.625  1.8103 -1.5291  2.7870
 6335SOL     OW30640   1.574   1.336  13.218  0.0736 -0.2587 -0.6461
 6335SOL    HW130641   1.592   1.292  13.301  0.6381  1.8730  0.3699
 6335SOL    HW230642   1.653   1.388  13.201 -0.4251  1.1179  1.2466
 6336SOL     OW30643   2.906   1.159   7.431 -0.3394 -0.1232 -0.2045
 6336SOL    HW130644   2.908   1.138   7.337 -0.0287 -0.1572 -0.1903
 6336SOL    HW230645   2.958   1.085   7.462 -0.0720 -0.4055 -1.3469
 6337SOL     OW30646   1.377   1.674  11.517 -0.0687  0.7227  0.3127
 6337SOL    HW130647   1.404   1.599  11.465 -0.1477  0.6115  0.4315
 6337SOL    HW230648   1.396   1.630  11.600 -0.5707  0.5521  0.3341
 6338SOL     OW30649   2.829   4.603   8.170 -0.0768  0.2888  0.1551
 6338SOL    HW130650   2.873   4.625   8.089 -3.7215 -0.2717 -1.9998
 6338SOL    HW230651   2.743   4.573   8.141 -0.3365  2.4436 -1.2634
 6339SOL     OW30652   0.877   2.255   2.497 -0.1082  0.3270  0.2694
 6339SOL    HW130653   0.875   2.162   2.519 -0.6033  0.3867  0.4988
 6339SOL    HW230654   0.882   2.256   2.402 -0.7517  0.3710  0.2368
 6340SOL     OW30655   0.089   4.152   2.960  0.1422  0.2571 -0.4931
 6340SOL    HW130656   0.150   4.089   2.921  1.8372  0.9008  1.1018
 6340SOL    HW230657   0.074   4.220   2.894  0.2936  0.5428 -0.2383
 6341SOL     OW30658   0.666   0.950   8.207  0.4489 -0.1797 -0.4556
 6341SOL    HW130659   0.696   1.038   8.182 -0.9150  0.5495  0.4496
 6341SOL    HW230660   0.576   0.962   8.177 -0.5792 -0.1998  2.5974
 6342SOL     OW30661   2.659   2.661   4.142 -0.3813  0.2953  0.4522
 6342SOL    HW130662   2.721   2.680   4.072 -1.6626  1.5199 -0.3700
 6342SOL    HW230663   2.656   2.748   4.182 -0.0544  0.1085  0.8862
 6343SOL     OW30664   2.068   3.598   3.475  0.6611 -0.0921 -0.3667
 6343SOL    HW130665   2.157   3.566   3.488  0.3309 -0.5240  0.8157
 6343SOL    HW230666   2.014   3.520   3.464 -0.7729  0.6186  1.6716
 6344SOL     OW30667   3.656   0.024   2.959  0.1172  0.4241 -0.0085
 6344SOL    HW130668   3.663   0.062   2.872  4.0381  1.6852  0.8505
 6344SOL    HW230669   3.723   0.065   3.015 -0.0395 -0.2389  0.6593
 6345SOL     OW30670   0.603   4.493  16.897  0.4112  0.0935 -0.5318
 6345SOL    HW130671   0.642   4.550  16.832  3.0751  1.3399  2.1417
 6345SOL    HW230672   0.536   4.551  16.932 -0.1785 -0.7114 -0.3148
 6346SOL     OW30673   2.565   1.234   3.243 -0.8360 -0.2347  0.5523
 6346SOL    HW130674   2.528   1.146   3.231  2.0724 -1.6722  2.0430
 6346SOL    HW230675   2.511   1.268   3.314 -0.9681  0.7613 -0.0262
 6347SOL     OW30676   0.296   3.830   8.570 -0.1640  0.2350  0.2213
 6347SOL    HW130677   0.304   3.891   8.496 -1.4134 -0.5744 -0.5769
 6347SOL    HW230678   0.331   3.889   8.636 -0.6611  0.7771  0.0074
 6348SOL     OW30679   1.518   0.861   7.144  0.0214 -0.0321 -0.7311
 6348SOL    HW130680   1.463   0.905   7.210  2.3848  0.9347  0.6068
 6348SOL    HW230681   1.466   0.782   7.130 -0.9662 -0.1054  3.2850
 6349SOL     OW30682   4.281   4.317   1.572  0.8255 -0.4391 -0.3286
 6349SOL    HW130683   4.241   4.288   1.654 -0.7985 -2.2133 -1.7639
 6349SOL    HW230684   4.281   4.236   1.521  1.6329 -1.3539  1.1141
 6350SOL     OW30685   1.448   1.500   7.399  0.2494 -0.3039  0.1447
 6350SOL    HW130686   1.496   1.583   7.394 -3.1910  1.6498 -0.6324
 6350SOL    HW230687   1.516   1.436   7.420 -1.7149 -2.1534  0.8676
 6351SOL     OW30688   2.232   0.930   4.197  0.3476 -0.2261  0.2100
 6351SOL    HW130689   2.169   0.959   4.130  0.5016 -0.8424 -0.2064
 6351SOL    HW230690   2.274   1.011   4.225  1.0033 -1.0941  1.7477
 6352SOL     OW30691   3.020   4.680  10.676 -0.1090 -0.1228  0.2083
 6352SOL    HW130692   2.925   4.672  10.671 -0.0890 -0.0278 -0.3946
 6352SOL    HW230693   3.055   4.600  10.714 -1.3016  0.2245  2.0458
 6353SOL     OW30694   0.464   3.610   4.881 -0.4971 -0.0224 -0.0401
 6353SOL    HW130695   0.406   3.684   4.863 -0.4276  0.2692  0.9079
 6353SOL    HW230696   0.547   3.657   4.888  0.4804 -1.7320 -0.0261
 6354SOL     OW30697   2.258   3.872  13.652 -0.2334 -1.0797  0.2385
 6354SOL    HW130698   2.217   3.882  13.567  2.1003  1.2594 -0.6275
 6354SOL    HW230699   2.208   3.941  13.697  2.1978 -0.6604  2.3626
 6355SOL     OW30700   2.235   4.259   9.465  0.4484  0.0127  0.0617
 6355SOL    HW130701   2.300   4.227   9.404  1.4688  1.8484  0.1773
 6355SOL    HW230702   2.241   4.185   9.525  2.0635  0.9640  1.0883
 6356SOL     OW30703   2.266   3.402  12.928 -0.3229  0.2170  0.5771
 6356SOL    HW130704   2.249   3.311  12.951 -1.2215  0.3631  0.5046
 6356SOL    HW230705   2.360   3.408  12.912 -0.1326  0.0552  1.6753
 6357SOL     OW30706   2.636   0.633   6.396  0.3893  0.3758  0.5153
 6357SOL    HW130707   2.583   0.669   6.467 -1.3377  1.8164 -1.4995
 6357SOL    HW230708   2.564   0.595   6.345 -0.2637  0.8866  1.0487
 6358SOL     OW30709   2.123   4.171   1.896  0.2064 -0.3848  0.3997
 6358SOL    HW130710   2.082   4.091   1.864  0.7146 -1.4574  2.3759
 6358SOL    HW230711   2.099   4.232   1.827 -2.7357 -1.9782  0.0541
 6359SOL     OW30712   1.839   1.956   0.127  0.1563  0.3999  0.4058
 6359SOL    HW130713   1.907   1.890   0.112  1.3138  1.5985  0.4370
 6359SOL    HW230714   1.768   1.891   0.120  0.5634  0.3103 -2.4971
 6360SOL     OW30715   0.417   1.353   1.257 -0.1931  0.3662  0.6526
 6360SOL    HW130716   0.405   1.422   1.322 -0.9436  0.7622  0.0888
 6360SOL    HW230717   0.490   1.392   1.210 -0.2729  0.4497  0.6000
 6361SOL     OW30718   4.713   1.502   8.622 -0.0347 -0.0783 -0.8919
 6361SOL    HW130719   0.064   1.534   8.628 -0.2398  0.5464 -1.2545
 6361SOL    HW230720   4.699   1.461   8.708  1.3831  1.6707  0.1557
 6362SOL     OW30721   1.261   1.216   5.932 -0.2084 -0.8337 -0.4676
 6362SOL    HW130722   1.332   1.161   5.965 -1.3378 -1.9831  0.0578
 6362SOL    HW230723   1.277   1.206   5.838  2.1527  0.8915 -0.2476
 6363SOL     OW30724   3.923   0.870   5.358 -0.0044 -0.4939 -0.0127
 6363SOL    HW130725   3.837   0.828   5.362 -1.0857  1.9576  1.9085
 6363SOL    HW230726   3.943   0.863   5.451 -0.4065  0.6023  0.1502
 6364SOL     OW30727   0.987   2.501   7.781 -0.0273 -0.5859  0.2055
 6364SOL    HW130728   1.075   2.533   7.763 -0.4183  0.6712  0.5181
 6364SOL    HW230729   1.003   2.407   7.767  1.4795 -0.6477  2.4395
 6365SOL     OW30730   1.351   2.681   9.407 -0.8684  0.5257 -0.0425
 6365SOL    HW130731   1.281   2.738   9.440 -1.7265 -1.5685  1.8148
 6365SOL    HW230732   1.392   2.731   9.337  0.4709 -0.1176  0.2755
 6366SOL     OW30733   1.240   3.685   5.573  0.5866  0.8512 -0.0713
 6366SOL    HW130734   1.236   3.629   5.495  0.9212 -0.8125  1.0981
 6366SOL    HW230735   1.148   3.689   5.601  0.4700  2.2487 -0.6498
 6367SOL     OW30736   0.904   0.552   0.628 -0.0002  0.0418 -0.3855
 6367SOL    HW130737   0.901   0.618   0.697 -0.2315 -2.1965  1.7867
 6367SOL    HW230738   0.836   0.492   0.660  1.9438 -1.6317  0.6651
 6368SOL     OW30739   4.053   2.521   4.965 -0.0969  0.8018  0.4933
 6368SOL    HW130740   3.967   2.556   4.943 -0.0457  1.0097  0.6261
 6368SOL    HW230741   4.099   2.604   4.975  0.9424  0.1198  1.4506
 6369SOL     OW30742   3.509   4.563   3.114  0.0881  0.1929  0.4998
 6369SOL    HW130743   3.573   4.616   3.066 -0.3060 -0.4938 -0.7661
 6369SOL    HW230744   3.468   4.635   3.163 -1.0414  1.5470 -2.4517
 6370SOL     OW30745   0.950   1.982   3.055 -0.3340 -0.2475  0.0355
 6370SOL    HW130746   0.992   1.950   3.134 -2.0603  0.5065  1.2528
 6370SOL    HW230747   0.984   2.071   3.051 -2.0952  0.3378 -2.0491
 6371SOL     OW30748   1.993   1.752   1.217  0.0342 -0.4581  0.9362
 6371SOL    HW130749   2.035   1.829   1.254  0.8711 -0.2618 -0.4280
 6371SOL    HW230750   2.019   1.688   1.284  0.0251 -1.6185 -0.1481
 6372SOL     OW30751   1.963   3.413   9.487 -0.4352  0.0752  0.2545
 6372SOL    HW130752   1.933   3.322   9.478 -1.2800  0.3710  0.1810
 6372SOL    HW230753   1.967   3.442   9.396  0.1785 -0.4139  0.1214
 6373SOL     OW30754   2.226   3.539   6.000 -0.1762 -0.0353 -0.0118
 6373SOL    HW130755   2.310   3.519   6.041 -0.9557 -4.0111 -0.4377
 6373SOL    HW230756   2.161   3.548   6.069 -1.5009 -0.9754 -1.1248
 6374SOL     OW30757   0.034   0.514   7.425  0.0160  0.0731  0.0823
 6374SOL    HW130758   0.035   0.436   7.481  1.9369 -0.3790 -0.5489
 6374SOL    HW230759   4.680   0.511   7.400 -0.8695  1.5763  3.2011
 6375SOL     OW30760   2.201   2.482   8.691  0.8790 -0.1997  0.4996
 6375SOL    HW130761   2.145   2.555   8.717 -0.6066 -1.5590  1.1617
 6375SOL    HW230762   2.255   2.480   8.770 -0.1629 -1.1604  1.1806
 6376SOL     OW30763   1.780   4.736   4.853  0.1948  0.2382 -0.0744
 6376SOL    HW130764   1.721   0.021   4.925 -0.8212 -0.7290 -0.6019
 6376SOL    HW230765   1.862   0.041   4.879  0.1296 -0.8922  2.0479
 6377SOL     OW30766   1.484   1.814   9.068 -0.3018 -0.1210 -0.3543
 6377SOL    HW130767   1.542   1.744   9.037  1.4358  1.4465 -0.6618
 6377SOL    HW230768   1.522   1.825   9.155 -1.2039 -1.1691  0.1877
 6378SOL     OW30769   0.985   1.521   8.842  0.6061 -0.5390 -0.0517
 6378SOL    HW130770   1.036   1.442   8.825  1.6045  0.1272 -0.1438
 6378SOL    HW230771   0.921   1.521   8.772 -0.0222  0.9976  0.5063
 6379SOL     OW30772   4.250   2.083   7.184 -0.1003 -0.0603  0.3817
 6379SOL    HW130773   4.197   2.039   7.251  1.1044 -2.7399 -0.4046
 6379SOL    HW230774   4.206   2.056   7.104 -0.0515 -0.6072  0.5402
 6380SOL     OW30775   2.902   1.553   8.886  0.3416 -0.3574  0.0070
 6380SOL    HW130776   2.808   1.551   8.903  0.3363  0.6944  0.0801
 6380SOL    HW230777   2.908   1.496   8.809 -0.6153  2.3400 -2.0379
 6381SOL     OW30778   2.855   2.148   2.579 -0.2374  0.3286  0.0784
 6381SOL    HW130779   2.888   2.237   2.566  0.7217 -0.2178 -1.3725
 6381SOL    HW230780   2.900   2.118   2.658  0.0214 -0.5928 -0.4187
 6382SOL     OW30781   3.277   1.771   5.627  0.5416 -0.6368 -0.3964
 6382SOL    HW130782   3.368   1.774   5.600  0.4248 -1.1002 -0.8342
 6382SOL    HW230783   3.286   1.774   5.722  0.5010  1.9586 -0.4771
 6383SOL     OW30784   1.249   0.170   2.502 -0.2874  0.1895  0.4060
 6383SOL    HW130785   1.163   0.191   2.467 -0.0067 -2.9612 -2.2082
 6383SOL    HW230786   1.285   0.107   2.439 -1.2305 -0.2510  0.3113
 6384SOL     OW30787   0.084   4.543   7.781 -0.3433  0.7828 -0.1746
 6384SOL    HW130788   0.007   4.487   7.769 -0.8225  0.7933  2.8816
 6384SOL    HW230789   0.049   4.628   7.807 -0.1114  0.8497 -0.0823
 6385SOL     OW30790   2.067   1.320   6.570  0.2927 -0.1703  0.6488
 6385SOL    HW130791   2.078   1.301   6.663  2.1826  1.2805  0.7388
 6385SOL    HW230792   1.979   1.288   6.556  0.4480 -0.2384 -0.1660
 6386SOL     OW30793   0.568   4.098   0.460  0.2061  0.0037  0.0905
 6386SOL    HW130794   0.528   4.148   0.531 -0.7320 -1.4105  0.5616
 6386SOL    HW230795   0.551   4.154   0.384  0.5475  0.5652  0.4274
 6387SOL     OW30796   3.323   0.954   7.258 -0.6709  0.6558 -0.3758
 6387SOL    HW130797   3.382   1.013   7.212 -0.4973  0.7707 -0.0097
 6387SOL    HW230798   3.348   0.873   7.214 -0.8456 -0.6319  1.8882
 6388SOL     OW30799   0.868   2.968  11.689 -0.3780  0.2950 -0.3513
 6388SOL    HW130800   0.809   2.893  11.695 -0.5895  0.2488 -2.9663
 6388SOL    HW230801   0.810   3.028  11.642 -3.3759 -1.1102  1.5365
 6389SOL     OW30802   1.970   3.902   1.556 -0.0596  0.1413 -0.1075
 6389SOL    HW130803   1.958   3.994   1.533  0.0117  0.4610  1.1139
 6389SOL    HW230804   2.001   3.906   1.647 -0.7150  1.3398  0.0659
 6390SOL     OW30805   4.417   1.322  12.810 -0.3380  0.6602  0.5290
 6390SOL    HW130806   4.414   1.235  12.771 -0.8491  0.5402  0.8316
 6390SOL    HW230807   4.512   1.332  12.821 -0.1992 -1.0975  1.0116
 6391SOL     OW30808   1.312   2.047   1.129 -0.5137  0.0850  0.0931
 6391SOL    HW130809   1.343   2.018   1.044 -0.1644 -1.2862  0.6858
 6391SOL    HW230810   1.266   2.122   1.091 -1.1480  1.2786  3.1389
 6392SOL     OW30811   2.081   0.108  13.338 -0.2779  0.1306  0.3072
 6392SOL    HW130812   2.142   0.045  13.302 -1.0326  0.3037 -1.2854
 6392SOL    HW230813   2.038   0.049  13.401  1.7704  0.4808  2.0339
 6393SOL     OW30814   3.142   2.311   5.061 -0.7262 -0.7507  0.0834
 6393SOL    HW130815   3.101   2.303   5.147  0.7223  0.2185  0.8596
 6393SOL    HW230816   3.189   2.228   5.070 -1.7227 -1.2536  0.6805
 6394SOL     OW30817   1.942   2.238  17.741  0.2830  0.2551 -0.3118
 6394SOL    HW130818   1.995   2.246   0.069 -0.3821 -2.7719  0.4501
 6394SOL    HW230819   1.966   2.149  17.716 -0.5322  0.4045 -1.6231
 6395SOL     OW30820   1.007   1.197   6.033  0.1280  0.0031  0.1902
 6395SOL    HW130821   1.020   1.103   6.024 -0.5437 -0.0881  0.2014
 6395SOL    HW230822   1.090   1.226   5.995 -0.6072  0.5017 -1.0400
 6396SOL     OW30823   2.206   1.324   3.972  0.1843 -0.4238 -0.3795
 6396SOL    HW130824   2.148   1.334   3.897 -1.2351 -3.5332  0.3405
 6396SOL    HW230825   2.151   1.306   4.048 -0.3416  0.4746 -0.5488
 6397SOL     OW30826   2.918   3.849   2.082 -0.4424 -0.2638  0.6833
 6397SOL    HW130827   2.935   3.873   2.173 -2.0718 -0.2137  0.9691
 6397SOL    HW230828   3.007   3.834   2.050 -0.2111 -0.2978  1.3475
 6398SOL     OW30829   1.994   0.092  10.397 -0.4396  0.1049 -0.2658
 6398SOL    HW130830   2.013   0.075  10.305  2.3595  2.0933 -0.0589
 6398SOL    HW230831   1.899   0.089  10.386 -0.3434  1.2498 -1.4063
 6399SOL     OW30832   4.661   1.873   1.882 -0.0809  0.0137  0.1149
 6399SOL    HW130833   4.635   1.891   1.792  0.9002 -2.3564 -0.6473
 6399SOL    HW230834   4.579   1.837   1.918  1.6534  0.1331  4.2485
 6400SOL     OW30835   3.326   0.923   4.555 -0.4720  0.0037 -0.4165
 6400SOL    HW130836   3.357   0.906   4.644  1.6130 -1.3747 -1.4089
 6400SOL    HW230837   3.403   0.900   4.503  1.3183 -0.6693  2.5577
 6401SOL     OW30838   4.725   1.020   4.152 -0.5135  0.3547  0.4388
 6401SOL    HW130839   0.032   1.034   4.069  0.4629  0.6208  1.0058
 6401SOL    HW230840   0.062   1.003   4.209  0.9922  2.6085 -0.8565
 6402SOL     OW30841   2.444   1.190   7.391  0.2140 -0.1726 -0.0461
 6402SOL    HW130842   2.434   1.276   7.433  2.8854 -0.2804  0.7601
 6402SOL    HW230843   2.358   1.165   7.357 -0.5885  1.3663  0.8539
 6403SOL     OW30844   2.593   4.187   7.862 -0.2595 -0.5571  0.1896
 6403SOL    HW130845   2.552   4.139   7.791  1.3033 -3.6657  1.3801
 6403SOL    HW230846   2.623   4.115   7.918 -0.7646 -0.2954  0.8023
 6404SOL     OW30847   0.761   2.644   3.787 -0.1916 -0.0928 -0.1493
 6404SOL    HW130848   0.712   2.726   3.783 -0.5697 -0.2782  0.6505
 6404SOL    HW230849   0.705   2.577   3.828  0.5256 -0.5695  0.0397
 6405SOL     OW30850   2.493   2.800   8.454  0.3626 -0.4443 -0.0711
 6405SOL    HW130851   2.555   2.727   8.452 -0.1923 -0.8791 -1.2830
 6405SOL    HW230852   2.450   2.778   8.537  1.7229  0.4264  0.8593
 6406SOL     OW30853   4.466   2.993  13.382 -0.4736 -0.3369 -0.5062
 6406SOL    HW130854   4.460   2.906  13.343  1.1381  0.3392 -2.2826
 6406SOL    HW230855   4.388   3.004  13.437 -1.0063 -0.3613 -1.2607
 6407SOL     OW30856   1.841   3.636   1.452 -0.0772 -0.1353 -0.0088
 6407SOL    HW130857   1.906   3.579   1.492 -0.5507 -0.5809  0.1266
 6407SOL    HW230858   1.889   3.716   1.472 -0.8910  0.6416 -1.1809
 6408SOL     OW30859   2.946   0.644  13.413 -0.1052  0.8677  0.6397
 6408SOL    HW130860   2.965   0.713  13.349 -0.9632  0.7009  0.2024
 6408SOL    HW230861   3.023   0.587  13.408 -0.4390  0.4042  0.8370
 6409SOL     OW30862   0.598   1.781   7.862 -0.1585  0.4760  0.0266
 6409SOL    HW130863   0.537   1.846   7.828  0.3508  2.8173  3.5067
 6409SOL    HW230864   0.661   1.777   7.790 -2.8112  2.0829 -2.3555
 6410SOL     OW30865   2.011   0.677   7.145 -0.4094 -0.0802  0.2897
 6410SOL    HW130866   2.080   0.617   7.171  1.5264  2.6619  1.5256
 6410SOL    HW230867   2.068   0.749   7.117  1.1252 -1.8539 -1.1601
 6411SOL     OW30868   0.323   1.947   2.637 -0.0787 -0.2289 -0.4860
 6411SOL    HW130869   0.240   1.940   2.590  0.7139  0.2879 -1.9588
 6411SOL    HW230870   0.325   2.039   2.662 -0.3223 -0.1691 -0.6899
 6412SOL     OW30871   2.611   0.791   8.818  0.3250  0.0785  0.0903
 6412SOL    HW130872   2.679   0.773   8.754  1.4000 -1.1468  1.5892
 6412SOL    HW230873   2.591   0.704   8.853 -0.8346  0.5883  0.6993
 6413SOL     OW30874   3.762   4.111   7.722  0.3757 -0.0484 -0.3484
 6413SOL    HW130875   3.696   4.058   7.677  2.3037 -2.3610 -0.4250
 6413SOL    HW230876   3.826   4.051   7.760  0.0084 -0.5792 -0.5694
 6414SOL     OW30877   0.713   1.345  14.429 -0.0075  0.1908  0.3629
 6414SOL    HW130878   0.622   1.350  14.459  0.5159 -0.1983  1.9926
 6414SOL    HW230879   0.694   1.345  14.335  1.0349  0.8780  0.1517
 6415SOL     OW30880   3.278   4.273   5.863 -0.0010 -0.0066 -0.3315
 6415SOL    HW130881   3.251   4.185   5.889  2.5386 -0.7378 -0.1541
 6415SOL    HW230882   3.355   4.287   5.918 -2.2862  2.6311  2.1608
 6416SOL     OW30883   0.108   2.862   6.337  0.1747  0.6574 -0.2348
 6416SOL    HW130884   0.136   2.867   6.246 -1.1027 -0.2483 -0.6845
 6416SOL    HW230885   0.110   2.952   6.368  0.0773  0.4133  0.4876
 6417SOL     OW30886   2.363   2.005   8.665  0.1697  0.7167 -0.2286
 6417SOL    HW130887   2.298   1.946   8.629  0.7405 -0.4560  0.6547
 6417SOL    HW230888   2.315   2.088   8.659  0.7172  1.1220  0.7862
 6418SOL     OW30889   0.511   0.490  11.143  0.0659 -0.2607 -0.8826
 6418SOL    HW130890   0.492   0.416  11.200  1.8025  0.3416  0.4788
 6418SOL    HW230891   0.538   0.562  11.200 -0.3434  0.2789 -1.3644
 6419SOL     OW30892   0.035   0.556   9.479 -0.4261  0.3339  0.3368
 6419SOL    HW130893   0.099   0.524   9.416 -1.6231 -0.9957 -0.2148
 6419SOL    HW230894   4.714   0.609   9.426 -0.7057  0.2327  0.5455
 6420SOL     OW30895   3.140   4.285   5.143  0.3862 -0.1481  0.0637
 6420SOL    HW130896   3.161   4.376   5.126 -2.1940  0.3065 -0.5699
 6420SOL    HW230897   3.045   4.278   5.132  0.5166 -0.0063 -1.1481
 6421SOL     OW30898   0.804   0.518   7.279 -0.0232  0.2085 -0.3102
 6421SOL    HW130899   0.743   0.463   7.328 -0.0776  0.5594  0.0158
 6421SOL    HW230900   0.789   0.605   7.317 -2.2139 -0.4655  0.3698
 6422SOL     OW30901   0.513   3.617   3.164 -0.2396 -0.2799 -0.0513
 6422SOL    HW130902   0.552   3.697   3.128  1.4364 -1.7359 -1.5032
 6422SOL    HW230903   0.587   3.583   3.215  0.3417 -1.2100 -1.4704
 6423SOL     OW30904   4.155   2.571   5.829  0.0650  0.2402  0.4757
 6423SOL    HW130905   4.085   2.529   5.778  1.2884  0.2121 -1.1816
 6423SOL    HW230906   4.158   2.657   5.789  1.0161 -0.5499 -1.1738
 6424SOL     OW30907   1.144   3.682   6.950 -0.2739  0.7147  0.5430
 6424SOL    HW130908   1.123   3.764   6.907  1.7009  1.8397  1.7459
 6424SOL    HW230909   1.205   3.708   7.019  3.3178 -2.2518 -1.5116
 6425SOL     OW30910   2.663   2.324   8.631  0.8989  0.5025 -0.7215
 6425SOL    HW130911   2.581   2.290   8.594 -0.7168  3.3392  0.3295
 6425SOL    HW230912   2.670   2.274   8.712  4.3655  3.0547  0.5541
 6426SOL     OW30913   2.142   4.535   9.638 -0.4752 -0.0296  0.4848
 6426SOL    HW130914   2.207   4.558   9.704  0.2282 -1.9545  0.4728
 6426SOL    HW230915   2.171   4.449   9.608 -2.6035 -0.5323 -0.1350
 6427SOL     OW30916   3.605   0.846   6.953 -0.0155  0.2256 -0.3109
 6427SOL    HW130917   3.548   0.796   7.011  0.0661  0.8514  0.3036
 6427SOL    HW230918   3.606   0.934   6.992 -1.0213  0.0454  0.1274
 6428SOL     OW30919   0.609   3.150   3.417 -0.1962 -0.7663  0.6172
 6428SOL    HW130920   0.656   3.090   3.359  0.6995  0.8637 -0.3621
 6428SOL    HW230921   0.550   3.090   3.463  0.1413 -2.0098 -0.5822
 6429SOL     OW30922   4.294   4.515   4.375 -0.4927 -0.0107 -0.1298
 6429SOL    HW130923   4.317   4.588   4.432  1.3143  0.5883 -1.6226
 6429SOL    HW230924   4.219   4.492   4.429 -1.5397 -1.1739 -2.0913
 6430SOL     OW30925   2.492   0.337   3.439 -0.7496  0.7475 -0.5701
 6430SOL    HW130926   2.546   0.382   3.503 -1.0005  0.1380  0.0795
 6430SOL    HW230927   2.408   0.352   3.482 -0.2750  0.7939  0.3341
 6431SOL     OW30928   1.692   1.096   2.195 -0.2947 -0.4955 -0.9160
 6431SOL    HW130929   1.697   1.054   2.282  0.6206  2.1417  0.2988
 6431SOL    HW230930   1.750   1.172   2.199  0.8964 -1.3296 -2.4529
 6432SOL     OW30931   2.045   0.905   6.974  0.2249  0.1436  0.6199
 6432SOL    HW130932   2.039   0.996   7.005 -1.2034  0.8158 -1.6418
 6432SOL    HW230933   2.103   0.911   6.898  2.3094 -1.0704  2.1205
 6433SOL     OW30934   2.174   0.309   8.216  0.5904  0.3108 -0.9497
 6433SOL    HW130935   2.140   0.372   8.280  0.9739 -0.3129 -0.1345
 6433SOL    HW230936   2.111   0.321   8.145 -0.1432  0.6395 -0.2461
 6434SOL     OW30937   0.115   3.643   5.403  0.4968 -0.7170 -0.0447
 6434SOL    HW130938   0.066   3.651   5.321  1.7736 -0.3189 -0.7736
 6434SOL    HW230939   0.179   3.714   5.396 -1.4734  1.2676  1.8916
 6435SOL     OW30940   0.201   1.010   2.911 -0.0995  0.2820  0.5693
 6435SOL    HW130941   0.126   0.956   2.939  1.3977 -0.8005  2.5304
 6435SOL    HW230942   0.178   1.099   2.937  0.3495  1.0674 -1.7581
 6436SOL     OW30943   2.105   4.048  10.532 -0.2268 -0.6108  0.0916
 6436SOL    HW130944   2.133   4.088  10.450 -2.1827 -1.6605 -1.0845
 6436SOL    HW230945   2.043   3.981  10.504  1.1384 -0.8628 -2.2723
 6437SOL     OW30946   0.335   4.042   5.657 -0.3759  0.3916 -0.0729
 6437SOL    HW130947   0.331   3.972   5.721  2.3542  0.0784 -0.2116
 6437SOL    HW230948   0.430   4.050   5.649 -0.1703 -1.8223  0.1845
 6438SOL     OW30949   4.251   2.633   9.505  0.1333 -0.2680  0.2032
 6438SOL    HW130950   4.195   2.636   9.428  1.1636  2.7309 -0.4028
 6438SOL    HW230951   4.339   2.652   9.472 -0.8070 -0.9226 -2.6631
 6439SOL     OW30952   3.091   3.772   0.209 -0.4699 -0.6314  0.1476
 6439SOL    HW130953   3.042   3.792   0.288  1.9684 -0.9175  1.7583
 6439SOL    HW230954   3.179   3.810   0.222  0.1483 -2.3451  0.9665
 6440SOL     OW30955   1.308   0.031   8.312  0.3214 -0.0108  0.2056
 6440SOL    HW130956   1.282   4.692   8.362  0.8725  0.1360  0.7175
 6440SOL    HW230957   1.229   0.064   8.268  1.7683  0.7593 -1.8629
 6441SOL     OW30958   0.788   1.328   5.158 -0.3924 -0.2094 -0.8199
 6441SOL    HW130959   0.748   1.339   5.071 -0.1742  0.1585 -0.8744
 6441SOL    HW230960   0.879   1.336   5.130  0.1773  1.1677  1.4373
 6442SOL     OW30961   1.426   0.536   9.652  0.0726  0.3981  0.3711
 6442SOL    HW130962   1.421   0.471   9.582  0.4773  1.1752 -0.3927
 6442SOL    HW230963   1.408   0.483   9.729  0.4539  0.8590  0.7771
 6443SOL     OW30964   1.862   2.550   6.184 -0.1596 -0.0226  0.1482
 6443SOL    HW130965   1.810   2.529   6.262 -3.6541  0.4693 -2.0761
 6443SOL    HW230966   1.955   2.548   6.208 -0.2989 -1.8848  0.5240
 6444SOL     OW30967   3.692   1.695   6.631  0.2187  0.8323  0.1547
 6444SOL    HW130968   3.733   1.674   6.548 -2.2208  0.1551 -0.8656
 6444SOL    HW230969   3.744   1.770   6.660 -0.5067  1.5043 -0.2598
 6445SOL     OW30970   3.592   3.166  17.124  0.3178  0.1388  0.1862
 6445SOL    HW130971   3.636   3.123  17.197  2.8609 -0.0242 -1.4596
 6445SOL    HW230972   3.572   3.255  17.155 -2.5928 -0.6278  0.4927
 6446SOL     OW30973   0.135   3.803   4.187  0.6702 -0.0783  0.0160
 6446SOL    HW130974   0.065   3.808   4.252 -0.7226  2.1036 -1.6286
 6446SOL    HW230975   0.161   3.895   4.192 -1.9039  0.6066  0.8959
 6447SOL     OW30976   1.930   1.596  11.408  0.4219 -0.5753  0.6442
 6447SOL    HW130977   1.989   1.540  11.458 -0.3361 -1.9029  0.0909
 6447SOL    HW230978   1.884   1.633  11.483 -0.0690 -1.9140  1.0139
 6448SOL     OW30979   3.707   2.947   4.510  0.1890  0.0750  0.7933
 6448SOL    HW130980   3.621   2.952   4.467  0.4644 -1.7019  0.0586
 6448SOL    HW230981   3.687   2.932   4.603 -0.2368  0.9409  0.8480
 6449SOL     OW30982   1.185   1.918   5.774  0.0084 -0.1418 -0.0349
 6449SOL    HW130983   1.278   1.916   5.751  0.4549  1.1807  1.6821
 6449SOL    HW230984   1.200   1.868   5.854 -2.1831  1.0077  1.0851
 6450SOL     OW30985   3.850   0.963   2.384 -0.1256 -0.2669  0.0473
 6450SOL    HW130986   3.920   1.021   2.414 -1.4152  0.9711  0.7115
 6450SOL    HW230987   3.806   0.936   2.465  1.1778  0.0383  0.8614
 6451SOL     OW30988   4.454   2.406   8.550  0.1551  0.5397  0.0835
 6451SOL    HW130989   4.415   2.421   8.636 -0.5186  2.4180 -0.5423
 6451SOL    HW230990   4.376   2.386   8.498  0.8769 -1.9465 -0.0436
 6452SOL     OW30991   4.396   4.588   2.037  0.2171  0.1617 -0.2265
 6452SOL    HW130992   4.441   4.657   2.086  1.3365 -0.6504 -0.1181
 6452SOL    HW230993   4.403   4.516   2.099  1.7464  0.0096 -0.5862
 6453SOL     OW30994   2.751   4.684  14.983  0.0044  0.2295  0.1980
 6453SOL    HW130995   2.821   4.734  15.024  1.2193 -0.5949 -0.8812
 6453SOL    HW230996   2.722   0.008  14.916  0.1008 -1.8315 -1.7411
 6454SOL     OW30997   4.669   3.816   7.862 -0.2040 -0.5751  0.0341
 6454SOL    HW130998   4.595   3.862   7.822  1.1997  1.8045  0.1841
 6454SOL    HW230999   0.009   3.868   7.846 -2.6124  1.6961 -4.1832
 6455SOL     OW31000   3.147   2.930   5.209 -0.0351  0.3825 -0.8072
 6455SOL    HW131001   3.083   2.864   5.181 -0.5435  0.3912  0.3031
 6455SOL    HW231002   3.179   2.968   5.128 -0.7007 -0.9631 -1.7062
 6456SOL     OW31003   3.490   3.443   6.773  0.1506  0.3504 -0.3105
 6456SOL    HW131004   3.459   3.359   6.741 -1.9126  0.5058  1.2830
 6456SOL    HW231005   3.559   3.460   6.709 -2.1936 -1.1810 -3.2153
 6457SOL     OW31006   0.715   4.179  16.058  0.5100 -0.0608 -0.0844
 6457SOL    HW131007   0.805   4.175  16.028  0.9141 -1.8404  1.3842
 6457SOL    HW231008   0.667   4.102  16.026  0.0445  0.5417 -0.8377
 6458SOL     OW31009   1.032   1.400  13.897  0.4543  0.4361 -0.3816
 6458SOL    HW131010   1.048   1.314  13.937 -5.6711 -1.0928 -1.1725
 6458SOL    HW231011   1.061   1.386  13.807  0.5746 -0.3994 -0.2180
 6459SOL     OW31012   2.675   3.969   4.083  0.1408  0.0177  0.0454
 6459SOL    HW131013   2.708   3.971   4.173  1.2353  1.4406 -0.3782
 6459SOL    HW231014   2.704   4.052   4.044  1.4458 -0.7163 -0.5578
 6460SOL     OW31015   1.478   0.406   9.156 -0.1239 -0.3366 -0.6785
 6460SOL    HW131016   1.573   0.414   9.140  0.3259 -0.4695  1.9795
 6460SOL    HW231017   1.467   0.484   9.210  1.7905 -0.5629  0.0311
 6461SOL     OW31018   2.002   1.581   0.311 -0.1711  0.8788  0.0294
 6461SOL    HW131019   2.072   1.535   0.358 -0.0115  1.5250  0.4243
 6461SOL    HW231020   1.961   1.515   0.256 -1.9411  0.3612  1.9598
 6462SOL     OW31021   0.511   2.528   3.522 -0.5980 -0.1998 -0.1225
 6462SOL    HW131022   0.462   2.604   3.491 -0.4362 -0.0588 -0.0372
 6462SOL    HW231023   0.591   2.525   3.468 -0.9425 -1.0978 -0.5841
 6463SOL     OW31024   3.482   0.169   3.931  0.0372  0.8088 -0.1147
 6463SOL    HW131025   3.541   0.098   3.907 -1.2221  0.1437 -1.2540
 6463SOL    HW231026   3.528   0.248   3.902  0.8314  0.1419 -0.6737
 6464SOL     OW31027   1.878   1.114   3.374 -0.0019 -0.1987 -0.0883
 6464SOL    HW131028   1.959   1.098   3.325  0.9467  0.0511  1.3899
 6464SOL    HW231029   1.894   1.058   3.450 -0.2365 -3.1763 -2.2499
 6465SOL     OW31030   0.406   1.641   9.298  0.6299 -0.0053  0.3824
 6465SOL    HW131031   0.379   1.549   9.297 -2.0361  0.7979 -2.0405
 6465SOL    HW231032   0.457   1.646   9.379  1.3664  1.3752 -0.1827
 6466SOL     OW31033   2.071   1.902   6.712  0.4583  0.0514 -0.0828
 6466SOL    HW131034   2.101   1.811   6.713  2.7026  0.8261  2.0141
 6466SOL    HW231035   1.975   1.900   6.719  0.4256  0.5369 -0.3676
 6467SOL     OW31036   4.005   0.856   6.471 -0.4357  0.5398  0.0135
 6467SOL    HW131037   3.983   0.762   6.466 -0.3710  0.4813  0.8276
 6467SOL    HW231038   4.072   0.866   6.404 -0.4604 -0.3308 -0.1501
 6468SOL     OW31039   1.881   1.399  10.147  0.0812  0.6194  0.3983
 6468SOL    HW131040   1.890   1.429  10.057  1.7334 -2.6225 -0.4848
 6468SOL    HW231041   1.972   1.372  10.147 -0.4811 -1.2678  1.6036
 6469SOL     OW31042   4.183   3.337  11.611 -0.7375  0.2299 -0.3479
 6469SOL    HW131043   4.187   3.381  11.696  0.4575 -3.3646  1.4912
 6469SOL    HW231044   4.239   3.400  11.565 -0.5631 -0.7429 -1.4629
 6470SOL     OW31045   2.594   3.472   7.359 -0.6007 -0.5035 -0.3795
 6470SOL    HW131046   2.597   3.390   7.309 -0.0835  0.1348 -1.3946
 6470SOL    HW231047   2.499   3.476   7.365 -0.5175 -0.0465  0.5092
 6471SOL     OW31048   2.040   4.134   0.878 -0.2808 -0.0197  0.8913
 6471SOL    HW131049   2.058   4.225   0.857 -0.7390 -0.1072  0.1293
 6471SOL    HW231050   1.988   4.140   0.959  0.7217  1.2950  1.4207
 6472SOL     OW31051   4.173   2.213   6.035 -0.0890 -0.2349  0.2157
 6472SOL    HW131052   4.123   2.282   6.079 -1.8994  0.3947 -2.7928
 6472SOL    HW231053   4.232   2.272   5.989 -0.3764  1.1321  1.5912
 6473SOL     OW31054   1.044   3.214  11.631 -0.0665 -0.0603 -0.6397
 6473SOL    HW131055   0.993   3.197  11.710  1.1344 -3.7781 -0.6714
 6473SOL    HW231056   1.005   3.300  11.615 -1.0644 -0.4957 -0.5770
 6474SOL     OW31057   3.511   1.736  15.366  0.0286 -0.1810 -0.0949
 6474SOL    HW131058   3.587   1.680  15.378  0.2470  0.3133  0.7806
 6474SOL    HW231059   3.455   1.715  15.440 -0.2725  1.4340  0.1543
 6475SOL     OW31060   4.247   1.972   3.983  0.5659  0.4639  0.3657
 6475SOL    HW131061   4.206   1.886   3.987 -1.9979  1.6800  1.1361
 6475SOL    HW231062   4.265   1.978   4.077  0.2396 -1.2990  0.5421
 6476SOL     OW31063   3.873   2.706   7.627 -0.7615 -0.6828 -0.3398
 6476SOL    HW131064   3.830   2.629   7.589 -3.6770  1.0250 -0.5257
 6476SOL    HW231065   3.944   2.725   7.564 -0.1244  0.0443  0.6040
 6477SOL     OW31066   3.043   4.581   4.983  0.1291  0.2737 -0.3577
 6477SOL    HW131067   3.029   4.658   4.928 -2.9896  0.5020  0.7887
 6477SOL    HW231068   2.960   4.541   4.959  0.4453 -0.2702 -0.5500
 6478SOL     OW31069   1.819   1.615   3.471 -0.3188 -0.1803 -0.2976
 6478SOL    HW131070   1.909   1.635   3.495 -0.9703  1.1218  1.0787
 6478SOL    HW231071   1.777   1.625   3.556  0.1423  0.2907 -0.1280
 6479SOL     OW31072   2.796   4.340   9.390 -0.3262  0.2539 -0.2404
 6479SOL    HW131073   2.827   4.285   9.318  1.7445 -1.0048  1.6190
 6479SOL    HW231074   2.878   4.384   9.412  0.0920 -0.0644 -1.1539
 6480SOL     OW31075   3.082   3.066   0.655  0.0764  0.7285 -0.0726
 6480SOL    HW131076   3.000   3.065   0.604  0.4333 -0.7992 -0.6003
 6480SOL    HW231077   3.142   3.083   0.582 -1.1909  0.0938 -1.2745
 6481SOL     OW31078   4.490   1.394  13.912 -0.2688  1.3760  0.3489
 6481SOL    HW131079   4.448   1.343  13.842  2.8824 -0.0596 -0.4977
 6481SOL    HW231080   4.445   1.478  13.907 -0.2327  1.4484  1.3979
 6482SOL     OW31081   1.398   0.604   1.795 -0.1059 -0.3862  0.0148
 6482SOL    HW131082   1.475   0.555   1.824  1.8905  2.3484 -0.6317
 6482SOL    HW231083   1.402   0.599   1.699 -4.3478 -1.0916 -0.1374
 6483SOL     OW31084   3.167   2.579   1.580  0.1637 -0.2837 -0.3927
 6483SOL    HW131085   3.112   2.506   1.610  0.1518 -0.8999 -1.9159
 6483SOL    HW231086   3.116   2.612   1.507 -0.1887  1.0448  0.4487
 6484SOL     OW31087   0.309   4.463   7.914 -0.2269 -0.2492  0.3602
 6484SOL    HW131088   0.241   4.498   7.856 -0.4710 -0.3321  0.5969
 6484SOL    HW231089   0.379   4.430   7.859 -0.7102 -0.6989  0.0182
 6485SOL     OW31090   2.213   1.585  14.327  0.1868 -0.0598  0.1774
 6485SOL    HW131091   2.135   1.634  14.353  0.6009 -1.0732  3.3568
 6485SOL    HW231092   2.221   1.508  14.384  3.5541 -1.8135 -2.6116
 6486SOL     OW31093   3.919   3.361   9.670  0.0875 -0.1721 -0.3840
 6486SOL    HW131094   3.947   3.403   9.589  0.8538  0.5778  0.2662
 6486SOL    HW231095   4.003   3.347   9.714 -0.9354  2.9375  2.6106
 6487SOL     OW31096   4.485   2.864   4.639 -0.2255 -0.1517  0.2217
 6487SOL    HW131097   4.545   2.874   4.565 -0.4281  2.3495  0.3794
 6487SOL    HW231098   4.432   2.796   4.599  1.2518 -0.6434 -0.9165
 6488SOL     OW31099   0.212   2.909   2.568 -0.1444 -0.1236  0.0595
 6488SOL    HW131100   0.182   2.864   2.490 -1.2756 -0.0833  0.4678
 6488SOL    HW231101   0.307   2.905   2.559 -0.2384  2.6591 -2.3254
 6489SOL     OW31102   2.686   1.622   9.480 -0.2621 -0.5612  0.4133
 6489SOL    HW131103   2.713   1.675   9.405 -1.3456  0.1397  0.5092
 6489SOL    HW231104   2.631   1.560   9.432  1.7151 -1.8324 -0.2204
 6490SOL     OW31105   0.696   1.095  15.217 -0.1725  0.6493 -0.7220
 6490SOL    HW131106   0.721   1.182  15.250  0.6257  0.8604 -1.8816
 6490SOL    HW231107   0.600   1.096  15.209 -0.1627  0.0679 -0.8599
 6491SOL     OW31108   1.221   0.635  14.050 -0.3391  0.0278 -0.2954
 6491SOL    HW131109   1.281   0.574  14.006 -2.1805 -1.4939 -0.6924
 6491SOL    HW231110   1.182   0.683  13.976 -1.7314  0.8064  0.9489
 6492SOL     OW31111   0.444   0.433   7.471  0.2134 -0.0289  0.6163
 6492SOL    HW131112   0.413   0.523   7.457 -0.3833 -0.1862  0.9548
 6492SOL    HW231113   0.391   0.404   7.546  0.3343 -2.2130 -0.1553
 6493SOL     OW31114   2.486   0.081   9.033 -0.2386  0.0462  0.3880
 6493SOL    HW131115   2.549   0.030   8.982  0.2818 -0.8197  1.8961
 6493SOL    HW231116   2.497   0.034   9.116  1.6384  0.3939  0.3385
 6494SOL     OW31117   2.262   3.510   3.848  0.3909 -0.0688  0.6328
 6494SOL    HW131118   2.285   3.548   3.763  2.1061 -1.0086  0.6727
 6494SOL    HW231119   2.322   3.546   3.913  1.2715 -0.4568  0.0344
 6495SOL     OW31120   2.466   0.289   2.326 -0.2727 -0.3104 -0.3489
 6495SOL    HW131121   2.466   0.290   2.421 -0.4894 -2.2321 -0.3338
 6495SOL    HW231122   2.459   0.195   2.309 -3.7236 -0.0652 -0.3030
 6496SOL     OW31123   1.885   3.014   3.333 -0.2891 -0.2268 -0.3457
 6496SOL    HW131124   1.821   3.079   3.303  0.9979  1.1631 -0.0466
 6496SOL    HW231125   1.827   2.950   3.375 -0.5101  0.1199 -0.1161
 6497SOL     OW31126   1.711   0.903   0.244  0.0272 -0.3767 -0.2206
 6497SOL    HW131127   1.700   0.808   0.236  1.1484 -0.5374  0.2212
 6497SOL    HW231128   1.706   0.915   0.149  2.0295  0.7574 -0.1659
 6498SOL     OW31129   4.714   1.442  11.532  0.5551  0.4362 -0.0063
 6498SOL    HW131130   0.009   1.424  11.619 -1.9691 -0.3046  0.8205
 6498SOL    HW231131   4.621   1.433  11.554  1.0020  1.1569  2.1802
 6499SOL     OW31132   0.409   1.773   4.930  0.0247  0.4177 -0.1559
 6499SOL    HW131133   0.451   1.855   4.903  1.4995  0.3751  2.0017
 6499SOL    HW231134   0.367   1.740   4.851 -0.8414  0.5785  0.2386
 6500SOL     OW31135   4.323   3.078   6.218  0.2463 -0.3721 -0.5306
 6500SOL    HW131136   4.246   3.046   6.265  0.3119  0.3939  0.0904
 6500SOL    HW231137   4.315   3.017   6.144  0.3718 -0.4338 -0.4932
 6501SOL     OW31138   3.969   0.595  11.325  0.5898  0.0774 -0.2079
 6501SOL    HW131139   4.034   0.649  11.369 -0.2200  1.3518 -0.5796
 6501SOL    HW231140   3.897   0.657  11.312  1.5043  1.0225 -0.6904
 6502SOL     OW31141   0.966   1.220   1.464 -0.1537 -0.0637  0.5546
 6502SOL    HW131142   1.026   1.186   1.398 -1.8236  0.8699 -1.4253
 6502SOL    HW231143   0.967   1.314   1.452 -0.1426  0.1997  2.5245
 6503SOL     OW31144   2.657   2.161   6.833  0.2573  0.2193 -0.2262
 6503SOL    HW131145   2.721   2.192   6.897  1.9207 -1.6097 -0.9800
 6503SOL    HW231146   2.579   2.204   6.867  1.4667 -1.2584  4.4521
 6504SOL     OW31147   1.416   0.086  10.937  0.0555 -0.3138 -0.1840
 6504SOL    HW131148   1.489   0.120  10.885 -0.0551 -0.1803 -0.2536
 6504SOL    HW231149   1.350   0.071  10.868  0.4323 -2.2675 -0.1058
 6505SOL     OW31150   2.313   2.793   7.003 -0.1228  0.1279  0.6660
 6505SOL    HW131151   2.393   2.762   6.960 -0.8990 -0.9705  0.0131
 6505SOL    HW231152   2.266   2.710   7.009  1.3632 -0.8726 -1.5384
 6506SOL     OW31153   1.480   0.627   7.612 -0.0121 -0.4939 -0.1484
 6506SOL    HW131154   1.481   0.532   7.625 -2.5193 -0.2671  1.7367
 6506SOL    HW231155   1.450   0.652   7.699 -1.2218 -0.5786 -0.5440
 6507SOL     OW31156   1.563   4.272   5.557 -0.0643 -0.5443  0.0171
 6507SOL    HW131157   1.516   4.318   5.627  2.5307  0.8270  0.8650
 6507SOL    HW231158   1.504   4.299   5.486 -1.1546 -0.6349  0.8931
 6508SOL     OW31159   1.607   1.228   0.921 -0.2504  0.3915  0.2225
 6508SOL    HW131160   1.678   1.266   0.870 -1.8637  2.8763 -0.1522
 6508SOL    HW231161   1.590   1.301   0.980  0.3770  0.2867  0.5380
 6509SOL     OW31162   2.333   3.914   8.868  0.4648 -0.5185  0.1151
 6509SOL    HW131163   2.426   3.938   8.874  0.2742  0.8505 -2.9043
 6509SOL    HW231164   2.319   3.871   8.953 -1.4453 -2.8446 -1.3710
 6510SOL     OW31165   3.063   2.985   9.013 -0.5357  0.4006 -0.3650
 6510SOL    HW131166   3.024   2.989   8.926 -2.2186  0.2979  0.3807
 6510SOL    HW231167   3.136   3.047   9.010 -0.6801  0.5028 -1.8395
 6511SOL     OW31168   3.640   2.591   9.576 -0.1534 -0.4306 -0.7875
 6511SOL    HW131169   3.605   2.502   9.565 -1.1587 -0.3675  1.8917
 6511SOL    HW231170   3.630   2.611   9.669 -1.4267 -1.4730 -0.7067
 6512SOL     OW31171   1.389   1.501   2.158 -0.7006 -0.1084  0.0843
 6512SOL    HW131172   1.402   1.510   2.064 -0.2955  0.5794  0.2080
 6512SOL    HW231173   1.294   1.486   2.157 -0.5105 -1.4953  1.9009
 6513SOL     OW31174   0.676   4.363   8.291  0.3597 -0.1857  0.1851
 6513SOL    HW131175   0.694   4.447   8.333 -1.5620 -0.5214  1.7293
 6513SOL    HW231176   0.680   4.307   8.369 -1.2991  0.1076  0.4813
 6514SOL     OW31177   2.778   0.028   9.442  0.4268 -0.1311 -0.3458
 6514SOL    HW131178   2.873   0.037   9.433  0.3907  1.6293  1.0176
 6514SOL    HW231179   2.751   4.710   9.370  1.6640 -0.4781 -0.5450
 6515SOL     OW31180   1.783   2.023   5.904 -0.1118  0.1942  0.5283
 6515SOL    HW131181   1.842   2.074   5.959 -1.5795  1.6467  0.7713
 6515SOL    HW231182   1.764   2.090   5.838  1.5100 -0.0216 -0.1493
 6516SOL     OW31183   4.496   0.290   8.917  0.2798  0.7800  0.4279
 6516SOL    HW131184   4.582   0.316   8.948  0.0035  1.0378  0.9823
 6516SOL    HW231185   4.439   0.346   8.969 -2.1819 -1.3878  0.1077
 6517SOL     OW31186   2.528   0.496   7.514 -0.4500 -0.3489 -0.4722
 6517SOL    HW131187   2.534   0.574   7.459 -0.9006 -1.2966 -1.8370
 6517SOL    HW231188   2.465   0.444   7.464 -0.8586 -2.4414  2.2069
 6518SOL     OW31189   3.579   2.299   8.145  0.0105  0.1399 -0.1491
 6518SOL    HW131190   3.501   2.350   8.168  0.6194  1.8084 -1.7453
 6518SOL    HW231191   3.550   2.214   8.178  1.5546 -0.6305 -0.7703
 6519SOL     OW31192   2.428   1.075  12.487 -0.3475  0.0017  0.6627
 6519SOL    HW131193   2.355   1.014  12.500 -0.4262 -1.0346 -4.6666
 6519SOL    HW231194   2.471   1.075  12.573  0.9949 -0.2529 -0.0151
 6520SOL     OW31195   0.395   1.892   6.788 -0.9099  0.3350  0.1211
 6520SOL    HW131196   0.455   1.843   6.731 -0.4505  2.9991 -1.6831
 6520SOL    HW231197   0.453   1.904   6.863 -0.1648 -2.0571 -0.0750
 6521SOL     OW31198   1.563   4.245   8.881  0.3638  0.5424 -0.4648
 6521SOL    HW131199   1.587   4.215   8.793  1.3973 -0.3037  0.1071
 6521SOL    HW231200   1.490   4.296   8.844  0.9106  0.7490 -1.2586
 6522SOL     OW31201   0.558   1.411   3.325  0.0431  0.1385  0.0606
 6522SOL    HW131202   0.469   1.433   3.351 -0.0400  0.4645 -0.4796
 6522SOL    HW231203   0.554   1.450   3.237  0.9918 -0.1758 -0.1202
 6523SOL     OW31204   0.799   0.207   2.061 -0.3694  0.3493 -0.6981
 6523SOL    HW131205   0.787   0.257   1.981  1.4361  0.2075 -1.0699
 6523SOL    HW231206   0.865   0.264   2.101  0.3360 -2.0160  1.6029
 6524SOL     OW31207   4.009   1.538   5.564 -0.1515 -0.2821 -0.2366
 6524SOL    HW131208   4.005   1.617   5.509  0.9645 -0.4312 -0.5232
 6524SOL    HW231209   3.923   1.552   5.604 -0.0590  2.8512 -1.0811
 6525SOL     OW31210   2.660   4.670   3.234 -0.0370  0.2245 -0.0234
 6525SOL    HW131211   2.700   4.654   3.149 -1.3220 -0.1525 -0.5530
 6525SOL    HW231212   2.711   0.006   3.266  1.5804 -0.3795 -1.1945
 6526SOL     OW31213   2.407   3.936  16.902 -0.5270 -0.1958  0.2422
 6526SOL    HW131214   2.408   4.007  16.837  0.2311  1.0117  1.5763
 6526SOL    HW231215   2.465   3.973  16.969  2.0187 -1.4478 -1.2649
 6527SOL     OW31216   2.418   4.362  15.798 -1.1135 -0.4880 -0.0370
 6527SOL    HW131217   2.492   4.394  15.747 -1.8461 -1.0341 -1.4332
 6527SOL    HW231218   2.439   4.269  15.807  0.9447  0.0200  0.4776
 6528SOL     OW31219   2.227   1.078   2.969 -0.8396 -0.1356 -0.3673
 6528SOL    HW131220   2.142   1.077   2.925 -1.4277 -1.1474  0.8042
 6528SOL    HW231221   2.248   0.989   2.997 -2.1442 -1.0385 -2.3303
 6529SOL     OW31222   4.060   1.368   8.051  0.5127 -0.1505  0.2479
 6529SOL    HW131223   3.970   1.355   8.021 -0.1097  3.8329  0.4967
 6529SOL    HW231224   4.112   1.406   7.980  0.6317 -0.5552  0.1156
 6530SOL     OW31225   0.491   1.829   8.511 -0.0491  0.2091  0.4278
 6530SOL    HW131226   0.535   1.774   8.446 -0.4078  0.1183  0.2672
 6530SOL    HW231227   0.411   1.781   8.531 -0.8384  2.4237  2.6080
 6531SOL     OW31228   0.022   4.651   3.407  0.1244  0.3172 -0.5331
 6531SOL    HW131229   4.672   4.616   3.420  0.3155 -0.1987 -0.6176
 6531SOL    HW231230   0.023   4.650   3.311  1.8089  0.5621 -0.5124
 6532SOL     OW31231   1.817   1.534  16.552  0.2209 -0.1566  0.3857
 6532SOL    HW131232   1.784   1.623  16.537  1.0748 -0.2484 -2.1163
 6532SOL    HW231233   1.897   1.559  16.597  0.3198  1.8288 -0.8891
 6533SOL     OW31234   1.120   3.335   8.893 -0.0765 -0.5865  0.3813
 6533SOL    HW131235   1.042   3.353   8.840 -0.3508  1.0008  1.3150
 6533SOL    HW231236   1.093   3.254   8.936 -0.3062 -0.5522  0.3000
 6534SOL     OW31237   0.857   4.630   5.403 -0.2542  0.0480  0.2162
 6534SOL    HW131238   0.891   4.619   5.492  1.9528 -2.2684 -0.8937
 6534SOL    HW231239   0.927   4.622   5.338  0.0734 -0.2948  0.6029
 6535SOL     OW31240   0.450   3.835   5.372 -0.0412  0.2823  0.5443
 6535SOL    HW131241   0.402   3.861   5.293  2.5561  0.9372 -0.7990
 6535SOL    HW231242   0.381   3.827   5.438  0.0031 -0.1601  0.5364
 6536SOL     OW31243   4.360   3.885   8.611  0.3154 -0.7497 -0.4408
 6536SOL    HW131244   4.422   3.825   8.570  1.2930 -0.7773  1.0901
 6536SOL    HW231245   4.344   3.844   8.696  0.1640 -1.2404 -0.7051
 6537SOL     OW31246   1.634   2.594  11.111  0.1639  0.3489  0.1273
 6537SOL    HW131247   1.572   2.533  11.070  1.4905 -2.6437  2.5921
 6537SOL    HW231248   1.670   2.621  11.027 -0.6319  0.1329 -0.2902
 6538SOL     OW31249   4.377   3.495  11.492 -0.0713  0.5480 -0.1487
 6538SOL    HW131250   4.328   3.576  11.479  1.4602  1.4618 -0.2421
 6538SOL    HW231251   4.459   3.511  11.446  0.6719 -0.7126  0.7131
 6539SOL     OW31252   1.380   2.833   2.316  0.0891 -0.4940  0.8487
 6539SOL    HW131253   1.301   2.826   2.370  0.0566 -0.8121  0.7586
 6539SOL    HW231254   1.377   2.741   2.291 -1.6812 -0.0615 -0.5176
 6540SOL     OW31255   4.687   2.872   1.727  0.1006 -0.1673 -0.0849
 6540SOL    HW131256   0.005   2.912   1.793  1.1787  0.4206 -1.3636
 6540SOL    HW231257   4.724   2.786   1.710  0.6620 -0.1616  1.0768
 6541SOL     OW31258   0.877   0.563  14.487 -0.1735  0.1975 -0.1302
 6541SOL    HW131259   0.785   0.537  14.483 -0.1456  0.2906 -1.2346
 6541SOL    HW231260   0.921   0.500  14.430  1.2713 -0.6185  1.8574
 6542SOL     OW31261   4.015   4.373  14.773 -0.9254 -0.5429  0.0741
 6542SOL    HW131262   4.018   4.387  14.868  0.7815 -0.0014 -0.0578
 6542SOL    HW231263   4.013   4.463  14.741 -0.4250 -0.2391  0.9059
 6543SOL     OW31264   3.722   1.998   6.139  0.2331  0.1762 -0.0048
 6543SOL    HW131265   3.657   1.976   6.206 -0.4130  0.0334 -0.6745
 6543SOL    HW231266   3.801   2.025   6.185  1.2089 -0.3379 -1.3559
 6544SOL     OW31267   4.472   3.815   4.821  0.6928  0.1775 -0.3200
 6544SOL    HW131268   4.407   3.782   4.759 -0.2714  3.4784 -1.0541
 6544SOL    HW231269   4.419   3.820   4.901  0.1570  0.8226 -0.7196
 6545SOL     OW31270   1.952   1.118   1.597  0.6865 -0.7242 -0.0417
 6545SOL    HW131271   1.889   1.088   1.532  1.3270 -1.0813 -0.4925
 6545SOL    HW231272   2.035   1.137   1.552 -0.2544  1.7220 -0.6910
 6546SOL     OW31273   4.661   1.791   3.897 -0.1880 -0.0623  0.1541
 6546SOL    HW131274   4.579   1.770   3.852 -0.0278 -1.2873  0.4342
 6546SOL    HW231275   4.631   1.861   3.955  1.2088  0.5372  0.1334
 6547SOL     OW31276   2.845   4.031  13.754  0.2122 -0.2335  0.5297
 6547SOL    HW131277   2.828   3.937  13.747 -1.0897  0.0360  0.1005
 6547SOL    HW231278   2.902   4.028  13.831  0.7519 -0.0986  0.1364
 6548SOL     OW31279   4.404   4.574   1.006  0.0580  0.3640  0.1965
 6548SOL    HW131280   4.476   4.628   0.973  0.4632 -0.4396 -0.2161
 6548SOL    HW231281   4.442   4.540   1.087 -1.0450  0.4080  0.7384
 6549SOL     OW31282   0.699   1.548   2.660 -0.0634 -0.1803  0.2216
 6549SOL    HW131283   0.709   1.506   2.574  0.6725 -0.5932  0.5072
 6549SOL    HW231284   0.662   1.629   2.625  0.1251 -0.4845 -0.7093
 6550SOL     OW31285   1.824   1.240   6.946  0.6640 -0.5054  0.5220
 6550SOL    HW131286   1.772   1.162   6.965 -0.9582  0.8589  1.6838
 6550SOL    HW231287   1.767   1.298   6.896  2.4906  0.0763 -0.8716
 6551SOL     OW31288   0.156   3.975   7.846  0.1196  0.3125 -0.3551
 6551SOL    HW131289   0.182   3.936   7.930  1.4359 -0.4307 -1.0995
 6551SOL    HW231290   0.134   4.064   7.873  0.9384 -0.1325  1.8420
 6552SOL     OW31291   1.130   3.964   0.243  0.0711 -0.1827  0.3232
 6552SOL    HW131292   1.202   3.932   0.189 -0.5891  0.0756 -0.7123
 6552SOL    HW231293   1.094   3.876   0.255 -1.2053  0.2234 -0.4732
 6553SOL     OW31294   2.537   0.701   3.371  0.1210 -0.0571  0.2356
 6553SOL    HW131295   2.498   0.639   3.310  1.5685  1.2741 -2.0401
 6553SOL    HW231296   2.628   0.672   3.358  0.9993  2.2257  1.3001
 6554SOL     OW31297   3.454   4.721   4.708  0.4230 -0.0782 -0.3120
 6554SOL    HW131298   3.362   4.730   4.684  0.8791  0.4232 -1.9319
 6554SOL    HW231299   3.456   4.646   4.767  1.1494 -0.3642 -0.6990
 6555SOL     OW31300   0.789   3.061  12.623  0.0388 -0.3719  0.3487
 6555SOL    HW131301   0.883   3.044  12.618  0.1392  0.3052 -0.0913
 6555SOL    HW231302   0.768   3.065  12.530  1.9574  1.8019  0.0082
 6556SOL     OW31303   3.039   3.753   7.235 -0.3874  0.3978 -0.1799
 6556SOL    HW131304   3.050   3.753   7.140  0.9154  1.1211 -0.0265
 6556SOL    HW231305   3.068   3.840   7.262 -0.6373  0.3620  0.2034
 6557SOL     OW31306   4.619   3.912  15.946 -0.0524 -0.0699  0.3514
 6557SOL    HW131307   4.597   4.004  15.930 -1.7018 -0.4267  0.6201
 6557SOL    HW231308   4.539   3.862  15.932  0.2583 -0.9012  1.5732
 6558SOL     OW31309   2.288   3.632   4.576 -0.6432 -0.0319  0.2562
 6558SOL    HW131310   2.287   3.690   4.652  1.0943  1.6406 -1.0115
 6558SOL    HW231311   2.196   3.604   4.583 -0.8974  0.1995 -1.9493
 6559SOL     OW31312   1.849   1.762  13.127  0.1492 -0.0582 -0.6163
 6559SOL    HW131313   1.821   1.826  13.062 -2.3889  0.1111  0.6180
 6559SOL    HW231314   1.920   1.811  13.168  0.6464 -1.7132  0.5489
 6560SOL     OW31315   2.432   3.573   4.075  0.0417 -0.2427 -0.2224
 6560SOL    HW131316   2.512   3.614   4.043  0.3050 -1.5870 -1.2712
 6560SOL    HW231317   2.462   3.484   4.093 -0.5179 -0.0527  1.6202
 6561SOL     OW31318   4.581   0.126  14.412 -0.1879  0.1392 -0.3092
 6561SOL    HW131319   4.590   0.221  14.415  0.1676  0.1324 -1.1516
 6561SOL    HW231320   4.555   0.097  14.499  3.2709  0.8283  0.9609
 6562SOL     OW31321   0.489   2.548   6.025  0.5763  0.0650 -0.3265
 6562SOL    HW131322   0.416   2.545   5.963 -1.1374  1.0557  1.6278
 6562SOL    HW231323   0.447   2.544   6.111  3.8495 -3.1215  1.1322
 6563SOL     OW31324   2.389   1.069   3.665 -0.5893 -0.4128 -0.1129
 6563SOL    HW131325   2.349   1.151   3.694  2.8091  0.2189  2.8058
 6563SOL    HW231326   2.378   1.006   3.736 -0.2571 -4.1581 -3.4410
 6564SOL     OW31327   4.060   0.380   6.296 -0.1060 -0.4677 -0.1347
 6564SOL    HW131328   4.064   0.474   6.315  0.6259 -0.9374  2.0730
 6564SOL    HW231329   4.009   0.368   6.216  2.0750 -0.2750 -1.5832
 6565SOL     OW31330   4.448   3.429   4.732  0.0856 -0.7816  0.4541
 6565SOL    HW131331   4.529   3.379   4.728 -0.2510 -1.3278  0.4884
 6565SOL    HW231332   4.452   3.498   4.666 -2.3602 -1.5812 -0.5276
 6566SOL     OW31333   0.146   1.044   8.782 -0.1076 -0.4792 -0.6370
 6566SOL    HW131334   0.121   1.036   8.874 -0.6068  1.6753 -0.5833
 6566SOL    HW231335   0.078   1.091   8.733  1.4478  0.5068 -1.8283
 6567SOL     OW31336   2.772   1.097  13.630  0.1349  0.2980  0.1508
 6567SOL    HW131337   2.803   1.183  13.658  1.5872 -0.2290  0.1461
 6567SOL    HW231338   2.856   1.058  13.608  0.6363  2.0743 -1.0686
 6568SOL     OW31339   2.402   2.036  11.573 -0.7888 -0.7011  0.5303
 6568SOL    HW131340   2.381   2.082  11.654 -1.5273  2.2727 -1.3358
 6568SOL    HW231341   2.411   1.944  11.598  0.6199 -0.9225 -0.7328
 6569SOL     OW31342   0.800   4.376   6.614  0.7055 -0.0715  0.0889
 6569SOL    HW131343   0.746   4.345   6.540  0.7906 -1.1427  0.4723
 6569SOL    HW231344   0.729   4.392   6.676  0.4350 -1.0814  0.0427
 6570SOL     OW31345   4.697   2.465   1.220 -0.1712  0.1656 -0.7119
 6570SOL    HW131346   4.682   2.554   1.252  0.5627  0.4521 -1.1497
 6570SOL    HW231347   0.025   2.430   1.280  0.2361  1.8653 -0.1588
 6571SOL     OW31348   1.502   3.861  15.388 -0.4497  0.1092 -0.1698
 6571SOL    HW131349   1.594   3.889  15.389 -0.8178  1.2965  0.6486
 6571SOL    HW231350   1.494   3.810  15.469  2.4463 -0.0009  0.0548
 6572SOL     OW31351   1.652   4.215   9.697 -0.2074 -0.0117  0.5690
 6572SOL    HW131352   1.570   4.264   9.709  0.8639  1.6309  1.1047
 6572SOL    HW231353   1.627   4.176   9.613  1.1239 -2.5153  1.3417
 6573SOL     OW31354   1.712   4.139   9.962 -0.1090 -0.5998  0.1008
 6573SOL    HW131355   1.806   4.156   9.957 -0.1926 -0.5982 -1.4514
 6573SOL    HW231356   1.692   4.169   9.874  0.0047  1.3712  0.7324
 6574SOL     OW31357   2.103   0.437   7.263  0.2408  0.7775  0.6995
 6574SOL    HW131358   2.104   0.494   7.340  0.1402 -0.3021  1.4958
 6574SOL    HW231359   2.186   0.391   7.277  0.4789  0.8108 -0.5567
 6575SOL     OW31360   0.234   0.855  16.992  0.1096 -0.5946 -0.1777
 6575SOL    HW131361   0.183   0.935  16.982  1.5319  0.1371 -1.5438
 6575SOL    HW231362   0.288   0.861  17.071 -0.0921  1.1512 -0.1823
 6576SOL     OW31363   0.708   1.210   8.341 -0.2986  0.1691 -0.4156
 6576SOL    HW131364   0.786   1.175   8.385 -0.3819 -0.5509 -0.8434
 6576SOL    HW231365   0.664   1.264   8.407  0.0384  0.2078 -0.2234
 6577SOL     OW31366   4.260   0.485   6.968  0.6645  0.3898 -0.7186
 6577SOL    HW131367   4.176   0.531   6.980  2.2406  2.6054  1.9447
 6577SOL    HW231368   4.228   0.395   6.962  2.0239  0.0803 -3.1213
 6578SOL     OW31369   4.057   4.452   7.473 -0.3235 -0.1834 -0.2264
 6578SOL    HW131370   3.976   4.499   7.495 -1.4567 -2.6769  0.9574
 6578SOL    HW231371   4.087   4.422   7.558  1.3167 -2.7679 -1.7147
 6579SOL     OW31372   1.548   2.319   0.735  0.0210 -0.1210 -0.2935
 6579SOL    HW131373   1.510   2.235   0.709 -2.4035  0.5970  0.9303
 6579SOL    HW231374   1.571   2.358   0.650  0.8182 -0.3464 -0.1840
 6580SOL     OW31375   3.964   4.157   7.264 -0.1714  0.1830  0.5083
 6580SOL    HW131376   3.869   4.154   7.253 -0.0755  0.5275 -0.3932
 6580SOL    HW231377   3.971   4.162   7.359 -0.7234 -0.1977  0.5617
 6581SOL     OW31378   3.114   1.440   4.081  0.7770 -0.0988  0.1560
 6581SOL    HW131379   3.151   1.525   4.106 -0.2697  0.7219 -1.1186
 6581SOL    HW231380   3.092   1.403   4.166 -2.4682 -0.5573 -0.9067
 6582SOL     OW31381   4.390   1.382   5.523 -0.1072  0.0184 -0.2503
 6582SOL    HW131382   4.312   1.328   5.540 -1.1686  1.2709 -1.1727
 6582SOL    HW231383   4.399   1.432   5.604 -0.2655 -1.6601  0.8074
 6583SOL     OW31384   3.596   3.907   9.552  0.2361  0.0095 -1.3002
 6583SOL    HW131385   3.684   3.879   9.579 -1.3095 -4.1277 -0.6253
 6583SOL    HW231386   3.599   3.880   9.460 -0.6557 -0.3158 -1.2286
 6584SOL     OW31387   3.029   4.007  13.989  0.3568 -0.9407  0.2978
 6584SOL    HW131388   3.111   4.029  14.033 -0.6039  1.8986  0.6592
 6584SOL    HW231389   2.968   4.065  14.034  2.0280  1.0759 -0.0649
 6585SOL     OW31390   2.003   1.168   2.368 -0.4310 -0.4262 -0.1466
 6585SOL    HW131391   1.951   1.089   2.380 -2.9469  1.2457 -0.1053
 6585SOL    HW231392   2.057   1.154   2.446  2.6841  0.6700 -2.0761
 6586SOL     OW31393   1.750   2.694  11.581  0.6975 -0.1304  0.7251
 6586SOL    HW131394   1.728   2.787  11.585  0.5395 -0.2018  1.6851
 6586SOL    HW231395   1.660   2.663  11.575 -0.3781  2.9044  1.2153
 6587SOL     OW31396   0.664   2.394   2.459 -0.5530  0.0305  0.0763
 6587SOL    HW131397   0.694   2.483   2.439 -0.6973  0.1849  0.5460
 6587SOL    HW231398   0.741   2.347   2.492 -0.3721 -0.3417 -0.8507
 6588SOL     OW31399   0.310   2.387   5.763 -0.0945  0.2055  0.7858
 6588SOL    HW131400   0.369   2.449   5.721 -1.3053  0.7828 -0.0614
 6588SOL    HW231401   0.233   2.440   5.740  0.3609  0.5398  0.0378
 6589SOL     OW31402   1.334   0.741   3.449 -0.2032  0.2103  0.0842
 6589SOL    HW131403   1.285   0.815   3.487 -1.3395 -0.0966 -0.7895
 6589SOL    HW231404   1.322   0.679   3.521  1.9870  0.3793  0.5989
 6590SOL     OW31405   0.352   2.521  14.279  0.3613 -0.1755  0.7154
 6590SOL    HW131406   0.438   2.489  14.306  0.7452  0.0476 -0.2347
 6590SOL    HW231407   0.312   2.539  14.364  0.1880  1.5705  0.2814
 6591SOL     OW31408   1.492   4.702   5.902  0.4562  0.0398 -0.5015
 6591SOL    HW131409   1.540   0.028   5.850  0.9157  0.2258  0.1399
 6591SOL    HW231410   1.465   0.016   5.978  1.3707 -0.3865  0.1263
 6592SOL     OW31411   2.779   1.973   2.984  0.3083 -0.0730 -0.0103
 6592SOL    HW131412   2.768   1.891   3.032  1.6503  0.0289  0.4765
 6592SOL    HW231413   2.738   2.032   3.049  0.0918  0.5660 -0.7287
 6593SOL     OW31414   0.421   4.510   4.766  0.2765  0.1741 -0.5512
 6593SOL    HW131415   0.501   4.519   4.714  0.3718  0.9933 -0.2609
 6593SOL    HW231416   0.410   4.605   4.774  1.6158  0.3267 -0.4412
 6594SOL     OW31417   2.392   3.154   6.543 -0.1227 -0.0469  0.0459
 6594SOL    HW131418   2.426   3.162   6.454 -0.4789  3.3957  0.2244
 6594SOL    HW231419   2.297   3.158   6.528 -0.1557  0.5776  0.4235
 6595SOL     OW31420   1.512   1.917   8.389 -0.3453  0.0514  0.5688
 6595SOL    HW131421   1.440   1.975   8.416 -0.9891  0.3197 -1.7385
 6595SOL    HW231422   1.531   1.877   8.474  2.0986 -2.8908 -1.3891
 6596SOL     OW31423   3.467   2.078   8.250  0.4596  0.0697 -0.8310
 6596SOL    HW131424   3.377   2.079   8.215 -0.0126 -0.9895  0.3680
 6596SOL    HW231425   3.456   2.011   8.317  0.3958 -0.5372 -1.4550
 6597SOL     OW31426   3.299   0.985  13.870  0.3298  0.4626  0.0652
 6597SOL    HW131427   3.378   0.934  13.890  0.1456 -1.0441 -3.0738
 6597SOL    HW231428   3.303   0.987  13.775  0.8565 -2.1418  0.0268
 6598SOL     OW31429   1.633   1.671   3.912 -0.2694  0.1914  0.3311
 6598SOL    HW131430   1.646   1.606   3.981  2.3228 -1.3270 -1.5933
 6598SOL    HW231431   1.599   1.614   3.843 -1.7280 -1.6480  2.5676
 6599SOL     OW31432   4.045   1.674   6.528 -0.0214 -0.2736  0.0087
 6599SOL    HW131433   3.967   1.641   6.482  1.0464  0.3621 -2.2576
 6599SOL    HW231434   4.019   1.708   6.613  0.1013 -0.4823  0.1304
 6600SOL     OW31435   4.063   3.132   5.977  0.4659  0.1099 -0.5354
 6600SOL    HW131436   4.109   3.195   5.922  2.0498  2.3289  3.3412
 6600SOL    HW231437   4.136   3.093   6.024  1.0851 -0.2673 -1.8185
 6601SOL     OW31438   4.111   2.410   6.214 -0.4827  0.2071  0.3905
 6601SOL    HW131439   4.190   2.430   6.264  0.8810  2.3861 -2.6194
 6601SOL    HW231440   4.041   2.417   6.278 -1.7464  2.1381 -1.2064
 6602SOL     OW31441   4.096   4.648   9.684  0.6369  0.1389  0.0571
 6602SOL    HW131442   4.057   4.673   9.600 -0.0147 -0.7000  0.1102
 6602SOL    HW231443   4.110   0.001   9.712  1.4717  0.1118 -0.2655
 6603SOL     OW31444   3.548   1.714   8.449  0.3737 -0.4065  0.3070
 6603SOL    HW131445   3.539   1.626   8.484  1.1795 -0.7554 -0.3799
 6603SOL    HW231446   3.519   1.711   8.358 -1.1835 -0.3152  0.8023
 6604SOL     OW31447   3.329   3.887   5.467  0.1098  0.4140 -0.0547
 6604SOL    HW131448   3.316   3.972   5.508 -0.5628 -0.6909  1.9953
 6604SOL    HW231449   3.234   3.876   5.458  0.2159 -1.4410  1.0899
 6605SOL     OW31450   4.437   4.474   6.308 -0.1668 -0.6765  0.5314
 6605SOL    HW131451   4.509   4.416   6.332  0.7236 -0.0885 -0.7078
 6605SOL    HW231452   4.469   4.544   6.252  0.8424 -0.1745  1.7335
 6606SOL     OW31453   2.165   2.011   4.086 -0.2506  0.5906  0.5627
 6606SOL    HW131454   2.088   2.012   4.028  0.4570 -0.9697 -0.3912
 6606SOL    HW231455   2.205   2.097   4.070 -3.0135  1.9694  0.9869
 6607SOL     OW31456   3.953   3.059   7.848 -0.1107 -0.1043  0.0559
 6607SOL    HW131457   4.042   3.051   7.882 -0.2214  0.7010  0.5483
 6607SOL    HW231458   3.915   2.989   7.901  1.6556 -0.4928  0.8157
 6608SOL     OW31459   4.162   2.696   2.265 -0.1407 -0.0252 -0.2225
 6608SOL    HW131460   4.217   2.729   2.194 -2.2701  1.3836 -1.2066
 6608SOL    HW231461   4.100   2.642   2.218 -1.2074  0.7219  0.3202
 6609SOL     OW31462   2.429   3.723   6.927 -0.3129  0.0226 -0.5197
 6609SOL    HW131463   2.522   3.746   6.925  0.5897 -3.5422 -0.2484
 6609SOL    HW231464   2.419   3.715   7.022 -1.1218 -1.2405 -0.6981
 6610SOL     OW31465   0.202   0.602   2.782  0.5045 -0.1151 -0.4828
 6610SOL    HW131466   0.224   0.694   2.774  1.6022 -0.2192  1.2843
 6610SOL    HW231467   0.149   0.576   2.707 -2.7296  2.2714  1.0049
 6611SOL     OW31468   0.173   2.983  12.557 -0.6710 -0.1884 -0.0192
 6611SOL    HW131469   0.199   3.006  12.647  1.0386 -1.1875 -0.2496
 6611SOL    HW231470   0.254   2.932  12.546  0.9473  2.0482  1.3698
 6612SOL     OW31471   0.191   2.025   1.140  0.3052  0.4520 -0.2051
 6612SOL    HW131472   0.128   2.060   1.076 -0.5570 -0.5613  0.0856
 6612SOL    HW231473   0.247   1.971   1.085  0.8957  0.4333  0.4189
 6613SOL     OW31474   0.528   4.403   8.741 -0.0330 -0.2354 -0.5908
 6613SOL    HW131475   0.448   4.418   8.791 -1.0759 -0.5956 -2.1771
 6613SOL    HW231476   0.579   4.441   8.813  1.8777 -0.4489 -1.8402
 6614SOL     OW31477   4.453   2.425   3.834  0.1106 -0.3321  0.0968
 6614SOL    HW131478   4.501   2.369   3.774 -0.9506 -2.1932  0.9867
 6614SOL    HW231479   4.445   2.366   3.909 -0.6377  0.3966  0.5966
 6615SOL     OW31480   3.270   2.645   6.786 -0.4925 -0.0565  0.0677
 6615SOL    HW131481   3.199   2.582   6.799 -1.6540  1.3193  0.3785
 6615SOL    HW231482   3.336   2.593   6.833 -0.1380  0.2125 -0.1349
 6616SOL     OW31483   2.039   2.901   1.077  0.0450  0.1349  0.6613
 6616SOL    HW131484   2.122   2.932   1.040 -0.3512  0.2187 -0.1495
 6616SOL    HW231485   2.014   2.985   1.116  0.1683  0.9764 -1.0679
 6617SOL     OW31486   2.001   1.341  15.135  0.2058  0.5550 -0.0581
 6617SOL    HW131487   2.014   1.308  15.224 -0.6655 -0.2285 -0.2267
 6617SOL    HW231488   2.064   1.413  15.137  0.4170  0.3555  0.6346
 6618SOL     OW31489   2.820   3.021   9.675 -0.4359 -0.5956 -0.1864
 6618SOL    HW131490   2.888   3.015   9.742 -0.3523  1.4442 -0.0877
 6618SOL    HW231491   2.747   3.049   9.729 -0.2579  0.9875 -0.7432
 6619SOL     OW31492   1.648   0.238   5.935  0.4188  0.3111 -0.6349
 6619SOL    HW131493   1.743   0.240   5.934  0.4578 -0.5652  2.9222
 6619SOL    HW231494   1.629   0.298   5.863  2.5979  1.1121 -0.5277
 6620SOL     OW31495   0.120   0.950   9.482 -0.5287  0.3928 -0.0108
 6620SOL    HW131496   0.174   0.886   9.435  0.0021 -0.7925  2.2425
 6620SOL    HW231497   0.104   0.907   9.566 -2.1166  0.9477 -0.0329
 6621SOL     OW31498   4.279   1.967   3.396  0.4208 -0.1009  0.2097
 6621SOL    HW131499   4.212   1.900   3.412  1.2837 -0.7235  1.2494
 6621SOL    HW231500   4.290   2.022   3.474 -2.0135  0.8557 -0.1049
 6622SOL     OW31501   3.235   1.409   5.624  0.1695 -0.2065 -0.4849
 6622SOL    HW131502   3.155   1.460   5.614 -0.2225 -1.0839 -1.7733
 6622SOL    HW231503   3.273   1.421   5.537  0.1955 -1.0241 -0.5840
 6623SOL     OW31504   1.886   2.942   9.614 -0.3504  0.0597  0.2860
 6623SOL    HW131505   1.835   2.957   9.694 -1.2328  1.0403 -0.4609
 6623SOL    HW231506   1.870   2.849   9.597 -0.4658  0.0446  0.4739
 6624SOL     OW31507   4.664   3.136   2.719  0.4771 -0.0978 -0.2466
 6624SOL    HW131508   4.582   3.185   2.728 -0.7341 -2.1516  0.0302
 6624SOL    HW231509   4.635   3.054   2.759  2.0584 -1.0325 -0.9951
 6625SOL     OW31510   4.041   0.536   2.795 -0.4776  0.0916  0.5016
 6625SOL    HW131511   4.077   0.448   2.785  0.6382  0.5480  0.5078
 6625SOL    HW231512   3.957   0.524   2.751  0.0078 -2.3401  0.2486
 6626SOL     OW31513   0.912   3.680   4.004 -0.3076 -0.0435  0.0649
 6626SOL    HW131514   0.828   3.643   3.978 -0.2486 -2.2102  2.9115
 6626SOL    HW231515   0.886   3.745   4.069 -3.5547  1.0681 -2.3630
 6627SOL     OW31516   3.457   4.576   9.089  0.5197 -0.4895 -0.0610
 6627SOL    HW131517   3.477   4.644   9.024  2.5204 -1.1198 -0.0895
 6627SOL    HW231518   3.437   4.501   9.033  0.5869 -0.4080 -0.1949
 6628SOL     OW31519   3.216   1.878  14.386  0.2669 -0.3400 -0.0014
 6628SOL    HW131520   3.158   1.806  14.364 -0.0511 -0.3757  0.9447
 6628SOL    HW231521   3.295   1.836  14.351 -0.3460 -0.5144 -1.1582
 6629SOL     OW31522   4.707   2.847   7.869  0.3553  0.0100 -0.0975
 6629SOL    HW131523   4.735   2.805   7.787  1.7223 -0.0340  0.3856
 6629SOL    HW231524   4.728   2.777   7.931 -0.1123  0.0031  0.0468
 6630SOL     OW31525   2.522   4.383  16.686 -0.0536  0.2657  0.3340
 6630SOL    HW131526   2.525   4.415  16.596 -3.3990 -2.0560 -0.5922
 6630SOL    HW231527   2.533   4.289  16.670  0.1839  0.2478  0.5997
 6631SOL     OW31528   3.283   0.395   5.578 -1.0767 -0.2232  0.0862
 6631SOL    HW131529   3.279   0.402   5.483 -0.1312  2.7654  0.2726
 6631SOL    HW231530   3.296   0.300   5.586 -2.0291 -0.4355 -0.8768
 6632SOL     OW31531   0.054   4.519  17.455 -0.0591  0.5164 -0.3925
 6632SOL    HW131532   4.701   4.539  17.479  0.7220  0.2074  2.8418
 6632SOL    HW231533   0.060   4.558  17.368 -1.5124  1.8672  0.0974
 6633SOL     OW31534   0.879   1.524   3.047  0.3119 -0.4473 -0.8078
 6633SOL    HW131535   0.802   1.469   3.034  0.8823 -0.6956 -3.1341
 6633SOL    HW231536   0.847   1.611   3.024  0.7128  0.5492  2.4025
 6634SOL     OW31537   2.493   4.264  11.708  0.5926 -0.2603 -0.4141
 6634SOL    HW131538   2.555   4.307  11.649  0.0730 -1.4889 -1.8568
 6634SOL    HW231539   2.533   4.177  11.715  2.0818  0.3813 -0.8206
 6635SOL     OW31540   3.741   2.032   0.618 -0.2090  0.6277 -0.3014
 6635SOL    HW131541   3.816   2.091   0.626  1.0963 -1.0824  0.1863
 6635SOL    HW231542   3.774   1.956   0.667  1.3698  1.4688 -0.0680
 6636SOL     OW31543   2.944   2.184   5.264 -0.3193  0.0402 -0.1768
 6636SOL    HW131544   2.903   2.164   5.180 -0.8714 -1.2383  0.3877
 6636SOL    HW231545   2.905   2.111   5.313  0.9457  0.4070  1.3890
 6637SOL     OW31546   1.968   2.704   3.276  0.3320 -0.0333  0.0190
 6637SOL    HW131547   2.030   2.699   3.349  0.0768 -1.6616  0.1179
 6637SOL    HW231548   1.952   2.798   3.268  2.6151  0.1932 -1.9252
 6638SOL     OW31549   4.639   0.082   7.485  0.1959  0.2219 -0.1326
 6638SOL    HW131550   4.568   0.137   7.516  1.7110  2.6059 -0.9193
 6638SOL    HW231551   4.716   0.132   7.512  0.4157 -1.5024  2.5106
 6639SOL     OW31552   0.605   0.746  11.765 -0.0500  0.3468 -0.5139
 6639SOL    HW131553   0.584   0.817  11.826  0.7153 -1.2145  1.5492
 6639SOL    HW231554   0.598   0.672  11.825  0.4669  0.4086 -0.3761
 6640SOL     OW31555   2.309   1.642   8.401 -0.2141  0.2747  0.0279
 6640SOL    HW131556   2.236   1.601   8.354  0.0616 -0.2831  0.0877
 6640SOL    HW231557   2.351   1.692   8.331 -0.4195 -0.6274 -0.7400
 6641SOL     OW31558   4.348   0.098   3.727  0.3463  0.4202  0.1281
 6641SOL    HW131559   4.295   0.088   3.647 -1.7390  0.2274  1.5220
 6641SOL    HW231560   4.360   0.192   3.730  1.2851  0.2102  2.4940
 6642SOL     OW31561   0.532   2.775   6.461  0.3465  0.2565  0.2522
 6642SOL    HW131562   0.503   2.691   6.497  1.1839 -0.1370  0.0136
 6642SOL    HW231563   0.468   2.836   6.499 -2.0474 -2.1948  0.1844
 6643SOL     OW31564   2.124   1.570  16.794  0.4923 -0.5874  0.7266
 6643SOL    HW131565   2.133   1.545  16.702  0.6754  1.9606  0.0506
 6643SOL    HW231566   2.191   1.637  16.797  0.8368 -0.9471  1.0880
 6644SOL     OW31567   3.806   0.882   9.046 -0.3685 -0.2011 -0.2193
 6644SOL    HW131568   3.787   0.961   9.097  0.4064 -0.3942  0.3697
 6644SOL    HW231569   3.866   0.826   9.096 -2.1062 -0.4014  1.6666
 6645SOL     OW31570   4.391   3.528   2.670  0.4052 -0.1535  0.4104
 6645SOL    HW131571   4.323   3.461   2.663  2.3576 -2.0200 -0.7430
 6645SOL    HW231572   4.372   3.599   2.731 -1.6529  0.7407 -1.2615
 6646SOL     OW31573   3.629   1.149   9.096 -0.4826 -0.6106  0.2679
 6646SOL    HW131574   3.562   1.217   9.104 -0.0045 -0.2363  1.1646
 6646SOL    HW231575   3.693   1.184   9.035 -1.3861  0.7324  0.1043
 6647SOL     OW31576   1.767   4.170   2.043 -0.3292 -0.1538 -0.1862
 6647SOL    HW131577   1.854   4.137   2.065 -0.2539 -1.4765 -2.4315
 6647SOL    HW231578   1.789   4.263   2.044  0.0826 -0.2496 -0.2343
 6648SOL     OW31579   1.023   4.057  10.208 -0.2982 -0.0389 -0.2886
 6648SOL    HW131580   0.955   4.037  10.273  0.8780 -1.5998  0.4554
 6648SOL    HW231581   1.005   4.001  10.133  0.3732 -1.1090  0.3385
 6649SOL     OW31582   1.480   1.006   9.465 -0.1565  0.7676  0.0202
 6649SOL    HW131583   1.411   0.971   9.409 -0.1263 -1.4998  1.4033
 6649SOL    HW231584   1.497   0.928   9.518  0.5265  1.3562  0.6612
 6650SOL     OW31585   3.094   3.328   6.721  0.6740 -0.4447  0.2780
 6650SOL    HW131586   3.018   3.276   6.746  0.6868 -0.6749 -0.1603
 6650SOL    HW231587   3.070   3.405   6.772  0.7529  1.0219 -1.9199
 6651SOL     OW31588   0.203   2.212  16.157 -0.1629 -0.1837  0.3516
 6651SOL    HW131589   0.196   2.186  16.065 -1.4401 -1.9024  0.9358
 6651SOL    HW231590   0.271   2.279  16.144 -0.0614 -0.1556  0.9921
 6652SOL     OW31591   2.960   3.992   9.170 -0.2615 -0.3123  0.0021
 6652SOL    HW131592   3.039   3.987   9.223 -0.1411 -0.8152 -0.2251
 6652SOL    HW231593   2.968   4.078   9.128 -1.6947 -1.5927 -2.9261
 6653SOL     OW31594   1.102   1.101  14.279 -0.5802 -0.1715 -0.0562
 6653SOL    HW131595   1.176   1.162  14.286 -0.3402 -0.4704 -0.0101
 6653SOL    HW231596   1.057   1.141  14.354 -0.5784 -0.7631  0.2596
 6654SOL     OW31597   2.663   1.601   5.290 -0.6620  0.0012 -0.1556
 6654SOL    HW131598   2.754   1.575   5.277 -0.4650 -0.6298  2.4849
 6654SOL    HW231599   2.670   1.674   5.352 -2.6561 -0.1859  0.3207
 6655SOL     OW31600   1.410   1.614  13.915 -0.1352 -0.1927 -0.2447
 6655SOL    HW131601   1.322   1.649  13.923 -0.2929 -0.2352 -1.6632
 6655SOL    HW231602   1.400   1.519  13.924 -0.4394 -0.1161  0.2107
 6656SOL     OW31603   2.890   2.958  15.231 -0.2999 -0.9957 -0.1387
 6656SOL    HW131604   2.864   2.929  15.318  1.3904  1.7767  1.2970
 6656SOL    HW231605   2.807   2.957  15.184  0.3124 -2.6134 -1.1575
 6657SOL     OW31606   0.926   1.898   6.928  0.2211 -0.4228 -0.0885
 6657SOL    HW131607   0.868   1.974   6.929  1.7480  0.7661 -0.8456
 6657SOL    HW231608   0.913   1.859   6.842 -1.3803 -0.3011  0.0915
 6658SOL     OW31609   3.410   3.050   4.467 -0.4447  0.1038  0.3931
 6658SOL    HW131610   3.319   3.019   4.473 -1.0071  1.7871  0.6858
 6658SOL    HW231611   3.436   3.094   4.548 -1.1102 -1.8619  1.6746
 6659SOL     OW31612   3.562   2.828   2.447 -0.1207  0.6376 -0.3079
 6659SOL    HW131613   3.530   2.889   2.514  0.8552  0.3892  0.3835
 6659SOL    HW231614   3.536   2.744   2.486  0.9978  0.1134 -0.6848
 6660SOL     OW31615   2.375   1.951   3.552  0.6297  0.0380 -0.4036
 6660SOL    HW131616   2.425   1.978   3.475  0.7667 -2.6935 -1.2709
 6660SOL    HW231617   2.432   1.992   3.617 -0.6781  1.6801 -0.2880
 6661SOL     OW31618   0.848   1.906   0.311 -0.1109  0.0599 -0.4141
 6661SOL    HW131619   0.875   1.822   0.273 -2.6565 -1.9586  2.2092
 6661SOL    HW231620   0.855   1.873   0.400  3.5855  0.5263 -0.5306
 6662SOL     OW31621   0.152   3.092   6.483 -0.0077 -0.5250  1.0353
 6662SOL    HW131622   0.068   3.134   6.501 -0.5583 -1.5990  0.9731
 6662SOL    HW231623   0.207   3.169   6.471 -0.8533 -0.4156 -1.9079
 6663SOL     OW31624   0.849   2.694   3.526  0.8454 -0.2869  0.5222
 6663SOL    HW131625   0.853   2.609   3.483  1.6904 -0.0915  0.2068
 6663SOL    HW231626   0.819   2.676   3.615  0.3262  0.9794  0.6030
 6664SOL     OW31627   4.317   0.171   2.946 -0.0701  0.2604  0.4219
 6664SOL    HW131628   4.293   0.118   3.022 -3.2103  0.9598 -0.0845
 6664SOL    HW231629   4.390   0.220   2.984 -0.2464 -1.2461  2.7171
 6665SOL     OW31630   2.335   4.208   2.584  0.1135 -0.6762  0.0428
 6665SOL    HW131631   2.296   4.122   2.603  0.0187 -0.5924  0.2329
 6665SOL    HW231632   2.323   4.252   2.668 -1.5378 -3.0904  1.0715
 6666SOL     OW31633   3.477   3.777   7.156  0.5378  0.0562  0.5004
 6666SOL    HW131634   3.429   3.726   7.091  1.3844  0.2319 -0.2590
 6666SOL    HW231635   3.551   3.809   7.105  0.9330  1.1282  1.7560
 6667SOL     OW31636   2.726   2.355   7.533  0.0435  0.0578  0.6314
 6667SOL    HW131637   2.653   2.376   7.591  0.9436  0.0932  1.7479
 6667SOL    HW231638   2.805   2.393   7.571 -0.2312  0.2138  1.0483
 6668SOL     OW31639   0.612   1.755   6.940 -0.5619 -0.1785 -0.4459
 6668SOL    HW131640   0.695   1.714   6.917  0.5866  3.5494 -2.9193
 6668SOL    HW231641   0.548   1.684   6.937  0.1936 -0.7999 -1.7293
 6669SOL     OW31642   0.517   1.740   2.561  0.3931  0.1184 -0.4488
 6669SOL    HW131643   0.462   1.817   2.580  1.9340  1.2524 -0.6227
 6669SOL    HW231644   0.470   1.705   2.485  0.8926 -1.4735 -0.0195
 6670SOL     OW31645   1.972   0.899  17.478 -0.2429 -0.5644 -0.1120
 6670SOL    HW131646   2.025   0.917  17.401 -0.6525  0.4453 -0.1707
 6670SOL    HW231647   1.934   0.987  17.486  1.1805  0.2678 -2.5065
 6671SOL     OW31648   2.364   4.537   0.808  0.2158  0.5764 -0.1585
 6671SOL    HW131649   2.403   4.521   0.722  0.1813  2.2626 -0.4922
 6671SOL    HW231650   2.401   4.471   0.866  1.1346 -2.2348 -3.8953
 6672SOL     OW31651   3.218   4.005   3.600  0.2817 -0.3894  0.2230
 6672SOL    HW131652   3.157   4.032   3.531  0.8305 -0.1971 -0.1787
 6672SOL    HW231653   3.282   3.952   3.553 -0.4972  1.2491 -2.7065
 6673SOL     OW31654   0.418   0.500   4.707  0.0250 -0.4045 -0.1493
 6673SOL    HW131655   0.372   0.522   4.626  0.6121 -2.8064 -1.1374
 6673SOL    HW231656   0.449   0.581   4.748 -3.0168 -0.3609  2.0801
 6674SOL     OW31657   0.823   0.913   7.097 -0.2093 -0.4068 -0.3692
 6674SOL    HW131658   0.793   0.825   7.074 -0.7513 -0.5075  0.7488
 6674SOL    HW231659   0.892   0.927   7.032 -2.0091 -0.5308 -2.3033
 6675SOL     OW31660   1.185   0.346   0.983 -0.2968 -0.5608  0.4324
 6675SOL    HW131661   1.106   0.310   0.942  0.8157 -0.5040 -1.7313
 6675SOL    HW231662   1.217   0.270   1.032  1.4775 -0.3716 -0.4513
 6676SOL     OW31663   4.170   4.543   6.400  0.4665  0.4841  0.3570
 6676SOL    HW131664   4.145   4.581   6.316  0.8319  1.1331  0.5475
 6676SOL    HW231665   4.249   4.496   6.375 -1.5755 -1.6608 -2.0708
 6677SOL     OW31666   3.150   2.992  12.649 -0.1769  0.3549 -0.3119
 6677SOL    HW131667   3.230   3.030  12.614  0.2090  0.8046  1.0664
 6677SOL    HW231668   3.102   2.969  12.569  0.8289 -0.0191 -0.8120
 6678SOL     OW31669   1.862   3.504   7.485  0.1478  0.2227 -0.2459
 6678SOL    HW131670   1.822   3.454   7.414 -0.6026  0.9100 -0.3085
 6678SOL    HW231671   1.893   3.585   7.445  1.6943 -1.0791 -1.6604
 6679SOL     OW31672   4.545   2.282  11.166 -0.3970  0.1303 -0.5916
 6679SOL    HW131673   4.591   2.225  11.104 -2.4419 -2.8881  0.6640
 6679SOL    HW231674   4.623   2.318  11.209  0.0274 -2.2157  0.6571
 6680SOL     OW31675   4.412   0.133   6.510 -0.1367 -0.6370  0.0111
 6680SOL    HW131676   4.388   0.222   6.535  1.1457 -0.4570  0.6453
 6680SOL    HW231677   4.422   0.098   6.599  0.0568  0.3813  0.3870
 6681SOL     OW31678   0.465   0.159   7.173  0.1181  0.5540  0.3207
 6681SOL    HW131679   0.373   0.148   7.196  0.4542 -0.9656  0.9367
 6681SOL    HW231680   0.492   0.068   7.163 -0.5006  0.4205 -0.1244
 6682SOL     OW31681   2.017   4.457   7.992  0.3404 -0.0357  0.1251
 6682SOL    HW131682   2.025   4.385   7.930 -0.2703 -1.2715  1.5067
 6682SOL    HW231683   2.025   4.415   8.078 -1.7300 -0.4574  0.0967
 6683SOL     OW31684   2.972   3.303   7.596  0.7227 -0.2642  0.6162
 6683SOL    HW131685   2.985   3.394   7.571  1.2953 -0.9275 -1.5224
 6683SOL    HW231686   3.060   3.271   7.618  0.5943 -0.7063  0.4856
 6684SOL     OW31687   3.169   0.507  13.446  0.3792  0.7207  0.6019
 6684SOL    HW131688   3.217   0.553  13.378 -2.1324  0.5605 -1.2750
 6684SOL    HW231689   3.179   0.416  13.420  2.8637  1.0407  0.4463
 6685SOL     OW31690   3.927   0.956  11.555 -0.1840  0.4528  0.5109
 6685SOL    HW131691   3.988   0.895  11.513 -2.6826 -1.1968 -0.7497
 6685SOL    HW231692   3.984   1.031  11.570  2.5252 -1.7004  1.1216
 6686SOL     OW31693   2.863   1.385  13.941 -0.1411  0.2231  0.2609
 6686SOL    HW131694   2.848   1.433  13.860 -0.3623  1.3436  0.9636
 6686SOL    HW231695   2.958   1.385  13.935 -0.3411  0.0790 -2.7143
 6687SOL     OW31696   0.531   2.529   6.804 -0.4335  0.0954  0.4121
 6687SOL    HW131697   0.457   2.537   6.863 -1.3441 -0.3752 -0.6694
 6687SOL    HW231698   0.593   2.584   6.853 -0.2711 -1.3902  1.8581
 6688SOL     OW31699   4.735   3.405   4.749  0.1610  0.3257  0.1761
 6688SOL    HW131700   4.738   3.493   4.785 -0.8598  0.1276  0.7370
 6688SOL    HW231701   0.006   3.416   4.655 -0.3251 -0.8456 -0.0139
 6689SOL     OW31702   1.042   2.325   3.537  0.3849 -0.3015  0.4015
 6689SOL    HW131703   1.062   2.318   3.630  0.5426  0.5725  0.4258
 6689SOL    HW231704   1.123   2.294   3.498 -1.2750 -4.2651  0.0844
 6690SOL     OW31705   0.447   3.686  10.506 -0.0251 -0.7409 -0.2728
 6690SOL    HW131706   0.386   3.739  10.557 -1.1230 -1.0515 -1.2544
 6690SOL    HW231707   0.407   3.598  10.507  0.3646 -0.9398 -2.6274
 6691SOL     OW31708   2.949   3.893  16.460  0.2329 -0.3545 -0.3570
 6691SOL    HW131709   3.043   3.899  16.480  0.3457  0.4009 -1.1524
 6691SOL    HW231710   2.911   3.871  16.545  1.6462 -0.9812  0.1169
 6692SOL     OW31711   4.310   2.715   4.161  0.3968  0.4848  0.1011
 6692SOL    HW131712   4.253   2.727   4.085 -1.8950  2.0712  2.0505
 6692SOL    HW231713   4.373   2.786   4.147 -0.4798  1.7877  2.5994
 6693SOL     OW31714   2.187   3.337  13.240  0.0592  0.9935 -0.0385
 6693SOL    HW131715   2.109   3.292  13.271  0.7760 -0.9196 -1.0093
 6693SOL    HW231716   2.137   3.411  13.205 -1.4586 -0.5119 -1.0732
 6694SOL     OW31717   0.982   1.519   8.436  0.0764  0.0538 -0.5941
 6694SOL    HW131718   0.952   1.607   8.414 -2.3998 -0.6411 -0.0279
 6694SOL    HW231719   1.068   1.510   8.394  1.5164  4.0522  1.4805
 6695SOL     OW31720   0.180   0.714   4.648 -0.4042  0.1021 -0.0590
 6695SOL    HW131721   0.086   0.696   4.650 -0.6660  1.4328 -0.5935
 6695SOL    HW231722   0.207   0.661   4.573 -0.1383 -1.1312  0.9056
 6696SOL     OW31723   2.827   4.334  12.046  0.8633 -0.6333  0.0915
 6696SOL    HW131724   2.761   4.402  12.032  2.2530  0.9103  0.9806
 6696SOL    HW231725   2.783   4.268  12.098 -0.6699 -0.6894 -1.2622
 6697SOL     OW31726   1.132   0.644   1.316  0.2242 -0.1247  0.7885
 6697SOL    HW131727   1.141   0.696   1.396  0.1599 -2.0769  2.0627
 6697SOL    HW231728   1.084   0.567   1.345  1.2457 -0.8652  0.5403
 6698SOL     OW31729   0.414   0.295   1.543 -0.2190  0.0751 -0.1337
 6698SOL    HW131730   0.336   0.340   1.576  0.2036  1.6960 -1.3168
 6698SOL    HW231731   0.485   0.355   1.567  0.3718 -0.9826  0.7256
 6699SOL     OW31732   1.287   0.666   7.402 -0.4299  0.3188 -0.3679
 6699SOL    HW131733   1.211   0.634   7.450  0.4593  0.4584  1.1272
 6699SOL    HW231734   1.353   0.672   7.471 -1.1766  0.4001  0.3380
 6700SOL     OW31735   0.362   4.503   6.719 -0.5038 -0.3612 -0.4286
 6700SOL    HW131736   0.317   4.436   6.669  0.9789 -2.5244  1.1497
 6700SOL    HW231737   0.319   4.492   6.804  1.6729 -0.4087  0.6725
 6701SOL     OW31738   3.510   3.621   8.192 -0.3464  0.2749  0.2048
 6701SOL    HW131739   3.578   3.645   8.255  0.8049 -2.2475 -0.0613
 6701SOL    HW231740   3.446   3.683   8.226 -0.6218  1.4551 -2.4865
 6702SOL     OW31741   0.896   1.528  12.363  0.4769 -0.3317  0.5313
 6702SOL    HW131742   0.907   1.465  12.434 -1.8223 -1.5608 -0.1775
 6702SOL    HW231743   0.811   1.499  12.328 -0.4697 -1.0740  3.4337
 6703SOL     OW31744   2.065   0.165   1.682 -0.4780 -0.4844 -0.8455
 6703SOL    HW131745   2.028   0.149   1.769  0.3285  2.1660 -0.0152
 6703SOL    HW231746   2.092   0.257   1.684 -0.8570 -0.3576 -1.4911
 6704SOL     OW31747   0.908   0.960   5.142  0.5109  0.4445  0.5064
 6704SOL    HW131748   0.881   0.868   5.146 -1.2194  0.9746  0.7517
 6704SOL    HW231749   0.833   0.997   5.096  1.3383  2.2096  0.5720
 6705SOL     OW31750   4.314   0.268   3.271  0.0619 -0.4018 -0.1987
 6705SOL    HW131751   4.257   0.312   3.209 -0.6848 -0.5896  0.3630
 6705SOL    HW231752   4.247   0.228   3.326  0.3488 -0.0685  0.3899
 6706SOL     OW31753   3.446   0.832  13.646 -0.6400 -0.0481 -0.0330
 6706SOL    HW131754   3.463   0.802  13.735 -1.4265 -0.8379 -0.1436
 6706SOL    HW231755   3.525   0.805  13.598  0.0105 -0.7261  1.4100
 6707SOL     OW31756   3.595   0.875   4.433  0.6377 -0.1164 -0.8501
 6707SOL    HW131757   3.649   0.816   4.486 -0.0270 -0.3668 -0.4603
 6707SOL    HW231758   3.606   0.828   4.350 -0.5947  0.4405 -1.3218
 6708SOL     OW31759   3.200   0.482   8.228  0.2770 -0.0777  0.0265
 6708SOL    HW131760   3.171   0.544   8.294 -1.6684 -0.1675 -0.7588
 6708SOL    HW231761   3.155   0.515   8.151 -1.1047  1.2964  1.4424
 6709SOL     OW31762   4.311   2.968   8.986  0.1684  0.3692 -0.1914
 6709SOL    HW131763   4.331   3.059   9.005  2.2443 -0.1842  0.3317
 6709SOL    HW231764   4.301   2.936   9.076 -1.4873 -2.4800 -1.3699
 6710SOL     OW31765   3.457   3.296   7.757  0.0823  0.7240 -0.6653
 6710SOL    HW131766   3.512   3.250   7.821 -0.9886 -0.8537 -0.8747
 6710SOL    HW231767   3.511   3.375   7.751  0.3729  0.5675 -0.1446
 6711SOL     OW31768   2.119   0.896   3.814 -0.7406  0.0738 -0.5257
 6711SOL    HW131769   2.108   0.921   3.906  0.5582  1.0685 -0.6397
 6711SOL    HW231770   2.211   0.869   3.811 -1.0230 -0.6795 -2.0211
 6712SOL     OW31771   2.216   0.636  14.487 -0.2456  0.0636  0.2516
 6712SOL    HW131772   2.222   0.684  14.404 -0.8160  1.0043  0.7461
 6712SOL    HW231773   2.161   0.564  14.456  1.1217 -0.9829  0.2697
 6713SOL     OW31774   2.065   1.967  13.228 -0.4829  0.2641  0.2741
 6713SOL    HW131775   2.039   1.942  13.316 -0.0091  1.7048  0.8233
 6713SOL    HW231776   2.160   1.970  13.240 -0.2900 -2.1841 -0.5430
 6714SOL     OW31777   1.371   3.925   1.892 -0.1505 -0.0284 -0.4206
 6714SOL    HW131778   1.431   3.950   1.962  0.2231  0.8984 -1.0804
 6714SOL    HW231779   1.395   3.982   1.819  0.2267  0.1687 -0.1411
 6715SOL     OW31780   0.337   1.358  12.280 -0.4151 -0.6398 -0.0346
 6715SOL    HW131781   0.364   1.449  12.284 -3.2892  0.2093  0.0504
 6715SOL    HW231782   0.376   1.330  12.198  1.3226 -1.2236  0.9841
 6716SOL     OW31783   2.482   4.085  12.227  0.0427 -0.4529  0.3752
 6716SOL    HW131784   2.387   4.088  12.238  0.0260  1.0033 -0.2253
 6716SOL    HW231785   2.478   4.108  12.134  0.9240  0.5122  0.5743
 6717SOL     OW31786   4.313   3.466  16.994  0.7288 -0.1550  0.2274
 6717SOL    HW131787   4.257   3.411  16.940  1.2406 -0.7575  0.3143
 6717SOL    HW231788   4.267   3.456  17.077  1.7362 -1.6641  0.5855
 6718SOL     OW31789   1.253   3.897  15.661  0.7336  0.0887 -0.0147
 6718SOL    HW131790   1.179   3.947  15.696 -0.6203 -0.1599 -2.5736
 6718SOL    HW231791   1.299   3.876  15.743 -1.3335  0.5843  1.2859
 6719SOL     OW31792   2.090   2.440   2.489  0.0047  0.0176  0.0239
 6719SOL    HW131793   2.110   2.415   2.399 -0.3509  3.5281 -1.0467
 6719SOL    HW231794   2.094   2.355   2.532  4.1574 -0.0724 -0.5268
 6720SOL     OW31795   1.944   1.624   2.744  0.2899  0.0082 -0.1590
 6720SOL    HW131796   1.877   1.604   2.679 -0.3027 -0.0989  0.4779
 6720SOL    HW231797   1.994   1.544   2.730 -1.6993 -1.7089  2.3935
 6721SOL     OW31798   1.323   2.562  17.092 -0.4066  0.1884 -0.2056
 6721SOL    HW131799   1.355   2.628  17.031 -1.4983  0.0061 -0.9647
 6721SOL    HW231800   1.370   2.485  17.059 -1.2163 -0.7960  0.9640
 6722SOL     OW31801   4.435   3.450   8.011 -0.4785  0.3477 -0.1249
 6722SOL    HW131802   4.364   3.513   8.018  0.4763  1.5042 -0.8512
 6722SOL    HW231803   4.399   3.380   7.956  1.2998  0.3746 -1.3304
 6723SOL     OW31804   1.987   1.314   4.925  0.1280 -0.0577 -0.1331
 6723SOL    HW131805   1.957   1.388   4.871  0.8068  2.1819  2.5636
 6723SOL    HW231806   2.079   1.327   4.948  0.3308  1.1305 -1.6167
 6724SOL     OW31807   0.056   1.212  11.378 -0.4071 -0.3785  0.3419
 6724SOL    HW131808   0.131   1.264  11.351 -0.5845 -0.1824  0.2288
 6724SOL    HW231809   0.029   1.259  11.456 -1.1801 -0.3296  0.0447
 6725SOL     OW31810   2.810   1.371   2.128  0.0570 -0.8836 -0.3460
 6725SOL    HW131811   2.719   1.349   2.109 -0.1191  0.3383 -0.8701
 6725SOL    HW231812   2.816   1.428   2.204 -0.2583 -0.4409 -0.6536
 6726SOL     OW31813   4.517   2.929   9.488 -0.2975 -0.2191  0.0942
 6726SOL    HW131814   4.609   2.935   9.465 -0.7293 -1.3911 -1.9230
 6726SOL    HW231815   4.523   2.902   9.579  0.4502 -0.9625 -0.1754
 6727SOL     OW31816   0.657   4.188   8.493  0.1687  0.7186 -0.0633
 6727SOL    HW131817   0.669   4.109   8.441 -1.7834  0.1798  0.3088
 6727SOL    HW231818   0.662   4.144   8.578 -0.3450  1.7194  0.4896
 6728SOL     OW31819   1.654   2.911   3.001 -0.2267 -0.4118  0.5008
 6728SOL    HW131820   1.611   2.917   3.086 -0.0382 -0.2598  0.5841
 6728SOL    HW231821   1.620   2.986   2.952  2.6325  0.1405 -0.5898
 6729SOL     OW31822   0.100   3.791  10.387 -0.5151  0.0853  0.0491
 6729SOL    HW131823   0.015   3.833  10.380 -0.0296  1.1244  0.4544
 6729SOL    HW231824   0.155   3.866  10.407  1.5246 -1.7734  1.4612
 6730SOL     OW31825   2.924   3.661   6.362  0.1959  0.2495  0.1344
 6730SOL    HW131826   2.840   3.705   6.356 -1.4871 -2.8857  0.8846
 6730SOL    HW231827   2.960   3.706   6.286  0.3591  1.0193  0.6556
 6731SOL     OW31828   3.533   4.237  12.141 -0.0948 -0.9973 -0.4109
 6731SOL    HW131829   3.459   4.295  12.122  0.4179 -1.0291 -2.4666
 6731SOL    HW231830   3.499   4.153  12.111 -1.7711 -0.8898  1.1315
 6732SOL     OW31831   3.671   0.865   4.067 -0.1375 -0.1250 -0.3986
 6732SOL    HW131832   3.710   0.889   3.983  0.7844  0.3816  0.1768
 6732SOL    HW231833   3.698   0.930   4.132  0.2978 -1.1617  0.4708
 6733SOL     OW31834   3.463   1.470   1.665 -0.2065 -0.3059 -0.1161
 6733SOL    HW131835   3.516   1.423   1.730  0.9438  1.7641  0.4337
 6733SOL    HW231836   3.393   1.405   1.666 -0.3933 -0.0796  2.0651
 6734SOL     OW31837   3.584   1.325   7.790 -0.1542  0.0401 -0.0007
 6734SOL    HW131838   3.496   1.311   7.825 -0.4119  0.8954 -0.2950
 6734SOL    HW231839   3.577   1.294   7.700 -0.8877  0.5794 -0.1334
 6735SOL     OW31840   1.805   3.967   4.280  0.0977 -0.5120  0.3762
 6735SOL    HW131841   1.878   3.953   4.220  0.6702 -1.1227  1.2187
 6735SOL    HW231842   1.741   3.909   4.239 -0.5433  1.2207 -1.0401
 6736SOL     OW31843   3.571   1.375   4.675 -0.1112  0.0365  0.1089
 6736SOL    HW131844   3.606   1.294   4.636 -0.0382  0.7909 -1.4245
 6736SOL    HW231845   3.647   1.388   4.732  0.3619 -1.3785 -0.2038
 6737SOL     OW31846   1.637   0.241   0.148  0.4568 -0.5506 -0.1891
 6737SOL    HW131847   1.704   0.299   0.112  1.1656  0.9832  3.5165
 6737SOL    HW231848   1.564   0.302   0.161  0.6265 -0.0896 -1.4306
 6738SOL     OW31849   0.657   0.490   1.630 -0.2214 -0.8160  0.1660
 6738SOL    HW131850   0.695   0.405   1.607  1.8871 -0.1391  1.1328
 6738SOL    HW231851   0.706   0.554   1.579 -0.5825 -2.0540 -1.7045
 6739SOL     OW31852   0.275   1.773  17.098 -0.5905  0.0860 -0.2289
 6739SOL    HW131853   0.244   1.689  17.131  0.4840  1.2805  3.8408
 6739SOL    HW231854   0.235   1.769  17.011  2.5444  0.1870 -1.6807
 6740SOL     OW31855   3.688   1.263  13.192  0.5561  0.1995  0.2718
 6740SOL    HW131856   3.620   1.207  13.228  0.9559  0.0136  0.7371
 6740SOL    HW231857   3.649   1.349  13.203 -0.8055 -0.3682 -0.0963
 6741SOL     OW31858   3.679   2.170   5.272  0.0490  0.5192 -0.0994
 6741SOL    HW131859   3.686   2.107   5.343 -0.7086  1.9579  1.2488
 6741SOL    HW231860   3.586   2.194   5.276 -0.2594 -0.5894 -0.8378
 6742SOL     OW31861   4.282   0.864  12.884 -0.2489 -0.1182 -0.7637
 6742SOL    HW131862   4.274   0.810  12.963  1.6177  1.1890  0.3090
 6742SOL    HW231863   4.358   0.817  12.851  0.2092  0.3780 -0.4080
 6743SOL     OW31864   3.566   3.914   7.612 -0.6598  0.3077 -0.4233
 6743SOL    HW131865   3.507   3.893   7.684  1.6322 -1.1858  1.0276
 6743SOL    HW231866   3.506   3.944   7.543  1.2486 -2.2717 -3.2202
 6744SOL     OW31867   3.623   1.162   4.512 -0.0786  0.1533  0.4467
 6744SOL    HW131868   3.548   1.195   4.463  0.2411  1.0944  0.5959
 6744SOL    HW231869   3.628   1.071   4.484  0.0455  0.5721 -0.8855
 6745SOL     OW31870   3.868   1.652   4.806  0.0730 -0.1581 -0.2377
 6745SOL    HW131871   3.836   1.596   4.735 -0.5324 -0.0607 -0.0467
 6745SOL    HW231872   3.955   1.665   4.768  0.6876 -1.4243  0.7720
 6746SOL     OW31873   2.522   3.807  15.310  0.2683  0.9802  0.3746
 6746SOL    HW131874   2.440   3.761  15.290 -1.1930  2.7679  2.4134
 6746SOL    HW231875   2.569   3.809  15.226 -0.3431 -0.8797 -0.0393
 6747SOL     OW31876   1.359   3.576   1.786  0.1748  0.5637 -0.0904
 6747SOL    HW131877   1.371   3.608   1.875 -0.0098  0.6005 -0.0791
 6747SOL    HW231878   1.442   3.604   1.747  0.5878  1.6869  1.5856
 6748SOL     OW31879   2.977   3.558   4.624 -0.0974  0.2585 -0.7048
 6748SOL    HW131880   2.951   3.588   4.710  2.1711  0.5883 -0.1229
 6748SOL    HW231881   3.070   3.536   4.637 -0.1046  0.4856 -0.2980
 6749SOL     OW31882   4.677   3.652   6.783 -0.2323  0.0340 -0.0221
 6749SOL    HW131883   0.013   3.640   6.842  0.0083 -1.3235 -0.5988
 6749SOL    HW231884   4.648   3.561   6.789  1.4817 -0.3202  2.7749
 6750SOL     OW31885   1.471   4.115  10.579 -0.0493 -0.1570  0.0345
 6750SOL    HW131886   1.546   4.103  10.521  0.8223  0.2455  1.0803
 6750SOL    HW231887   1.478   4.206  10.611 -0.7337  0.4733 -1.6242
 6751SOL     OW31888   3.053   1.844  10.217  0.6328 -0.9546 -0.1539
 6751SOL    HW131889   3.036   1.928  10.173  1.9910 -0.1717  0.8050
 6751SOL    HW231890   3.115   1.868  10.285  0.5014  0.0610 -0.3836
 6752SOL     OW31891   2.387   1.575   6.586  0.5291  0.4718  0.1524
 6752SOL    HW131892   2.330   1.560   6.510 -0.6051  1.4035  0.8229
 6752SOL    HW231893   2.432   1.490   6.594 -0.4128 -0.1444 -0.9875
 6753SOL     OW31894   3.483   1.019  16.795  0.7234  0.4786 -0.5794
 6753SOL    HW131895   3.515   1.014  16.705  0.3660  0.3242 -0.6983
 6753SOL    HW231896   3.426   1.095  16.785 -1.7961 -1.1545  1.1465
 6754SOL     OW31897   2.945   3.919   9.523  0.5901 -0.3697 -0.3990
 6754SOL    HW131898   2.969   4.000   9.568  0.6768 -0.1765 -0.7898
 6754SOL    HW231899   3.031   3.898   9.486 -0.0949 -0.0663 -2.1711
 6755SOL     OW31900   1.099   4.624   3.115 -0.3923 -0.3903 -0.8634
 6755SOL    HW131901   1.189   4.591   3.113 -0.6088 -1.0957  0.8773
 6755SOL    HW231902   1.068   4.616   3.205 -1.0662  0.0241 -1.0626
 6756SOL     OW31903   1.842   2.078  17.233  0.2037  0.3541 -0.5385
 6756SOL    HW131904   1.938   2.083  17.231  0.2055  0.5834  0.1892
 6756SOL    HW231905   1.835   2.029  17.151  0.1349 -0.5991  0.0414
 6757SOL     OW31906   4.487   3.788   6.263  0.1165  0.4404  0.3203
 6757SOL    HW131907   4.561   3.747   6.308  0.4267  1.1587  0.4494
 6757SOL    HW231908   4.508   3.799   6.170  1.4955 -0.6315  0.4981
 6758SOL     OW31909   1.963   4.145   7.347 -0.2539 -1.0561  0.2388
 6758SOL    HW131910   2.030   4.105   7.403 -0.6773 -1.2391  0.6189
 6758SOL    HW231911   1.951   4.081   7.277  1.6513  0.9980 -1.9534
 6759SOL     OW31912   3.364   1.338   4.004 -0.2419  0.0024  0.6479
 6759SOL    HW131913   3.281   1.382   4.021  0.3536  1.8619 -1.3144
 6759SOL    HW231914   3.423   1.376   4.070 -0.0199 -0.2932  0.6225
 6760SOL     OW31915   4.427   4.377   3.775  0.8965  0.2793 -0.1219
 6760SOL    HW131916   4.504   4.391   3.721  1.3910 -1.7968  0.0553
 6760SOL    HW231917   4.429   4.281   3.772  0.4644  0.2152  1.3661
 6761SOL     OW31918   0.681   0.410   3.989 -0.6926 -0.2331  0.6502
 6761SOL    HW131919   0.616   0.340   3.984 -1.6614  0.6659  0.7123
 6761SOL    HW231920   0.750   0.374   4.045  0.1845 -2.2519 -1.6904
 6762SOL     OW31921   1.949   0.803   3.406  0.2576 -0.2312  0.0059
 6762SOL    HW131922   2.020   0.855   3.366 -0.8596  1.1128 -0.2356
 6762SOL    HW231923   2.000   0.761   3.475  1.0778  0.7344  0.0068
 6763SOL     OW31924   4.646   3.864   3.714  0.0003  0.0505  0.0835
 6763SOL    HW131925   4.675   3.866   3.805  0.2717 -0.8511  0.0119
 6763SOL    HW231926   4.637   3.769   3.714 -0.8828  0.1191 -2.1270
 6764SOL     OW31927   2.853   2.605   3.925  0.4564  0.1317  0.3687
 6764SOL    HW131928   2.860   2.693   3.960 -0.3398  1.2699 -2.3087
 6764SOL    HW231929   2.943   2.574   3.934 -0.1067 -1.4401  0.7653
 6765SOL     OW31930   3.068   3.383   4.256 -0.0396  0.6490 -0.0256
 6765SOL    HW131931   3.011   3.352   4.326  0.1614  0.7102  0.1632
 6765SOL    HW231932   3.100   3.295   4.237  1.0946  1.1982 -0.6410
 6766SOL     OW31933   1.432   1.313   5.204 -0.3289  0.0153  0.7800
 6766SOL    HW131934   1.526   1.331   5.202 -0.6409  1.6180  0.5691
 6766SOL    HW231935   1.412   1.325   5.111  0.7851  3.0129  0.9314
 6767SOL     OW31936   1.657   1.348   5.509 -0.3726 -0.1389  0.5137
 6767SOL    HW131937   1.568   1.319   5.489  0.4689 -2.6842  0.5178
 6767SOL    HW231938   1.673   1.289   5.582  1.4780  1.8973  1.7473
 6768SOL     OW31939   2.189   2.145   5.096  0.0018 -0.2282 -0.3381
 6768SOL    HW131940   2.121   2.128   5.031 -0.7612  3.5694 -0.5325
 6768SOL    HW231941   2.252   2.079   5.068  1.6156  0.5707  1.4347
 6769SOL     OW31942   2.153   2.566  12.048 -0.2519  0.8245  0.3223
 6769SOL    HW131943   2.071   2.517  12.059  0.5751 -0.6112  0.0236
 6769SOL    HW231944   2.136   2.610  11.965 -1.7700 -0.3971 -0.0187
 6770SOL     OW31945   4.629   4.099   5.873  0.0829 -0.2472 -0.1689
 6770SOL    HW131946   4.654   4.007   5.876  0.6421 -0.0257  1.6941
 6770SOL    HW231947   4.573   4.099   5.951  1.5443  3.1099  0.8845
 6771SOL     OW31948   3.793   3.339   2.366  0.4941 -0.3480  0.0941
 6771SOL    HW131949   3.764   3.248   2.375  3.0528 -1.1664  0.0134
 6771SOL    HW231950   3.833   3.349   2.280  2.4482  0.7620  1.1446
 6772SOL     OW31951   4.306   2.293  17.164 -0.0453  0.2359  0.7058
 6772SOL    HW131952   4.346   2.246  17.237  1.5913  1.6698  0.7015
 6772SOL    HW231953   4.325   2.383  17.191 -0.7559  0.1464  1.5050
 6773SOL     OW31954   1.022   2.425   8.353 -0.3220  0.0958  0.3090
 6773SOL    HW131955   0.990   2.386   8.272 -0.8675  1.5137 -0.1406
 6773SOL    HW231956   0.938   2.443   8.394  0.1543  0.2163  1.2463
 6774SOL     OW31957   0.600   4.132   8.751  0.0572  0.1633  0.3165
 6774SOL    HW131958   0.644   4.132   8.836  0.7583 -2.9109 -0.0523
 6774SOL    HW231959   0.603   4.225   8.729 -2.6815  0.6256  1.9076
 6775SOL     OW31960   0.084   3.641  15.357  0.6222 -0.3269  0.4490
 6775SOL    HW131961   0.179   3.632  15.349  0.7316 -1.2766  2.7550
 6775SOL    HW231962   0.066   3.570  15.420  0.5726 -0.0940  0.6974
 6776SOL     OW31963   4.373   0.812   7.258  0.1150  0.8124 -0.4371
 6776SOL    HW131964   4.325   0.895   7.258 -0.1986  0.6414  1.0202
 6776SOL    HW231965   4.362   0.777   7.170 -2.3448  1.1755 -0.2963
 6777SOL     OW31966   0.457   1.349  14.789 -0.3054 -0.1607  0.6289
 6777SOL    HW131967   0.404   1.368  14.866 -1.7207 -1.5291 -0.0247
 6777SOL    HW231968   0.493   1.434  14.762 -1.7634  0.3099  0.1471
 6778SOL     OW31969   1.438   0.508   2.661 -0.2615 -0.0490  0.3342
 6778SOL    HW131970   1.410   0.591   2.701  1.1289  0.3557  0.4474
 6778SOL    HW231971   1.415   0.449   2.734 -1.2910 -0.4892 -0.3352
 6779SOL     OW31972   0.863   2.334  15.125 -0.3994 -0.1871  0.4006
 6779SOL    HW131973   0.819   2.275  15.186  1.6417  0.2612  2.3055
 6779SOL    HW231974   0.954   2.309  15.141 -0.3936 -0.6189 -0.2937
 6780SOL     OW31975   0.091   1.651   3.671  1.2368  0.1039 -0.3422
 6780SOL    HW131976   0.086   1.621   3.762 -3.2917 -2.1482 -1.3281
 6780SOL    HW231977   0.000   1.680   3.660  1.3376  0.3332 -0.5627
 6781SOL     OW31978   1.353   1.674  10.434 -0.6623 -0.2115  0.0793
 6781SOL    HW131979   1.292   1.627  10.376  2.1853 -1.5586 -1.8877
 6781SOL    HW231980   1.337   1.643  10.523 -1.6918 -1.6697 -0.6164
 6782SOL     OW31981   4.424   2.030   6.911 -0.4632  0.5058 -0.4128
 6782SOL    HW131982   4.476   2.023   6.832  0.1772 -2.2114  0.2487
 6782SOL    HW231983   4.448   1.948   6.953  0.3380 -0.6523 -3.1556
 6783SOL     OW31984   4.185   2.268   2.294 -0.4787  0.3876 -0.2356
 6783SOL    HW131985   4.266   2.314   2.272  0.3058 -0.9050 -0.0490
 6783SOL    HW231986   4.203   2.189   2.244 -2.0906  0.3160 -0.6986
 6784SOL     OW31987   4.647   2.626   5.351  0.1466 -0.0098 -0.1287
 6784SOL    HW131988   4.721   2.633   5.291 -0.6094  1.9070 -0.8198
 6784SOL    HW231989   4.622   2.534   5.356  1.4815 -0.4010 -0.8570
 6785SOL     OW31990   3.397   0.603   5.749  0.4914  0.2913 -0.2060
 6785SOL    HW131991   3.339   0.594   5.824  1.5438 -2.3929  0.2947
 6785SOL    HW231992   3.346   0.544   5.693 -0.6114  2.0821 -1.0962
 6786SOL     OW31993   1.666   3.432   5.443  0.0386  0.0801 -0.1751
 6786SOL    HW131994   1.675   3.440   5.348  1.1030 -0.3559 -0.1104
 6786SOL    HW231995   1.587   3.485   5.457 -1.6479 -1.8788 -2.2852
 6787SOL     OW31996   0.692   3.558   7.077  0.1342 -0.1165  0.2395
 6787SOL    HW131997   0.772   3.558   7.024 -0.2275 -0.6699 -0.3083
 6787SOL    HW231998   0.732   3.601   7.153 -0.0356  0.5664 -0.0561
 6788SOL     OW31999   3.356   1.693  15.622  0.5236  0.3918  0.1626
 6788SOL    HW132000   3.389   1.687  15.712  1.8857 -0.3663 -0.3721
 6788SOL    HW232001   3.302   1.771  15.625  1.2677  0.9167 -0.2112
 6789SOL     OW32002   0.588   2.388   8.756  0.2743  0.4706  0.2696
 6789SOL    HW132003   0.655   2.320   8.747 -2.1683 -2.0294  1.0219
 6789SOL    HW232004   0.626   2.428   8.834  2.3334 -1.5892  0.3140
 6790SOL     OW32005   2.129   3.460  15.274 -0.1221 -0.3146 -0.1393
 6790SOL    HW132006   2.218   3.445  15.242 -0.0302  0.8989 -0.4520
 6790SOL    HW232007   2.149   3.482  15.365  2.7518  4.1365 -1.8412
 6791SOL     OW32008   0.095   2.724  14.310 -0.7407  0.3087 -0.2813
 6791SOL    HW132009   0.003   2.723  14.337 -0.3872  0.4564  0.8884
 6791SOL    HW232010   0.121   2.671  14.385 -0.6965 -1.2207 -1.3739
 6792SOL     OW32011   0.323   2.864   7.947 -0.0211 -0.2641 -0.6868
 6792SOL    HW132012   0.340   2.786   8.000 -0.8881  0.3335  0.4706
 6792SOL    HW232013   0.378   2.924   7.997  0.7991 -0.7832 -0.9603
 6793SOL     OW32014   1.947   2.887   2.955 -0.2117 -0.1444  0.0999
 6793SOL    HW132015   1.968   2.980   2.946  0.2162 -0.4693 -2.4270
 6793SOL    HW232016   1.859   2.870   2.921 -0.7826 -0.4328  1.7419
 6794SOL     OW32017   2.060   3.585   6.192  0.2253 -0.4152  0.0725
 6794SOL    HW132018   2.040   3.581   6.285  1.2425 -2.9204  0.1912
 6794SOL    HW232019   1.973   3.565   6.156  0.4362  0.6455 -1.0231
 6795SOL     OW32020   0.413   0.589   9.129  0.1352  0.6863  0.5451
 6795SOL    HW132021   0.470   0.517   9.103 -1.0083 -0.6895  1.9218
 6795SOL    HW232022   0.461   0.658   9.083  1.6289  0.0258  1.1213
 6796SOL     OW32023   4.726   1.293   6.789  0.7267 -0.1333  0.1185
 6796SOL    HW132024   4.717   1.330   6.877  0.9691  2.4184 -0.9525
 6796SOL    HW232025   0.014   1.202   6.805 -0.2098  0.2381  3.7364
 6797SOL     OW32026   0.745   4.275   9.939 -0.1526 -0.1617 -0.3653
 6797SOL    HW132027   0.790   4.272  10.023  1.0467 -0.3929 -1.0160
 6797SOL    HW232028   0.812   4.254   9.874  0.8626 -1.1114  1.0053
 6798SOL     OW32029   2.389   2.568  14.372 -0.0198  0.2796  0.2579
 6798SOL    HW132030   2.355   2.495  14.319 -1.5114  2.6110 -1.9917
 6798SOL    HW232031   2.414   2.627  14.301 -0.6879 -0.2926 -0.4563
 6799SOL     OW32032   4.327   3.253   6.964 -0.3630 -0.0420 -0.5466
 6799SOL    HW132033   4.411   3.217   6.936 -0.3002 -0.0501 -0.3478
 6799SOL    HW232034   4.326   3.341   6.927  0.9912  0.0077 -0.4740
 6800SOL     OW32035   3.748   2.023   4.597  0.0669  0.1012 -0.0934
 6800SOL    HW132036   3.754   1.957   4.666 -0.1228  0.5718  0.3711
 6800SOL    HW232037   3.838   2.055   4.597 -0.7718  2.4409 -0.0776
 6801SOL     OW32038   4.084   0.417  16.535 -0.1244  0.1449 -0.1383
 6801SOL    HW132039   4.129   0.489  16.579 -1.5741 -0.8627  3.0131
 6801SOL    HW232040   4.070   0.441  16.443 -1.2923 -2.8556 -0.7465
 6802SOL     OW32041   2.474   0.691   6.589  0.8120 -0.1629  0.3176
 6802SOL    HW132042   2.388   0.658   6.561  1.2143 -1.1113  0.2009
 6802SOL    HW232043   2.495   0.613   6.640 -1.1343 -0.9643 -0.0726
 6803SOL     OW32044   0.111   1.096   3.296 -0.1472 -0.0203 -0.3236
 6803SOL    HW132045   0.043   1.084   3.229 -1.6510 -3.8857  1.8940
 6803SOL    HW232046   0.068   1.152   3.360  0.7071  2.1128 -1.6269
 6804SOL     OW32047   2.282   4.276   7.463 -0.6157 -0.0497  0.0904
 6804SOL    HW132048   2.215   4.337   7.495 -3.2579 -2.5922 -0.5079
 6804SOL    HW232049   2.324   4.335   7.400  0.1426 -0.7455 -0.0512
 6805SOL     OW32050   2.666   2.540  17.318  0.3179 -0.2195  0.2825
 6805SOL    HW132051   2.716   2.610  17.360  0.9169  0.8492 -2.2175
 6805SOL    HW232052   2.693   2.461  17.364 -3.5666 -0.1861  2.5981
 6806SOL     OW32053   2.348   0.577  16.759  0.0793 -0.5591  0.5991
 6806SOL    HW132054   2.387   0.518  16.695  0.6454  0.2911  0.1543
 6806SOL    HW232055   2.412   0.648  16.758  1.2948 -1.6764 -0.3591
 6807SOL     OW32056   3.448   3.766   8.427  0.6047 -0.1257  0.6472
 6807SOL    HW132057   3.438   3.835   8.492 -0.2144 -0.4007  0.8094
 6807SOL    HW232058   3.363   3.722   8.428  0.1746  0.7099  0.8343
 6808SOL     OW32059   1.432   4.390   5.751 -0.8637 -0.5643 -0.0969
 6808SOL    HW132060   1.458   4.364   5.839 -0.2839 -0.7387 -0.3150
 6808SOL    HW232061   1.376   4.466   5.767  1.4489  0.8824  1.2164
 6809SOL     OW32062   2.669   4.336   5.517  0.4800 -0.9840 -0.2663
 6809SOL    HW132063   2.721   4.271   5.564  2.3949 -0.9433 -2.3124
 6809SOL    HW232064   2.664   4.409   5.579  0.5938 -1.6274  0.5047
 6810SOL     OW32065   2.741   4.694   3.623  0.2605 -0.1868 -0.0103
 6810SOL    HW132066   2.663   4.729   3.579  0.6456 -0.5755 -0.9941
 6810SOL    HW232067   2.816   4.717   3.569  0.5763  2.6158  1.5897
 6811SOL     OW32068   2.207   3.263   7.822 -0.3177  0.1080 -0.3837
 6811SOL    HW132069   2.301   3.265   7.837 -0.2869  0.9650 -0.7409
 6811SOL    HW232070   2.195   3.296   7.733 -1.7640  1.3936  0.2819
 6812SOL     OW32071   0.685   1.066   5.025  0.0932  0.3416 -0.0275
 6812SOL    HW132072   0.646   1.131   5.083  0.6046  0.0983  0.6040
 6812SOL    HW232073   0.627   1.066   4.949  0.1270 -0.6310 -0.0627
 6813SOL     OW32074   3.289   0.083   8.553  0.3052  0.1482 -0.1815
 6813SOL    HW132075   3.234   0.045   8.485 -0.1995  0.9050 -0.1939
 6813SOL    HW232076   3.219   0.088   8.618  0.7551  0.7561  0.2673
 6814SOL     OW32077   0.964   0.951   1.087 -0.5160  0.1015  0.0892
 6814SOL    HW132078   1.036   0.926   1.029 -1.3113 -0.4414 -0.6536
 6814SOL    HW232079   1.020   0.997   1.150 -1.0577  0.3497  0.3853
 6815SOL     OW32080   0.563   2.153   0.459 -0.0314  0.2519  0.2682
 6815SOL    HW132081   0.638   2.206   0.434 -1.7350  2.1329 -0.8266
 6815SOL    HW232082   0.566   2.080   0.397  0.7284  0.3023  0.2514
 6816SOL     OW32083   1.390   2.004   2.101 -0.4683 -0.1936 -0.2403
 6816SOL    HW132084   1.468   1.960   2.069 -0.1865  1.4053 -1.7527
 6816SOL    HW232085   1.420   2.013   2.191 -0.7922 -2.1223  0.0551
 6817SOL     OW32086   2.410   4.144  11.984  0.2673  0.2571  0.0554
 6817SOL    HW132087   2.349   4.105  11.922  1.9472 -1.4611 -0.4937
 6817SOL    HW232088   2.453   4.208  11.927 -1.7571  1.1949 -0.4306
 6818SOL     OW32089   3.291   4.374   9.859  0.2450 -0.2161 -0.3351
 6818SOL    HW132090   3.361   4.392   9.923  0.8285 -0.1069 -1.0063
 6818SOL    HW232091   3.220   4.379   9.923 -0.0138  0.3619 -0.6619
 6819SOL     OW32092   0.165   1.188   2.062 -0.4338  0.0782 -0.4130
 6819SOL    HW132093   0.121   1.133   1.997  0.9113  0.0630 -1.3134
 6819SOL    HW232094   0.160   1.128   2.137  0.8463  0.7489  0.1962
 6820SOL     OW32095   0.446   0.464   2.675 -0.6681 -0.1432 -0.4011
 6820SOL    HW132096   0.351   0.477   2.674 -0.5911  0.4143 -0.4614
 6820SOL    HW232097   0.462   0.467   2.580 -1.1668  0.8180 -0.4600
 6821SOL     OW32098   4.241   1.498   6.559 -0.2226 -0.2714  0.3464
 6821SOL    HW132099   4.192   1.443   6.497 -3.2300  2.7796  0.0100
 6821SOL    HW232100   4.190   1.579   6.558 -0.0611 -0.1790 -0.9485
 6822SOL     OW32101   3.264   2.671   7.536  0.4954  0.0398 -0.1901
 6822SOL    HW132102   3.170   2.670   7.555  0.5841  4.1479  0.4716
 6822SOL    HW232103   3.308   2.706   7.613 -2.3850  0.8106  1.1126
 6823SOL     OW32104   2.049   0.840   2.596  0.1415  0.4170  0.2791
 6823SOL    HW132105   2.091   0.760   2.627 -2.5555 -1.9640 -2.1998
 6823SOL    HW232106   2.005   0.868   2.677 -2.2427 -1.2478 -0.4489
 6824SOL     OW32107   0.629   4.558  11.930 -0.0784  0.3213  0.3411
 6824SOL    HW132108   0.652   4.472  11.963 -3.1458 -0.8436 -0.5727
 6824SOL    HW232109   0.717   4.594  11.916 -0.7129  1.7828  0.0576
 6825SOL     OW32110   4.490   1.459   2.707 -0.2516  0.0619 -0.4411
 6825SOL    HW132111   4.551   1.386   2.709 -1.1322 -0.6215  1.0733
 6825SOL    HW232112   4.410   1.410   2.727 -0.2351 -0.5761 -1.9429
 6826SOL     OW32113   3.453   2.031   3.991  1.1926 -0.4428  0.5353
 6826SOL    HW132114   3.451   1.942   3.957 -1.6468  0.2127 -1.0023
 6826SOL    HW232115   3.394   2.080   3.934 -0.4269 -0.2455  2.3679
 6827SOL     OW32116   0.259   4.584   5.461  0.5737  0.3019 -0.3282
 6827SOL    HW132117   0.183   4.529   5.482  1.6910 -1.4109 -0.8180
 6827SOL    HW232118   0.266   4.552   5.371 -0.7370 -0.1251 -0.2948
 6828SOL     OW32119   0.381   3.858   4.878  0.1688  0.2344  0.1905
 6828SOL    HW132120   0.413   3.948   4.884  1.7163 -0.2023 -1.5628
 6828SOL    HW232121   0.291   3.864   4.909 -0.3822  0.6601 -1.4811
 6829SOL     OW32122   0.482   1.620  12.575 -0.1549 -0.2923 -0.1160
 6829SOL    HW132123   0.408   1.560  12.587  1.5525 -2.4048 -0.2389
 6829SOL    HW232124   0.528   1.622  12.658 -1.3693 -1.3787  0.5857
 6830SOL     OW32125   3.173   1.747   8.242  0.1122  0.5320 -0.3241
 6830SOL    HW132126   3.262   1.741   8.205  0.7505  3.1120  0.7639
 6830SOL    HW232127   3.182   1.824   8.299 -0.8514  0.2515  0.2041
 6831SOL     OW32128   3.945   0.127  17.404  0.4334  0.4065 -0.0077
 6831SOL    HW132129   3.969   0.195  17.341  1.2940 -0.2773 -0.4069
 6831SOL    HW232130   3.943   0.183  17.482  0.8230 -1.7091  1.5028
 6832SOL     OW32131   0.234   0.475  17.573  0.2110  0.0150 -0.2329
 6832SOL    HW132132   0.159   0.532  17.551 -0.2895 -0.4284  0.3179
 6832SOL    HW232133   0.220   0.396  17.521  0.8772 -1.8508  2.4760
 6833SOL     OW32134   0.524   1.377   7.039  0.7655  0.0890  0.7797
 6833SOL    HW132135   0.613   1.386   7.073  0.7750 -1.6022  1.2401
 6833SOL    HW232136   0.511   1.294   6.993 -0.6387  0.8030 -0.1063
 6834SOL     OW32137   1.213   1.719   0.851 -0.2762  0.1648  0.6145
 6834SOL    HW132138   1.238   1.626   0.849 -1.1471 -0.0377 -0.9039
 6834SOL    HW232139   1.153   1.724   0.777 -0.3692  1.1624  0.7592
 6835SOL     OW32140   0.100   2.646   1.970  0.5182  0.0170 -0.8104
 6835SOL    HW132141   0.099   2.739   1.991 -2.1595 -0.4958  1.3260
 6835SOL    HW232142   0.195   2.630   1.972  0.9992  3.1090  1.8828
 6836SOL     OW32143   0.781   3.300   2.587  0.0652 -0.0681  0.3832
 6836SOL    HW132144   0.845   3.354   2.632  0.3403 -0.2071  0.1592
 6836SOL    HW232145   0.729   3.379   2.575  0.6713  0.0152 -1.6718
 6837SOL     OW32146   0.979   4.701  12.707  0.4474  0.4565 -0.0210
 6837SOL    HW132147   0.912   4.652  12.754  1.3931 -0.9687 -0.1728
 6837SOL    HW232148   0.948   4.709  12.617 -0.4731  1.0229  0.3471
 6838SOL     OW32149   0.283   3.597   8.953  0.2663  0.2102 -0.2393
 6838SOL    HW132150   0.299   3.555   9.038  0.8888 -0.5059 -0.7037
 6838SOL    HW232151   0.341   3.540   8.901  1.9237  2.0281 -0.3763
 6839SOL     OW32152   0.174   0.196   7.530  0.1093  0.5216 -0.2420
 6839SOL    HW132153   0.228   0.174   7.606 -1.2100  1.8935  1.0823
 6839SOL    HW232154   0.179   0.291   7.529 -1.0563  0.6104  2.7218
 6840SOL     OW32155   2.093   2.402   3.901  0.1649  0.8538 -0.1108
 6840SOL    HW132156   2.174   2.430   3.859  0.7446 -0.4452  0.1242
 6840SOL    HW232157   2.068   2.324   3.852  2.0808 -0.5988  1.2082
 6841SOL     OW32158   4.556   1.124   5.855  0.1164 -0.2557  0.1425
 6841SOL    HW132159   4.619   1.122   5.783 -1.1272  0.6316 -0.9671
 6841SOL    HW232160   4.611   1.093   5.926 -1.1059  0.1875  1.2749
 6842SOL     OW32161   2.766   4.719   2.980 -0.1199  0.2754 -0.0633
 6842SOL    HW132162   2.826   4.710   2.907  0.1786 -1.7173  0.4345
 6842SOL    HW232163   2.690   0.023   2.939 -0.5945 -0.4597  0.0651
 6843SOL     OW32164   0.617   1.077   7.202  0.1134 -0.1337  0.2510
 6843SOL    HW132165   0.669   1.135   7.258 -2.2849  1.1544  1.1436
 6843SOL    HW232166   0.683   1.010   7.186 -0.9698 -1.3224  0.7501
 6844SOL     OW32167   0.293   3.041  16.424 -0.4770 -0.1792 -0.1441
 6844SOL    HW132168   0.305   3.118  16.368 -2.9733  0.4903  0.2415
 6844SOL    HW232169   0.380   3.002  16.427 -1.1262 -1.7218 -1.0143
 6845SOL     OW32170   1.042   3.745   5.985 -0.0866 -0.2271  0.4702
 6845SOL    HW132171   1.063   3.839   5.985  0.7937 -0.4277  1.5357
 6845SOL    HW232172   1.022   3.735   5.892  0.8007 -0.7163  0.3382
 6846SOL     OW32173   0.914   1.547   7.983  0.4253  0.2906  0.3408
 6846SOL    HW132174   0.857   1.524   7.909  2.0366  0.5656 -0.9966
 6846SOL    HW232175   0.866   1.493   8.045  0.8926 -0.0749  0.3847
 6847SOL     OW32176   3.722   2.843   3.454 -0.0447  0.2085 -0.1685
 6847SOL    HW132177   3.803   2.873   3.495  0.2341  0.3784 -0.8561
 6847SOL    HW232178   3.663   2.879   3.521 -2.7642 -2.0314 -1.3539
 6848SOL     OW32179   4.149   0.687   9.562 -0.0913 -0.4805  0.3594
 6848SOL    HW132180   4.186   0.743   9.630  0.7546 -0.3997 -0.1747
 6848SOL    HW232181   4.204   0.609   9.572  0.7188  0.0434 -0.0538
 6849SOL     OW32182   3.505   1.256   3.789 -0.1046 -0.7078  0.6613
 6849SOL    HW132183   3.456   1.271   3.870 -0.2061 -0.7868  0.6157
 6849SOL    HW232184   3.436   1.249   3.723  0.4116 -1.9489  0.2524
 6850SOL     OW32185   4.236   3.223   9.353  0.0664 -0.6631 -0.6022
 6850SOL    HW132186   4.235   3.287   9.425 -1.8052  0.6595 -1.8102
 6850SOL    HW232187   4.145   3.228   9.324 -0.4183 -0.5088  0.9234
 6851SOL     OW32188   1.877   2.708  15.651  0.2780  0.2077 -0.1966
 6851SOL    HW132189   1.889   2.615  15.634 -3.7293 -0.3898  0.2115
 6851SOL    HW232190   1.794   2.727  15.607  0.1995  2.6584  0.9884
 6852SOL     OW32191   0.150   1.603   1.136  0.3180 -0.3106 -0.2770
 6852SOL    HW132192   0.186   1.528   1.088  1.8102 -0.0532  0.4250
 6852SOL    HW232193   0.231   1.648   1.160 -0.1787 -0.7601  2.2266
 6853SOL     OW32194   0.503   1.560   8.782  0.0069 -0.3622 -0.1179
 6853SOL    HW132195   0.537   1.529   8.866 -0.8213 -0.2993  0.2458
 6853SOL    HW232196   0.500   1.655   8.787 -1.0167 -0.3148 -1.6312
 6854SOL     OW32197   3.771   3.666  16.644  0.5624 -0.1707  0.3346
 6854SOL    HW132198   3.745   3.599  16.708  1.2596  0.7383  1.5622
 6854SOL    HW232199   3.731   3.739  16.691  1.9974  0.8862 -0.0843
 6855SOL     OW32200   2.905   4.118   6.252  0.4566  0.2986  0.5273
 6855SOL    HW132201   2.975   4.174   6.220 -1.4825  2.5123  0.1153
 6855SOL    HW232202   2.932   4.086   6.338  0.5058 -0.9759  0.0375
 6856SOL     OW32203   4.258   1.029   4.326  0.3317  0.1078 -0.3794
 6856SOL    HW132204   4.285   1.033   4.418 -0.4090  0.5242 -0.1787
 6856SOL    HW232205   4.235   1.121   4.311  1.9440  0.7302  0.8907
 6857SOL     OW32206   3.261   0.687   0.366 -0.3742  0.3791  0.3970
 6857SOL    HW132207   3.179   0.686   0.317 -0.9500 -0.9933  1.3960
 6857SOL    HW232208   3.307   0.611   0.332 -0.8338  0.5991 -0.7047
 6858SOL     OW32209   2.978   1.689   9.303  0.3466  0.1190 -0.3897
 6858SOL    HW132210   2.908   1.738   9.348 -0.7895 -1.0570 -0.8956
 6858SOL    HW232211   2.946   1.609   9.263 -0.7558  0.4425 -0.1568
 6859SOL     OW32212   4.400   4.694   0.436  0.0895  0.1442 -0.2955
 6859SOL    HW132213   4.305   4.708   0.438  0.0842  0.1614 -0.5723
 6859SOL    HW232214   4.431   0.042   0.408 -0.4123  0.9757  1.7402
 6860SOL     OW32215   1.177   3.586  15.984 -0.6320 -0.8947 -0.1528
 6860SOL    HW132216   1.207   3.509  15.936  0.5059 -0.8019  0.3989
 6860SOL    HW232217   1.255   3.617  16.031 -1.8426 -0.8231  1.8076
 6861SOL     OW32218   2.227   2.190   3.505  0.4061 -0.7116  0.0301
 6861SOL    HW132219   2.306   2.209   3.557  1.0788 -0.8560 -0.9475
 6861SOL    HW232220   2.229   2.096   3.524 -1.9706 -0.9875 -1.1487
 6862SOL     OW32221   0.937   1.200   6.921  0.2815 -0.1802 -0.1522
 6862SOL    HW132222   0.961   1.121   6.872 -1.9278 -1.5916  1.0635
 6862SOL    HW232223   0.990   1.254   6.863  0.0977  0.6827  0.4825
 6863SOL     OW32224   2.154   3.080  16.838  0.1506 -0.7192 -0.7707
 6863SOL    HW132225   2.098   3.156  16.820 -0.0658 -0.4325  1.0943
 6863SOL    HW232226   2.120   3.010  16.782 -2.7099  1.2372 -1.5016
 6864SOL     OW32227   0.522   0.522   2.424  0.3422 -0.1642  0.3149
 6864SOL    HW132228   0.503   0.516   2.331  1.3076 -0.7748  0.1628
 6864SOL    HW232229   0.564   0.608   2.424  0.1031 -0.0198  4.0599
 6865SOL     OW32230   2.555   3.513  13.053  0.4500  0.1954  0.3233
 6865SOL    HW132231   2.625   3.544  13.111  0.2509 -0.4846  0.9398
 6865SOL    HW232232   2.505   3.467  13.121  0.4748  0.1514  0.3122
 6866SOL     OW32233   2.625   1.229   5.319  0.1014 -0.7164  0.2598
 6866SOL    HW132234   2.604   1.229   5.226  2.0226 -0.1894 -0.1790
 6866SOL    HW232235   2.625   1.324   5.336  1.0458 -0.5541 -0.6374
 6867SOL     OW32236   3.417   1.313   9.121 -0.2000 -0.2563  0.3558
 6867SOL    HW132237   3.356   1.323   9.047 -0.1053  0.0438  0.3152
 6867SOL    HW232238   3.416   1.405   9.147  1.0033 -0.1443 -0.0077
 6868SOL     OW32239   3.334   0.213   5.889 -0.6561  0.7709  0.3897
 6868SOL    HW132240   3.318   0.172   5.804  2.0065  1.3285 -0.3702
 6868SOL    HW232241   3.411   0.265   5.866 -0.2704  0.4060  0.8740
 6869SOL     OW32242   2.122   1.588   6.778  0.7103  0.3037  0.0791
 6869SOL    HW132243   2.110   1.497   6.808 -0.0783 -0.3090 -2.0948
 6869SOL    HW232244   2.198   1.585   6.720  0.2185 -0.8023 -0.5103
 6870SOL     OW32245   1.570   3.931   5.364 -0.4646  0.0549 -0.2383
 6870SOL    HW132246   1.560   3.994   5.293  0.5840  0.8901  0.3535
 6870SOL    HW232247   1.621   3.978   5.430 -2.3458 -0.9009  1.8880
 6871SOL     OW32248   1.385   3.395   9.330 -0.3045 -0.1624  0.0377
 6871SOL    HW132249   1.357   3.486   9.340 -0.0653 -0.2414  1.5000
 6871SOL    HW232250   1.470   3.395   9.375 -1.0757  0.4709  1.4830
 6872SOL     OW32251   0.064   2.294  17.021  0.1213 -0.0351 -0.0626
 6872SOL    HW132252   0.147   2.248  17.027 -0.7482 -1.4097  1.1985
 6872SOL    HW232253   0.029   2.268  16.936  0.6644 -0.4872 -0.1514
 6873SOL     OW32254   2.813   4.538  11.286  0.1643 -0.3790 -0.2090
 6873SOL    HW132255   2.720   4.515  11.294 -0.3993  1.2738 -1.9475
 6873SOL    HW232256   2.826   4.605  11.353  0.8760 -0.3857 -0.3427
 6874SOL     OW32257   0.560   1.620  13.124  0.3144 -0.4738 -0.3688
 6874SOL    HW132258   0.507   1.586  13.196  0.7907  2.4218  1.3562
 6874SOL    HW232259   0.647   1.627  13.164  0.2888 -0.3709 -0.3290
 6875SOL     OW32260   3.567   1.222   1.263 -0.5860 -0.4501  0.2335
 6875SOL    HW132261   3.588   1.308   1.299 -1.4930 -0.4750  0.8378
 6875SOL    HW232262   3.646   1.194   1.217  0.2182 -0.5142  1.6515
 6876SOL     OW32263   3.484   0.152   6.125 -0.1915 -0.1140  0.0236
 6876SOL    HW132264   3.401   0.177   6.084  0.1497  0.5563 -0.2552
 6876SOL    HW232265   3.513   0.239   6.150  1.5832  0.1318 -2.9087
 6877SOL     OW32266   1.580   0.164   4.380 -0.7347 -0.0644  0.6913
 6877SOL    HW132267   1.541   0.239   4.425 -0.4054  0.5644 -0.0705
 6877SOL    HW232268   1.520   0.099   4.417 -0.6011 -1.6410 -1.8283
 6878SOL     OW32269   3.762   3.772   6.120 -0.2548  0.5546  0.7137
 6878SOL    HW132270   3.725   3.824   6.049  1.5336  0.0010 -0.6162
 6878SOL    HW232271   3.683   3.774   6.175  0.0442  0.2728  1.1494
 6879SOL     OW32272   1.480   4.703   8.129  0.6543 -0.1049  0.4799
 6879SOL    HW132273   1.435   0.005   8.203  0.1622 -1.8437  1.1156
 6879SOL    HW232274   1.465   4.611   8.150  0.4643  0.0579  1.0497
 6880SOL     OW32275   0.926   0.187   0.946 -0.1047 -0.1955  0.7315
 6880SOL    HW132276   0.892   0.103   0.977 -0.1531 -0.7226 -0.7253
 6880SOL    HW232277   0.843   0.223   0.914  1.5188  1.5341 -1.5143
 6881SOL     OW32278   2.918   0.035   9.787  0.0225 -0.1957 -0.0326
 6881SOL    HW132279   2.952   0.080   9.864  0.8334 -0.8676  0.0037
 6881SOL    HW232280   2.998   0.003   9.744  1.2373  0.2205  1.9460
 6882SOL     OW32281   0.872   3.961   5.613  0.5450  0.3550 -0.1891
 6882SOL    HW132282   0.931   3.986   5.541  0.6352 -1.8766 -0.9025
 6882SOL    HW232283   0.900   4.009   5.690 -1.0365  0.8611  0.0645
 6883SOL     OW32284   4.400   3.512   3.060  0.2671 -0.1432  0.0289
 6883SOL    HW132285   4.471   3.483   3.003 -1.0947 -1.1840 -1.1275
 6883SOL    HW232286   4.362   3.430   3.091 -0.3904  0.2155  0.1640
 6884SOL     OW32287   1.390   2.844  12.066 -0.3717 -0.6520 -0.1538
 6884SOL    HW132288   1.483   2.851  12.045 -0.5532 -1.4396 -1.2574
 6884SOL    HW232289   1.349   2.892  11.994 -0.5910  0.2076  0.5601
 6885SOL     OW32290   3.616   4.291   8.856  0.5301  0.2068  0.3129
 6885SOL    HW132291   3.620   4.218   8.917 -0.6908 -0.4038 -0.3366
 6885SOL    HW232292   3.541   4.340   8.889 -0.4442 -0.1534 -1.3543
 6886SOL     OW32293   2.150   4.162   5.579 -0.4936 -0.3965 -0.6966
 6886SOL    HW132294   2.210   4.177   5.506  0.2761  0.8880  0.2011
 6886SOL    HW232295   2.108   4.246   5.595  4.0041  2.0136 -1.6399
 6887SOL     OW32296   4.717   3.371   6.808 -0.1107  0.0521 -0.0065
 6887SOL    HW132297   4.680   3.283   6.805 -0.6703  0.3511 -1.7765
 6887SOL    HW232298   0.071   3.355   6.787 -0.3907 -0.8894 -0.4904
 6888SOL     OW32299   3.929   2.846   6.501  0.4421  0.6643  0.1975
 6888SOL    HW132300   3.976   2.792   6.564 -1.5508 -1.5593 -0.2478
 6888SOL    HW232301   3.920   2.786   6.428 -0.2344 -0.2333  1.0198
 6889SOL     OW32302   3.915   3.725   7.001  0.4909  0.0478  0.2370
 6889SOL    HW132303   3.962   3.653   6.959 -0.7333  0.0326 -1.1237
 6889SOL    HW232304   3.981   3.794   6.988  1.3752 -0.3929  2.4896
 6890SOL     OW32305   1.375   4.675   6.623 -0.2725 -0.4372 -0.4753
 6890SOL    HW132306   1.441   4.607   6.634 -0.1043 -0.1190  0.4456
 6890SOL    HW232307   1.301   4.643   6.674  0.4110  0.0358  0.7910
 6891SOL     OW32308   4.075   4.669   9.115  0.1463 -0.5059 -0.4961
 6891SOL    HW132309   4.102   4.605   9.049 -0.8942 -0.3722 -1.0421
 6891SOL    HW232310   4.146   4.649   9.176  1.0549 -0.6518 -1.6036
 6892SOL     OW32311   3.912   1.592   8.834  0.4700 -0.0303  0.3346
 6892SOL    HW132312   3.985   1.610   8.774  0.5749  2.5803  1.2442
 6892SOL    HW232313   3.868   1.676   8.849  3.6383  1.3213  2.1501
 6893SOL     OW32314   1.591   0.967  17.186 -0.1320 -0.1359  0.1345
 6893SOL    HW132315   1.628   1.051  17.158 -0.4107  0.1337  0.5718
 6893SOL    HW232316   1.665   0.934  17.236  0.4765  0.6796 -0.2236
 6894SOL     OW32317   2.521   1.020   1.823  0.1734  0.2756  0.3287
 6894SOL    HW132318   2.430   0.993   1.828 -0.0082  1.2674  2.3164
 6894SOL    HW232319   2.516   1.114   1.807 -0.0720  0.0686 -0.7995
 6895SOL     OW32320   1.865   4.103   5.825  0.0767  0.9483 -0.3288
 6895SOL    HW132321   1.888   4.181   5.876  0.8060  0.4871  0.0350
 6895SOL    HW232322   1.781   4.080   5.866 -0.2148  3.2849  0.3936
 6896SOL     OW32323   2.057   3.925   5.820 -0.1182  0.1186 -0.9111
 6896SOL    HW132324   2.042   3.905   5.912 -0.2362 -1.8504 -1.3707
 6896SOL    HW232325   1.995   3.997   5.808 -1.2198 -0.6161  0.4841
 6897SOL     OW32326   0.557   1.580  12.842 -0.0505 -0.6551  0.0105
 6897SOL    HW132327   0.627   1.640  12.868 -1.6012  1.7046 -1.2803
 6897SOL    HW232328   0.516   1.580  12.929 -0.8000 -0.2857 -0.3482
 6898SOL     OW32329   1.307   0.329  16.624 -0.6541  0.6476  0.0009
 6898SOL    HW132330   1.223   0.363  16.654 -2.3206 -0.0150 -3.8335
 6898SOL    HW232331   1.364   0.403  16.643  1.9132 -1.3036 -0.1700
 6899SOL     OW32332   0.199   0.110   8.094 -0.0776 -0.3540  0.2199
 6899SOL    HW132333   0.111   0.102   8.056  0.5324 -1.9573 -0.8634
 6899SOL    HW232334   0.182   0.107   8.188  0.8933 -1.2217  0.3618
 6900SOL     OW32335   0.383   2.259   2.447 -0.1303 -0.8231  0.0257
 6900SOL    HW132336   0.463   2.311   2.444  0.2669 -1.4092  0.4607
 6900SOL    HW232337   0.423   2.173   2.436  1.1520 -0.0891 -1.0104
 6901SOL     OW32338   2.632   4.325   0.297  0.3530  0.2353 -0.0954
 6901SOL    HW132339   2.636   4.273   0.217 -0.5443 -2.1075  1.3982
 6901SOL    HW232340   2.688   4.272   0.353 -0.2055 -0.6185 -0.3551
 6902SOL     OW32341   4.659   2.403   4.175 -0.4166 -0.1714 -0.1352
 6902SOL    HW132342   4.689   2.467   4.111  2.0840 -0.8477  0.3567
 6902SOL    HW232343   4.570   2.426   4.201 -1.0628 -3.8399  0.9123
 6903SOL     OW32344   1.020   2.256   1.856  0.0205  0.1037 -0.6992
 6903SOL    HW132345   0.966   2.181   1.833 -0.8746  0.4477  0.2739
 6903SOL    HW232346   1.089   2.216   1.909 -1.0514  2.0218  2.1760
 6904SOL     OW32347   0.445   3.013   2.894 -0.2153 -0.4095 -0.1525
 6904SOL    HW132348   0.412   3.068   2.823 -1.2025 -2.2656 -1.0936
 6904SOL    HW232349   0.448   3.075   2.967 -3.3014  0.8928 -1.1549
 6905SOL     OW32350   0.626   1.140   3.209  0.2136 -0.1181 -0.1082
 6905SOL    HW132351   0.539   1.113   3.178  0.0121 -0.5613  0.8299
 6905SOL    HW232352   0.605   1.222   3.255 -0.9428 -0.7474  0.4878
 6906SOL     OW32353   2.908   2.121  13.075 -0.1493  0.1481  0.1504
 6906SOL    HW132354   2.982   2.096  13.130 -0.5110  2.1125  1.5349
 6906SOL    HW232355   2.844   2.055  13.100 -2.1662  1.9296 -0.2976
 6907SOL     OW32356   2.966   3.739   3.978  0.4563 -0.4867 -0.2556
 6907SOL    HW132357   2.941   3.661   3.928  0.8790 -1.5735  1.2630
 6907SOL    HW232358   3.023   3.784   3.916 -1.1940 -0.6972 -1.9302
 6908SOL     OW32359   3.825   2.734   8.303  0.1189  0.1310 -0.2141
 6908SOL    HW132360   3.813   2.810   8.360  2.8740  1.4164 -1.3544
 6908SOL    HW232361   3.918   2.731   8.280  0.6186 -0.6011  1.9706
 6909SOL     OW32362   1.539   3.153   5.374 -0.1459 -0.6531 -0.3815
 6909SOL    HW132363   1.479   3.184   5.306 -1.1436 -0.3917  0.6236
 6909SOL    HW232364   1.503   3.193   5.453 -1.4605  0.1299 -1.3652
 6910SOL     OW32365   0.607   3.493   9.079 -0.0806 -0.3583  0.3084
 6910SOL    HW132366   0.677   3.556   9.062 -0.3493  0.0446  0.6878
 6910SOL    HW232367   0.560   3.473   8.998  0.1159 -0.0566  0.1183
 6911SOL     OW32368   2.260   0.142   7.559  0.3198 -0.6367 -0.1317
 6911SOL    HW132369   2.322   0.115   7.491  0.9524  0.7454 -0.1081
 6911SOL    HW232370   2.261   0.235   7.535 -0.6678 -0.3595  0.8912
 6912SOL     OW32371   4.393   0.646   8.626  0.1160  0.1761  0.2133
 6912SOL    HW132372   4.406   0.573   8.565  1.3997  0.7858 -0.2456
 6912SOL    HW232373   4.393   0.716   8.561 -0.5664 -1.4958 -1.5961
 6913SOL     OW32374   3.030   1.442   7.363 -0.1990 -0.0469  0.2797
 6913SOL    HW132375   3.090   1.504   7.321  0.8092  0.2604  2.1609
 6913SOL    HW232376   3.090   1.383   7.408 -1.1609 -0.8371  0.5146
 6914SOL     OW32377   1.881   0.408   6.623 -0.4615 -0.5434  0.0634
 6914SOL    HW132378   1.902   0.391   6.532 -2.3412  2.3803 -0.9030
 6914SOL    HW232379   1.811   0.346   6.644 -0.8443 -0.0413  0.2849
 6915SOL     OW32380   2.814   1.254   5.058 -0.5290  0.2089 -0.0728
 6915SOL    HW132381   2.875   1.181   5.048 -0.1084  0.2994  1.8012
 6915SOL    HW232382   2.874   1.318   5.099  1.3353 -1.9726  0.5996
 6916SOL     OW32383   4.068   0.855   2.167 -0.0600 -0.1207  0.2716
 6916SOL    HW132384   4.046   0.893   2.252  1.2704 -2.0296  1.4960
 6916SOL    HW232385   4.074   0.766   2.204 -0.6119 -0.3777 -0.2622
 6917SOL     OW32386   4.649   1.795   5.232 -0.5165  0.0248 -0.6684
 6917SOL    HW132387   4.637   1.862   5.300  1.1072  0.6834 -1.0374
 6917SOL    HW232388   4.689   1.849   5.164  1.8098 -0.0965  0.6090
 6918SOL     OW32389   0.107   0.063  16.045  0.2003  0.1595  0.1191
 6918SOL    HW132390   0.024   0.090  16.084  0.9655 -0.2139  2.0218
 6918SOL    HW232391   0.170   0.088  16.113  0.8861 -2.4990  0.4456
 6919SOL     OW32392   3.385   4.356   8.959 -0.1549 -0.4369 -0.8676
 6919SOL    HW132393   3.295   4.376   8.934 -0.4820 -1.3224 -0.3822
 6919SOL    HW232394   3.384   4.329   9.051  3.9025 -2.7151 -1.4696
 6920SOL     OW32395   4.585   0.864   1.859 -0.2457 -0.4179 -0.2237
 6920SOL    HW132396   4.522   0.835   1.925  1.9270 -1.2424  1.4882
 6920SOL    HW232397   4.586   0.779   1.815  2.0570  0.1698 -1.2751
 6921SOL     OW32398   1.797   0.416   4.038  0.3831  0.5546 -0.5342
 6921SOL    HW132399   1.845   0.341   4.074 -0.8912 -1.5494 -3.2877
 6921SOL    HW232400   1.708   0.391   4.063  0.4404 -0.6300 -1.5141
 6922SOL     OW32401   0.470   4.235   6.978 -0.3935  0.1541 -0.6182
 6922SOL    HW132402   0.557   4.206   7.006 -0.7407 -1.1966 -0.9181
 6922SOL    HW232403   0.432   4.160   6.932 -2.7323  1.9893 -1.7142
 6923SOL     OW32404   1.482   2.980   4.120  0.6514 -0.6529 -0.1215
 6923SOL    HW132405   1.422   2.936   4.181 -0.6768  0.3656 -0.6876
 6923SOL    HW232406   1.509   2.909   4.062 -0.0184 -0.9617 -0.0551
 6924SOL     OW32407   1.266   0.196  12.055 -0.2073 -0.0211  0.0025
 6924SOL    HW132408   1.237   0.114  12.015 -0.8046  1.2898 -2.2866
 6924SOL    HW232409   1.185   0.221  12.100  0.2057  2.0466 -0.3790
 6925SOL     OW32410   0.153   3.876   9.450 -0.0491 -0.1335  0.7751
 6925SOL    HW132411   0.103   3.837   9.522 -0.5016  0.5535  0.8366
 6925SOL    HW232412   0.123   3.837   9.368 -0.6861  0.0646  0.9142
 6926SOL     OW32413   1.080   4.302   7.396 -0.3181 -0.3305 -0.4060
 6926SOL    HW132414   1.115   4.377   7.445 -1.1481 -0.1306 -0.1168
 6926SOL    HW232415   1.043   4.257   7.472 -1.1341  2.7038  1.0075
 6927SOL     OW32416   3.190   2.230   9.062  0.2476  0.3987  0.3045
 6927SOL    HW132417   3.158   2.153   9.108  0.4947 -0.9870 -1.8669
 6927SOL    HW232418   3.149   2.297   9.118 -0.2394 -0.9567  1.5758
 6928SOL     OW32419   3.511   4.326   5.265 -0.3111 -0.0862  0.6197
 6928SOL    HW132420   3.589   4.287   5.305 -0.9942 -2.6693 -0.5574
 6928SOL    HW232421   3.512   4.282   5.180 -2.0434  0.4956  0.3104
 6929SOL     OW32422   0.317   1.303  17.256  0.5780  0.1877 -0.1435
 6929SOL    HW132423   0.320   1.347  17.341 -1.7554  0.0860  0.0141
 6929SOL    HW232424   0.261   1.365  17.210 -3.7899 -2.0489  2.1226
 6930SOL     OW32425   1.316   1.355   5.589  1.0737  0.0897  0.6137
 6930SOL    HW132426   1.225   1.355   5.559  0.0451  0.6102  3.7273
 6930SOL    HW232427   1.312   1.268   5.629  2.3948 -0.5315 -0.6065
 6931SOL     OW32428   0.199   4.487  17.693  0.0020 -0.6931 -0.0677
 6931SOL    HW132429   0.136   4.477  17.621  0.5204  0.2920 -0.6590
 6931SOL    HW232430   0.166   4.438   0.017 -1.0628 -1.7519 -1.2103
 6932SOL     OW32431   3.376   1.395   5.391 -0.2762  0.1125  0.0303
 6932SOL    HW132432   3.437   1.349   5.449 -0.7928 -2.9245 -1.8337
 6932SOL    HW232433   3.358   1.325   5.328 -0.0696 -0.4740  0.6320
 6933SOL     OW32434   0.819   1.921   1.339 -0.0283 -0.1533  0.3407
 6933SOL    HW132435   0.867   1.976   1.277  2.9702 -3.1873 -0.0342
 6933SOL    HW232436   0.888   1.895   1.400 -2.0776 -1.6448  2.0418
 6934SOL     OW32437   1.801   2.532   2.238 -0.4749 -0.6132 -0.1608
 6934SOL    HW132438   1.888   2.510   2.270  0.8402  0.5313 -2.9057
 6934SOL    HW232439   1.827   2.552   2.148 -0.9397  1.0323  0.0598
 6935SOL     OW32440   1.545   3.895   7.556  0.2376 -0.2419 -0.0960
 6935SOL    HW132441   1.544   3.980   7.514 -0.4734 -0.6918 -0.9899
 6935SOL    HW232442   1.575   3.840   7.484  1.8452 -0.7330  0.9384
 6936SOL     OW32443   1.562   1.955   4.740 -0.0277 -0.2074 -0.5430
 6936SOL    HW132444   1.587   2.032   4.689  1.8828 -0.7066 -0.3782
 6936SOL    HW232445   1.626   1.884   4.736  0.7177  0.4204  0.1942
 6937SOL     OW32446   0.391   1.435   4.857  0.0326 -0.2165 -0.4095
 6937SOL    HW132447   0.295   1.445   4.854 -0.2257 -2.5005  0.6052
 6937SOL    HW232448   0.412   1.479   4.774  0.2310 -0.3648 -0.4359
 6938SOL     OW32449   0.076   1.132   5.275 -0.2799 -0.4824 -0.0984
 6938SOL    HW132450   0.047   1.159   5.362  0.5707 -0.8453  0.3001
 6938SOL    HW232451   0.065   1.214   5.227 -1.6114  0.6868  2.2220
 6939SOL     OW32452   2.470   2.561   7.071  0.5938  0.3514 -0.6822
 6939SOL    HW132453   2.515   2.485   7.107  0.4184 -0.1887 -1.5881
 6939SOL    HW232454   2.450   2.611   7.150 -1.0583  0.5604 -1.2304
 6940SOL     OW32455   1.629   1.275   3.519  0.0329  0.1213 -0.2219
 6940SOL    HW132456   1.700   1.240   3.465  0.2371  0.8512 -0.4392
 6940SOL    HW232457   1.561   1.211   3.500  0.5117 -0.7429  0.9621
 6941SOL     OW32458   2.754   1.179   4.600  0.4095  0.7519  0.5033
 6941SOL    HW132459   2.826   1.152   4.656 -0.7720  0.9310  2.1131
 6941SOL    HW232460   2.687   1.113   4.622 -0.0979  2.1015  2.9179
 6942SOL     OW32461   4.096   0.611  12.696  0.2789  0.6314 -0.1264
 6942SOL    HW132462   4.183   0.649  12.683  0.2069  0.2941 -1.5428
 6942SOL    HW232463   4.095   0.583  12.788  1.1422  0.3959 -0.1927
 6943SOL     OW32464   4.431   1.566   0.788  0.1882  0.2049 -0.3504
 6943SOL    HW132465   4.347   1.607   0.769  1.0299  1.5932 -1.1036
 6943SOL    HW232466   4.414   1.478   0.754 -1.6583  0.1313  0.7502
 6944SOL     OW32467   2.636   1.826   5.654  0.3369  0.1742  0.2532
 6944SOL    HW132468   2.717   1.876   5.642  0.6713 -0.3336  0.3635
 6944SOL    HW232469   2.609   1.862   5.738 -2.7268  0.3209 -0.8013
 6945SOL     OW32470   1.690   1.173  14.232  0.1807 -0.4651 -0.2157
 6945SOL    HW132471   1.736   1.167  14.315  2.5769 -0.0219 -1.4989
 6945SOL    HW232472   1.602   1.157  14.265 -0.4345  0.7316 -1.2586
 6946SOL     OW32473   2.268   3.345  10.937 -0.1924 -0.1845 -0.5847
 6946SOL    HW132474   2.284   3.424  10.988  2.7877 -0.9511 -0.3698
 6946SOL    HW232475   2.240   3.276  10.997 -2.9312  1.8012  0.4381
 6947SOL     OW32476   1.572   4.192   8.623  0.2214  1.0097  0.7031
 6947SOL    HW132477   1.570   4.107   8.580  0.9425  1.1095  0.4827
 6947SOL    HW232478   1.547   4.246   8.548  0.3930 -1.2653 -1.0085
 6948SOL     OW32479   2.586   3.479   8.009  0.1415  0.4833 -0.3568
 6948SOL    HW132480   2.674   3.461   8.043 -0.2911  1.8981  1.4556
 6948SOL    HW232481   2.557   3.546   8.070  0.8906  1.0238 -0.5948
 6949SOL     OW32482   2.885   3.007   8.212  0.2652 -0.7761 -0.2870
 6949SOL    HW132483   2.847   2.936   8.160  0.7162 -0.6372 -0.7959
 6949SOL    HW232484   2.835   2.996   8.294 -0.7331 -0.9688 -0.9157
 6950SOL     OW32485   2.579   1.559   7.448 -0.1178  0.6634  0.4160
 6950SOL    HW132486   2.633   1.480   7.447 -2.5640 -0.9986 -0.6396
 6950SOL    HW232487   2.496   1.518   7.472 -1.1306  3.4899  1.7745
 6951SOL     OW32488   4.115   0.328   1.099  0.3745 -0.0590 -0.2035
 6951SOL    HW132489   4.186   0.326   1.034 -0.4991  2.9827 -1.2268
 6951SOL    HW232490   4.040   0.364   1.051  0.8646 -0.6092 -1.3956
 6952SOL     OW32491   2.356   0.334  15.049  0.3020 -0.2863 -0.1081
 6952SOL    HW132492   2.405   0.319  15.130  0.3396  2.0487  0.3029
 6952SOL    HW232493   2.426   0.319  14.985 -0.9356  0.2953 -1.6006
 6953SOL     OW32494   2.466   4.075   7.410  0.5306  0.1888 -0.3158
 6953SOL    HW132495   2.414   4.145   7.450  0.5917 -0.8113  1.4885
 6953SOL    HW232496   2.517   4.054   7.488  0.9679  0.0582 -0.6365
 6954SOL     OW32497   3.261   0.618   5.135  0.2117  0.0591  0.7390
 6954SOL    HW132498   3.245   0.544   5.193  0.8893  1.8650  3.2604
 6954SOL    HW232499   3.356   0.622   5.138  0.2999 -1.0945 -0.3708
 6955SOL     OW32500   0.499   4.200  12.200 -0.2472 -0.0520  0.5887
 6955SOL    HW132501   0.455   4.116  12.209  2.5588 -1.5223  0.8333
 6955SOL    HW232502   0.476   4.237  12.285  3.2533  2.8371  0.3079
 6956SOL     OW32503   1.348   3.651   9.394 -0.3784  0.1209  0.5268
 6956SOL    HW132504   1.400   3.689   9.464  0.7019  1.0257 -0.7652
 6956SOL    HW232505   1.258   3.656   9.425 -0.4529 -0.7510  0.4637
 6957SOL     OW32506   1.557   4.512  16.129  0.3930 -0.4582  0.2302
 6957SOL    HW132507   1.487   4.564  16.089 -0.7517  0.0903  2.9653
 6957SOL    HW232508   1.528   4.529  16.219  0.1357  0.4564 -0.0190
 6958SOL     OW32509   2.561   1.049   9.295  0.2579  0.4400  0.0181
 6958SOL    HW132510   2.500   0.982   9.324  0.5764  1.0621  2.0667
 6958SOL    HW232511   2.608   1.011   9.220  2.3377 -1.6852  2.3893
 6959SOL     OW32512   2.065   4.562  13.587  0.4705 -0.6345 -0.5159
 6959SOL    HW132513   2.130   4.576  13.518  2.3462  1.5870  1.6919
 6959SOL    HW232514   2.060   4.646  13.633 -1.9773 -0.2615 -1.5005
 6960SOL     OW32515   2.070   3.614  10.885  0.2813 -0.3301 -0.0699
 6960SOL    HW132516   2.136   3.616  10.954 -0.7827 -2.6268  1.0095
 6960SOL    HW232517   2.029   3.699  10.901  3.1491  0.5578  2.5411
 6961SOL     OW32518   0.736   0.868  16.699  0.3027 -0.1671 -0.3307
 6961SOL    HW132519   0.669   0.877  16.631 -0.2315  3.4605  0.6486
 6961SOL    HW232520   0.760   0.961  16.707 -0.1957 -0.1224  0.5743
 6962SOL     OW32521   1.954   2.521   3.620  0.6850  0.5875  0.5011
 6962SOL    HW132522   1.971   2.487   3.533 -0.0352 -1.2061  1.0706
 6962SOL    HW232523   1.888   2.465   3.661 -0.1743  2.6705  2.0207
 6963SOL     OW32524   3.758   3.751   7.993 -0.0366  0.2864  0.2494
 6963SOL    HW132525   3.679   3.698   7.978 -0.1627  0.3362  0.7643
 6963SOL    HW232526   3.771   3.750   8.087 -2.8311  1.8384  0.6370
 6964SOL     OW32527   1.833   4.003  15.676 -0.5824  0.3312 -0.1574
 6964SOL    HW132528   1.835   4.076  15.614  0.1506 -0.2696 -0.8363
 6964SOL    HW232529   1.905   4.031  15.732  0.4899 -1.0332 -0.8666
 6965SOL     OW32530   0.201   3.251   5.393  0.0732 -0.0019 -0.0422
 6965SOL    HW132531   0.271   3.285   5.449  0.4000 -1.8003  0.6272
 6965SOL    HW232532   0.245   3.187   5.337  1.3089  1.0585 -0.2643
 6966SOL     OW32533   1.843   1.494  17.732 -0.5079 -0.4632 -0.2944
 6966SOL    HW132534   1.881   1.424   0.036  1.2570  0.5671 -0.2066
 6966SOL    HW232535   1.751   1.475   0.001  0.5871 -3.2060  2.1736
 6967SOL     OW32536   3.854   2.559   9.420 -0.5633 -0.0977  0.1184
 6967SOL    HW132537   3.914   2.510   9.477 -1.6948 -0.5948  0.8717
 6967SOL    HW232538   3.787   2.585   9.483  0.4496  1.9433  0.3660
 6968SOL     OW32539   0.234   1.489  14.432  0.0059  0.5491 -0.1891
 6968SOL    HW132540   0.299   1.418  14.428  0.8739  1.3468 -0.2613
 6968SOL    HW232541   0.215   1.488  14.338  0.1671 -0.9982 -0.2185
 6969SOL     OW32542   2.295   0.349   6.673  0.3619  0.3384  0.2820
 6969SOL    HW132543   2.305   0.254   6.664  1.6451  0.6070 -1.1761
 6969SOL    HW232544   2.205   0.364   6.702  1.1339 -0.2591  3.0017
 6970SOL     OW32545   1.392   3.719   7.091 -0.2450  0.5077  0.2335
 6970SOL    HW132546   1.329   3.761   7.150 -0.8872 -2.2174  1.5178
 6970SOL    HW232547   1.458   3.682   7.150 -0.9035  1.3678  1.5012
 6971SOL     OW32548   3.969   3.244   5.035 -0.0373  0.2457  0.3211
 6971SOL    HW132549   4.035   3.219   5.100  1.1052 -3.0721 -2.0889
 6971SOL    HW232550   3.895   3.187   5.059  0.7507 -0.8333  0.2145
 6972SOL     OW32551   4.192   1.978   1.139  0.2138 -0.2215  0.3785
 6972SOL    HW132552   4.160   2.032   1.067  2.0762 -1.2994 -1.2689
 6972SOL    HW232553   4.115   1.929   1.168 -2.1513  1.8577 -2.3983
 6973SOL     OW32554   1.872   1.252   3.839 -0.2144  0.4515 -0.3259
 6973SOL    HW132555   1.814   1.226   3.768 -0.0891  0.5127 -0.4505
 6973SOL    HW232556   1.822   1.226   3.916  0.0814 -2.7893 -1.2402
 6974SOL     OW32557   2.121   3.153  12.745 -0.1194  0.5575 -0.0210
 6974SOL    HW132558   2.067   3.186  12.816 -1.9846  2.5649 -2.4124
 6974SOL    HW232559   2.105   3.217  12.676  1.6914  0.6206 -0.3890
 6975SOL     OW32560   1.184   0.881   0.707  0.0427 -0.2421  0.5819
 6975SOL    HW132561   1.228   0.963   0.685 -1.9356  0.5509 -0.3685
 6975SOL    HW232562   1.148   0.896   0.795  1.6140 -2.9466  1.7081
 6976SOL     OW32563   4.727   0.313   9.614  0.1083 -0.4078 -0.3548
 6976SOL    HW132564   0.083   0.302   9.624 -0.0890 -3.1064 -1.3640
 6976SOL    HW232565   4.732   0.400   9.575 -0.8050  0.0364  0.5237
 6977SOL     OW32566   3.039   4.044   4.838 -0.4010  0.1568 -0.0850
 6977SOL    HW132567   2.969   4.094   4.881 -1.2595 -1.7354  0.7267
 6977SOL    HW232568   3.078   4.118   4.792 -1.4025 -1.4529 -3.4518
 6978SOL     OW32569   0.050   3.582   5.133  0.1622  0.3391  0.1227
 6978SOL    HW132570   0.066   3.576   5.039 -1.5843  0.2537 -0.1770
 6978SOL    HW232571   0.139   3.580   5.168  0.1001 -2.8463  0.0847
 6979SOL     OW32572   4.725   0.363   9.025  0.2747  0.0196 -0.3052
 6979SOL    HW132573   0.070   0.367   8.978  0.3181  0.0543 -0.2263
 6979SOL    HW232574   0.009   0.305   9.098  1.1594 -0.3129 -0.8492
 6980SOL     OW32575   3.633   0.761   1.976 -0.0632  0.2804  0.4328
 6980SOL    HW132576   3.719   0.801   1.986  0.6357 -0.7910 -1.4615
 6980SOL    HW232577   3.671   0.678   2.006 -1.0451 -0.2660  0.1505
 6981SOL     OW32578   3.411   0.162   6.977 -0.0463 -0.3438 -0.5397
 6981SOL    HW132579   3.400   0.237   6.919  2.4739  0.7475  0.3820
 6981SOL    HW232580   3.507   0.160   6.980  0.0170  1.8876 -1.1907
 6982SOL     OW32581   3.783   2.718   6.255 -0.4487  0.1939 -0.5418
 6982SOL    HW132582   3.780   2.791   6.194  0.9871  0.2050 -0.5874
 6982SOL    HW232583   3.820   2.658   6.189 -0.3173 -0.9981  0.6165
 6983SOL     OW32584   1.207   4.595  12.298 -0.1693  0.2539  0.0878
 6983SOL    HW132585   1.245   4.510  12.277  0.9137  0.7117  0.1877
 6983SOL    HW232586   1.264   4.629  12.368 -0.2873  0.7460 -0.0579
 6984SOL     OW32587   3.774   0.456   2.708 -0.3700  0.1092 -0.8664
 6984SOL    HW132588   3.772   0.414   2.794 -2.3566  1.4084 -0.2963
 6984SOL    HW232589   3.699   0.416   2.665  0.5739 -1.4686 -1.0324
 6985SOL     OW32590   3.303   1.068   9.183  0.7161  0.0122 -0.5751
 6985SOL    HW132591   3.368   1.139   9.182 -0.0079  0.6760  0.7998
 6985SOL    HW232592   3.358   0.993   9.159 -0.3083 -1.0040  0.3223
 6986SOL     OW32593   2.619   2.664   7.720  0.6812 -0.2016 -0.0783
 6986SOL    HW132594   2.596   2.571   7.725  2.4008 -0.4915  1.9890
 6986SOL    HW232595   2.665   2.676   7.802 -1.4754  2.6831  0.7280
 6987SOL     OW32596   0.966   3.164  11.917  0.0934 -0.3668  0.7116
 6987SOL    HW132597   0.970   3.073  11.890 -1.1376 -0.7108  1.6629
 6987SOL    HW232598   0.883   3.162  11.966  0.9467  1.9849  2.2901
 6988SOL     OW32599   1.384   0.687   7.852 -0.3611  0.3687 -0.0845
 6988SOL    HW132600   1.466   0.667   7.897 -0.8114  0.5101  0.7920
 6988SOL    HW232601   1.328   0.734   7.914  1.0712  2.2494 -0.2094
 6989SOL     OW32602   0.433   1.990   7.765 -0.6028 -0.1529  0.3284
 6989SOL    HW132603   0.439   2.056   7.696 -1.3409 -1.9206 -1.4285
 6989SOL    HW232604   0.340   1.969   7.755 -1.1028  1.5511  1.2137
 6990SOL     OW32605   2.321   3.304  15.863 -0.5399 -0.3580  0.4646
 6990SOL    HW132606   2.352   3.394  15.854 -0.2864 -0.7225 -2.3543
 6990SOL    HW232607   2.261   3.292  15.789  1.2022  0.6189 -1.0947
 6991SOL     OW32608   4.730   0.858  17.270  0.5823 -0.9219 -0.1145
 6991SOL    HW132609   4.688   0.887  17.189  1.0361  2.0526  0.7051
 6991SOL    HW232610   0.058   0.925  17.284 -0.4710 -0.2725  1.7805
 6992SOL     OW32611   0.118   2.753   9.184 -0.0251  0.0071  0.1125
 6992SOL    HW132612   0.197   2.742   9.237  0.8659 -0.0226 -1.2358
 6992SOL    HW232613   0.151   2.819   9.123 -0.5266 -0.6152 -0.8326
 6993SOL     OW32614   0.636   4.225   5.757 -0.4889 -0.1008 -0.0592
 6993SOL    HW132615   0.670   4.273   5.682 -0.6069  0.8664  0.5036
 6993SOL    HW232616   0.630   4.134   5.728  1.6007 -0.1089 -0.4602
 6994SOL     OW32617   2.362   4.178   3.871 -0.0681 -0.4764  0.3385
 6994SOL    HW132618   2.320   4.160   3.787  0.1236 -0.1523  0.1734
 6994SOL    HW232619   2.337   4.097   3.916  1.5196 -1.8479 -1.2120
 6995SOL     OW32620   1.178   1.814  11.597  0.1976  0.2240 -0.1333
 6995SOL    HW132621   1.103   1.797  11.539  0.9639  1.4552 -1.4963
 6995SOL    HW232622   1.241   1.761  11.549 -0.2063 -0.3795  0.0040
 6996SOL     OW32623   2.776   1.164  14.081  0.4008  0.2177 -0.6906
 6996SOL    HW132624   2.701   1.131  14.031  0.7309  0.7477 -1.5466
 6996SOL    HW232625   2.796   1.240  14.027 -0.5685  0.9761  0.0336
 6997SOL     OW32626   0.701   2.185   4.221 -0.0061 -0.9324  0.3823
 6997SOL    HW132627   0.700   2.278   4.198  0.3274 -0.7657  1.0257
 6997SOL    HW232628   0.721   2.141   4.139 -0.2305  0.2011 -0.2932
 6998SOL     OW32629   0.982   0.834   8.262  0.2143 -0.6067 -0.0011
 6998SOL    HW132630   1.008   0.923   8.236 -1.3464 -1.0744 -3.1691
 6998SOL    HW232631   0.910   0.862   8.319 -0.3906  0.1260 -1.1061
 6999SOL     OW32632   3.597   3.675   7.375  0.3421 -0.3969  0.2881
 6999SOL    HW132633   3.546   3.732   7.317 -1.4215 -1.5851  0.6726
 6999SOL    HW232634   3.681   3.659   7.331 -0.1425  1.0107 -1.1671
 7000SOL     OW32635   2.155   2.449   4.992  0.5518  0.0838  0.7738
 7000SOL    HW132636   2.238   2.427   4.949  0.5898  0.7007  0.5342
 7000SOL    HW232637   2.168   2.537   5.028  5.5860 -0.7478  1.0564
 7001SOL     OW32638   0.280   0.572   3.928 -0.0152 -0.2376 -0.0888
 7001SOL    HW132639   0.255   0.596   3.839  2.2949 -0.9756 -0.9516
 7001SOL    HW232640   0.215   0.632   3.965 -0.6208 -0.0517 -1.4656
 7002SOL     OW32641   0.064   1.147  10.495  0.5343  0.1012 -0.4665
 7002SOL    HW132642   0.061   1.112  10.406 -0.3870  0.3395 -0.5298
 7002SOL    HW232643   0.030   1.236  10.483  1.3219  0.1961 -1.9353
 7003SOL     OW32644   1.966   0.041  16.231 -0.2079 -0.3593  0.6858
 7003SOL    HW132645   2.051   0.006  16.258  0.2422 -0.8589 -1.3781
 7003SOL    HW232646   1.964   0.029  16.136  1.0123 -0.8660  0.7303
 7004SOL     OW32647   0.642   0.140   3.574  0.5710  0.4467 -0.1507
 7004SOL    HW132648   0.605   0.088   3.504  0.1303 -0.0087  0.4216
 7004SOL    HW232649   0.709   0.078   3.602 -0.3771 -0.4603  0.0984
 7005SOL     OW32650   4.080   2.386   6.735  0.3595  0.0718  0.5859
 7005SOL    HW132651   4.052   2.324   6.802  0.1682 -1.0295 -0.5238
 7005SOL    HW232652   4.169   2.350   6.736 -1.0275 -3.2789  3.2896
 7006SOL     OW32653   4.500   2.763   6.289  0.3373  0.0005  0.3751
 7006SOL    HW132654   4.441   2.783   6.362  0.6780  1.2750  0.3038
 7006SOL    HW232655   4.578   2.726   6.330 -1.4202 -3.1289  0.8875
 7007SOL     OW32656   4.243   3.593   4.744  0.0834  0.0442 -0.0456
 7007SOL    HW132657   4.179   3.523   4.749 -2.6567  2.6072  0.6897
 7007SOL    HW232658   4.325   3.544   4.741 -0.6572 -1.1442 -0.7634
 7008SOL     OW32659   2.381   3.103  13.176 -0.2401 -0.7072  0.8272
 7008SOL    HW132660   2.328   3.161  13.232  1.8861  0.7941  1.2742
 7008SOL    HW232661   2.346   3.113  13.087  0.6784 -1.8569  0.3462
 7009SOL     OW32662   0.359   4.615   2.881  0.2643 -0.5073 -0.2860
 7009SOL    HW132663   0.423   4.605   2.951 -0.0802 -0.3377  0.0555
 7009SOL    HW232664   0.365   4.707   2.857  1.9260 -0.1484  1.4926
 7010SOL     OW32665   1.413   3.657   5.939  0.3236 -0.7588  0.8717
 7010SOL    HW132666   1.459   3.713   5.876  1.0248 -1.2226  0.9737
 7010SOL    HW232667   1.492   3.613   5.971  1.7734  0.7242 -0.6627
 7011SOL     OW32668   2.467   1.535   5.891  0.0072 -0.1369 -0.6472
 7011SOL    HW132669   2.380   1.575   5.896  0.2120  0.4644 -2.0354
 7011SOL    HW232670   2.461   1.498   5.979 -0.0379 -0.7747 -0.9188
 7012SOL     OW32671   3.190   4.018  14.237 -0.0954  0.1094  0.1728
 7012SOL    HW132672   3.260   4.082  14.225  0.2062 -0.2770 -0.1131
 7012SOL    HW232673   3.171   4.035  14.330  1.0424 -0.8800  0.5722
 7013SOL     OW32674   2.554   1.505   2.684  0.0586  0.2734 -0.8730
 7013SOL    HW132675   2.603   1.534   2.760 -0.0622 -1.0874 -0.2676
 7013SOL    HW232676   2.466   1.529   2.712  0.0782 -0.3961 -0.2438
 7014SOL     OW32677   1.666   0.380   7.423  0.1522  0.4125  0.0971
 7014SOL    HW132678   1.706   0.455   7.377  0.3999  1.8558  2.6463
 7014SOL    HW232679   1.573   0.398   7.408  0.2692 -1.0492 -2.3620
 7015SOL     OW32680   0.765   1.837   2.286 -0.0343 -0.0326 -0.6142
 7015SOL    HW132681   0.704   1.775   2.245  1.0249 -0.3149 -1.7551
 7015SOL    HW232682   0.828   1.773   2.317 -0.9251 -0.4312  0.3749
 7016SOL     OW32683   4.005   1.766   6.780 -0.5755 -0.0996  0.2771
 7016SOL    HW132684   3.960   1.848   6.803 -1.7973 -0.1058 -2.0767
 7016SOL    HW232685   4.066   1.758   6.853 -0.4963  0.3615  0.2567
 7017SOL     OW32686   2.998   0.984  13.547 -0.5297 -0.4480 -0.0132
 7017SOL    HW132687   3.038   0.954  13.466 -0.8990  0.2428 -0.4566
 7017SOL    HW232688   3.078   1.008  13.594 -0.9366  2.4227 -0.7839
 7018SOL     OW32689   4.422   1.427  13.470 -0.3717  0.8814  0.0980
 7018SOL    HW132690   4.491   1.484  13.504 -0.9387  1.7805 -0.2601
 7018SOL    HW232691   4.371   1.475  13.404 -0.3871  1.8047  0.7746
 7019SOL     OW32692   4.497   0.784  15.674 -0.0119 -0.0304  0.0737
 7019SOL    HW132693   4.571   0.793  15.735 -1.2326 -1.0624  1.7053
 7019SOL    HW232694   4.432   0.804  15.741  1.2209 -2.5683  2.0580
 7020SOL     OW32695   1.305   0.601  14.903 -0.2093 -0.3178  0.2828
 7020SOL    HW132696   1.228   0.596  14.960 -1.4976 -0.2854 -1.4772
 7020SOL    HW232697   1.263   0.601  14.817 -0.5117  4.9185  0.4347
 7021SOL     OW32698   3.184   0.011   3.683 -0.3378  0.2198 -0.2258
 7021SOL    HW132699   3.161   0.103   3.692  0.7189  0.5668 -1.1113
 7021SOL    HW232700   3.158   4.717   3.769 -0.9749 -0.3180 -0.6229
 7022SOL     OW32701   3.999   4.351   9.274 -0.4858  0.1328  0.3772
 7022SOL    HW132702   3.956   4.408   9.337  0.9680  0.0782  1.4219
 7022SOL    HW232703   4.083   4.335   9.317 -1.0147  0.9883  1.7317
 7023SOL     OW32704   0.230   3.409   4.508 -0.2647  0.2938  0.1695
 7023SOL    HW132705   0.135   3.400   4.500 -0.3478  2.9219 -1.8770
 7023SOL    HW232706   0.263   3.319   4.507  2.2085  1.2161 -1.0419
 7024SOL     OW32707   1.234   3.413   1.612 -0.0804 -0.6179  0.0153
 7024SOL    HW132708   1.274   3.442   1.530 -0.5091 -1.0217 -0.3419
 7024SOL    HW232709   1.272   3.469   1.679 -0.8348  2.1287 -1.8795
 7025SOL     OW32710   1.741   3.185  15.791 -0.2987 -0.3285 -0.6404
 7025SOL    HW132711   1.814   3.146  15.743  1.8436  1.8430  0.8606
 7025SOL    HW232712   1.689   3.105  15.796  0.6017 -0.8173  0.8888
 7026SOL     OW32713   0.230   1.223   4.502  0.5725  0.2201 -0.0482
 7026SOL    HW132714   0.323   1.244   4.508  0.5329  0.5876 -0.7068
 7026SOL    HW232715   0.226   1.135   4.538 -0.7666  0.6314  0.7893
 7027SOL     OW32716   4.054   1.755   1.218  0.0370  0.2749  0.3953
 7027SOL    HW132717   4.043   1.702   1.138  1.7457  2.8506 -1.5224
 7027SOL    HW232718   4.102   1.694   1.274 -0.7913  0.5585  1.4102
 7028SOL     OW32719   2.198   0.807  17.045  0.7157 -0.5899  0.2164
 7028SOL    HW132720   2.266   0.842  16.988  1.5360 -3.4833 -0.5691
 7028SOL    HW232721   2.140   0.768  16.978 -0.8847  0.6439  0.8803
 7029SOL     OW32722   3.735   3.872  11.574  0.5146 -0.2867  0.0840
 7029SOL    HW132723   3.661   3.899  11.520  1.1028  0.4712 -0.3379
 7029SOL    HW232724   3.740   3.938  11.643 -1.1015 -0.7702  0.6562
 7030SOL     OW32725   0.074   0.882   6.493  0.4069  0.0752  0.2361
 7030SOL    HW132726   0.022   0.836   6.428 -2.6381  0.3305  2.4455
 7030SOL    HW232727   0.017   0.954   6.519 -2.6649 -2.3216  0.1268
 7031SOL     OW32728   2.743   2.765   4.588  0.0162  0.1103 -0.1368
 7031SOL    HW132729   2.743   2.670   4.592 -3.4830  0.0448 -1.7155
 7031SOL    HW232730   2.655   2.783   4.556  0.0652  2.6013  1.0982
 7032SOL     OW32731   1.801   0.416   4.339  0.1522  0.4349  0.7369
 7032SOL    HW132732   1.827   0.348   4.277 -0.0054  0.6315  0.4499
 7032SOL    HW232733   1.706   0.412   4.349 -0.0539 -0.6567 -1.5396
 7033SOL     OW32734   2.646   4.378   2.274 -0.1135  0.4245  0.3651
 7033SOL    HW132735   2.675   4.444   2.211 -0.0893  0.4755  0.4305
 7033SOL    HW232736   2.710   4.402   2.341  1.0996 -0.7782 -0.3379
 7034SOL     OW32737   4.238   1.200  10.287  0.5752  0.1198  0.3063
 7034SOL    HW132738   4.217   1.280  10.240  1.2309  0.0097 -0.1694
 7034SOL    HW232739   4.306   1.234  10.344  0.6392 -1.2066  1.0309
 7035SOL     OW32740   3.713   1.563  13.521  0.4318 -0.2879 -0.0613
 7035SOL    HW132741   3.766   1.535  13.446 -1.5026 -1.7726 -0.8875
 7035SOL    HW232742   3.743   1.653  13.532  0.2517 -0.2727  0.3054
 7036SOL     OW32743   4.712   2.480   6.585  0.3721 -0.2316 -0.1736
 7036SOL    HW132744   4.730   2.510   6.496 -0.5229 -0.6995 -0.5091
 7036SOL    HW232745   4.710   2.564   6.631 -1.3689 -1.3073  1.7310
 7037SOL     OW32746   1.780   1.279   2.833  0.8417 -0.1339  0.2355
 7037SOL    HW132747   1.762   1.350   2.893 -1.2701 -0.2392 -0.2592
 7037SOL    HW232748   1.736   1.319   2.757 -0.1303 -0.6139  0.5367
 7038SOL     OW32749   2.654   1.615  14.997 -0.6147  0.8158 -0.6494
 7038SOL    HW132750   2.628   1.523  14.994  2.2642  0.0069 -0.8174
 7038SOL    HW232751   2.568   1.655  15.003  0.4265  2.7102  1.5008
 7039SOL     OW32752   4.046   1.889  15.970 -0.0187  0.3980 -0.0710
 7039SOL    HW132753   4.067   1.867  16.060  1.5108  0.3492 -0.4505
 7039SOL    HW232754   4.134   1.922  15.952  0.1316 -0.2992 -0.6361
 7040SOL     OW32755   2.953   2.159   4.544 -0.5571  0.0745 -0.6566
 7040SOL    HW132756   2.970   2.251   4.523  1.7187 -0.1515  0.2788
 7040SOL    HW232757   2.997   2.160   4.629  0.5677 -1.5622 -1.2220
 7041SOL     OW32758   3.003   1.199  15.613  0.3353 -0.1633 -0.5442
 7041SOL    HW132759   3.058   1.262  15.567  0.8662  0.2545  0.6575
 7041SOL    HW232760   2.970   1.254  15.684 -0.1699  0.2818 -1.1236
 7042SOL     OW32761   1.933   1.835   3.832 -0.8246 -0.5297 -0.2419
 7042SOL    HW132762   2.029   1.837   3.822 -0.9762 -0.0071 -1.6195
 7042SOL    HW232763   1.900   1.838   3.742 -0.3047  0.6916 -0.3995
 7043SOL     OW32764   3.281   2.132  13.352  0.1601 -0.3292  0.5626
 7043SOL    HW132765   3.323   2.053  13.385  0.2248  0.8609  3.3394
 7043SOL    HW232766   3.315   2.202  13.409 -1.8363  3.0043 -2.3275
 7044SOL     OW32767   2.340   1.119   4.813 -0.0786 -0.0705 -0.3877
 7044SOL    HW132768   2.426   1.093   4.781  0.0995 -1.7786  1.4481
 7044SOL    HW232769   2.351   1.214   4.807 -0.3489  0.0032  0.1973
 7045SOL     OW32770   2.713   2.637  14.316  0.5556  0.1408  0.6853
 7045SOL    HW132771   2.625   2.621  14.350  0.3851  0.8126  0.5655
 7045SOL    HW232772   2.737   2.727  14.339 -0.8570  0.6551  0.1169
 7046SOL     OW32773   2.597   3.935   5.796  0.9037  0.3441  0.1928
 7046SOL    HW132774   2.514   3.982   5.800  0.3620 -0.6311  0.5379
 7046SOL    HW232775   2.593   3.878   5.874  0.3827 -0.1223 -0.1759
 7047SOL     OW32776   3.362   0.652  14.465 -0.3112  0.4063 -0.0134
 7047SOL    HW132777   3.273   0.657  14.430 -0.8597 -0.1169  1.3207
 7047SOL    HW232778   3.352   0.603  14.547 -1.7138  1.4067  0.4099
 7048SOL     OW32779   2.308   0.381   1.800  0.7406  0.0773 -1.0173
 7048SOL    HW132780   2.327   0.418   1.887  1.9872  1.3849 -1.8408
 7048SOL    HW232781   2.226   0.427   1.782  1.5320  0.5570 -3.3267
 7049SOL     OW32782   0.163   3.295   8.720 -0.4710  0.3075  0.4848
 7049SOL    HW132783   0.243   3.243   8.729  0.9386  2.4377  0.2083
 7049SOL    HW232784   0.127   3.252   8.642  1.2406 -1.8516  0.8959
 7050SOL     OW32785   4.076   4.672   3.248 -0.1295 -0.0507  0.0569
 7050SOL    HW132786   4.015   4.606   3.281 -0.0095 -0.3919 -0.3980
 7050SOL    HW232787   4.075   4.665   3.153 -3.5716  2.0021 -0.0593
 7051SOL     OW32788   1.776   0.758  13.525  0.5993 -0.0169  0.2527
 7051SOL    HW132789   1.687   0.734  13.552  0.6689 -0.3596  0.1756
 7051SOL    HW232790   1.789   0.706  13.445  1.4418  0.3972  0.1232
 7052SOL     OW32791   0.861   1.844   4.510 -0.3385  0.3791 -0.1892
 7052SOL    HW132792   0.874   1.787   4.434 -0.2986 -0.5294  0.5043
 7052SOL    HW232793   0.941   1.895   4.498  0.0259 -0.0847  0.3442
 7053SOL     OW32794   0.958   1.277  10.278  0.0991 -0.4170  0.0830
 7053SOL    HW132795   0.989   1.196  10.319 -1.6203 -0.7581  0.7038
 7053SOL    HW232796   0.956   1.261  10.184 -0.7532  0.7433 -0.0974
 7054SOL     OW32797   3.328   3.343   4.980 -0.2507 -0.2619 -0.4347
 7054SOL    HW132798   3.331   3.306   5.068  3.2970  0.5179 -0.2182
 7054SOL    HW232799   3.337   3.437   4.998 -0.1285  0.0576 -2.1775
 7055SOL     OW32800   1.673   1.216  17.132  0.0137  0.3883 -0.0083
 7055SOL    HW132801   1.732   1.221  17.208  0.9045  0.5250 -0.7197
 7055SOL    HW232802   1.721   1.262  17.063 -1.3120  0.8878 -0.5902
 7056SOL     OW32803   0.959   0.316   7.824  0.4628 -0.0053 -0.2946
 7056SOL    HW132804   1.050   0.347   7.817  0.5053 -0.0883 -0.1055
 7056SOL    HW232805   0.977   0.228   7.857 -1.4349 -0.0041  0.7042
 7057SOL     OW32806   0.349   2.132   5.753  0.7811 -0.1041 -0.1381
 7057SOL    HW132807   0.347   2.224   5.780  1.4482 -0.0077 -0.4262
 7057SOL    HW232808   0.400   2.135   5.673 -0.6915  1.5692 -1.0039
 7058SOL     OW32809   1.361   1.357   4.742  0.2945  0.5421 -0.4925
 7058SOL    HW132810   1.441   1.391   4.781  0.9875 -1.0795 -0.5077
 7058SOL    HW232811   1.344   1.280   4.797 -0.0044  1.3277  0.5176
 7059SOL     OW32812   3.588   2.849   7.435  0.4707 -0.1765  0.2304
 7059SOL    HW132813   3.523   2.829   7.502 -2.0146  2.5835 -1.3655
 7059SOL    HW232814   3.614   2.937   7.461 -1.0147  0.2844  0.1373
 7060SOL     OW32815   0.698   4.651  16.708 -0.0044  0.0962 -1.0070
 7060SOL    HW132816   0.689   4.598  16.629  2.2135  0.0674 -1.2411
 7060SOL    HW232817   0.784   4.687  16.688 -0.1970  1.6547  1.0301
 7061SOL     OW32818   4.405   1.895   9.641  0.6976  0.2608  0.3505
 7061SOL    HW132819   4.474   1.869   9.703  3.8615  1.4301 -2.6619
 7061SOL    HW232820   4.401   1.990   9.648 -0.8952  0.3356 -1.4810
 7062SOL     OW32821   4.429   0.663   2.249  0.5297  0.2811 -0.7650
 7062SOL    HW132822   4.505   0.721   2.238  0.8624 -0.1164 -0.5971
 7062SOL    HW232823   4.408   0.697   2.336 -0.5492 -2.2754 -0.0327
 7063SOL     OW32824   3.069   1.275   3.364  0.3193  0.2292  0.0741
 7063SOL    HW132825   3.019   1.196   3.383  0.6398 -0.0217 -0.1310
 7063SOL    HW232826   3.009   1.309   3.298  2.8013 -1.7780 -3.1908
 7064SOL     OW32827   0.710   3.021   5.656 -0.3698 -0.0347 -1.4942
 7064SOL    HW132828   0.695   3.068   5.574  0.3047 -0.7277 -2.0236
 7064SOL    HW232829   0.805   3.009   5.659 -0.5149 -0.8174 -0.1685
 7065SOL     OW32830   0.009   1.872   6.844  0.1764 -0.0100 -0.0869
 7065SOL    HW132831   0.082   1.820   6.811 -1.0497 -0.9187 -1.3725
 7065SOL    HW232832   4.686   1.872   6.771  2.2853 -0.7498 -1.8613
 7066SOL     OW32833   3.415   2.858   7.712 -0.2830 -0.1079 -0.7866
 7066SOL    HW132834   3.503   2.841   7.746 -0.7077 -0.4040  0.1332
 7066SOL    HW232835   3.377   2.809   7.784  1.6628  0.6785  0.7872
 7067SOL     OW32836   0.108   2.826  16.234  0.0730 -0.0909  0.1782
 7067SOL    HW132837   0.025   2.827  16.281 -0.0013  0.4949  0.0313
 7067SOL    HW232838   0.103   2.921  16.222 -0.1858  0.4640  4.8795
 7068SOL     OW32839   4.287   0.084   5.478 -0.1325  0.5394 -0.3033
 7068SOL    HW132840   4.341   0.007   5.494 -1.1703 -0.3368 -0.9172
 7068SOL    HW232841   4.224   0.047   5.415 -2.6194  0.5330  2.1945
 7069SOL     OW32842   3.994   0.032   0.926  0.1880 -0.0775 -0.1022
 7069SOL    HW132843   3.930   0.089   0.969  1.4859  1.0262  0.3776
 7069SOL    HW232844   4.078   0.077   0.935 -0.2909  0.4356  1.7879
 7070SOL     OW32845   3.843   1.304  17.680  0.1249 -0.4699  0.3978
 7070SOL    HW132846   3.847   1.357   0.008 -0.7718 -1.0789  0.8556
 7070SOL    HW232847   3.762   1.326  17.633  1.6846 -0.1179 -2.1170
 7071SOL     OW32848   1.422   3.847  15.880 -0.0616 -0.8658 -0.2133
 7071SOL    HW132849   1.419   3.802  15.965  1.2747 -2.7371 -1.1495
 7071SOL    HW232850   1.503   3.899  15.885 -1.1911  0.6490  2.7992
 7072SOL     OW32851   0.545   1.305   0.539 -0.5118 -0.6431 -0.6298
 7072SOL    HW132852   0.481   1.256   0.590 -0.3758  0.8806  0.9983
 7072SOL    HW232853   0.619   1.246   0.554  1.0257  1.5854  0.5786
 7073SOL     OW32854   0.008   4.641   8.220  0.3003 -0.1294  0.8927
 7073SOL    HW132855   4.702   4.693   8.152 -0.3315  0.9797  2.1648
 7073SOL    HW232856   4.676   4.577   8.229  0.9616 -1.0701 -0.5943
 7074SOL     OW32857   3.421   0.235   6.682  0.1835 -0.1088  0.0875
 7074SOL    HW132858   3.501   0.275   6.718 -1.7889  2.7164  1.3370
 7074SOL    HW232859   3.353   0.269   6.740 -0.4020  1.0582 -1.2762
 7075SOL     OW32860   1.467   1.076   3.450  0.1844  0.3558 -0.1396
 7075SOL    HW132861   1.415   1.094   3.372 -0.5879  1.3416  0.6005
 7075SOL    HW232862   1.425   1.003   3.496 -0.5854  2.2672  2.1991
 7076SOL     OW32863   1.747   2.150  10.226  1.0814  0.2254  0.4560
 7076SOL    HW132864   1.751   2.056  10.207  1.8189  0.4940 -0.7844
 7076SOL    HW232865   1.841   2.157  10.245  1.0722 -0.9147  0.9238
 7077SOL     OW32866   2.613   1.602   2.932  0.4453  0.4189 -0.1180
 7077SOL    HW132867   2.696   1.625   2.974 -0.8718  1.1561  2.0657
 7077SOL    HW232868   2.545   1.582   2.997  1.0219 -0.6056  0.1714
 7078SOL     OW32869   3.506   4.585  12.720 -0.4579 -0.1525 -0.4318
 7078SOL    HW132870   3.520   4.540  12.636 -1.6582  0.2473 -0.8513
 7078SOL    HW232871   3.508   4.672  12.679 -1.8654 -0.3290 -0.8677
 7079SOL     OW32872   2.949   1.832   8.078 -0.4002  0.0049 -0.0956
 7079SOL    HW132873   3.003   1.895   8.029 -0.6430  0.3037  0.0182
 7079SOL    HW232874   3.016   1.797   8.137 -0.9710 -1.2978 -0.2280
 7080SOL     OW32875   1.990   2.618   4.621 -0.1152  0.6296  0.3606
 7080SOL    HW132876   2.079   2.650   4.610 -0.3250  0.4688 -1.7947
 7080SOL    HW232877   1.953   2.652   4.539  1.5676  0.3671 -0.5032
 7081SOL     OW32878   1.884   1.660  17.014 -0.0218  0.1744  0.4436
 7081SOL    HW132879   1.819   1.643  17.083 -0.4874 -1.1559 -0.3114
 7081SOL    HW232880   1.838   1.739  16.984 -0.1546  0.6767  1.9485
 7082SOL     OW32881   2.512   4.389   9.658 -0.7850  0.1917 -0.4995
 7082SOL    HW132882   2.449   4.431   9.717  2.0212  1.1191  1.8417
 7082SOL    HW232883   2.595   4.394   9.705 -0.8855 -2.6257 -0.0375
 7083SOL     OW32884   4.120   2.810   3.960  0.0695 -0.7570  0.1378
 7083SOL    HW132885   4.110   2.829   3.867 -0.4613 -0.2078  0.3110
 7083SOL    HW232886   4.115   2.715   3.949  0.6030 -0.3774 -3.3311
 7084SOL     OW32887   1.945   1.483   5.459 -0.0992 -0.6746 -0.4302
 7084SOL    HW132888   2.006   1.529   5.401  0.6044  2.1505  2.5402
 7084SOL    HW232889   1.867   1.538   5.453 -0.9401 -1.7327  0.7888
 7085SOL     OW32890   4.556   1.249   4.220 -0.3106  0.0688 -0.7517
 7085SOL    HW132891   4.622   1.196   4.176 -0.0221  0.6539 -1.0165
 7085SOL    HW232892   4.481   1.218   4.169 -0.8969  2.9246 -1.6208
 7086SOL     OW32893   4.309   4.292   3.042 -0.4313  0.0842 -0.1334
 7086SOL    HW132894   4.378   4.295   3.108 -1.5801 -4.1622  1.2271
 7086SOL    HW232895   4.357   4.273   2.961 -1.3076  0.3118 -0.7040
 7087SOL     OW32896   2.279   1.986   6.850 -0.0412  0.3548  0.4667
 7087SOL    HW132897   2.194   1.988   6.806  0.3839  1.7672 -0.2923
 7087SOL    HW232898   2.317   1.907   6.811  0.0971  1.1108 -0.9285
 7088SOL     OW32899   3.889   0.810   0.587  0.5570 -0.1332 -0.0258
 7088SOL    HW132900   3.943   0.863   0.646  1.1527  0.3115 -0.9713
 7088SOL    HW232901   3.942   0.731   0.575 -1.7406 -1.6867  0.0647
 7089SOL     OW32902   4.401   3.270   2.815 -0.8885  0.1187  0.1759
 7089SOL    HW132903   4.311   3.296   2.795 -0.3404  1.1371 -1.0226
 7089SOL    HW232904   4.446   3.350   2.785  2.6463 -1.9871 -0.1988
 7090SOL     OW32905   0.938   4.633   7.303  0.0362 -0.5588  0.1048
 7090SOL    HW132906   0.961   4.705   7.362 -0.9746 -1.4539  1.5666
 7090SOL    HW232907   1.025   4.593   7.296  1.3305  2.0098  1.3719
 7091SOL     OW32908   2.354   3.425   4.385  0.3032 -0.1506  0.0679
 7091SOL    HW132909   2.274   3.389   4.424  0.3459 -1.4674 -1.0870
 7091SOL    HW232910   2.341   3.520   4.395 -0.5315 -0.1831 -0.6979
 7092SOL     OW32911   2.011   3.853   6.069  0.5111  0.4572  0.7088
 7092SOL    HW132912   2.029   3.773   6.117  0.1514 -0.0173  0.0465
 7092SOL    HW232913   2.043   3.919   6.130 -0.0097  0.7426  0.6720
 7093SOL     OW32914   0.500   2.612  16.191 -0.3731  0.1076 -0.2374
 7093SOL    HW132915   0.485   2.703  16.166 -1.8171  0.0636  0.4772
 7093SOL    HW232916   0.506   2.582  16.100 -2.5987 -0.0746 -0.3283
 7094SOL     OW32917   1.103   4.668   6.407 -0.1924 -0.0732 -0.3545
 7094SOL    HW132918   1.068   4.598   6.462  1.8773 -0.9490 -0.1666
 7094SOL    HW232919   1.040   0.001   6.416 -2.0241 -1.3953 -2.8584
 7095SOL     OW32920   0.980   1.094   7.265 -0.1748  0.1715  0.0376
 7095SOL    HW132921   0.916   1.026   7.248  0.6554 -0.4820 -0.4541
 7095SOL    HW232922   1.013   1.059   7.348 -2.0854 -1.2694  0.1719
 7096SOL     OW32923   2.303   3.845   6.051 -0.1237  0.1795 -0.3636
 7096SOL    HW132924   2.249   3.779   6.007 -1.3465  1.6345 -1.0281
 7096SOL    HW232925   2.381   3.835   5.997  0.1051 -3.7101  0.6432
 7097SOL     OW32926   4.513   2.193  15.423 -0.7930 -0.0964  0.4460
 7097SOL    HW132927   4.522   2.107  15.383  0.1283  0.0292  0.3957
 7097SOL    HW232928   4.464   2.169  15.501 -0.2859 -2.3001  0.0794
 7098SOL     OW32929   1.361   0.879  17.626  0.7290  0.0393 -0.2037
 7098SOL    HW132930   1.424   0.871  17.553 -0.7830 -0.9968 -1.3899
 7098SOL    HW232931   1.324   0.792  17.615  0.5003  0.2023 -0.7289
 7099SOL     OW32932   4.373   0.506  11.785  0.3991 -0.1481 -0.0315
 7099SOL    HW132933   4.312   0.563  11.738 -0.4702 -1.3729 -0.3658
 7099SOL    HW232934   4.356   0.427  11.734  0.3412 -0.6645  0.7924
 7100SOL     OW32935   1.270   0.738  11.032  0.0659  0.2381 -0.3014
 7100SOL    HW132936   1.310   0.713  11.115  0.1089 -4.2218 -1.7018
 7100SOL    HW232937   1.348   0.767  10.984 -0.0740  0.3042 -0.4875
 7101SOL     OW32938   2.105   4.117   3.134  0.4022 -0.2923  0.2905
 7101SOL    HW132939   2.161   4.069   3.073 -1.6897 -0.8838 -1.1794
 7101SOL    HW232940   2.016   4.108   3.100  0.3162  2.5216 -0.1983
 7102SOL     OW32941   3.525   0.634   7.452  0.2862 -0.2660 -0.1379
 7102SOL    HW132942   3.473   0.635   7.532  0.4212  0.3352 -0.0537
 7102SOL    HW232943   3.480   0.561   7.410 -0.7852  0.0864  0.3965
 7103SOL     OW32944   2.281   0.051   2.813  0.4427  0.3580 -0.3700
 7103SOL    HW132945   2.287   0.053   2.908  0.4383  2.1830 -0.4124
 7103SOL    HW232946   2.340   4.719   2.785 -1.2255 -1.0875 -0.2782
 7104SOL     OW32947   3.160   1.095   4.044  0.3349 -0.4964 -0.0056
 7104SOL    HW132948   3.157   1.109   3.950 -0.6775 -1.0572 -0.0510
 7104SOL    HW232949   3.185   1.184   4.069 -1.3013 -0.1021  0.2342
 7105SOL     OW32950   2.187   4.434  14.844  0.1089  0.3360 -0.4715
 7105SOL    HW132951   2.128   4.423  14.769  0.5203 -3.8660 -0.1672
 7105SOL    HW232952   2.124   4.466  14.909 -2.0032 -0.1629 -2.2399
 7106SOL     OW32953   2.460   2.901   4.795 -0.0865 -0.2153  0.8099
 7106SOL    HW132954   2.365   2.907   4.805 -0.2119  0.1575 -0.5931
 7106SOL    HW232955   2.486   2.864   4.880  1.6068 -0.1834  0.3024
 7107SOL     OW32956   0.448   1.149  17.063  0.1255  0.1895 -0.2923
 7107SOL    HW132957   0.413   1.062  17.082  1.5311 -0.5304 -0.9773
 7107SOL    HW232958   0.414   1.213  17.125 -0.8810 -0.2136 -0.4331
 7108SOL     OW32959   1.389   4.223   6.561  0.2803 -0.1008  1.1518
 7108SOL    HW132960   1.395   4.140   6.609 -3.1492 -1.0509 -0.0610
 7108SOL    HW232961   1.296   4.244   6.566  0.5391  1.4542 -0.3740
 7109SOL     OW32962   1.266   0.708   5.847  0.1904 -0.0311  0.3900
 7109SOL    HW132963   1.195   0.709   5.783  1.3597  3.3095 -0.8631
 7109SOL    HW232964   1.223   0.710   5.933  0.0386 -1.7387  0.3491
 7110SOL     OW32965   4.347   0.825   7.868 -0.6265 -0.3913 -0.4395
 7110SOL    HW132966   4.380   0.755   7.812  1.1062  1.4108 -1.6490
 7110SOL    HW232967   4.344   0.896   7.804  1.4127 -1.6960 -1.9727
 7111SOL     OW32968   2.277   0.004   1.619  0.1791  0.4710  0.2126
 7111SOL    HW132969   2.211   0.071   1.638 -2.6586 -2.4832  0.6073
 7111SOL    HW232970   2.291   4.700   1.703  0.1640 -0.9883 -0.5184
 7112SOL     OW32971   3.838   0.417   2.246 -0.6235 -0.2329  0.0550
 7112SOL    HW132972   3.808   0.495   2.293 -0.0544 -1.1040  1.8781
 7112SOL    HW232973   3.908   0.399   2.309 -1.4611 -0.0685  1.0283
 7113SOL     OW32974   1.014   0.972  17.539  0.3428 -0.0989  0.5493
 7113SOL    HW132975   0.985   0.980  17.448  1.0172 -2.0385  0.1663
 7113SOL    HW232976   1.105   0.965  17.510  0.1031 -0.4333 -0.1173
 7114SOL     OW32977   4.635   3.833   4.274  0.5188 -0.2477  0.0438
 7114SOL    HW132978   4.626   3.917   4.320 -1.6962 -0.3014 -0.2805
 7114SOL    HW232979   4.589   3.849   4.192 -0.4701  0.9230  0.8132
 7115SOL     OW32980   0.875   1.609   0.929 -0.2217  0.1210  0.2387
 7115SOL    HW132981   0.901   1.657   0.851 -0.1225 -0.6584 -0.2057
 7115SOL    HW232982   0.937   1.630   0.999  2.1816 -0.8130 -1.6531
 7116SOL     OW32983   3.866   1.557   7.231  0.2100 -0.1655  0.2778
 7116SOL    HW132984   3.900   1.536   7.143 -0.9999  0.7727 -0.4180
 7116SOL    HW232985   3.924   1.505   7.287  2.1262 -1.1145 -2.5666
 7117SOL     OW32986   0.733   3.051   6.012  0.1642 -0.2473  0.6861
 7117SOL    HW132987   0.784   3.027   5.935  1.1677  1.5466  0.8075
 7117SOL    HW232988   0.682   2.970   6.023 -0.6439 -0.1796 -2.4427
 7118SOL     OW32989   3.606   3.291   5.181  0.0977  0.0572  0.0188
 7118SOL    HW132990   3.610   3.259   5.091 -1.0058 -1.6206  0.5681
 7118SOL    HW232991   3.625   3.209   5.226  3.4787  0.7250 -0.2247
 7119SOL     OW32992   2.923   4.133   7.356  0.0885  0.2755 -0.5215
 7119SOL    HW132993   2.948   4.224   7.373  0.5046 -0.2251  1.5799
 7119SOL    HW232994   2.860   4.119   7.427 -0.3325 -1.9284 -1.3293
 7120SOL     OW32995   1.604   1.845   0.069  0.5045  0.0314  0.1943
 7120SOL    HW132996   1.522   1.894   0.066  0.5229  0.0063 -0.7217
 7120SOL    HW232997   1.580   1.773   0.011 -1.6333  0.0395  1.0926
 7121SOL     OW32998   1.452   3.770   6.729 -0.3353 -0.4820  0.1277
 7121SOL    HW132999   1.413   3.693   6.687  0.8444  0.4085 -2.6205
 7121SOL    HW233000   1.529   3.729   6.766 -0.2368  0.3743  0.8578
 7122SOL     OW33001   3.884   0.467   5.648 -0.3388  0.0089  0.3325
 7122SOL    HW133002   3.873   0.382   5.691  0.7989 -0.3269 -0.0276
 7122SOL    HW233003   3.807   0.505   5.689 -0.6881 -0.0111 -0.3039
 7123SOL     OW33004   4.242   3.521  13.309  0.3779 -0.5692 -0.3477
 7123SOL    HW133005   4.215   3.612  13.322  0.2162 -0.7054  0.3202
 7123SOL    HW233006   4.182   3.485  13.375  0.0426 -1.4900 -1.1466
 7124SOL     OW33007   2.281   2.903   8.676  0.6456  0.0616 -0.1762
 7124SOL    HW133008   2.342   2.976   8.661 -0.2451  0.9951  0.7306
 7124SOL    HW233009   2.334   2.845   8.730 -0.6570 -0.7371  0.2446
 7125SOL     OW33010   4.218   3.943  15.342  0.1318  0.1269  0.1234
 7125SOL    HW133011   4.132   3.933  15.382  0.1332 -4.8818 -1.0496
 7125SOL    HW233012   4.243   3.851  15.329 -1.1195 -0.2806  0.5869
 7126SOL     OW33013   4.700   3.908  12.385 -0.0257  0.0294 -0.2446
 7126SOL    HW133014   4.678   3.956  12.305  1.6470 -1.6980 -1.7328
 7126SOL    HW233015   0.014   3.972  12.433  0.2380 -1.1131  0.9888
 7127SOL     OW33016   4.211   1.265   7.371 -0.8283  0.2507  0.4281
 7127SOL    HW133017   4.281   1.286   7.311  2.4710  0.2698  4.2931
 7127SOL    HW233018   4.139   1.228   7.319 -1.2962  1.1883  0.4060
 7128SOL     OW33019   3.240   3.262   7.579 -0.4023  0.2679 -1.1667
 7128SOL    HW133020   3.303   3.297   7.642 -1.1405  0.2960 -0.4500
 7128SOL    HW233021   3.281   3.178   7.560  2.1113  0.7374  2.1012
 7129SOL     OW33022   3.665   2.995  17.334  0.2485  0.3582  0.0601
 7129SOL    HW133023   3.655   2.902  17.313  2.4414 -0.3333  2.0664
 7129SOL    HW233024   3.684   2.991  17.428 -0.1594  1.1830  0.1767
 7130SOL     OW33025   4.119   3.371  11.041  0.2161  0.0296  0.0360
 7130SOL    HW133026   4.134   3.393  10.949 -0.3362  1.0984  0.2037
 7130SOL    HW233027   4.209   3.350  11.064  0.0876 -0.6875 -0.1079
 7131SOL     OW33028   3.309   1.563   3.703 -0.3292 -0.1593  0.2050
 7131SOL    HW133029   3.396   1.603   3.703  1.1577 -3.3222  0.2670
 7131SOL    HW233030   3.258   1.615   3.641  0.7398  0.4614 -0.1473
 7132SOL     OW33031   1.123   1.302   7.141 -0.1493  0.2482  0.2830
 7132SOL    HW133032   1.082   1.282   7.058  0.3982  1.4860 -0.2815
 7132SOL    HW233033   1.091   1.227   7.192 -0.0789 -0.7960 -1.2327
 7133SOL     OW33034   3.355   4.107   8.051  0.0392 -0.5100 -0.3191
 7133SOL    HW133035   3.446   4.079   8.045 -0.0374 -0.8849  0.3598
 7133SOL    HW233036   3.323   4.048   8.119 -1.2385 -0.2497 -0.6883
 7134SOL     OW33037   1.659   2.908   5.996  0.0857 -0.7220 -0.1134
 7134SOL    HW133038   1.722   2.974   5.967  2.1535 -2.3481  0.6407
 7134SOL    HW233039   1.720   2.860   6.053  1.3328 -0.8843 -1.5976
 7135SOL     OW33040   3.216   1.912   8.439  0.0353 -0.0086  0.1995
 7135SOL    HW133041   3.147   1.972   8.411  1.9934  1.6092 -1.1091
 7135SOL    HW233042   3.194   1.906   8.532 -0.7242  0.7163  0.0689
 7136SOL     OW33043   3.289   3.953  10.177 -0.3152  0.1372 -0.2030
 7136SOL    HW133044   3.219   3.932  10.116 -0.7879 -1.0614  0.7373
 7136SOL    HW233045   3.347   3.990  10.110  1.6126 -0.2236  1.2437
 7137SOL     OW33046   3.483   4.453  17.600 -0.7499  0.4339  0.1895
 7137SOL    HW133047   3.550   4.485  17.661 -0.6395  0.9772 -0.2119
 7137SOL    HW233048   3.407   4.444  17.658  0.9784  0.2595  2.4539
 7138SOL     OW33049   1.280   1.119   5.301  0.5178  0.2414 -0.0166
 7138SOL    HW133050   1.339   1.180   5.258 -0.2011 -0.8824 -2.5987
 7138SOL    HW233051   1.196   1.161   5.317  0.2280 -0.0639 -0.7400
 7139SOL     OW33052   3.713   0.819   3.766  0.1959  0.3403  0.0722
 7139SOL    HW133053   3.725   0.724   3.772 -0.1396  0.4229  2.0551
 7139SOL    HW233054   3.623   0.830   3.737 -0.2885  1.3459  1.9203
 7140SOL     OW33055   3.665   0.002   3.393 -0.0214  0.2361 -0.0997
 7140SOL    HW133056   3.595   0.001   3.327  0.2252 -1.6543 -0.3289
 7140SOL    HW233057   3.613   4.729   3.473  0.3372  0.6082  0.1829
 7141SOL     OW33058   3.262   4.041   9.327  0.3910  0.2945  0.4073
 7141SOL    HW133059   3.298   4.051   9.415  0.0048  2.3186  0.3336
 7141SOL    HW233060   3.239   3.948   9.323  0.7580  0.1999  0.4932
 7142SOL     OW33061   0.046   1.026   0.742 -0.0860  0.0116  0.4458
 7142SOL    HW133062   0.038   1.074   0.824 -0.0420 -0.6933  0.8631
 7142SOL    HW233063   0.096   0.950   0.773 -1.2806 -0.9586 -0.0109
 7143SOL     OW33064   2.556   2.731  13.430 -0.8971 -0.2597 -0.1792
 7143SOL    HW133065   2.565   2.767  13.518 -0.7286  2.5498 -1.3759
 7143SOL    HW233066   2.545   2.810  13.378  0.8189  0.8722  1.1698
 7144SOL     OW33067   1.994   3.772   7.811 -0.1932  0.1548 -0.5852
 7144SOL    HW133068   1.943   3.702   7.771  1.5968 -2.0372  0.9477
 7144SOL    HW233069   1.960   3.847   7.762  0.1199  0.3072 -0.5703
 7145SOL     OW33070   2.345   1.650   4.551  0.3714 -0.3956  0.1941
 7145SOL    HW133071   2.377   1.730   4.592  0.8240 -0.4698 -0.0103
 7145SOL    HW233072   2.399   1.662   4.473  0.2914 -2.4348 -0.1876
 7146SOL     OW33073   1.120   4.731  16.371 -0.2723 -0.4971  0.2439
 7146SOL    HW133074   1.179   0.060  16.338 -1.2623  1.0326  1.6345
 7146SOL    HW233075   1.101   4.683  16.291 -0.6806  0.5772 -0.2959
 7147SOL     OW33076   3.437   4.395   7.522  0.0542 -0.5578  0.0288
 7147SOL    HW133077   3.420   4.414   7.614 -0.9162  0.3950 -0.3418
 7147SOL    HW233078   3.474   4.473   7.481  0.1458 -0.1471  0.9084
 7148SOL     OW33079   0.466   1.138   5.998 -0.0263 -0.0031  0.4202
 7148SOL    HW133080   0.553   1.177   6.007  0.3286 -0.8320  0.6757
 7148SOL    HW233081   0.425   1.177   5.921  1.2032  1.8004  0.6952
 7149SOL     OW33082   2.312   1.602  13.857  0.5915 -0.3404  0.2292
 7149SOL    HW133083   2.392   1.551  13.849  1.2798  0.7012  0.3818
 7149SOL    HW233084   2.311   1.633  13.948  1.3525 -0.8188  0.3958
 7150SOL     OW33085   1.890   1.258  14.879  0.4084 -0.2302  0.1368
 7150SOL    HW133086   1.906   1.298  14.965 -0.6619  0.7850 -0.1437
 7150SOL    HW233087   1.953   1.186  14.894  0.6174  0.0112  0.4205
 7151SOL     OW33088   3.481   1.491  10.194 -0.2091  0.0740  0.3688
 7151SOL    HW133089   3.391   1.523  10.190 -0.3752 -0.7019 -2.1087
 7151SOL    HW233090   3.487   1.467  10.287  0.7624 -0.3357  0.1974
 7152SOL     OW33091   0.099   4.254   8.746  0.6413  0.4938  0.2700
 7152SOL    HW133092   0.085   4.160   8.736  2.9943  0.1411  0.3540
 7152SOL    HW233093   0.178   4.262   8.692  0.5086  2.6053  0.3806
 7153SOL     OW33094   3.972   3.418   5.923 -0.2096  0.0224  0.2553
 7153SOL    HW133095   3.883   3.399   5.953  0.4210 -1.2933  1.3278
 7153SOL    HW233096   3.962   3.504   5.882  0.6817  1.1410  2.4240
 7154SOL     OW33097   3.048   1.005   9.157 -0.0825  0.7606  0.3477
 7154SOL    HW133098   3.136   1.037   9.178  0.9944 -1.7165 -0.4854
 7154SOL    HW233099   3.053   0.912   9.179 -0.5132  1.0538  1.6700
 7155SOL     OW33100   2.868   1.272   9.692  0.0727  0.3707  0.0936
 7155SOL    HW133101   2.898   1.257   9.602 -0.2687  0.1301  0.0225
 7155SOL    HW233102   2.924   1.345   9.720  0.2914  0.7513 -1.3233
 7156SOL     OW33103   0.553   3.180  11.708  0.1586 -0.5517  0.4547
 7156SOL    HW133104   0.529   3.257  11.758 -2.5340  0.5999 -2.6098
 7156SOL    HW233105   0.514   3.114  11.766  1.3300  2.2829  4.4317
 7157SOL     OW33106   2.371   3.123  10.548  0.2247 -0.1952  0.5728
 7157SOL    HW133107   2.337   3.083  10.628 -0.1916 -0.9445  0.0278
 7157SOL    HW233108   2.403   3.206  10.583 -2.1202  0.8610  0.2470
 7158SOL     OW33109   2.447   3.142   5.665  0.1797  0.1070 -0.4822
 7158SOL    HW133110   2.436   3.052   5.695  1.1146  0.2907  0.4168
 7158SOL    HW233111   2.358   3.171   5.643  0.7922  1.3853 -1.2694
 7159SOL     OW33112   3.716   0.340   6.517  0.0423 -0.1445 -0.2058
 7159SOL    HW133113   3.753   0.289   6.445 -0.5457  0.5103 -0.9677
 7159SOL    HW233114   3.763   0.295   6.587  1.4701 -1.3353 -1.9339
 7160SOL     OW33115   0.350   2.334   1.062 -0.2739 -0.1789  0.2669
 7160SOL    HW133116   0.311   2.315   0.977 -1.1251 -2.2707  1.1127
 7160SOL    HW233117   0.442   2.315   1.041 -0.3236  0.6074 -0.6201
 7161SOL     OW33118   1.786   2.270   3.780  0.2898  0.4694 -0.3026
 7161SOL    HW133119   1.716   2.255   3.717 -1.3969  0.5685  1.5417
 7161SOL    HW233120   1.862   2.222   3.746 -0.3175 -1.4728  1.0714
 7162SOL     OW33121   3.703   3.216   7.196  0.4562 -0.5113 -0.1983
 7162SOL    HW133122   3.768   3.260   7.251 -0.2841  1.1056 -0.6372
 7162SOL    HW233123   3.701   3.274   7.121  1.9688  0.1523  0.2630
 7163SOL     OW33124   1.212   0.024   1.416  0.5677 -0.2894 -0.9570
 7163SOL    HW133125   1.223   0.116   1.439 -0.6316 -0.3034 -0.2819
 7163SOL    HW233126   1.145   0.038   1.349 -1.2653 -1.0268  0.6941
 7164SOL     OW33127   0.129   1.833   8.021  0.5061 -0.1560  0.1653
 7164SOL    HW133128   0.192   1.901   7.998  0.9211 -1.1461 -1.5775
 7164SOL    HW233129   0.144   1.821   8.115  1.0041  2.3402  0.4089
 7165SOL     OW33130   3.752   3.081   5.260  0.0363 -0.1998 -0.1149
 7165SOL    HW133131   3.831   3.098   5.312  0.8592 -0.3313 -1.3364
 7165SOL    HW233132   3.760   2.991   5.230 -0.5091 -0.1785 -0.3095
 7166SOL     OW33133   0.456   2.532  17.581  0.3270  0.4111  0.1289
 7166SOL    HW133134   0.467   2.618  17.622 -1.4059  1.2708 -1.2098
 7166SOL    HW233135   0.531   2.515  17.525  0.0438 -0.1683 -0.0649
 7167SOL     OW33136   0.900   2.295   2.229  0.2250 -0.5694  0.0154
 7167SOL    HW133137   0.936   2.207   2.221  1.5654 -0.0395  0.2240
 7167SOL    HW233138   0.933   2.343   2.153  1.5263  1.2256  1.7187
 7168SOL     OW33139   1.439   2.289   2.229 -0.2602  0.4349 -0.0104
 7168SOL    HW133140   1.499   2.272   2.157  1.7043  1.5051  1.3612
 7168SOL    HW233141   1.474   2.242   2.305 -0.7962  0.6093  0.3428
 7169SOL     OW33142   2.308   1.809  16.762 -0.3847  0.7478  0.5603
 7169SOL    HW133143   2.287   1.856  16.681  0.7762  2.1300  1.0578
 7169SOL    HW233144   2.380   1.864  16.792 -0.8636  0.9857  1.2630
 7170SOL     OW33145   1.502   0.597   8.203 -0.2930  0.3867 -0.4778
 7170SOL    HW133146   1.411   0.622   8.218  0.4918  1.8459  1.8270
 7170SOL    HW233147   1.526   0.568   8.290  1.5563 -0.5744 -1.3054
 7171SOL     OW33148   3.015   3.110   9.477  0.3949 -0.4828 -0.5088
 7171SOL    HW133149   2.966   3.080   9.555  1.9176  0.0819  0.6591
 7171SOL    HW233150   2.965   3.066   9.408 -0.4068  0.0670 -0.2810
 7172SOL     OW33151   1.530   1.478   1.024  0.1362 -0.1920 -0.1931
 7172SOL    HW133152   1.557   1.556   0.976  3.0256 -0.4217  1.0369
 7172SOL    HW233153   1.501   1.520   1.105 -3.7203 -0.4004 -1.4920
 7173SOL     OW33154   3.432   2.310   5.756 -0.6108  0.1530  0.0045
 7173SOL    HW133155   3.485   2.357   5.692 -0.6422  1.0034  0.6075
 7173SOL    HW233156   3.502   2.264   5.803  1.2341  1.4078 -1.5138
 7174SOL     OW33157   0.727   1.465  12.027  0.6859 -0.6412  0.1678
 7174SOL    HW133158   0.702   1.453  12.119  1.5897  0.5214  0.5552
 7174SOL    HW233159   0.780   1.386  12.023  0.2157 -0.9453 -0.0809
 7175SOL     OW33160   1.959   0.301   5.764  0.1528  0.2669 -0.6527
 7175SOL    HW133161   1.976   0.391   5.738  2.2579  0.0895  0.0827
 7175SOL    HW233162   2.023   0.255   5.710 -0.0291 -0.8906  0.1147
 7176SOL     OW33163   2.020   4.600  17.703  0.1179  0.4674 -0.7819
 7176SOL    HW133164   1.936   4.621  17.744 -0.0272  1.9873 -1.8712
 7176SOL    HW233165   2.034   4.535   0.021  2.8317  0.2458 -1.5583
 7177SOL     OW33166   3.321   3.737   2.999 -0.4041 -0.2029 -0.3317
 7177SOL    HW133167   3.256   3.683   2.954 -0.7464  0.0431 -0.1320
 7177SOL    HW233168   3.299   3.830   2.994 -0.4408 -0.0970  1.5814
 7178SOL     OW33169   0.852   4.427   1.144 -0.4578  0.4840  0.1876
 7178SOL    HW133170   0.898   4.343   1.142 -2.6392 -0.7530  2.0322
 7178SOL    HW233171   0.893   4.464   1.223 -0.6547  0.1006  0.4716
 7179SOL     OW33172   4.169   2.768   0.680 -0.6401  0.1068 -0.1141
 7179SOL    HW133173   4.221   2.827   0.735  1.2452  0.2624 -2.0669
 7179SOL    HW233174   4.080   2.785   0.713 -1.4674 -0.9236 -1.7859
 7180SOL     OW33175   0.432   2.065   4.476 -0.7838  0.8058 -0.3445
 7180SOL    HW133176   0.454   1.987   4.426  2.1290  1.0102  0.6506
 7180SOL    HW233177   0.517   2.101   4.499 -0.2855 -0.6027 -0.0423
 7181SOL     OW33178   0.154   1.075  17.322 -0.4992 -0.0693 -0.1249
 7181SOL    HW133179   0.096   1.125  17.264  0.8971 -0.0355 -1.4924
 7181SOL    HW233180   0.245   1.098  17.304 -0.4749 -1.1353 -1.4011
 7182SOL     OW33181   0.257   0.754   0.117 -0.5603  0.1840  0.0710
 7182SOL    HW133182   0.265   0.659   0.116  2.9048  0.4881 -3.2072
 7182SOL    HW233183   0.171   0.761   0.157  0.1180  0.8317  1.4107
 7183SOL     OW33184   4.372   2.713   2.937  0.4634 -0.0873 -0.1643
 7183SOL    HW133185   4.281   2.728   2.961  0.5397  1.6742 -0.9330
 7183SOL    HW233186   4.368   2.641   2.874 -1.7991  0.0909 -0.2039
 7184SOL     OW33187   1.898   2.431   4.900 -0.2782  0.1067  0.4517
 7184SOL    HW133188   1.989   2.436   4.929 -0.9704  1.5140  2.3405
 7184SOL    HW233189   1.891   2.525   4.887  1.5750  0.2205  0.1731
 7185SOL     OW33190   1.750   3.945   1.893  0.1954 -0.0377  0.2859
 7185SOL    HW133191   1.756   4.024   1.947  2.1890 -0.5452  0.7929
 7185SOL    HW233192   1.687   3.970   1.826 -0.0572 -1.9370 -0.2061
 7186SOL     OW33193   4.377   4.220   5.594  0.7564  0.1222  0.4833
 7186SOL    HW133194   4.367   4.164   5.517  2.4969 -2.6291  2.2810
 7186SOL    HW233195   4.469   4.247   5.593  0.7597  0.1218  1.0669
 7187SOL     OW33196   1.495   1.142   8.564 -0.6149  0.1931 -0.7976
 7187SOL    HW133197   1.588   1.156   8.582 -0.5454 -1.6086  0.1869
 7187SOL    HW233198   1.490   1.054   8.601  3.1939 -0.6890 -2.3933
 7188SOL     OW33199   3.188   4.689   8.922 -0.1391  0.5730  0.5122
 7188SOL    HW133200   3.141   0.014   8.868 -0.0158 -0.4403 -0.7786
 7188SOL    HW233201   3.276   4.701   8.887  0.8394 -0.5608  2.5431
 7189SOL     OW33202   4.357   4.546   7.735  0.6251  0.5645 -0.1703
 7189SOL    HW133203   4.272   4.530   7.774  0.6038 -1.7339 -1.1446
 7189SOL    HW233204   4.406   4.571   7.813 -0.4818 -0.8828  0.9811
 7190SOL     OW33205   3.259   2.598   4.204  0.3807 -0.1227  0.2953
 7190SOL    HW133206   3.186   2.656   4.230 -0.4651 -0.4975 -1.2910
 7190SOL    HW233207   3.209   2.532   4.157 -0.3683 -0.8432  2.0704
 7191SOL     OW33208   0.433   1.253  12.029  0.0092 -0.0739  0.4771
 7191SOL    HW133209   0.374   1.284  11.961 -2.1448 -1.1630  1.8713
 7191SOL    HW233210   0.516   1.240  11.983 -0.1252 -1.2625  0.5564
 7192SOL     OW33211   2.342   3.139  12.892 -1.0414 -0.0125  0.1919
 7192SOL    HW133212   2.256   3.152  12.850 -0.8591 -0.1063 -0.2165
 7192SOL    HW233213   2.392   3.091  12.826  0.9724  0.5479  1.3173
 7193SOL     OW33214   0.300   2.149  17.279  0.0709  0.1181  0.4459
 7193SOL    HW133215   0.278   2.233  17.320  2.4393  2.3233 -2.7933
 7193SOL    HW233216   0.304   2.093  17.357 -2.5481 -2.1582 -1.0568
 7194SOL     OW33217   3.356   3.533   3.245  0.3955 -0.2181  0.2395
 7194SOL    HW133218   3.331   3.578   3.164 -0.8801  0.0801  0.7920
 7194SOL    HW233219   3.399   3.455   3.211  0.3723  0.6913 -1.9026
 7195SOL     OW33220   4.276   0.198   4.456 -0.3738 -0.9840  0.2440
 7195SOL    HW133221   4.371   0.191   4.463 -0.2188 -0.1462 -1.0203
 7195SOL    HW233222   4.252   0.112   4.491  1.2627 -1.8132 -0.7119
 7196SOL     OW33223   3.232   1.371   8.514  0.0641  0.0046 -0.0227
 7196SOL    HW133224   3.160   1.406   8.462  0.3878  1.5697  0.5690
 7196SOL    HW233225   3.228   1.277   8.500 -0.9967  0.1118 -0.4268
 7197SOL     OW33226   2.291   2.072  14.949  0.2665 -0.3080  0.2163
 7197SOL    HW133227   2.381   2.106  14.946  0.1303 -0.1726 -2.2227
 7197SOL    HW233228   2.297   2.005  14.881  0.4742  1.0381 -1.1046
 7198SOL     OW33229   4.174   2.847   5.750 -0.0965 -0.2993  0.0505
 7198SOL    HW133230   4.140   2.892   5.673 -0.3674  0.6889  0.7437
 7198SOL    HW233231   4.260   2.829   5.713  0.6288  1.0457  1.1059
 7199SOL     OW33232   0.753   3.991   6.614 -0.2335 -0.3767 -0.4811
 7199SOL    HW133233   0.804   4.062   6.654  2.0425 -1.3733 -1.6004
 7199SOL    HW233234   0.678   3.996   6.673 -0.1778  1.3935 -0.5530
 7200SOL     OW33235   4.188   1.409   6.021 -0.0016 -0.0077 -0.1028
 7200SOL    HW133236   4.191   1.439   5.930 -0.3228 -0.4163 -0.2485
 7200SOL    HW233237   4.241   1.330   6.015 -0.6016 -0.5734  2.0970
 7201SOL     OW33238   0.100   3.134   9.348 -0.0122  0.5894 -0.2367
 7201SOL    HW133239   0.073   3.185   9.425  3.9664  3.0074 -0.4282
 7201SOL    HW233240   0.080   3.046   9.380 -0.7955  2.0608  3.3582
 7202SOL     OW33241   0.504   2.368   5.078 -0.1602  0.5185 -0.2679
 7202SOL    HW133242   0.538   2.436   5.020  0.1188  1.0446  0.5083
 7202SOL    HW233243   0.579   2.310   5.093 -1.3224 -1.3311 -1.6175
 7203SOL     OW33244   0.650   2.306  10.586 -0.0871  0.3540 -0.2452
 7203SOL    HW133245   0.648   2.334  10.678  0.4672  0.4949 -0.2785
 7203SOL    HW233246   0.617   2.379  10.534  1.6305  0.3413 -1.3166
 7204SOL     OW33247   4.179   0.508   5.600 -0.2190 -0.1372 -0.4352
 7204SOL    HW133248   4.084   0.522   5.604 -0.2004 -0.2582  0.3126
 7204SOL    HW233249   4.183   0.422   5.641  0.7037  0.8009  1.3938
 7205SOL     OW33250   1.305   0.346   8.949  0.0210  0.0913  0.2230
 7205SOL    HW133251   1.383   0.336   9.004 -1.1182 -0.0935  1.8204
 7205SOL    HW233252   1.242   0.357   9.020 -0.1138 -0.2494  0.1529
 7206SOL     OW33253   0.686   2.046  14.861 -0.4226  0.1665  0.6719
 7206SOL    HW133254   0.777   2.050  14.892  0.1178  0.7017 -1.0171
 7206SOL    HW233255   0.658   2.137  14.866  1.0347  0.6477 -0.2487
 7207SOL     OW33256   0.998   3.686  11.465  0.4664  0.5727 -0.3420
 7207SOL    HW133257   1.074   3.632  11.446 -0.3584 -1.0795  1.1244
 7207SOL    HW233258   0.958   3.690  11.378  0.3840  0.1805 -0.3209
 7208SOL     OW33259   1.589   3.535  13.234 -0.4345 -0.1271  0.1676
 7208SOL    HW133260   1.680   3.564  13.240 -0.8854  1.5044 -0.7781
 7208SOL    HW233261   1.542   3.616  13.255 -0.6329 -0.0735 -0.4710
 7209SOL     OW33262   1.879   0.674  12.216  0.5107  0.0121 -0.3128
 7209SOL    HW133263   1.877   0.754  12.270  0.3968 -0.9308  1.0739
 7209SOL    HW233264   1.851   0.612  12.283 -0.1582  0.6513 -0.0012
 7210SOL     OW33265   4.009   1.299   5.459 -0.0266  0.7486  0.0741
 7210SOL    HW133266   4.018   1.234   5.529  0.3863  0.3908 -0.3100
 7210SOL    HW233267   4.024   1.377   5.512 -1.9227  1.4566 -0.4293
 7211SOL     OW33268   1.355   3.215   6.957 -0.1253  0.1025  0.3431
 7211SOL    HW133269   1.374   3.309   6.959 -2.4185  0.6639 -3.9655
 7211SOL    HW233270   1.397   3.193   6.874 -0.8665 -0.0153 -0.0044
 7212SOL     OW33271   3.882   4.240   6.864  0.0248 -0.0408  0.0274
 7212SOL    HW133272   3.920   4.309   6.810  1.8911 -0.7839  0.3930
 7212SOL    HW233273   3.944   4.224   6.935  0.4518 -2.1749 -0.8197
 7213SOL     OW33274   4.183   2.128   5.512  0.7363  0.2591  0.4533
 7213SOL    HW133275   4.245   2.172   5.571  0.9785 -0.6176  0.8613
 7213SOL    HW233276   4.197   2.036   5.536  1.2728 -0.1068 -1.3105
 7214SOL     OW33277   2.192   3.828   6.736 -0.3920 -0.0006  0.0700
 7214SOL    HW133278   2.254   3.800   6.803 -0.3483 -0.7146 -0.2671
 7214SOL    HW233279   2.245   3.824   6.656  0.3795 -1.5408  0.6648
 7215SOL     OW33280   0.526   3.408  10.677  0.2468  0.2050 -0.3702
 7215SOL    HW133281   0.593   3.340  10.681 -0.2890 -0.3128 -0.1844
 7215SOL    HW233282   0.560   3.465  10.746  0.4938 -1.6083  1.0023
 7216SOL     OW33283   0.510   0.670   4.045  0.0598  0.1473  0.4172
 7216SOL    HW133284   0.440   0.636   3.989  0.1618  1.9589 -0.8042
 7216SOL    HW233285   0.560   0.591   4.066 -0.6920  0.7343  4.5472
 7217SOL     OW33286   4.104   4.214   1.776  0.0556  0.4094 -0.2144
 7217SOL    HW133287   4.110   4.288   1.835 -0.8891  1.5736 -1.5594
 7217SOL    HW233288   4.148   4.150   1.831  1.0057  1.7319  0.5361
 7218SOL     OW33289   3.056   0.142  14.389  0.6958  0.8307 -0.0590
 7218SOL    HW133290   2.997   0.208  14.355 -0.3055 -0.5762 -1.0181
 7218SOL    HW233291   3.041   0.149  14.484  0.6902 -0.0346  0.0076
 7219SOL     OW33292   1.805   2.983   4.845 -0.6829  0.0782 -0.1839
 7219SOL    HW133293   1.835   2.973   4.754 -0.5750  1.5648 -0.3118
 7219SOL    HW233294   1.872   3.034   4.892 -0.2876 -0.1019 -0.5450
 7220SOL     OW33295   4.221   3.732  13.577  0.3463  0.0094  0.0408
 7220SOL    HW133296   4.275   3.659  13.609  1.6722  1.7500  1.7927
 7220SOL    HW233297   4.163   3.745  13.652 -0.9192  1.8365 -1.2369
 7221SOL     OW33298   2.861   2.153  10.576 -0.4785 -0.3521 -0.2336
 7221SOL    HW133299   2.850   2.222  10.641 -3.0301 -0.0905 -0.9762
 7221SOL    HW233300   2.887   2.083  10.637 -2.3704  0.2085  1.1897
 7222SOL     OW33301   1.295   3.364   8.126 -0.5057  0.3379 -0.1087
 7222SOL    HW133302   1.250   3.448   8.121  0.3127  0.8601  1.3774
 7222SOL    HW233303   1.233   3.305   8.084 -1.8105  2.8406 -1.7200
 7223SOL     OW33304   0.438   0.194  13.534 -0.1188 -0.1625 -0.7971
 7223SOL    HW133305   0.405   0.271  13.488 -0.6934  1.3152  2.0228
 7223SOL    HW233306   0.533   0.199  13.529 -0.1839  0.6634 -1.2137
 7224SOL     OW33307   1.938   4.184  15.489 -0.2760  0.1798  0.2595
 7224SOL    HW133308   2.026   4.171  15.525 -1.1023 -0.8320  1.8977
 7224SOL    HW233309   1.952   4.189  15.394 -1.3743  0.4149  0.1113
 7225SOL     OW33310   4.158   3.374   9.813  0.2435 -0.5262  0.0376
 7225SOL    HW133311   4.139   3.340   9.900 -1.3725 -0.1333 -0.1477
 7225SOL    HW233312   4.142   3.465   9.838  1.9649 -0.4857  1.0180
 7226SOL     OW33313   1.372   4.428   7.590  0.6005  0.1384  0.2216
 7226SOL    HW133314   1.281   4.459   7.593  0.3898 -0.4417 -0.4038
 7226SOL    HW233315   1.356   4.334   7.592 -0.2160  0.3003  1.2548
 7227SOL     OW33316   4.040   3.130   6.313 -0.2078  0.2197  0.0570
 7227SOL    HW133317   4.033   3.038   6.342  0.7132 -0.4592 -1.9078
 7227SOL    HW233318   3.960   3.143   6.262  0.5407 -0.7479 -1.3384
 7228SOL     OW33319   4.458   1.517   4.241 -0.1358  0.3136 -0.3409
 7228SOL    HW133320   4.488   1.426   4.239 -1.8609 -0.2288 -0.8521
 7228SOL    HW233321   4.532   1.551   4.292 -1.6461  1.3116  1.1934
 7229SOL     OW33322   2.251   4.331  15.323 -0.2992 -0.0118  0.3723
 7229SOL    HW133323   2.240   4.237  15.309  2.2436 -0.5612  2.0283
 7229SOL    HW233324   2.289   4.350  15.237  0.9278  1.3696  1.1985
 7230SOL     OW33325   4.432   3.653  10.558  0.5862 -0.4396 -0.1634
 7230SOL    HW133326   4.336   3.652  10.564  0.3261  2.8150 -4.2381
 7230SOL    HW233327   4.462   3.656  10.649 -0.4969  2.0658  0.0943
 7231SOL     OW33328   1.407   0.069   7.906 -0.6795 -0.3621  0.3681
 7231SOL    HW133329   1.439   0.027   7.986  1.3506  0.4693 -0.0049
 7231SOL    HW233330   1.333   0.116   7.945  0.1353 -0.7053  2.3153
 7232SOL     OW33331   1.322   0.765   4.866  0.1990  0.2980 -0.0504
 7232SOL    HW133332   1.310   0.829   4.936 -1.8747  2.8687 -2.7607
 7232SOL    HW233333   1.342   0.822   4.793 -2.4685  1.1649 -0.1124
 7233SOL     OW33334   4.352   1.189   6.038 -0.1637 -0.1775 -0.3356
 7233SOL    HW133335   4.397   1.196   5.954 -1.6087  0.8648 -1.0285
 7233SOL    HW233336   4.413   1.227   6.102  0.1518 -0.5571 -0.4160
 7234SOL     OW33337   0.076   1.963   0.519 -0.0643 -0.1387 -0.4898
 7234SOL    HW133338   0.047   1.878   0.487 -0.9347  0.3855 -1.0816
 7234SOL    HW233339   4.731   2.010   0.524 -1.5073 -2.6965 -0.2922
 7235SOL     OW33340   0.231   2.181   0.451  0.5191  0.2301  0.6678
 7235SOL    HW133341   0.318   2.159   0.485 -0.1839 -0.7157  1.8467
 7235SOL    HW233342   0.173   2.109   0.476 -1.1789  1.4380  0.2671
 7236SOL     OW33343   2.324   4.482   3.432  0.6984  0.4847 -0.3330
 7236SOL    HW133344   2.268   4.559   3.434  0.0855  0.0617 -2.2521
 7236SOL    HW233345   2.284   4.426   3.366  1.9237 -1.3845  0.4865
 7237SOL     OW33346   1.513   3.636   5.557  0.1271  0.3022 -0.3520
 7237SOL    HW133347   1.522   3.707   5.493  0.5201  1.5951  1.1173
 7237SOL    HW233348   1.441   3.670   5.610  0.5990 -1.2478  1.2837
 7238SOL     OW33349   1.438   2.012   6.731  0.5575 -0.0894  0.3532
 7238SOL    HW133350   1.482   1.932   6.704  1.1801 -0.8901  3.7465
 7238SOL    HW233351   1.470   2.022   6.820 -0.6029  1.1411  0.6359
 7239SOL     OW33352   2.059   0.408  14.385  0.1257  0.3167  0.0382
 7239SOL    HW133353   2.027   0.320  14.407  1.6047  0.1288  1.4375
 7239SOL    HW233354   2.054   0.420  14.290  0.9943  0.3594 -0.0075
 7240SOL     OW33355   1.067   4.325   2.595  0.3998  0.3341 -0.5822
 7240SOL    HW133356   1.056   4.385   2.669 -1.7789  0.0698 -0.7144
 7240SOL    HW233357   1.066   4.390   2.524  2.4046 -0.3278 -1.2063
 7241SOL     OW33358   0.852   3.599   2.360  0.0149  0.1751 -0.4410
 7241SOL    HW133359   0.914   3.528   2.340 -0.0331 -0.4073  1.4915
 7241SOL    HW233360   0.778   3.543   2.383 -1.4992  1.4776 -2.1769
 7242SOL     OW33361   3.889   4.154  15.108 -0.0741  0.1077  0.2028
 7242SOL    HW133362   3.909   4.154  15.202  1.8301  0.0947 -0.2038
 7242SOL    HW233363   3.922   4.239  15.079 -1.0951 -0.3054 -2.1256
 7243SOL     OW33364   4.395   1.578   6.301  0.2910  0.5096 -0.3722
 7243SOL    HW133365   4.463   1.634   6.340  0.6981 -0.1948 -0.0701
 7243SOL    HW233366   4.351   1.555   6.383  0.1033 -1.1092 -0.9241
 7244SOL     OW33367   1.300   3.903   1.511 -1.4253 -0.1118  0.4885
 7244SOL    HW133368   1.367   3.962   1.476  0.7048 -4.1419 -2.2715
 7244SOL    HW233369   1.237   3.958   1.556 -2.3753 -1.0936  0.3683
 7245SOL     OW33370   2.237   4.223   4.781  0.4642  0.5836  0.1712
 7245SOL    HW133371   2.242   4.161   4.855  2.5888  0.4595 -0.0684
 7245SOL    HW233372   2.192   4.295   4.825 -1.0408  0.3793 -1.0311
 7246SOL     OW33373   2.285   2.472   4.246 -0.2208  0.3704  0.1086
 7246SOL    HW133374   2.285   2.545   4.308  1.4807  0.6092 -0.1780
 7246SOL    HW233375   2.338   2.409   4.295  0.0748  0.2141 -0.4136
 7247SOL     OW33376   4.718   1.954   4.993 -0.3408  0.2792  0.1723
 7247SOL    HW133377   4.708   1.875   4.939 -1.4482  0.0687  0.6805
 7247SOL    HW233378   4.685   2.025   4.937  0.7746  0.7056  0.0527
 7248SOL     OW33379   1.387   0.039  17.232 -0.4669 -0.2145 -0.0120
 7248SOL    HW133380   1.330   4.730  17.294  0.5877 -1.1306  0.2631
 7248SOL    HW233381   1.344   0.024  17.148  0.1928  2.7665 -0.8754
 7249SOL     OW33382   4.160   2.679   3.327  0.2898 -0.4797  0.9201
 7249SOL    HW133383   4.172   2.774   3.320 -2.7893 -0.0615  1.1982
 7249SOL    HW233384   4.241   2.644   3.290 -0.7819  0.9215 -2.7682
 7250SOL     OW33385   0.237   0.702   3.690  0.6103 -0.5824  0.1980
 7250SOL    HW133386   0.222   0.796   3.705  2.3614 -0.5930  1.9788
 7250SOL    HW233387   0.303   0.703   3.621 -1.6487  0.0600 -1.9831
 7251SOL     OW33388   0.208   2.213   6.894 -0.3475 -0.4893 -0.4373
 7251SOL    HW133389   0.145   2.168   6.838  0.2195  0.1705 -1.6147
 7251SOL    HW233390   0.164   2.213   6.979 -1.4123  2.5671 -0.9756
 7252SOL     OW33391   4.556   3.707  15.399  0.7353 -0.4889  0.0174
 7252SOL    HW133392   4.651   3.701  15.398  0.5733 -3.2813  2.0282
 7252SOL    HW233393   4.539   3.620  15.362 -2.7073 -0.0242  0.4244
 7253SOL     OW33394   1.544   3.853   2.310  0.5128 -0.3848 -0.0249
 7253SOL    HW133395   1.506   3.891   2.389  1.4823  0.8816 -0.1542
 7253SOL    HW233396   1.511   3.765   2.325 -2.2454  0.4841 -0.9262
 7254SOL     OW33397   4.128   3.688   4.068  0.1805  0.2618  0.1941
 7254SOL    HW133398   4.180   3.741   4.008 -0.2898  1.2968  0.7067
 7254SOL    HW233399   4.125   3.748   4.142 -0.4635 -0.6470  0.9140
 7255SOL     OW33400   0.085   0.186   4.014  0.1702  0.8121  0.0735
 7255SOL    HW133401   0.051   0.259   4.066  0.6305  2.2140 -1.5938
 7255SOL    HW233402   0.178   0.208   4.018  0.5825 -0.3830 -3.0610
 7256SOL     OW33403   1.495   3.863   4.588 -0.0528 -0.0290 -0.0220
 7256SOL    HW133404   1.516   3.780   4.630 -0.8989 -1.1310 -1.7589
 7256SOL    HW233405   1.569   3.918   4.611  0.5011 -0.8013  0.0480
 7257SOL     OW33406   0.906   4.222   5.855 -0.1288 -0.6189  0.4007
 7257SOL    HW133407   0.926   4.295   5.913  0.3648 -0.5747  0.1817
 7257SOL    HW233408   0.820   4.250   5.826 -0.3522 -1.1557  0.5379
 7258SOL     OW33409   0.403   4.513   6.342 -0.2418 -0.2261  0.8489
 7258SOL    HW133410   0.354   4.438   6.307  2.3048  0.3740 -4.0799
 7258SOL    HW233411   0.418   4.488   6.433 -1.1895  0.7861  1.2843
 7259SOL     OW33412   2.815   0.152   3.361  0.1019 -0.3165  0.0276
 7259SOL    HW133413   2.853   0.219   3.418  0.2191 -0.0214 -0.3926
 7259SOL    HW233414   2.815   0.190   3.273 -2.5500  1.0753  0.6452
 7260SOL     OW33415   3.219   3.712   5.897 -0.1166  0.2643  0.8010
 7260SOL    HW133416   3.125   3.722   5.877  0.0137 -0.5654 -0.1804
 7260SOL    HW233417   3.223   3.621   5.924 -0.2714  0.4513  1.4625
 7261SOL     OW33418   2.184   2.896   4.820 -0.1852 -0.5620 -0.2099
 7261SOL    HW133419   2.171   2.900   4.726 -0.1946  0.0864 -0.1788
 7261SOL    HW233420   2.110   2.841   4.846 -1.0313  0.7873  0.2088
 7262SOL     OW33421   0.711   2.272   2.951  0.5431 -0.2032  0.6739
 7262SOL    HW133422   0.690   2.290   3.042  1.9698  0.1648  0.9307
 7262SOL    HW233423   0.686   2.357   2.914  0.5802 -0.0962  0.8975
 7263SOL     OW33424   1.294   1.140  16.995 -0.2982  0.0093 -0.4701
 7263SOL    HW133425   1.234   1.212  16.973  1.8335  2.3095  1.2822
 7263SOL    HW233426   1.230   1.068  17.000  2.3820 -2.1950  1.9792
 7264SOL     OW33427   3.041   1.643   3.242  0.4518  0.8538  0.0039
 7264SOL    HW133428   3.034   1.738   3.254  0.4349  1.0211 -1.3363
 7264SOL    HW233429   3.097   1.624   3.318 -0.0895  0.6567  0.3493
 7265SOL     OW33430   0.111   4.351   9.021 -0.6175 -0.9571  0.2745
 7265SOL    HW133431   0.089   4.278   8.963 -1.8723 -0.8334  0.6088
 7265SOL    HW233432   0.158   4.304   9.090  1.0152 -0.0676 -0.2186
 7266SOL     OW33433   2.745   4.559  15.229  0.2776 -0.4334 -0.1379
 7266SOL    HW133434   2.693   4.479  15.224 -0.3274 -0.0206 -0.5263
 7266SOL    HW233435   2.731   4.597  15.142 -0.1679 -0.9465 -0.2942
 7267SOL     OW33436   1.650   0.584   5.963  0.4676 -0.0466  0.4852
 7267SOL    HW133437   1.565   0.547   5.988  0.5410 -2.0521 -2.2606
 7267SOL    HW233438   1.696   0.510   5.924 -1.0622  0.5165 -2.4255
 7268SOL     OW33439   3.160   1.597  10.144 -0.1208  0.7006 -0.0062
 7268SOL    HW133440   3.187   1.632  10.059 -0.4568  0.1883 -0.3237
 7268SOL    HW233441   3.132   1.680  10.184  0.3414  0.0163  1.7132
 7269SOL     OW33442   3.683   3.395   6.969 -0.5372 -0.7399  0.1146
 7269SOL    HW133443   3.617   3.418   6.904  1.0668 -1.0151 -1.6248
 7269SOL    HW233444   3.753   3.417   6.908 -0.8722 -1.2736 -0.4539
 7270SOL     OW33445   3.445   3.758   5.262 -0.0426 -0.6563  0.2897
 7270SOL    HW133446   3.395   3.805   5.330 -1.3082  3.4084 -3.4389
 7270SOL    HW233447   3.536   3.776   5.284  0.3861  0.2041 -2.2048
 7271SOL     OW33448   3.272   3.681   9.745 -0.3701 -0.8027  0.1720
 7271SOL    HW133449   3.264   3.774   9.722  1.3379 -0.9941 -1.1100
 7271SOL    HW233450   3.313   3.632   9.674 -0.4810 -0.8202  0.1202
 7272SOL     OW33451   0.424   3.529  11.013 -0.1927  0.3908 -0.4587
 7272SOL    HW133452   0.454   3.596  11.075  1.5045 -0.2877 -0.5531
 7272SOL    HW233453   0.504   3.528  10.960 -1.6604  2.6269 -2.7188
 7273SOL     OW33454   4.470   2.051   3.852 -0.1606 -0.2400  0.1957
 7273SOL    HW133455   4.407   1.999   3.903 -1.0685  0.3659 -0.3103
 7273SOL    HW233456   4.527   2.088   3.919 -0.0407 -0.6718  0.3333
 7274SOL     OW33457   1.378   0.693  11.273 -0.2098  0.2114  0.1665
 7274SOL    HW133458   1.395   0.618  11.331 -2.9955  0.1286  0.8957
 7274SOL    HW233459   1.429   0.759  11.319 -0.4808  0.5450 -0.0146
 7275SOL     OW33460   1.976   2.843  13.314 -0.2241  0.1481  0.1096
 7275SOL    HW133461   1.890   2.833  13.274 -0.0406  0.8994 -0.4901
 7275SOL    HW233462   2.002   2.923  13.266 -0.4624 -0.2746 -0.7190
 7276SOL     OW33463   0.731   2.762   5.755 -0.3304  0.2203 -0.5820
 7276SOL    HW133464   0.703   2.770   5.846 -0.8005  0.8162 -0.7753
 7276SOL    HW233465   0.686   2.839   5.721  1.0415  0.9900 -0.6440
 7277SOL     OW33466   0.428   1.290  14.398  0.1829 -0.0130 -0.3396
 7277SOL    HW133467   0.475   1.305  14.316  1.1956  1.3156  0.4882
 7277SOL    HW233468   0.403   1.198  14.393  1.0568 -0.1864 -1.3035
 7278SOL     OW33469   3.290   1.444   8.137  0.2262 -0.4977 -0.2240
 7278SOL    HW133470   3.355   1.465   8.071 -0.8912  0.1966 -1.1034
 7278SOL    HW233471   3.213   1.492   8.107 -0.4613 -0.5091  1.5282
 7279SOL     OW33472   2.766   2.760   9.012  0.3113  0.3311  0.0802
 7279SOL    HW133473   2.723   2.813   9.080  1.8531  3.5588 -1.4364
 7279SOL    HW233474   2.730   2.678   9.044  0.2182  1.0677  1.8376
 7280SOL     OW33475   1.078   0.226   3.524  0.4586 -0.1027 -0.5663
 7280SOL    HW133476   1.076   0.319   3.504  1.4794  0.6961  2.9912
 7280SOL    HW233477   1.127   0.201   3.446  1.8159  0.8229 -0.0135
 7281SOL     OW33478   1.119   3.820  10.376  0.0774 -0.5193  0.3012
 7281SOL    HW133479   1.198   3.873  10.377 -1.2478  1.5066 -1.1725
 7281SOL    HW233480   1.065   3.894  10.405  0.9369 -0.9586  3.0049
 7282SOL     OW33481   2.693   1.369   3.854  0.4809  1.3220  0.3645
 7282SOL    HW133482   2.628   1.346   3.788 -0.0374  0.7101  1.0880
 7282SOL    HW233483   2.724   1.283   3.881  0.6759  0.1880 -3.5203
 7283SOL     OW33484   0.349   2.101  10.861 -0.4281  0.3434 -0.3986
 7283SOL    HW133485   0.301   2.047  10.923 -2.0653  1.4586 -0.7052
 7283SOL    HW233486   0.328   2.054  10.780 -2.0202 -1.1857  0.9046
 7284SOL     OW33487   3.545   4.349  16.147 -0.5032 -0.2286  0.5334
 7284SOL    HW133488   3.555   4.254  16.143 -0.0686 -0.0587 -2.8113
 7284SOL    HW233489   3.509   4.361  16.235 -0.0028 -0.4474  0.7698
 7285SOL     OW33490   0.408   3.999   9.500  0.2767 -0.0792  0.1648
 7285SOL    HW133491   0.371   4.032   9.582  0.3945  0.7518 -0.1092
 7285SOL    HW233492   0.366   3.913   9.497 -0.0907  0.0941  0.3185
 7286SOL     OW33493   4.571   3.949  14.005  0.5840 -0.4649 -0.0271
 7286SOL    HW133494   4.559   4.040  13.976  0.2697 -1.0295 -1.7066
 7286SOL    HW233495   4.533   3.904  13.929 -0.4881 -1.0561  0.8699
 7287SOL     OW33496   4.064   3.983   5.051  0.7587 -0.4954 -0.1876
 7287SOL    HW133497   4.113   3.920   4.998 -0.6658 -0.5667 -1.4157
 7287SOL    HW233498   4.122   4.058   5.039  1.9352 -1.2586  0.8177
 7288SOL     OW33499   2.853   0.229   3.099  0.5871 -0.0320 -0.0954
 7288SOL    HW133500   2.838   0.136   3.078 -0.1983  0.2910 -0.9590
 7288SOL    HW233501   2.943   0.239   3.070 -0.0674  3.0913 -1.0380
 7289SOL     OW33502   3.807   4.169   4.213  0.0788 -0.0430 -0.0183
 7289SOL    HW133503   3.831   4.145   4.303 -0.2310 -1.2759 -0.2662
 7289SOL    HW233504   3.894   4.202   4.192  0.2091 -0.8378 -0.7336
 7290SOL     OW33505   1.632   3.625   4.637  0.2286  1.3139  0.3812
 7290SOL    HW133506   1.639   3.542   4.589 -1.6796 -0.5586  3.3298
 7290SOL    HW233507   1.708   3.671   4.601  0.6533  0.1545 -0.2104
 7291SOL     OW33508   3.513   2.086   1.958  0.1301 -0.0509  0.0080
 7291SOL    HW133509   3.564   2.007   1.979 -0.2725 -0.9234 -2.2542
 7291SOL    HW233510   3.492   2.068   1.866 -0.1020  1.8683 -0.3033
 7292SOL     OW33511   0.152   0.087   0.720 -0.4621  0.4588  1.0626
 7292SOL    HW133512   0.114   0.167   0.754 -0.3949  0.7469  0.4495
 7292SOL    HW233513   0.072   0.063   0.674  2.5721 -4.0962 -1.9151
 7293SOL     OW33514   4.373   2.097   6.195 -0.6018  0.1280  0.0815
 7293SOL    HW133515   4.309   2.127   6.130 -1.6144  0.6620  1.3396
 7293SOL    HW233516   4.406   2.018   6.152  0.3020  1.2342 -1.2593
 7294SOL     OW33517   1.011   1.595   6.724  0.5533 -0.5537  0.0264
 7294SOL    HW133518   1.065   1.658   6.772  1.9858 -1.0956 -0.8725
 7294SOL    HW233519   0.989   1.535   6.795  0.0249  1.0542  1.2122
 7295SOL     OW33520   4.332   4.507   7.097  0.1694  0.3840 -0.2683
 7295SOL    HW133521   4.420   4.478   7.072  0.3291  0.3566  0.3136
 7295SOL    HW233522   4.309   4.432   7.152 -0.6412  1.1183  0.3992
 7296SOL     OW33523   3.193   4.678  17.548  0.4973  0.3012 -0.4544
 7296SOL    HW133524   3.149   4.719  17.622  0.7335 -0.1109 -0.0883
 7296SOL    HW233525   3.264   4.621  17.577 -0.2351 -1.5935 -2.3515
 7297SOL     OW33526   4.404   2.326   6.976 -0.4848 -0.0790 -0.8033
 7297SOL    HW133527   4.412   2.239   7.016 -2.2964 -0.0033 -0.2731
 7297SOL    HW233528   4.430   2.303   6.887  0.3790  0.0423 -0.5824
 7298SOL     OW33529   1.392   2.300  13.193  0.2288  0.2394 -0.0202
 7298SOL    HW133530   1.436   2.335  13.270  1.0785  1.5335 -1.1078
 7298SOL    HW233531   1.450   2.325  13.121  0.5138 -0.1437  0.0759
 7299SOL     OW33532   1.291   2.749   3.373 -0.3159  0.1115  0.2118
 7299SOL    HW133533   1.337   2.796   3.303  0.2701 -1.4857 -0.4862
 7299SOL    HW233534   1.207   2.796   3.374  0.5226  1.5643  0.9484
 7300SOL     OW33535   0.893   3.271   6.586  0.4019 -0.1174 -0.3659
 7300SOL    HW133536   0.938   3.314   6.512 -0.9356  0.4056 -0.8702
 7300SOL    HW233537   0.875   3.184   6.551  0.0733 -0.8297  1.5871
 7301SOL     OW33538   1.976   4.488  10.514 -0.3373  0.2944  0.0622
 7301SOL    HW133539   2.036   4.520  10.581 -0.4006 -2.5977  1.5077
 7301SOL    HW233540   1.947   4.413  10.565 -1.1271  1.6708  1.6261
 7302SOL     OW33541   3.656   1.134   8.199 -0.5036 -0.2140  0.5167
 7302SOL    HW133542   3.691   1.161   8.284 -0.0502 -0.7964  0.5125
 7302SOL    HW233543   3.607   1.208   8.163 -0.3057  0.2504  1.2057
 7303SOL     OW33544   0.964   1.603  14.094  0.0308 -0.4503 -0.3099
 7303SOL    HW133545   0.939   1.547  14.021  0.2648  1.3538 -1.7942
 7303SOL    HW233546   0.896   1.670  14.092  1.8062  1.3894  0.8120
 7304SOL     OW33547   3.230   1.231   7.392  0.2485 -0.4382 -0.0501
 7304SOL    HW133548   3.265   1.196   7.310  2.5246 -0.5940  0.9781
 7304SOL    HW233549   3.209   1.147   7.431 -0.4990  0.4254  1.4079
 7305SOL     OW33550   0.663   1.462  15.442  0.2618 -0.2995 -0.5288
 7305SOL    HW133551   0.729   1.485  15.376  0.3052 -2.3216 -1.1918
 7305SOL    HW233552   0.706   1.391  15.490  1.4399 -0.1670 -1.3782
 7306SOL     OW33553   4.164   1.935   2.405 -0.1451  0.7109 -0.0124
 7306SOL    HW133554   4.192   1.963   2.318 -0.5503 -0.3723 -0.4935
 7306SOL    HW233555   4.129   1.851   2.376  0.7503  1.1397 -2.3494
 7307SOL     OW33556   4.456   3.222   3.741  0.4482  0.2746 -0.5168
 7307SOL    HW133557   4.367   3.256   3.743 -0.4628 -2.0342 -1.9159
 7307SOL    HW233558   4.440   3.147   3.684 -2.1855  0.4031  0.0773
 7308SOL     OW33559   3.945   1.010   3.610  0.1194 -0.6324  0.7628
 7308SOL    HW133560   4.020   1.016   3.551 -0.2104 -1.1240  0.2986
 7308SOL    HW233561   3.906   1.097   3.596  1.6774 -0.2386 -1.2686
 7309SOL     OW33562   0.495   2.978   1.924 -0.6007  0.2035 -0.0681
 7309SOL    HW133563   0.509   3.020   1.838  1.5081  1.2853  0.7908
 7309SOL    HW233564   0.576   2.927   1.920 -0.3658  0.5348  0.5312
 7310SOL     OW33565   1.512   3.592  15.237 -0.4360 -0.1741 -0.0737
 7310SOL    HW133566   1.447   3.598  15.306 -0.5847 -2.0828 -0.0387
 7310SOL    HW233567   1.534   3.684  15.248  0.5708 -0.5912  1.3308
 7311SOL     OW33568   4.340   4.226   6.676  0.0276 -0.0704 -0.1569
 7311SOL    HW133569   4.252   4.254   6.699 -0.1576 -1.7989  1.1911
 7311SOL    HW233570   4.328   4.150   6.619 -3.2669 -0.0319  0.4779
 7312SOL     OW33571   2.818   0.090   8.750  0.6078  0.2222  0.1118
 7312SOL    HW133572   2.792   0.013   8.699  2.0624  1.3043 -2.2315
 7312SOL    HW233573   2.799   0.154   8.682 -0.6915  1.2444  1.4253
 7313SOL     OW33574   4.271   2.439  14.876  0.4694 -0.1365  0.8220
 7313SOL    HW133575   4.204   2.413  14.939  0.3052 -0.1615  0.6340
 7313SOL    HW233576   4.287   2.526  14.912 -1.1076  0.7882 -0.7183
 7314SOL     OW33577   3.844   3.437   3.467 -0.6921 -0.0285  0.6251
 7314SOL    HW133578   3.922   3.475   3.425  0.1993 -1.7455  0.6965
 7314SOL    HW233579   3.808   3.512   3.514 -1.2275 -0.2904  0.6305
 7315SOL     OW33580   2.741   3.058   7.312  0.1654  0.1411  0.3550
 7315SOL    HW133581   2.746   3.096   7.224  5.1142  0.2886  0.7150
 7315SOL    HW233582   2.646   3.059   7.324  0.1259  1.0252 -0.0584
 7316SOL     OW33583   0.229   3.841  13.038  0.6136 -0.7825  0.1820
 7316SOL    HW133584   0.162   3.842  13.107 -1.0945 -0.4984 -1.4829
 7316SOL    HW233585   0.297   3.787  13.079  1.3849 -0.1737 -0.2987
 7317SOL     OW33586   3.847   2.354   3.893  0.6171  0.2007  0.5673
 7317SOL    HW133587   3.913   2.287   3.912  0.8165 -0.2125 -1.5956
 7317SOL    HW233588   3.781   2.315   3.836  1.4669  0.9847 -0.9604
 7318SOL     OW33589   1.474   1.873   1.770 -0.1862 -0.1394  0.0421
 7318SOL    HW133590   1.492   1.869   1.864  0.5409  0.7567 -0.0546
 7318SOL    HW233591   1.516   1.955   1.744  1.5953  0.0026  3.3768
 7319SOL     OW33592   0.392   0.002   7.678 -0.1762  0.1576 -0.7165
 7319SOL    HW133593   0.316   4.697   7.638 -1.2238  0.6414  0.7756
 7319SOL    HW233594   0.458   4.673   7.659  1.8936  2.2333 -0.9016
 7320SOL     OW33595   3.081   3.317   5.209 -0.3008 -0.3443  0.1455
 7320SOL    HW133596   3.068   3.313   5.114  0.6190  2.2502 -0.0993
 7320SOL    HW233597   2.992   3.295   5.235  0.7076 -2.1264  2.0050
 7321SOL     OW33598   1.630   2.422   6.554  0.7805 -0.4162  0.1289
 7321SOL    HW133599   1.682   2.499   6.529 -0.1057  0.5081  1.1192
 7321SOL    HW233600   1.544   2.451   6.523  1.1540 -0.9123 -1.3927
 7322SOL     OW33601   2.456   2.966   8.955 -0.6239 -0.1932  0.4488
 7322SOL    HW133602   2.540   2.987   8.915 -0.7701  2.2693  1.4292
 7322SOL    HW233603   2.448   2.872   8.938 -2.7020 -0.0395  0.5797
 7323SOL     OW33604   4.507   3.836   4.026  0.1862  0.2349  0.4753
 7323SOL    HW133605   4.542   3.920   3.995 -0.7579  0.7946  0.9109
 7323SOL    HW233606   4.416   3.842   3.997 -0.1865  0.4045  1.6728
 7324SOL     OW33607   0.693   4.476   0.906  0.0070 -0.9968 -0.3877
 7324SOL    HW133608   0.733   4.531   0.838  1.0042 -1.1457  0.0730
 7324SOL    HW233609   0.761   4.467   0.973  0.0535 -3.8419 -0.8083
 7325SOL     OW33610   1.889   1.353  17.466 -0.0458 -0.8519 -0.2043
 7325SOL    HW133611   1.936   1.391  17.540 -1.9693 -0.0242  0.5772
 7325SOL    HW233612   1.802   1.337  17.502 -0.0868 -3.1986 -1.3351
 7326SOL     OW33613   1.980   4.684  16.899 -0.2838  0.1170  0.0945
 7326SOL    HW133614   2.067   4.715  16.876 -0.0006 -1.4017 -0.9087
 7326SOL    HW233615   1.980   4.616  16.831  0.3605 -2.6817  2.8946
 7327SOL     OW33616   4.265   1.216   1.082 -0.3802 -0.0638 -0.4925
 7327SOL    HW133617   4.338   1.194   1.023  2.3659 -0.5964  3.1483
 7327SOL    HW233618   4.285   1.155   1.152 -2.4924 -1.1489 -0.8546
 7328SOL     OW33619   2.572   3.217  14.739 -0.0596 -0.3517  0.1652
 7328SOL    HW133620   2.570   3.313  14.747 -1.7119 -0.2894 -1.0028
 7328SOL    HW233621   2.488   3.193  14.777  0.5019 -1.4970  0.6672
 7329SOL     OW33622   1.812   1.540  15.077 -0.7222  0.0325 -0.0505
 7329SOL    HW133623   1.808   1.553  15.172 -4.2288  0.2522 -0.2026
 7329SOL    HW233624   1.782   1.450  15.067 -0.8506  0.1464 -0.6828
 7330SOL     OW33625   0.429   3.949   7.389 -0.0856  0.4396  0.5143
 7330SOL    HW133626   0.394   3.860   7.392  1.5004 -0.1345  1.6852
 7330SOL    HW233627   0.441   3.959   7.295  0.4472  0.5369  0.5931
 7331SOL     OW33628   0.601   1.972   5.898 -0.0550 -0.3497  0.0392
 7331SOL    HW133629   0.614   1.886   5.938  1.0565 -1.4535 -2.7098
 7331SOL    HW233630   0.544   1.946   5.825  1.8705  0.0279 -1.5900
 7332SOL     OW33631   2.532   3.242   7.251  0.2893  0.5303  1.0731
 7332SOL    HW133632   2.441   3.212   7.258  0.3716 -0.3296 -1.5728
 7332SOL    HW233633   2.528   3.242   7.155  0.0161 -1.3410  1.0959
 7333SOL     OW33634   1.802   0.083  10.970  0.4897  0.3867  0.2497
 7333SOL    HW133635   1.750   0.118  10.898 -0.3577  1.8315  1.5611
 7333SOL    HW233636   1.731   0.089  11.033 -0.4039 -3.3971 -0.3786
 7334SOL     OW33637   2.352   4.638   8.609 -0.0072  0.3153  0.5627
 7334SOL    HW133638   2.376   4.563   8.555  0.0168  1.7834 -1.4414
 7334SOL    HW233639   2.380   4.609   8.696  1.3274  0.0977  0.0665
 7335SOL     OW33640   4.627   1.624   8.927  0.2495 -0.1804 -0.0982
 7335SOL    HW133641   4.538   1.644   8.955 -0.0902 -1.5129 -0.2072
 7335SOL    HW233642   4.605   1.562   8.857  2.3192 -0.5073 -0.4715
 7336SOL     OW33643   4.431   0.225   7.563 -0.1524  0.3694 -0.9169
 7336SOL    HW133644   4.374   0.169   7.615  0.5131 -0.8815 -1.5546
 7336SOL    HW233645   4.365   0.294   7.557 -0.6357 -0.1202 -1.1974
 7337SOL     OW33646   0.263   0.220   5.878  0.0734  0.0738  0.1498
 7337SOL    HW133647   0.254   0.167   5.798 -2.6171 -0.9249  1.0793
 7337SOL    HW233648   0.178   0.213   5.922 -0.3599  0.4638 -0.6062
 7338SOL     OW33649   4.185   3.413  10.759  0.3014 -0.2009  0.1345
 7338SOL    HW133650   4.254   3.479  10.759  0.8600 -0.7945  1.0364
 7338SOL    HW233651   4.188   3.362  10.678 -0.6169  1.0926 -0.7265
 7339SOL     OW33652   1.058   3.412   3.503  0.5395  0.1326 -0.1104
 7339SOL    HW133653   0.981   3.355   3.500 -0.5844  1.4962  2.6333
 7339SOL    HW233654   1.014   3.482   3.552  0.3946  0.0752 -0.1574
 7340SOL     OW33655   0.896   0.260   4.139  0.0114 -0.1294  0.1262
 7340SOL    HW133656   0.906   0.189   4.203 -0.5517 -0.5614 -0.2660
 7340SOL    HW233657   0.925   0.211   4.063  0.1030  0.3025 -0.1167
 7341SOL     OW33658   0.146   3.543   1.618  0.1102  0.5723  0.1206
 7341SOL    HW133659   0.085   3.528   1.546  0.3287 -0.5924  0.1797
 7341SOL    HW233660   0.112   3.483   1.684  2.2467 -2.4093 -1.4491
 7342SOL     OW33661   2.287   0.862   7.616 -0.1107  0.0936  0.0190
 7342SOL    HW133662   2.210   0.916   7.600  1.7887  2.5285 -0.9585
 7342SOL    HW233663   2.315   0.891   7.703 -3.7300  0.7897  0.9546
 7343SOL     OW33664   1.163   3.630   3.890  0.1498  0.4592 -0.1561
 7343SOL    HW133665   1.214   3.679   3.954  0.1738 -1.6933  1.4619
 7343SOL    HW233666   1.075   3.657   3.916 -0.0002  0.4288 -0.6296
 7344SOL     OW33667   2.712   3.184  15.765 -0.0970  0.1029  0.3640
 7344SOL    HW133668   2.805   3.204  15.749 -0.5859  2.9720  1.1418
 7344SOL    HW233669   2.713   3.088  15.759  0.6248  0.0685  0.9654
 7345SOL     OW33670   0.625   3.794   2.020 -0.1192  0.4247 -0.4428
 7345SOL    HW133671   0.650   3.804   2.112 -2.3272 -0.7795  0.2794
 7345SOL    HW233672   0.642   3.884   1.994 -0.3305  0.1388 -1.5553
 7346SOL     OW33673   0.744   1.458   2.410  0.1844  0.4867 -0.0828
 7346SOL    HW133674   0.835   1.438   2.429 -0.2650 -1.1033  0.3812
 7346SOL    HW233675   0.730   1.396   2.339  3.5516  0.7613 -0.9529
 7347SOL     OW33676   3.841   3.018   7.578 -0.4233 -0.0389 -0.6854
 7347SOL    HW133677   3.901   3.065   7.635 -0.2749 -1.5866  0.4491
 7347SOL    HW233678   3.817   2.948   7.639  1.0958  0.3075  0.3119
 7348SOL     OW33679   1.547   2.752   6.661 -0.2715 -0.1354  0.7055
 7348SOL    HW133680   1.626   2.793   6.695  0.3132 -0.6405 -0.0257
 7348SOL    HW233681   1.542   2.670   6.711 -1.8997 -0.5472 -0.1263
 7349SOL     OW33682   1.133   2.993   1.828 -0.1132  0.2772 -0.2748
 7349SOL    HW133683   1.191   3.051   1.877 -2.5759  0.6381  2.1731
 7349SOL    HW233684   1.145   3.024   1.738  0.7158  3.1714  0.8136
 7350SOL     OW33685   2.784   4.247   4.630  0.1600  0.0033 -0.2136
 7350SOL    HW133686   2.724   4.312   4.593 -0.6938 -0.0777  1.0309
 7350SOL    HW233687   2.751   4.236   4.719 -2.7381 -1.8067 -1.4989
 7351SOL     OW33688   2.423   0.215  11.035 -0.6788  0.0053  0.3457
 7351SOL    HW133689   2.388   0.282  11.093  1.7536 -0.7812  2.7183
 7351SOL    HW233690   2.371   0.228  10.956  0.1342 -1.7836 -0.4884
 7352SOL     OW33691   2.009   3.265   2.301  0.5104 -0.2595  0.1711
 7352SOL    HW133692   1.965   3.264   2.216 -0.0248  0.6476  0.4437
 7352SOL    HW233693   1.997   3.178   2.339  1.8268 -0.9391 -0.9558
 7353SOL     OW33694   4.374   3.888   3.182  0.6410 -0.1306  0.3717
 7353SOL    HW133695   4.450   3.845   3.221  1.8601  1.0021 -0.7841
 7353SOL    HW233696   4.414   3.924   3.103 -0.3567 -0.7095 -0.3936
 7354SOL     OW33697   2.133   2.226   0.212  0.2982 -0.1308  0.1678
 7354SOL    HW133698   2.142   2.134   0.238 -0.7299 -0.5857 -1.1211
 7354SOL    HW233699   2.085   2.253   0.290 -1.0286 -1.9055 -0.0288
 7355SOL     OW33700   3.411   2.969   9.726  0.2675 -0.7387 -0.3788
 7355SOL    HW133701   3.478   2.950   9.661  0.4199 -0.2370 -0.3735
 7355SOL    HW233702   3.337   2.970   9.666  1.6416  0.0635 -2.0461
 7356SOL     OW33703   0.992   1.240   1.973  0.0630 -0.8346 -0.6541
 7356SOL    HW133704   1.011   1.301   1.902  1.3746 -0.1271  0.3174
 7356SOL    HW233705   1.077   1.198   1.987  0.8409  1.7059  2.1163
 7357SOL     OW33706   2.230   2.354   7.174  0.7740 -0.5507  0.4128
 7357SOL    HW133707   2.180   2.290   7.124  0.1253 -0.2582  0.6923
 7357SOL    HW233708   2.308   2.305   7.201 -0.9352 -2.0812  2.5544
 7358SOL     OW33709   3.321   2.478  16.385  0.4785 -0.3905 -0.4310
 7358SOL    HW133710   3.297   2.558  16.338 -0.6208 -1.8290 -2.2910
 7358SOL    HW233711   3.353   2.523  16.463  1.0383 -0.0472 -0.8542
 7359SOL     OW33712   0.903   0.776   4.603  0.7344 -0.1753 -0.0375
 7359SOL    HW133713   0.817   0.735   4.591  1.2095 -0.4305 -2.5322
 7359SOL    HW233714   0.871   0.866   4.593 -1.0819 -0.7052  1.1114
 7360SOL     OW33715   2.273   2.650   5.129 -0.6865 -0.1875 -0.1040
 7360SOL    HW133716   2.290   2.713   5.200  0.0349  0.2847 -0.7053
 7360SOL    HW233717   2.357   2.605   5.126 -0.7931 -0.4924  1.1551
 7361SOL     OW33718   1.183   4.252  15.874  0.2114 -0.2535  0.2539
 7361SOL    HW133719   1.218   4.223  15.790  1.2609  0.8406  0.3136
 7361SOL    HW233720   1.187   4.347  15.866 -1.3444 -0.2559 -0.6100
 7362SOL     OW33721   2.077   3.629  15.578  0.2102 -0.5406  0.1883
 7362SOL    HW133722   2.075   3.646  15.672 -0.4668 -0.0194  0.0737
 7362SOL    HW233723   1.988   3.596  15.566  1.0448 -2.5162 -0.5232
 7363SOL     OW33724   2.139   4.362  13.762  0.6831  0.0348 -0.4066
 7363SOL    HW133725   2.200   4.393  13.829 -1.6370 -1.2907  2.3556
 7363SOL    HW233726   2.133   4.425  13.690  1.3881 -1.6878 -1.9746
 7364SOL     OW33727   1.704   3.661   8.258  0.5680  0.2516  0.4506
 7364SOL    HW133728   1.626   3.604   8.258  1.8021 -1.4284 -0.5083
 7364SOL    HW233729   1.768   3.590   8.254  1.2912  0.8688  1.1877
 7365SOL     OW33730   3.050   4.108   3.407  1.0051  0.1420  0.0271
 7365SOL    HW133731   3.009   4.187   3.441  0.5250  0.7434 -1.9514
 7365SOL    HW233732   3.112   4.153   3.350 -1.1859  0.6799 -1.9214
 7366SOL     OW33733   1.293   2.286   4.608  0.4378 -0.0849 -0.1757
 7366SOL    HW133734   1.308   2.297   4.702  0.1721  0.1373 -0.1605
 7366SOL    HW233735   1.279   2.375   4.577  0.5508  0.5104  1.4877
 7367SOL     OW33736   0.915   4.052  11.894 -0.0799 -0.2007 -0.0444
 7367SOL    HW133737   0.931   3.996  11.818  2.8172 -1.3751  1.4329
 7367SOL    HW233738   0.820   4.041  11.900  0.2306 -2.1751  1.2840
 7368SOL     OW33739   2.485   0.413  14.666 -0.2061 -0.4254 -0.2134
 7368SOL    HW133740   2.457   0.496  14.702  1.7987 -0.2214  0.8868
 7368SOL    HW233741   2.400   0.373  14.650 -0.0139 -0.3694 -1.3898
 7369SOL     OW33742   1.282   4.057   4.475 -0.8132 -0.3679 -0.1443
 7369SOL    HW133743   1.361   4.007   4.493 -0.3044  0.4363 -0.1616
 7369SOL    HW233744   1.316   4.146   4.483  2.8922 -1.7404 -0.8455
 7370SOL     OW33745   2.049   1.402  11.174  0.2049 -0.0708 -0.3930
 7370SOL    HW133746   2.055   1.306  11.176 -0.3698 -0.1114 -0.6921
 7370SOL    HW233747   2.133   1.420  11.216  0.6457 -0.1257 -1.2492
 7371SOL     OW33748   2.537   3.624   5.073 -0.3053  0.3350 -0.6932
 7371SOL    HW133749   2.474   3.552   5.062  0.3416 -0.3356 -0.0476
 7371SOL    HW233750   2.558   3.651   4.984  1.1319  1.4411 -0.0087
 7372SOL     OW33751   0.752   3.452  17.332  0.1514 -0.1775 -0.0084
 7372SOL    HW133752   0.692   3.409  17.271 -2.3499  2.2838  0.6979
 7372SOL    HW233753   0.801   3.377  17.363  1.1225  1.0878  1.4849
 7373SOL     OW33754   2.947   2.498   3.430 -0.1847 -0.4583 -0.4141
 7373SOL    HW133755   2.945   2.450   3.512 -0.3597  0.3653  0.0621
 7373SOL    HW233756   2.891   2.571   3.458 -0.2497 -1.0138  0.8849
 7374SOL     OW33757   4.002   1.395   7.536 -0.2270  0.8554  0.0830
 7374SOL    HW133758   4.073   1.345   7.577  1.0340  1.2430 -1.6092
 7374SOL    HW233759   3.953   1.326   7.492  1.6460 -0.6912  0.3965
 7375SOL     OW33760   0.851   4.226  16.771 -0.2056 -0.5293  0.0806
 7375SOL    HW133761   0.852   4.131  16.770 -1.0334 -0.5379  1.1329
 7375SOL    HW233762   0.931   4.242  16.821 -0.8349  0.0495  0.8857
 7376SOL     OW33763   0.473   0.119  10.520  0.0749 -0.4428 -0.0352
 7376SOL    HW133764   0.527   0.186  10.560 -2.7135  1.5269  0.4502
 7376SOL    HW233765   0.493   0.043  10.574  1.9774  0.3704  0.3824
 7377SOL     OW33766   4.676   3.047   4.762  0.1546 -0.5462  0.2382
 7377SOL    HW133767   4.646   3.102   4.834  0.1178 -1.0021  0.5770
 7377SOL    HW233768   4.596   3.020   4.718  1.0445 -1.3432 -0.8869
 7378SOL     OW33769   4.178   4.534   8.453  0.1751 -0.2376 -0.5179
 7378SOL    HW133770   4.214   4.485   8.527  2.3178  1.0993 -0.6729
 7378SOL    HW233771   4.260   4.580   8.433 -0.5476  1.3633  0.2496
 7379SOL     OW33772   0.996   3.322   1.759 -0.3890  0.0251  0.5999
 7379SOL    HW133773   0.934   3.284   1.698  0.2618 -1.0857  0.6316
 7379SOL    HW233774   1.080   3.328   1.715 -1.0511 -0.8257 -0.7587
 7380SOL     OW33775   0.534   4.389   2.425  0.2844  0.1706  0.4978
 7380SOL    HW133776   0.532   4.304   2.380 -1.3764  1.2725 -1.4758
 7380SOL    HW233777   0.475   4.355   2.492 -1.2532  3.1457  0.6143
 7381SOL     OW33778   2.032   0.841   5.014  0.2073 -0.2129  0.5286
 7381SOL    HW133779   2.035   0.920   4.961  0.3666  1.3420  2.8388
 7381SOL    HW233780   1.947   0.813   4.981  0.7569 -1.3449  0.0923
 7382SOL     OW33781   1.846   1.545   4.787  0.1106  0.4752  0.1305
 7382SOL    HW133782   1.759   1.526   4.821  0.4967 -0.6428  0.5125
 7382SOL    HW233783   1.830   1.494   4.707  0.6877  1.1867 -0.4435
 7383SOL     OW33784   4.042   0.913   7.986 -0.1434 -0.1097 -0.1157
 7383SOL    HW133785   4.064   0.920   8.080 -0.0161  3.2140 -0.3900
 7383SOL    HW233786   4.091   0.990   7.957 -1.0819  0.2335 -0.7696
 7384SOL     OW33787   2.755   4.545   2.114  0.1082  0.0528 -0.4715
 7384SOL    HW133788   2.840   4.517   2.148  0.7732 -0.4891 -2.5888
 7384SOL    HW233789   2.760   4.640   2.117  0.8294  0.0225 -0.6681
 7385SOL     OW33790   4.473   0.439   4.043 -0.0064  0.0653 -0.0878
 7385SOL    HW133791   4.446   0.455   4.134  0.1096 -0.3585  0.0199
 7385SOL    HW233792   4.556   0.486   4.040  1.1211 -1.9558 -0.4459
 7386SOL     OW33793   2.779   0.536  13.722 -0.0393 -0.2263  0.3125
 7386SOL    HW133794   2.819   0.468  13.776 -0.0372  1.1425  2.0587
 7386SOL    HW233795   2.832   0.613  13.744 -2.1551  1.1684  0.4954
 7387SOL     OW33796   1.676   1.137   6.345  0.0302  0.1154  0.3213
 7387SOL    HW133797   1.653   1.052   6.308  0.8628 -0.9088  2.1641
 7387SOL    HW233798   1.770   1.151   6.331 -0.0717  0.5138  0.0062
 7388SOL     OW33799   2.547   3.325   6.972  0.2113  0.2706  0.8963
 7388SOL    HW133800   2.581   3.349   6.885  0.3534 -1.1124  0.5799
 7388SOL    HW233801   2.455   3.318   6.947 -0.0627 -0.3887  2.1156
 7389SOL     OW33802   3.788   2.616   4.022 -0.2898 -0.0688 -0.0670
 7389SOL    HW133803   3.802   2.531   3.981  0.6701 -0.0345  0.1999
 7389SOL    HW233804   3.706   2.607   4.071  0.8533  2.2799  2.3153
 7390SOL     OW33805   4.117   1.735  15.474  0.2145  0.0088  0.1169
 7390SOL    HW133806   4.150   1.686  15.549 -0.3094  2.3105  1.8565
 7390SOL    HW233807   4.163   1.697  15.400  0.3641 -0.2673  0.3547
 7391SOL     OW33808   0.451   0.149   7.948 -0.2682  0.0634  0.5106
 7391SOL    HW133809   0.373   0.140   8.003 -0.3660  0.5874  0.4666
 7391SOL    HW233810   0.430   0.091   7.875  0.7589 -1.4700  1.4480
 7392SOL     OW33811   0.643   3.599  10.888 -0.1192  0.2293 -0.0901
 7392SOL    HW133812   0.663   3.613  10.795  0.3198 -1.0555 -0.1892
 7392SOL    HW233813   0.715   3.539  10.907  0.4651  1.1178  0.4730
 7393SOL     OW33814   1.001   2.827   6.411  0.0517  0.5735 -0.4235
 7393SOL    HW133815   1.008   2.893   6.480  1.0711  2.8696 -2.7156
 7393SOL    HW233816   0.934   2.865   6.354 -0.5298  2.0812  1.2589
 7394SOL     OW33817   1.810   4.270   9.029  0.2438  0.2012 -0.1079
 7394SOL    HW133818   1.730   4.269   8.977  0.5073  1.1335 -0.5385
 7394SOL    HW233819   1.877   4.259   8.961 -0.0735  0.4817 -0.4616
 7395SOL     OW33820   3.588   1.078  12.683 -0.5208 -0.1911 -0.0926
 7395SOL    HW133821   3.641   1.123  12.617  0.5121 -1.1691  0.0808
 7395SOL    HW233822   3.630   1.125  12.754 -0.1376 -1.6765  0.6524
 7396SOL     OW33823   4.414   4.089   6.041  0.6676 -0.1073 -0.3736
 7396SOL    HW133824   4.362   4.105   5.962  0.9104 -1.8294 -0.8770
 7396SOL    HW233825   4.347   4.042   6.091 -0.3965  1.3699 -0.3970
 7397SOL     OW33826   3.974   2.609   6.046 -0.4679  0.4491  0.5836
 7397SOL    HW133827   4.001   2.595   5.955  1.3158  1.9806  0.8651
 7397SOL    HW233828   4.047   2.563   6.089  0.4445  0.9426 -0.4289
 7398SOL     OW33829   1.595   4.089   5.896  0.0799 -0.0170  0.1505
 7398SOL    HW133830   1.545   4.154   5.945 -0.2821 -0.6056  0.5622
 7398SOL    HW233831   1.613   4.025   5.965 -0.2933 -0.9467 -0.6147
 7399SOL     OW33832   0.597   1.480   4.018 -0.0934 -0.0578  0.0362
 7399SOL    HW133833   0.516   1.485   4.069 -1.4991 -0.5687 -2.1566
 7399SOL    HW233834   0.619   1.573   4.012  2.9044 -0.8593 -1.3305
 7400SOL     OW33835   4.528   3.788  13.367 -0.3021 -0.3651  0.0028
 7400SOL    HW133836   4.527   3.724  13.438 -1.7516  1.2287  1.4371
 7400SOL    HW233837   4.444   3.830  13.383 -0.5389 -0.5108 -0.8703
 7401SOL     OW33838   4.709   0.752   9.008 -0.5321  0.2061  0.3957
 7401SOL    HW133839   4.693   0.710   9.092  1.6578 -0.7328  0.3558
 7401SOL    HW233840   4.657   0.699   8.948  0.2882 -0.0817 -0.0741
 7402SOL     OW33841   1.333   3.316   2.187 -0.0212  0.0704 -0.1521
 7402SOL    HW133842   1.334   3.296   2.094  1.5037 -0.4264 -0.0170
 7402SOL    HW233843   1.393   3.246   2.213 -0.7754 -0.8106 -0.7926
 7403SOL     OW33844   1.756   3.858  15.461 -0.0422  0.2562  0.3949
 7403SOL    HW133845   1.826   3.857  15.395 -1.0032 -0.6159 -0.6204
 7403SOL    HW233846   1.797   3.912  15.528  0.8707 -0.1521  0.1604
 7404SOL     OW33847   2.156   2.007  11.071  0.2403 -0.1560 -0.6452
 7404SOL    HW133848   2.164   2.027  11.165 -0.8510  0.9063 -0.7892
 7404SOL    HW233849   2.134   1.914  11.078 -0.3201 -0.0279 -0.7166
 7405SOL     OW33850   0.186   2.981  12.871 -0.6119  0.1877  0.0880
 7405SOL    HW133851   0.149   2.902  12.910  0.4660  0.0991  0.9348
 7405SOL    HW233852   0.152   3.046  12.933  0.7281 -1.2949  2.3870
 7406SOL     OW33853   0.636   2.410   7.093 -0.4424 -0.5021 -0.0842
 7406SOL    HW133854   0.543   2.429   7.079 -0.7588 -2.4856 -0.6279
 7406SOL    HW233855   0.644   2.318   7.068 -0.8125 -0.4703 -0.3149
 7407SOL     OW33856   2.133   0.220   6.216  0.0680  0.0851  0.2926
 7407SOL    HW133857   2.189   0.275   6.162  2.0053 -2.6553 -0.4896
 7407SOL    HW233858   2.198   0.175   6.270 -0.2668  0.4561  1.0169
 7408SOL     OW33859   4.578   1.407  14.532  0.1626 -0.0950 -0.3780
 7408SOL    HW133860   4.571   1.428  14.625  2.9277 -0.7560 -0.0211
 7408SOL    HW233861   4.552   1.314  14.528 -1.8818  0.4420  0.3098
 7409SOL     OW33862   1.562   3.600   3.001  0.2688  0.0421  0.2147
 7409SOL    HW133863   1.567   3.506   2.983 -1.3061  0.0747 -0.3779
 7409SOL    HW233864   1.585   3.597   3.094 -2.5618  0.0520  0.9100
 7410SOL     OW33865   1.442   3.001   4.486 -0.1891 -0.5767  0.0058
 7410SOL    HW133866   1.419   2.949   4.564 -1.4867 -2.4271 -1.6187
 7410SOL    HW233867   1.395   2.954   4.418 -1.1832 -0.0399  0.3202
 7411SOL     OW33868   4.713   0.688   1.644  0.2720 -0.6926  0.8089
 7411SOL    HW133869   4.676   0.739   1.572  2.0487  0.0747  0.4264
 7411SOL    HW233870   0.064   0.699   1.611 -0.0567  0.2558  0.2311
 7412SOL     OW33871   2.608   1.503  17.612 -0.6932 -0.2221  0.1712
 7412SOL    HW133872   2.661   1.557  17.554 -2.4395 -0.9009 -2.0125
 7412SOL    HW233873   2.610   1.564  17.687 -1.2335 -0.4800  0.4001
 7413SOL     OW33874   4.157   1.687   5.262  0.2552  0.2204 -0.7726
 7413SOL    HW133875   4.100   1.632   5.208  0.7704 -0.7206 -0.3772
 7413SOL    HW233876   4.244   1.645   5.264  0.0561 -0.2037 -0.9978
 7414SOL     OW33877   2.784   3.343   5.733  0.4139  0.1545  0.2204
 7414SOL    HW133878   2.742   3.423   5.703 -1.1859 -1.1246 -0.9610
 7414SOL    HW233879   2.868   3.379   5.762  0.0493  1.6283 -0.5943
 7415SOL     OW33880   2.676   4.130  16.836 -0.1262  1.3395  0.2020
 7415SOL    HW133881   2.752   4.189  16.832  2.5107 -1.8132  3.4151
 7415SOL    HW233882   2.637   4.137  16.923 -0.8144  0.4777 -0.0408
 7416SOL     OW33883   1.349   1.452   4.255  0.4264 -0.1726 -0.1020
 7416SOL    HW133884   1.261   1.470   4.222 -0.1215  0.1485  1.5667
 7416SOL    HW233885   1.384   1.541   4.264 -0.0310  0.0028 -0.0530
 7417SOL     OW33886   0.352   0.183   2.396  0.5307 -0.6524 -0.0092
 7417SOL    HW133887   0.423   0.170   2.333 -0.1296  0.6046 -1.0177
 7417SOL    HW233888   0.378   0.117   2.460 -1.6503 -1.5594 -0.0616
 7418SOL     OW33889   1.430   1.845   5.956  0.2773 -0.2333  0.0671
 7418SOL    HW133890   1.515   1.810   5.983 -0.3149  0.3017  2.6434
 7418SOL    HW233891   1.437   1.859   5.862  0.5924 -3.7578 -0.4246
 7419SOL     OW33892   4.708   2.970  10.348 -0.0702 -0.3996 -0.0774
 7419SOL    HW133893   4.715   2.892  10.403 -0.5667 -0.6023 -0.3060
 7419SOL    HW233894   4.727   3.040  10.411 -0.6444  0.2487 -0.6284
 7420SOL     OW33895   1.627   0.209   8.854  0.2206 -0.2789  0.3090
 7420SOL    HW133896   1.665   0.290   8.821  0.1457 -0.0877  0.6964
 7420SOL    HW233897   1.698   0.144   8.850 -0.1832 -0.7277  0.3835
 7421SOL     OW33898   2.302   2.351  14.243  0.2298 -0.1419 -0.0111
 7421SOL    HW133899   2.363   2.288  14.205  0.6017  0.6845 -0.7750
 7421SOL    HW233900   2.256   2.296  14.307  1.3760 -0.8450  0.2049
 7422SOL     OW33901   4.387   0.493   3.432 -0.1268  0.2220 -0.0409
 7422SOL    HW133902   4.447   0.437   3.480  1.5022  0.4304 -1.8541
 7422SOL    HW233903   4.382   0.449   3.347 -0.4892 -0.7063  0.4738
 7423SOL     OW33904   1.294   0.009   1.787 -0.0345  0.1379  0.0230
 7423SOL    HW133905   1.313   0.047   1.872 -2.3636  2.1252 -0.3571
 7423SOL    HW233906   1.363   0.050   1.736 -0.0542 -0.8748 -0.8428
 7424SOL     OW33907   3.033   2.881  12.412 -0.0065  0.2006 -0.1535
 7424SOL    HW133908   3.034   2.788  12.393 -3.6367  0.2096 -0.3389
 7424SOL    HW233909   2.939   2.889  12.431  0.5492 -0.5521  2.8717
 7425SOL     OW33910   0.576   2.373   3.165  0.1406 -0.5033 -0.2799
 7425SOL    HW133911   0.533   2.293   3.194  2.4060 -2.2801 -1.8824
 7425SOL    HW233912   0.501   2.431   3.157  0.2373 -0.2972  0.2601
 7426SOL     OW33913   4.036   3.071   6.707 -0.1008  0.2391 -0.4749
 7426SOL    HW133914   4.130   3.060   6.722 -0.3834 -1.8859 -0.3035
 7426SOL    HW233915   4.003   2.983   6.693  1.8243 -0.3655 -1.1240
 7427SOL     OW33916   4.038   0.239  11.376 -0.0977  0.2555 -0.8910
 7427SOL    HW133917   4.044   0.323  11.421  2.7066 -0.0143 -0.7191
 7427SOL    HW233918   4.039   0.180  11.451  1.7385 -0.1649 -1.2315
 7428SOL     OW33919   0.757   1.344   5.445  0.5978 -0.1488 -0.1232
 7428SOL    HW133920   0.737   1.435   5.468 -1.1905 -0.9025  1.3025
 7428SOL    HW233921   0.756   1.360   5.351  1.1344 -0.2432 -0.1464
 7429SOL     OW33922   4.615   2.083  11.430 -0.3356  0.3585  0.5944
 7429SOL    HW133923   4.629   2.167  11.386  1.0895  0.4977  1.3074
 7429SOL    HW233924   4.704   2.054  11.448 -0.3743  1.0909  2.0073
 7430SOL     OW33925   3.110   1.931   8.674  0.1415  0.8966 -0.1586
 7430SOL    HW133926   3.096   1.889   8.759  1.0159 -0.0089 -0.4650
 7430SOL    HW233927   3.043   1.881   8.628  3.2360 -0.7130 -2.9371
 7431SOL     OW33928   2.791   2.318   9.078  0.0769 -0.9115 -0.1621
 7431SOL    HW133929   2.865   2.360   9.035 -0.1252 -0.9531 -0.5520
 7431SOL    HW233930   2.770   2.396   9.130 -2.1952  0.0091 -2.4714
 7432SOL     OW33931   4.353   3.237   7.865  0.3361 -0.2707 -0.1771
 7432SOL    HW133932   4.299   3.160   7.885  1.5255 -1.2129 -0.5707
 7432SOL    HW233933   4.442   3.201   7.862  0.2343 -0.2451 -2.8519
 7433SOL     OW33934   1.747   3.525   6.221  0.0620  0.2979 -0.3267
 7433SOL    HW133935   1.740   3.450   6.280  1.4146 -0.5542 -1.2685
 7433SOL    HW233936   1.787   3.478   6.148  0.5062  0.2603 -0.0552
 7434SOL     OW33937   0.719   4.504   2.804  0.6511  0.0618 -0.3484
 7434SOL    HW133938   0.810   4.534   2.803  0.9138 -0.7771 -0.8752
 7434SOL    HW233939   0.674   4.558   2.870 -0.0310 -0.8258 -0.0822
 7435SOL     OW33940   3.788   3.686   3.812  0.1045 -0.0304 -0.2350
 7435SOL    HW133941   3.868   3.640   3.836  0.4584  0.4295 -0.5182
 7435SOL    HW233942   3.766   3.733   3.892  2.3212  0.1496  0.2454
 7436SOL     OW33943   4.533   1.789  11.445 -0.0749 -0.1364 -0.4273
 7436SOL    HW133944   4.470   1.731  11.402 -0.4360  0.9972 -1.4216
 7436SOL    HW233945   4.513   1.866  11.392  0.2083 -0.6240 -1.2557
 7437SOL     OW33946   2.541   2.254   8.912  0.4324 -0.4067 -0.3419
 7437SOL    HW133947   2.592   2.173   8.913 -0.4960 -1.0079 -0.7691
 7437SOL    HW233948   2.587   2.303   8.979 -0.4522  1.1764 -0.8978
 7438SOL     OW33949   2.754   4.478   2.529 -0.2040  0.0549  0.0512
 7438SOL    HW133950   2.719   4.456   2.616  1.4688  0.3965  0.8157
 7438SOL    HW233951   2.778   4.570   2.528 -1.1702  0.3075  0.7332
 7439SOL     OW33952   3.645   1.346  16.727  0.3853  0.3063  0.3406
 7439SOL    HW133953   3.656   1.316  16.818  4.8797 -1.4742 -0.7721
 7439SOL    HW233954   3.688   1.432  16.726  1.7882 -0.4136 -0.9213
 7440SOL     OW33955   0.290   3.369   5.008  0.3677 -0.3581 -0.0512
 7440SOL    HW133956   0.331   3.373   5.094  0.4058 -0.1101 -0.0825
 7440SOL    HW233957   0.346   3.427   4.957  1.0734 -0.9046  0.0954
 7441SOL     OW33958   4.539   0.576   8.170  1.1613 -0.4003 -0.2666
 7441SOL    HW133959   4.506   0.567   8.260 -2.3318  1.1207 -1.3795
 7441SOL    HW233960   4.477   0.641   8.136 -0.7243 -0.2639  3.4187
 7442SOL     OW33961   3.872   2.132   6.451  0.7276 -0.0225 -0.0774
 7442SOL    HW133962   3.874   2.227   6.441 -2.4973  0.0398 -0.0799
 7442SOL    HW233963   3.930   2.115   6.377  0.4380 -2.3806  0.2469
 7443SOL     OW33964   2.200   0.511  10.914  0.6219  0.1341 -0.7681
 7443SOL    HW133965   2.222   0.440  10.854  0.1597 -3.0503  2.8638
 7443SOL    HW233966   2.231   0.464  10.991 -1.5709 -1.1941 -0.7024
 7444SOL     OW33967   1.283   4.353   3.936 -0.1814  0.5436 -0.0339
 7444SOL    HW133968   1.286   4.433   3.884  0.4410  1.1646  0.9779
 7444SOL    HW233969   1.323   4.295   3.870  0.8799  0.7835  0.4097
 7445SOL     OW33970   4.167   2.229   2.962 -0.1614 -0.2204 -0.4266
 7445SOL    HW133971   4.083   2.268   2.940 -0.7822 -1.0162  0.5788
 7445SOL    HW233972   4.139   2.137   2.955  1.5843 -0.7360 -0.7134
 7446SOL     OW33973   1.748   3.793   7.352  0.1331 -0.0297 -0.1222
 7446SOL    HW133974   1.790   3.722   7.303 -0.6676 -0.9034  0.4689
 7446SOL    HW233975   1.721   3.852   7.281  2.5192 -0.3793 -1.3264
 7447SOL     OW33976   3.269   3.429   0.637 -0.1280 -0.4872  0.1096
 7447SOL    HW133977   3.202   3.408   0.703 -1.0720 -0.4762 -0.8341
 7447SOL    HW233978   3.347   3.464   0.680  0.4111 -2.8789  1.1273
 7448SOL     OW33979   1.031   1.588   5.515  0.0149  0.1269 -0.4706
 7448SOL    HW133980   0.994   1.677   5.523 -1.6613 -0.3976 -2.2299
 7448SOL    HW233981   1.109   1.588   5.461 -0.1669  2.0818 -0.7449
 7449SOL     OW33982   4.552   4.243   9.094 -0.3062  0.2213  0.1624
 7449SOL    HW133983   4.545   4.177   9.026 -0.4159  0.0121  0.3768
 7449SOL    HW233984   4.581   4.314   9.037 -0.1064  0.4529  0.5511
 7450SOL     OW33985   4.691   1.216   7.052 -0.1977  0.1454  0.1637
 7450SOL    HW133986   4.691   1.301   7.097  0.4250  0.7070 -0.8847
 7450SOL    HW233987   0.046   1.207   7.032 -0.1443  0.8792  0.0846
 7451SOL     OW33988   3.968   0.680   7.498 -0.5008  0.2881  0.5341
 7451SOL    HW133989   4.057   0.667   7.463 -0.1869 -0.5521  1.6582
 7451SOL    HW233990   3.987   0.662   7.590  2.8059 -0.6407 -0.3014
 7452SOL     OW33991   4.700   2.740   0.249 -0.2739 -0.4564 -0.1402
 7452SOL    HW133992   4.721   2.814   0.307  0.4116 -1.0989  0.4236
 7452SOL    HW233993   4.620   2.771   0.205  0.7844 -1.4175 -2.7079
 7453SOL     OW33994   0.644   0.794  14.800 -0.1807 -0.2786  0.7422
 7453SOL    HW133995   0.632   0.864  14.735  1.5235 -0.5204  0.1737
 7453SOL    HW233996   0.583   0.726  14.773 -0.4777 -0.8236  2.7835
 7454SOL     OW33997   1.028   0.769   3.157  0.2301  0.4470  0.0714
 7454SOL    HW133998   0.945   0.810   3.183  0.8220 -0.3864  3.3356
 7454SOL    HW233999   1.009   0.677   3.139  1.2945  0.8771 -3.1541
 7455SOL     OW34000   2.356   0.546   8.308 -0.6759 -0.3927 -0.6439
 7455SOL    HW134001   2.391   0.502   8.230  0.4462  0.0783 -0.4166
 7455SOL    HW234002   2.267   0.514   8.298 -0.8151 -0.6966  1.7558
 7456SOL     OW34003   2.944   3.643   4.901  0.2585  0.5256  0.4595
 7456SOL    HW134004   2.901   3.575   4.953  0.4793  2.1959  2.8184
 7456SOL    HW234005   3.033   3.660   4.932  0.4954  0.8511 -0.3911
 7457SOL     OW34006   0.922   3.974  16.725 -0.0440 -0.3769  0.0557
 7457SOL    HW134007   0.852   3.923  16.685 -0.5476  0.3489  0.0364
 7457SOL    HW234008   0.955   3.915  16.793  0.5869 -1.4681 -1.1801
 7458SOL     OW34009   4.082   1.979   0.882  0.6897 -0.4963 -0.2793
 7458SOL    HW134010   4.140   1.903   0.875  1.1206 -0.4068  2.1289
 7458SOL    HW234011   3.995   1.945   0.862  0.2111  0.8077 -0.3694
 7459SOL     OW34012   1.111   3.886  12.801 -0.2388  0.0666 -0.1698
 7459SOL    HW134013   1.199   3.888  12.762  0.0549 -0.7020  0.4618
 7459SOL    HW234014   1.109   3.790  12.795 -0.4435  0.0578  0.0542
 7460SOL     OW34015   4.520   0.109   4.001  0.2069  0.1326 -0.0864
 7460SOL    HW134016   4.531   0.076   3.912 -0.1199  0.9230 -0.4121
 7460SOL    HW234017   4.582   0.182   4.004 -0.5498  0.6709  3.1871
 7461SOL     OW34018   1.619   4.545  12.539 -0.2646  0.4275  0.3137
 7461SOL    HW134019   1.610   4.625  12.591  0.9091  0.6548  0.1689
 7461SOL    HW234020   1.530   4.547  12.503  0.2169  1.8568 -0.7862
 7462SOL     OW34021   0.889   4.549   5.682  0.1019  0.2642 -0.6456
 7462SOL    HW134022   0.947   4.625   5.675  0.2749  0.0852 -1.1412
 7462SOL    HW234023   0.934   4.508   5.756  0.5254  1.9948  0.0511
 7463SOL     OW34024   4.472   1.271   6.538 -0.1296  0.2478  0.4253
 7463SOL    HW134025   4.504   1.334   6.603 -0.6476  0.8039  0.1464
 7463SOL    HW234026   4.389   1.318   6.530 -0.4093 -0.2473  0.4017
 7464SOL     OW34027   4.096   3.905   9.338  0.0044 -0.2871  0.1539
 7464SOL    HW134028   4.014   3.922   9.385 -0.7913 -1.6213 -0.7518
 7464SOL    HW234029   4.077   3.824   9.291  1.6221 -0.8388  0.4637
 7465SOL     OW34030   1.338   1.600   3.136 -0.3167  0.1723 -0.2096
 7465SOL    HW134031   1.278   1.595   3.061 -0.6951 -0.9046  0.1565
 7465SOL    HW234032   1.311   1.527   3.192 -0.6822 -0.0309 -0.6415
 7466SOL     OW34033   4.393   1.982   4.504  0.0744 -0.0437  0.3389
 7466SOL    HW134034   4.405   2.077   4.513  0.2167 -0.1273  1.0552
 7466SOL    HW234035   4.485   1.959   4.501  0.0149 -0.1664 -0.5480
 7467SOL     OW34036   4.729   0.485  12.410 -0.5432  0.7626  0.3776
 7467SOL    HW134037   4.724   0.510  12.318  1.0414  1.7206  0.5452
 7467SOL    HW234038   0.038   0.561  12.444 -0.1810  1.0611 -0.7983
 7468SOL     OW34039   4.159   4.130  12.055  0.7609 -0.5692  0.9516
 7468SOL    HW134040   4.219   4.056  12.043  0.3378 -1.2164  2.7688
 7468SOL    HW234041   4.183   4.159  12.143 -0.1436  0.8171  0.7421
 7469SOL     OW34042   3.280   2.801   7.131  0.1121 -0.1063 -0.2181
 7469SOL    HW134043   3.254   2.726   7.185  0.2743  0.6845  0.9703
 7469SOL    HW234044   3.269   2.868   7.199 -0.2924  0.0711 -0.4549
 7470SOL     OW34045   1.343   0.591   3.658 -0.6814 -0.3441 -0.1769
 7470SOL    HW134046   1.250   0.609   3.665 -1.1396 -2.1355 -1.6796
 7470SOL    HW234047   1.375   0.630   3.739 -2.6271  0.7386  0.0645
 7471SOL     OW34048   1.947   4.270   6.079 -0.2388  0.6187  0.1466
 7471SOL    HW134049   1.868   4.264   6.131  0.8923 -3.2020  1.4084
 7471SOL    HW234050   2.013   4.256   6.147  0.5160  1.2741 -0.4451
 7472SOL     OW34051   1.910   0.153  15.433 -0.6775  1.0577  0.2636
 7472SOL    HW134052   1.998   0.142  15.468 -0.5641 -0.1423 -0.4039
 7472SOL    HW234053   1.889   0.063  15.408  1.3362  0.8205 -0.5288
 7473SOL     OW34054   2.924   0.879   3.213  0.3667 -0.8843  0.2428
 7473SOL    HW134055   2.968   0.794   3.220  0.9405 -0.4940  1.2699
 7473SOL    HW234056   2.991   0.925   3.161 -0.7711 -0.1156 -0.5456
 7474SOL     OW34057   1.166   0.856  14.344  0.3911  0.2703 -0.2432
 7474SOL    HW134058   1.150   0.947  14.317 -0.9512  0.3255  0.7495
 7474SOL    HW234059   1.171   0.810  14.260 -0.5204 -1.8770  0.8796
 7475SOL     OW34060   0.730   1.281   3.008  0.0719 -0.4810  0.1336
 7475SOL    HW134061   0.675   1.274   2.929 -0.3401 -0.1764  0.3975
 7475SOL    HW234062   0.696   1.209   3.061 -1.2224  0.0136 -0.0199
 7476SOL     OW34063   0.018   3.173  15.781 -0.0986 -0.2036  0.3863
 7476SOL    HW134064   0.011   3.122  15.700 -0.2118  1.6405 -0.7522
 7476SOL    HW234065   4.737   3.103  15.843 -0.7624  0.1297  0.5625
 7477SOL     OW34066   0.124   1.569   0.580  0.0004  0.6650 -0.6468
 7477SOL    HW134067   0.036   1.605   0.592 -0.4294 -0.1244 -1.4136
 7477SOL    HW234068   0.123   1.549   0.486 -0.3227  1.8415 -0.8990
 7478SOL     OW34069   0.345   3.318  15.323  0.4992  0.3752  0.4628
 7478SOL    HW134070   0.388   3.401  15.340  0.8291 -0.3730  3.2736
 7478SOL    HW234071   0.324   3.313  15.229  1.3228 -0.0403  0.3000
 7479SOL     OW34072   3.202   3.567  13.138 -0.4689  0.3395 -0.6475
 7479SOL    HW134073   3.272   3.586  13.200 -0.2323 -0.1718 -0.7615
 7479SOL    HW234074   3.141   3.524  13.198  1.0656 -1.1321 -0.1769
 7480SOL     OW34075   4.393   1.786   1.888 -0.2158  0.0502 -0.2975
 7480SOL    HW134076   4.347   1.848   1.831  2.0762  2.1906  0.2232
 7480SOL    HW234077   4.349   1.792   1.973 -1.1042 -0.5574 -0.7126
 7481SOL     OW34078   1.822   0.728   6.947 -0.3489  0.4401  0.0098
 7481SOL    HW134079   1.872   0.809   6.936  0.3036 -0.2463 -2.0940
 7481SOL    HW234080   1.889   0.668   6.979 -0.9667 -0.2105  0.0994
 7482SOL     OW34081   1.500   4.375  16.990  0.0489 -0.0860 -0.0980
 7482SOL    HW134082   1.575   4.433  16.977 -0.7158  1.3930  2.0566
 7482SOL    HW234083   1.497   4.369  17.085 -4.0754 -0.7416 -0.2936
 7483SOL     OW34084   4.684   4.023   4.737  0.6101 -0.1766  0.2990
 7483SOL    HW134085   4.627   3.948   4.720 -1.3890  0.8954  2.2925
 7483SOL    HW234086   4.614   4.088   4.745  0.0245 -0.5189 -1.8907
 7484SOL     OW34087   0.230   1.291   7.114  1.0288 -0.0675  0.0663
 7484SOL    HW134088   0.314   1.295   7.067  2.6210  1.3403  3.0063
 7484SOL    HW234089   0.269   1.240   7.185 -1.8755 -2.1500  0.1590
 7485SOL     OW34090   3.143   1.268   0.550  0.3906  0.6245  0.1284
 7485SOL    HW134091   3.107   1.179   0.558  4.2540 -1.0377 -0.8966
 7485SOL    HW234092   3.178   1.284   0.637 -0.7151 -1.0141  0.8813
 7486SOL     OW34093   4.394   3.512   0.296  0.3218  0.6433 -0.3523
 7486SOL    HW134094   4.334   3.486   0.226  1.4561  1.2818 -1.5564
 7486SOL    HW234095   4.483   3.508   0.261  0.1599 -0.3385 -0.6418
 7487SOL     OW34096   2.752   0.014   4.855 -0.4839  0.4033  0.5831
 7487SOL    HW134097   2.754   0.058   4.939  0.2277  0.2636  0.6423
 7487SOL    HW234098   2.832   0.047   4.814 -1.1325  0.4971 -0.6189
 7488SOL     OW34099   0.028   0.842   5.394 -0.3599  0.1118 -0.6634
 7488SOL    HW134100   0.067   0.776   5.337 -1.5416 -1.0391 -0.1444
 7488SOL    HW234101   0.098   0.891   5.437  0.5182 -0.7844 -1.0692
 7489SOL     OW34102   4.550   0.304   4.681  0.4038  1.2014  0.3926
 7489SOL    HW134103   4.497   0.383   4.670 -0.6813  0.9183  3.6126
 7489SOL    HW234104   4.556   0.266   4.593 -1.4718  0.1564  0.6957
 7490SOL     OW34105   0.550   1.818  11.795 -0.2885 -0.2350  0.1327
 7490SOL    HW134106   0.472   1.869  11.814  0.5129  1.2504 -0.5933
 7490SOL    HW234107   0.518   1.755  11.730  0.3769 -1.3956  0.9378
 7491SOL     OW34108   3.580   1.421  13.679  0.3235  0.0567  0.8900
 7491SOL    HW134109   3.623   1.475  13.613  1.4127  1.0615  2.4287
 7491SOL    HW234110   3.507   1.395  13.623  1.2747  1.5909 -1.1175
 7492SOL     OW34111   3.027   4.180   3.775  0.5365 -0.3857 -0.4227
 7492SOL    HW134112   3.117   4.148   3.780  0.4321 -0.9518 -2.4532
 7492SOL    HW234113   2.978   4.109   3.734  0.4548  0.2228 -1.3847
 7493SOL     OW34114   2.640   1.348   2.464 -0.2438  0.5431  0.5797
 7493SOL    HW134115   2.603   1.407   2.530 -0.7621 -0.8375  1.5228
 7493SOL    HW234116   2.718   1.395   2.434 -0.9318 -0.2000 -2.3590
 7494SOL     OW34117   3.823   3.240  10.445  0.3094 -0.5967  0.0316
 7494SOL    HW134118   3.751   3.253  10.383 -0.0197  1.0526  0.7833
 7494SOL    HW234119   3.788   3.156  10.476 -1.0764  0.1275  0.4428
 7495SOL     OW34120   2.405   3.257   4.667 -0.1693 -0.6401 -0.0711
 7495SOL    HW134121   2.483   3.229   4.715  0.0819 -0.1275 -0.1749
 7495SOL    HW234122   2.425   3.347   4.640 -0.0892 -1.4804 -2.8099
 7496SOL     OW34123   0.847   1.070   7.594  0.1086  0.3372 -0.1931
 7496SOL    HW134124   0.872   0.981   7.618  0.7183  0.5975  0.1519
 7496SOL    HW234125   0.758   1.078   7.629  0.1065  1.6738 -0.4911
 7497SOL     OW34126   0.781   3.204   9.044 -0.6647  0.2456 -0.1054
 7497SOL    HW134127   0.771   3.261   9.121  0.1153 -0.2361  0.3549
 7497SOL    HW234128   0.772   3.128   9.101 -0.8405 -0.9093 -1.6936
 7498SOL     OW34129   2.047   1.663   3.610 -0.2782 -0.1601 -0.3156
 7498SOL    HW134130   2.019   1.617   3.689 -1.5410  0.3275 -0.4753
 7498SOL    HW234131   2.056   1.755   3.634  0.9098 -0.2686 -0.3656
 7499SOL     OW34132   0.254   0.670   1.608 -0.3056  0.0665  0.2765
 7499SOL    HW134133   0.271   0.690   1.516 -1.9061  2.3828  0.5034
 7499SOL    HW234134   0.327   0.610   1.626  0.6518  0.7363 -1.3159
 7500SOL     OW34135   4.704   4.166   5.614  0.0505 -0.2210 -0.6729
 7500SOL    HW134136   4.682   4.149   5.705  2.5383 -0.8323 -0.1963
 7500SOL    HW234137   0.056   4.172   5.644 -0.5371  0.4364  0.9091
 7501SOL     OW34138   2.595   2.070   8.334  0.0969  0.2840  0.2546
 7501SOL    HW134139   2.511   2.053   8.290  1.1393  0.0311 -1.6381
 7501SOL    HW234140   2.554   2.119   8.405  1.1858 -1.8219  2.3205
 7502SOL     OW34141   3.240   2.201   6.086 -0.5486  0.1179  0.0608
 7502SOL    HW134142   3.301   2.274   6.094  0.3432 -0.7631  1.2907
 7502SOL    HW234143   3.155   2.242   6.068 -1.6148 -1.1267  2.1790
 7503SOL     OW34144   4.409   1.015   9.551  0.0729  0.0026 -0.2295
 7503SOL    HW134145   4.467   1.060   9.491 -1.7271  0.8806 -1.3153
 7503SOL    HW234146   4.330   1.038   9.502  0.1897  1.9332  0.5155
 7504SOL     OW34147   2.610   1.445   9.738 -0.1665  0.9342  0.1401
 7504SOL    HW134148   2.620   1.541   9.743  0.5389  0.8715 -0.0004
 7504SOL    HW234149   2.694   1.413   9.705 -0.0720  0.6887  0.6207
 7505SOL     OW34150   0.103   0.174   3.490 -0.8883 -0.1008  0.2352
 7505SOL    HW134151   0.053   0.105   3.448 -2.3675  0.3117  1.3333
 7505SOL    HW234152   0.184   0.176   3.439 -0.2427  0.0399  1.2529
 7506SOL     OW34153   0.841   4.362   1.811 -0.1964 -0.0083  0.0397
 7506SOL    HW134154   0.839   4.355   1.716  2.2871  2.1313 -0.1731
 7506SOL    HW234155   0.911   4.427   1.815 -0.5821  0.4324 -0.3154
 7507SOL     OW34156   2.701   2.358   3.948 -0.3622 -0.3805 -0.1586
 7507SOL    HW134157   2.741   2.301   3.882  0.6873  0.8536 -0.5863
 7507SOL    HW234158   2.764   2.430   3.950 -0.2364 -0.5038  0.1725
 7508SOL     OW34159   0.750   0.987   9.431  0.1887  0.3633 -0.0257
 7508SOL    HW134160   0.735   1.042   9.354 -2.5272 -0.0479  0.1976
 7508SOL    HW234161   0.786   1.054   9.489  2.0224 -0.7295  0.0706
 7509SOL     OW34162   0.280   3.656  16.914 -0.2077  0.0281  0.6330
 7509SOL    HW134163   0.216   3.718  16.879 -1.0430 -1.6266 -0.7682
 7509SOL    HW234164   0.239   3.626  16.995 -1.5536  0.1349 -0.0040
 7510SOL     OW34165   2.369   1.439   2.340  0.0102 -0.0781 -0.3786
 7510SOL    HW134166   2.389   1.433   2.246 -1.6769  1.7588 -0.8531
 7510SOL    HW234167   2.342   1.348   2.356  0.3243  0.5366  3.5012
 7511SOL     OW34168   3.170   1.376  15.496  0.3599 -0.0283  0.1581
 7511SOL    HW134169   3.143   1.445  15.557  0.2142  0.7286 -0.7602
 7511SOL    HW234170   3.264   1.392  15.486  0.3537  0.7402  1.3790
 7512SOL     OW34171   1.477   2.872   1.991 -0.0172  0.8799 -0.2016
 7512SOL    HW134172   1.529   2.817   2.049  1.0165 -0.8663 -2.8050
 7512SOL    HW234173   1.393   2.828   1.999  0.7269 -0.2090  1.7495
 7513SOL     OW34174   3.978   2.733  12.089 -0.1172 -0.4807 -0.1103
 7513SOL    HW134175   4.038   2.806  12.107 -0.9852  0.5356 -1.3554
 7513SOL    HW234176   3.981   2.737  11.993  0.8582  1.8156  0.0095
 7514SOL     OW34177   2.118   4.651   6.958  0.2254 -0.3668 -0.9065
 7514SOL    HW134178   2.152   4.579   6.905  3.0193  0.9818 -0.9099
 7514SOL    HW234179   2.024   4.648   6.938  0.3790 -2.1191 -1.3217
 7515SOL     OW34180   0.180   1.296   3.027  0.3536 -0.0111  0.7012
 7515SOL    HW134181   0.160   1.379   3.069  2.6226  1.2897 -0.7931
 7515SOL    HW234182   0.176   1.325   2.935  3.5619  0.1777  0.6395
 7516SOL     OW34183   3.120   1.400  15.827 -0.3290 -0.6820  0.7275
 7516SOL    HW134184   3.038   1.352  15.835 -1.1802  0.4561 -1.2877
 7516SOL    HW234185   3.178   1.340  15.874 -0.4907 -0.5352  1.1117
 7517SOL     OW34186   4.172   3.905   6.191 -0.3378  0.8672 -0.5418
 7517SOL    HW134187   4.089   3.950   6.209  0.2932  2.3426 -1.3677
 7517SOL    HW234188   4.174   3.850   6.269  4.4750  0.4371 -0.9962
 7518SOL     OW34189   4.073   1.768   2.031  0.1094 -0.5676 -0.1215
 7518SOL    HW134190   4.067   1.826   1.955  1.6726  1.2477  1.1235
 7518SOL    HW234191   4.032   1.688   1.997 -0.0944 -1.1315  1.4567
 7519SOL     OW34192   4.552   2.059   0.815 -0.1339 -0.7481  0.4757
 7519SOL    HW134193   4.460   2.088   0.819  0.9499  2.7155  0.8314
 7519SOL    HW234194   4.573   2.086   0.726 -1.3905  2.2774  1.0859
 7520SOL     OW34195   4.099   2.357  15.055  0.1248 -0.0351  0.1268
 7520SOL    HW134196   4.040   2.286  15.029 -1.6602  1.2367  0.6858
 7520SOL    HW234197   4.099   2.341  15.150 -0.4160  0.8731  0.2845
 7521SOL     OW34198   3.993   3.946   8.379 -0.3565  0.4449  0.0056
 7521SOL    HW134199   4.003   3.982   8.467 -1.9545 -2.2970  1.3497
 7521SOL    HW234200   4.086   3.934   8.362 -0.5158 -1.4501  0.4527
 7522SOL     OW34201   3.359   2.522   9.292 -0.1222 -0.0988  0.2100
 7522SOL    HW134202   3.361   2.568   9.209  1.4960  1.6094  1.1930
 7522SOL    HW234203   3.413   2.577   9.349 -0.1211  0.2757 -0.1564
 7523SOL     OW34204   0.750   2.060   0.674  0.3435 -0.2999 -1.0557
 7523SOL    HW134205   0.727   1.971   0.647 -1.3637 -0.7585  1.8977
 7523SOL    HW234206   0.832   2.081   0.628  0.2183  0.5880 -0.8537
 7524SOL     OW34207   4.107   4.591  16.160 -0.2143  0.2214 -0.4980
 7524SOL    HW134208   4.035   4.545  16.203 -0.0484  0.9762  0.5929
 7524SOL    HW234209   4.059   4.670  16.135  0.4697  0.0167 -2.4649
 7525SOL     OW34210   0.394   1.751   1.222 -0.1799 -0.9659 -0.0019
 7525SOL    HW134211   0.481   1.718   1.197 -0.0143 -1.8933  1.8154
 7525SOL    HW234212   0.419   1.825   1.277  0.1441 -0.7876 -0.3867
 7526SOL     OW34213   4.556   0.354   8.004 -0.2739  0.3640  0.0345
 7526SOL    HW134214   4.464   0.337   8.024 -0.6463  0.7235 -1.3135
 7526SOL    HW234215   4.578   0.412   8.077 -0.1190 -0.7700  0.8856
 7527SOL     OW34216   2.139   2.911   7.629 -0.7613  0.3185 -0.5157
 7527SOL    HW134217   2.212   2.864   7.670 -1.3907  0.7876  1.1816
 7527SOL    HW234218   2.136   2.869   7.543 -0.2165 -1.2395  0.2210
 7528SOL     OW34219   0.329   0.083   4.146  0.4247  0.7791 -0.3381
 7528SOL    HW134220   0.290   4.736   4.166  2.9004  0.0012  1.2790
 7528SOL    HW234221   0.420   0.057   4.130  0.6361 -0.3271  2.6057
 7529SOL     OW34222   0.672   2.608   1.063  0.0881 -0.5465 -0.3669
 7529SOL    HW134223   0.611   2.679   1.085  0.6981 -0.7142  1.9168
 7529SOL    HW234224   0.730   2.607   1.139  0.2428  0.6112 -0.4655
 7530SOL     OW34225   2.586   1.602  12.858 -0.2862  0.1284  0.4072
 7530SOL    HW134226   2.517   1.578  12.797 -0.0035  0.4740 -0.0541
 7530SOL    HW234227   2.608   1.513  12.885  2.3808  1.2035  1.8653
 7531SOL     OW34228   2.237   2.656   2.644 -0.2436  0.2427 -1.0069
 7531SOL    HW134229   2.227   2.603   2.723  0.0149 -0.5673 -1.5136
 7531SOL    HW234230   2.246   2.593   2.572  0.0295  0.4814 -1.1825
 7532SOL     OW34231   0.714   4.524  16.459 -0.3729  0.1920  0.4184
 7532SOL    HW134232   0.758   4.440  16.451 -0.7315 -0.0281  0.7725
 7532SOL    HW234233   0.681   4.548  16.372 -0.3616  0.8675  0.5995
 7533SOL     OW34234   0.535   0.150   9.425  0.2352 -0.0177  0.6464
 7533SOL    HW134235   0.524   0.083   9.492  0.4366  0.6990  1.3976
 7533SOL    HW234236   0.573   0.097   9.355 -1.3006 -0.3045  0.0302
 7534SOL     OW34237   1.963   4.690  15.940 -0.0802  0.1385  0.0695
 7534SOL    HW134238   1.892   4.627  15.929 -1.4798  1.2174  2.7764
 7534SOL    HW234239   2.004   4.686  15.854 -1.9967  1.9991 -0.9330
 7535SOL     OW34240   0.885   1.117   8.501 -0.8326  0.1834 -0.6381
 7535SOL    HW134241   0.846   1.030   8.506  1.0579 -0.6435 -0.4689
 7535SOL    HW234242   0.978   1.106   8.484 -0.9360 -0.0767 -1.0446
 7536SOL     OW34243   0.114   3.345  16.980  0.1924 -0.1294 -0.2911
 7536SOL    HW134244   0.027   3.382  16.997  0.1312 -0.0924 -0.6750
 7536SOL    HW234245   0.089   3.260  16.942  1.6629 -1.0929  0.8741
 7537SOL     OW34246   4.079   2.760   2.933  0.0029 -0.0417  0.0212
 7537SOL    HW134247   4.017   2.688   2.945 -2.1897  1.7216 -0.6579
 7537SOL    HW234248   4.008   2.824   2.921  1.8828  1.7921 -1.3957
 7538SOL     OW34249   3.748   1.061   3.880  0.0659  0.4195  0.1907
 7538SOL    HW134250   3.774   0.989   3.823  2.4402  1.3492  0.0974
 7538SOL    HW234251   3.668   1.089   3.836 -0.0168  0.6098  0.4628
 7539SOL     OW34252   2.791   2.079   3.468  0.3416 -0.3459  0.5083
 7539SOL    HW134253   2.753   2.081   3.555 -2.2491 -0.4435 -0.6319
 7539SOL    HW234254   2.865   2.019   3.474  0.4650 -0.2673 -0.1476
 7540SOL     OW34255   2.743   4.097   7.568 -0.3423  0.2587  0.2331
 7540SOL    HW134256   2.673   4.035   7.590  1.5393 -1.6712  0.7179
 7540SOL    HW234257   2.747   4.138   7.655  0.1131 -1.0151  0.8096
 7541SOL     OW34258   3.985   4.093   7.544 -0.6308  0.1135 -0.3384
 7541SOL    HW134259   4.038   4.146   7.604 -0.0871  0.3911 -1.0597
 7541SOL    HW234260   3.894   4.115   7.566 -0.6540  0.7488 -1.0721
 7542SOL     OW34261   3.812   1.040   6.065 -0.1552 -0.1970 -0.2399
 7542SOL    HW134262   3.838   1.130   6.043 -0.0822 -0.6295 -1.8855
 7542SOL    HW234263   3.838   1.039   6.158  0.1380  1.3178 -0.3016
 7543SOL     OW34264   2.026   4.306   8.848 -0.5386 -0.2954  0.1853
 7543SOL    HW134265   2.109   4.354   8.847  0.7941 -2.6426 -1.7657
 7543SOL    HW234266   1.984   4.338   8.768 -2.3051  2.2575  2.1252
 7544SOL     OW34267   4.419   0.090   8.748 -0.1770 -0.0519  0.0206
 7544SOL    HW134268   4.325   0.109   8.742 -1.0685 -2.8727  4.9362
 7544SOL    HW234269   4.456   0.162   8.801  0.1368 -0.4584  0.3522
 7545SOL     OW34270   0.817   1.619   5.098  0.0522 -0.1985 -0.3421
 7545SOL    HW134271   0.740   1.573   5.065  0.0235 -0.1782 -0.3034
 7545SOL    HW234272   0.882   1.559   5.061  1.8170  0.6650  1.3701
 7546SOL     OW34273   3.292   3.156   0.817 -0.0959 -0.3229 -0.1456
 7546SOL    HW134274   3.237   3.094   0.769 -3.2129  3.4768 -1.5210
 7546SOL    HW234275   3.230   3.194   0.879 -0.5303 -1.1673 -0.0664
 7547SOL     OW34276   2.390   3.165   8.654 -0.1304  0.1430  0.2510
 7547SOL    HW134277   2.456   3.207   8.598  0.1969  0.0120  0.5429
 7547SOL    HW234278   2.311   3.215   8.631  0.4581  0.4828 -1.0651
 7548SOL     OW34279   1.424   2.416   6.225  0.5622  0.1156 -0.2769
 7548SOL    HW134280   1.400   2.328   6.253  0.9898 -0.0582 -0.4567
 7548SOL    HW234281   1.434   2.458   6.310 -0.0998 -0.9487  0.3242
 7549SOL     OW34282   2.714   3.682  10.221 -0.1502 -0.1173  0.6539
 7549SOL    HW134283   2.725   3.650  10.311 -1.2555 -0.3765  0.6965
 7549SOL    HW234284   2.796   3.728  10.205  0.8203 -1.5622  1.4563
 7550SOL     OW34285   1.710   1.676  14.758  0.0055  0.1198 -0.0393
 7550SOL    HW134286   1.665   1.756  14.730  1.9219  1.0110 -0.5772
 7550SOL    HW234287   1.725   1.689  14.852  1.5985 -0.4531 -0.2010
 7551SOL     OW34288   3.017   4.544   6.273  0.1571 -0.6318 -0.1905
 7551SOL    HW134289   2.953   4.565   6.341 -0.5758 -2.2930 -0.3489
 7551SOL    HW234290   2.967   4.586   6.204 -1.7682 -1.1983  0.8542
 7552SOL     OW34291   3.058   2.791   9.315  0.3300 -0.2563  0.1212
 7552SOL    HW134292   3.031   2.746   9.235  0.5477  3.3565 -1.9733
 7552SOL    HW234293   3.131   2.839   9.277  0.1938 -0.4504 -0.3899
 7553SOL     OW34294   2.926   1.565  17.616  0.2683  0.0074 -0.4046
 7553SOL    HW134295   2.958   1.535  17.701 -1.6468  3.1341  1.4331
 7553SOL    HW234296   3.004   1.561  17.562  1.5912 -3.4063  1.7855
 7554SOL     OW34297   1.467   0.030   2.872  0.3890  0.3122  0.2922
 7554SOL    HW134298   1.487   0.004   2.962 -0.0480 -1.3168 -0.0919
 7554SOL    HW234299   1.550   0.073   2.851  1.0167 -0.2575  1.6111
 7555SOL     OW34300   3.829   0.298   5.101  0.3258  0.3269  0.4022
 7555SOL    HW134301   3.914   0.342   5.103  1.0905 -1.1915  0.7929
 7555SOL    HW234302   3.786   0.334   5.179 -1.6774  2.3624 -1.6177
 7556SOL     OW34303   3.813   1.121  16.734 -0.0450 -0.1244 -0.4508
 7556SOL    HW134304   3.737   1.166  16.699 -1.3854 -0.7491  1.6097
 7556SOL    HW234305   3.820   1.161  16.821 -1.5910  1.3981 -1.0468
 7557SOL     OW34306   0.224   2.588   1.073  0.3414  0.0041 -0.1532
 7557SOL    HW134307   0.282   2.664   1.081 -2.6324  2.1071  1.4259
 7557SOL    HW234308   0.276   2.523   1.121 -1.4887 -1.5947 -0.3380
 7558SOL     OW34309   2.467   3.165   2.737  0.3499  0.4817 -0.0838
 7558SOL    HW134310   2.462   3.221   2.659  0.0751  2.0616  1.0677
 7558SOL    HW234311   2.541   3.106   2.721  1.3514  0.5973  4.0916
 7559SOL     OW34312   4.686   3.727   5.634  0.1272  0.4948  0.1078
 7559SOL    HW134313   4.603   3.775   5.642 -0.1016  0.4884 -2.2329
 7559SOL    HW234314   4.691   3.702   5.542  1.2045 -0.8513  0.5426
 7560SOL     OW34315   0.742   3.745   7.340 -0.1435  0.2278 -0.4773
 7560SOL    HW134316   0.829   3.716   7.365 -0.6511  0.3936  1.5181
 7560SOL    HW234317   0.697   3.693   7.407 -0.0491 -0.8045 -1.2245
 7561SOL     OW34318   3.117   2.598   8.780 -0.3868  0.2767 -0.4647
 7561SOL    HW134319   3.157   2.540   8.716  1.5305  0.6840  0.3652
 7561SOL    HW234320   3.183   2.600   8.849  0.9180 -2.0319 -1.6662
 7562SOL     OW34321   2.454   4.550   5.631 -0.3543 -0.6209  0.6173
 7562SOL    HW134322   2.547   4.574   5.632 -0.1277 -1.4910  0.2618
 7562SOL    HW234323   2.427   4.560   5.722 -0.0258 -0.8507  0.7379
 7563SOL     OW34324   0.901   0.839   9.718 -0.2292 -0.1857 -0.0751
 7563SOL    HW134325   0.825   0.883   9.756 -0.5798 -0.8420 -0.0285
 7563SOL    HW234326   0.860   0.761   9.681  0.9642  0.3821 -2.6548
 7564SOL     OW34327   0.063   1.688   7.367 -0.4762  0.3694  0.0818
 7564SOL    HW134328   0.132   1.662   7.307 -1.1220  1.4645 -1.1389
 7564SOL    HW234329   0.085   1.624   7.435  1.2783  0.5424 -0.3385
 7565SOL     OW34330   1.133   2.833   7.641  0.1748  0.0825  0.2871
 7565SOL    HW134331   1.165   2.840   7.551  0.6184 -0.0021  0.4347
 7565SOL    HW234332   1.066   2.767   7.624 -0.6052  0.6130  1.3057
 7566SOL     OW34333   0.885   2.759   8.484 -0.2099  0.5737  0.0531
 7566SOL    HW134334   0.805   2.719   8.518  0.0755  0.1937  0.2723
 7566SOL    HW234335   0.891   2.846   8.524  2.5015  0.9348 -1.1153
 7567SOL     OW34336   1.580   2.193   4.618 -0.4306 -0.3050  0.5742
 7567SOL    HW134337   1.555   2.182   4.526 -3.1591 -1.0590  1.4166
 7567SOL    HW234338   1.506   2.249   4.644 -0.0292  0.1472  0.7380
 7568SOL     OW34339   3.666   4.142   5.954  0.3103  0.0329 -0.1969
 7568SOL    HW134340   3.605   4.132   5.882  0.2675 -1.1668  0.0039
 7568SOL    HW234341   3.729   4.072   5.934 -1.0722 -0.8271 -1.4926
 7569SOL     OW34342   2.688   3.934  14.304 -0.1452  0.1078 -0.9736
 7569SOL    HW134343   2.741   3.901  14.232 -1.3393 -0.9871 -1.3390
 7569SOL    HW234344   2.606   3.960  14.264 -1.9952 -3.4186  0.5448
 7570SOL     OW34345   4.031   0.906   8.263  0.2776  0.1802  0.1121
 7570SOL    HW134346   4.021   0.846   8.337 -0.1085  0.4140  0.2499
 7570SOL    HW234347   4.087   0.972   8.306  0.0348 -1.1263  2.4104
 7571SOL     OW34348   3.274   4.005   5.817 -0.1593 -0.6871  0.4385
 7571SOL    HW134349   3.277   3.916   5.782 -0.0031 -0.0034 -1.3234
 7571SOL    HW234350   3.365   4.033   5.819 -0.3913  0.0433  0.8940
 7572SOL     OW34351   0.666   3.737   4.706  0.0506  0.3281  0.1605
 7572SOL    HW134352   0.579   3.753   4.671  0.1539 -0.5407 -0.4918
 7572SOL    HW234353   0.713   3.816   4.680 -1.8252  1.3402 -0.1229
 7573SOL     OW34354   3.687   4.010   6.901  0.1032  0.6849 -0.8370
 7573SOL    HW134355   3.678   4.046   6.989  0.6988 -1.9038  0.2895
 7573SOL    HW234356   3.762   4.058   6.865 -0.1547  2.0115  0.3836
 7574SOL     OW34357   1.670   3.063   6.301  0.0646  0.3833 -0.7541
 7574SOL    HW134358   1.707   2.988   6.254 -0.1803 -0.8498  1.0149
 7574SOL    HW234359   1.584   3.025   6.318  0.7673 -2.0907 -2.6159
 7575SOL     OW34360   0.930   3.626   3.645  0.5791  0.2268 -0.3445
 7575SOL    HW134361   0.950   3.719   3.632 -1.4246  0.8818  1.3998
 7575SOL    HW234362   0.853   3.633   3.701  1.4484 -0.0318  0.8634
 7576SOL     OW34363   0.856   0.240  17.307  0.1165  0.4305 -0.0811
 7576SOL    HW134364   0.828   0.153  17.334  0.7283 -0.6482 -2.9482
 7576SOL    HW234365   0.931   0.215  17.254  1.0619 -1.4344  2.1551
 7577SOL     OW34366   3.160   4.690   8.329  0.5048 -0.3969 -0.3126
 7577SOL    HW134367   3.118   0.037   8.314 -0.5055 -0.9731 -0.6656
 7577SOL    HW234368   3.156   4.645   8.245  0.2827 -1.5761  0.3360
 7578SOL     OW34369   1.032   3.373   3.141 -0.1275  0.0069 -0.1732
 7578SOL    HW134370   1.025   3.464   3.112 -0.8671 -0.4734 -1.4800
 7578SOL    HW234371   0.956   3.338   3.093  0.4681  1.6828 -2.3262
 7579SOL     OW34372   1.755   4.488  16.981  0.3428 -0.1974 -0.0062
 7579SOL    HW134373   1.747   4.445  16.896  0.3088  1.9378 -1.0776
 7579SOL    HW234374   1.829   4.435  17.009 -1.5902 -1.2907  2.9901
 7580SOL     OW34375   3.666   2.572   5.251  0.1145 -0.1307 -0.0858
 7580SOL    HW134376   3.740   2.541   5.301 -0.4657  0.9021  1.3957
 7580SOL    HW234377   3.644   2.507   5.184 -1.9135  0.6744 -0.2290
 7581SOL     OW34378   2.118   1.846   3.363 -0.8233 -0.2334 -0.1440
 7581SOL    HW134379   2.206   1.853   3.399 -0.5247  1.8842 -1.2846
 7581SOL    HW234380   2.135   1.785   3.292 -0.0073  1.3959 -1.3428
 7582SOL     OW34381   1.933   0.783   2.118 -0.2006  0.1234 -0.3206
 7582SOL    HW134382   1.877   0.707   2.102 -0.9880  0.7119 -0.4025
 7582SOL    HW234383   2.010   0.764   2.064 -0.6369  0.8038 -1.1965
 7583SOL     OW34384   0.730   3.962   2.677 -0.0920  0.5963  0.0940
 7583SOL    HW134385   0.746   4.013   2.598  2.0173 -2.8051 -1.6893
 7583SOL    HW234386   0.766   4.021   2.743 -0.5931  0.2445  0.6873
 7584SOL     OW34387   0.067   2.773   7.422 -0.7375  0.4975 -0.2566
 7584SOL    HW134388   0.141   2.833   7.412  1.0257 -1.3516  1.3921
 7584SOL    HW234389   0.067   2.721   7.342 -1.7501  0.7413 -0.4083
 7585SOL     OW34390   2.762   3.090   6.359  0.0299  0.0812  0.0500
 7585SOL    HW134391   2.854   3.063   6.360 -0.6189 -2.2351 -0.9373
 7585SOL    HW234392   2.738   3.076   6.451  0.0295 -0.0398  0.0324
 7586SOL     OW34393   2.557   0.641   5.934  0.4943 -0.3280 -0.0078
 7586SOL    HW134394   2.484   0.582   5.913 -0.5239  1.0389 -0.2767
 7586SOL    HW234395   2.562   0.623   6.028  0.0309  1.7766  0.4116
 7587SOL     OW34396   3.932   3.710   6.666  0.0283  0.5604  0.2177
 7587SOL    HW134397   3.960   3.639   6.724  0.6499  0.8951  0.3349
 7587SOL    HW234398   3.995   3.781   6.681 -0.8338  1.3274  0.1964
 7588SOL     OW34399   3.943   0.522  11.031  0.3197 -0.5799  0.2901
 7588SOL    HW134400   3.853   0.545  11.054  0.5415  2.0934 -1.5229
 7588SOL    HW234401   3.989   0.564  11.103  0.2270  1.3791 -0.8051
 7589SOL     OW34402   3.784   3.748   7.584  0.2405  0.7340 -0.1498
 7589SOL    HW134403   3.756   3.707   7.501 -1.3348  1.1152  0.1862
 7589SOL    HW234404   3.711   3.809   7.594 -0.9184 -0.6257 -0.2242
 7590SOL     OW34405   4.498   0.020   6.268 -0.0692  0.4360 -0.0430
 7590SOL    HW134406   4.425   0.018   6.206 -0.0990 -3.2951  0.1318
 7590SOL    HW234407   4.449   0.013   6.349  1.9403  1.4559  1.2704
 7591SOL     OW34408   4.684   4.495   5.916  0.2395 -0.6292  0.5924
 7591SOL    HW134409   0.028   4.448   5.906  0.4690 -0.2381  0.6746
 7591SOL    HW234410   4.718   4.581   5.938 -2.1838  0.9891 -1.9452
 7592SOL     OW34411   0.901   4.390   8.139  0.1757  0.3625  0.2452
 7592SOL    HW134412   0.962   4.407   8.211  1.8203 -0.1707 -1.0134
 7592SOL    HW234413   0.821   4.383   8.192 -0.9289  0.3166 -1.4377
 7593SOL     OW34414   0.627   1.666   1.146  0.7741  0.4655 -0.1613
 7593SOL    HW134415   0.703   1.704   1.103  0.8534  0.7439  0.2315
 7593SOL    HW234416   0.646   1.580   1.109  0.7348  0.3764  0.0287
 7594SOL     OW34417   1.854   3.361   9.813  0.7587 -0.3356  0.1217
 7594SOL    HW134418   1.849   3.300   9.739  1.2295 -0.5890  0.3029
 7594SOL    HW234419   1.855   3.291   9.879  1.5367 -2.4432 -2.1111
 7595SOL     OW34420   3.464   4.724   8.874  0.5178  0.8920  0.0786
 7595SOL    HW134421   3.490   0.073   8.904 -0.4424  0.2603  2.6830
 7595SOL    HW234422   3.542   4.709   8.821  0.3553 -1.2635  0.4484
 7596SOL     OW34423   1.793   1.295   6.546 -0.5865 -0.0099 -0.3373
 7596SOL    HW134424   1.718   1.271   6.492 -2.9731  0.8486  2.6229
 7596SOL    HW234425   1.754   1.317   6.630  2.9483  0.4768  1.1836
 7597SOL     OW34426   4.341   1.320   5.062 -0.1957  0.4018 -0.7791
 7597SOL    HW134427   4.342   1.397   5.120  0.1897 -0.1526 -0.0494
 7597SOL    HW234428   4.278   1.264   5.105 -1.4021  2.2143 -0.1842
 7598SOL     OW34429   1.839   3.733   3.426 -0.2486  0.5151 -0.1442
 7598SOL    HW134430   1.913   3.679   3.456 -3.0770 -2.6759  1.2032
 7598SOL    HW234431   1.873   3.819   3.449 -0.8977  1.2689 -2.0873
 7599SOL     OW34432   2.206   0.464   3.208  0.6009 -0.2603 -0.3361
 7599SOL    HW134433   2.217   0.506   3.294  2.1728 -0.0391 -0.6556
 7599SOL    HW234434   2.248   0.530   3.153  1.3888 -0.6983 -0.2524
 7600SOL     OW34435   1.537   4.236  15.832  0.4653 -0.1687  0.2273
 7600SOL    HW134436   1.445   4.242  15.805 -0.1757 -4.0117  1.4845
 7600SOL    HW234437   1.565   4.326  15.821  1.4912 -0.6749 -1.2142
 7601SOL     OW34438   4.195   2.180  17.638  0.4792 -0.3211 -0.0339
 7601SOL    HW134439   4.196   2.243  17.566 -1.2612 -0.2711 -0.0258
 7601SOL    HW234440   4.100   2.181  17.650  0.1118 -0.5151 -2.8906
 7602SOL     OW34441   2.571   0.837   4.362 -0.1048 -0.3821  0.2646
 7602SOL    HW134442   2.572   0.762   4.421  1.7270 -0.9330 -0.4585
 7602SOL    HW234443   2.529   0.901   4.419  2.4045  0.0900  1.5418
 7603SOL     OW34444   1.845   0.907   7.259 -0.3870 -0.4182 -0.0759
 7603SOL    HW134445   1.897   0.890   7.338 -0.4319 -0.7671 -0.1208
 7603SOL    HW234446   1.899   0.847   7.208 -0.4821 -1.1604  0.6857
 7604SOL     OW34447   3.823   4.500   8.254 -0.5922  0.0377 -0.5503
 7604SOL    HW134448   3.813   4.406   8.269 -3.5325  0.1795 -1.6293
 7604SOL    HW234449   3.743   4.540   8.286  0.6435  0.5943  1.8096
 7605SOL     OW34450   3.185   4.695   4.631  0.1084  0.3894  0.4281
 7605SOL    HW134451   3.099   4.675   4.592  0.3055 -0.7151  0.5498
 7605SOL    HW234452   3.234   4.707   4.549  0.4531 -4.2721 -0.0642
 7606SOL     OW34453   1.374   3.663   8.756  0.2588  0.2977 -0.0896
 7606SOL    HW134454   1.290   3.707   8.766 -0.4877 -0.9802 -0.7888
 7606SOL    HW234455   1.370   3.605   8.832  0.4213 -2.3943 -2.1692
 7607SOL     OW34456   2.040   4.605  15.692  0.3303  0.0160  0.1480
 7607SOL    HW134457   2.122   4.585  15.646  0.4195 -1.0460  0.7896
 7607SOL    HW234458   1.971   4.556  15.648  1.2746 -0.2243 -1.0925
 7608SOL     OW34459   4.440   4.655   3.300  0.0540 -0.2742  0.2035
 7608SOL    HW134460   4.415   4.630   3.211 -2.4304  2.6273  0.0755
 7608SOL    HW234461   4.467   0.005   3.276 -2.6199  0.5954  0.3806
 7609SOL     OW34462   1.184   1.759  14.013 -0.6811 -0.1665  0.0369
 7609SOL    HW134463   1.136   1.684  14.049 -1.0424 -1.1931 -2.5567
 7609SOL    HW234464   1.152   1.827  14.072  0.2448  0.8575 -0.6510
 7610SOL     OW34465   0.762   3.584  15.921  0.1561 -0.0016 -0.6729
 7610SOL    HW134466   0.707   3.633  15.859  1.1369  0.5277 -1.1409
 7610SOL    HW234467   0.714   3.591  16.003  2.5465  0.6501  0.6547
 7611SOL     OW34468   2.513   0.304   6.300  0.3054 -0.3041 -0.7605
 7611SOL    HW134469   2.589   0.248   6.281 -1.9048 -3.5457  0.0130
 7611SOL    HW234470   2.443   0.240   6.314 -0.7710  1.3042  1.2309
 7612SOL     OW34471   0.937   0.721   2.573 -0.5837 -0.5512  0.6279
 7612SOL    HW134472   0.938   0.791   2.509  1.8169 -0.9500  0.2317
 7612SOL    HW234473   1.007   0.751   2.630 -0.1949 -0.1769 -0.0562
 7613SOL     OW34474   3.309   2.287  14.222  0.2475 -0.4853  0.6094
 7613SOL    HW134475   3.284   2.243  14.141  1.9876  0.8583 -0.6545
 7613SOL    HW234476   3.277   2.374  14.196 -1.6003 -1.0122  1.0644
 7614SOL     OW34477   2.551   2.051   7.928  0.1215 -0.0668 -0.4109
 7614SOL    HW134478   2.463   2.068   7.894  0.6885 -1.2795 -2.4657
 7614SOL    HW234479   2.553   1.964   7.889 -1.0841  0.0685 -0.7949
 7615SOL     OW34480   4.722   2.668   0.780 -0.1767 -0.9827  0.0259
 7615SOL    HW134481   4.702   2.688   0.688  0.6531 -0.4818 -0.0503
 7615SOL    HW234482   0.052   2.602   0.767  0.0853 -0.9944  1.4981
 7616SOL     OW34483   4.235   1.481   7.869 -0.7374  0.1312  0.3224
 7616SOL    HW134484   4.227   1.432   7.787 -3.6414  0.1851  0.5904
 7616SOL    HW234485   4.312   1.534   7.850  0.4611 -1.5144  0.5505
 7617SOL     OW34486   2.696   1.570   8.489 -0.0402  0.0001 -0.1633
 7617SOL    HW134487   2.690   1.583   8.395  2.2144  0.9241 -0.1887
 7617SOL    HW234488   2.667   1.652   8.529  0.0135  0.7197 -1.5924
 7618SOL     OW34489   2.672   4.728   7.397 -0.0382 -0.5018 -0.2393
 7618SOL    HW134490   2.606   4.700   7.333  0.0439 -1.8140  0.2576
 7618SOL    HW234491   2.750   4.738   7.342 -1.1185 -0.7718 -1.8485
 7619SOL     OW34492   3.258   0.166   4.106  0.6927 -0.0714 -0.1288
 7619SOL    HW134493   3.248   0.073   4.084  1.2369 -0.5069  1.4448
 7619SOL    HW234494   3.329   0.183   4.044  1.2531  0.1922  0.5905
 7620SOL     OW34495   2.235   0.567   1.299 -0.1136  0.2657  0.2699
 7620SOL    HW134496   2.256   0.636   1.237  0.3361 -0.5048 -0.4370
 7620SOL    HW234497   2.264   0.595   1.386  2.4077 -0.4527 -0.3552
 7621SOL     OW34498   4.077   2.650   6.658  0.1820  0.4323  1.1537
 7621SOL    HW134499   4.089   2.557   6.673  0.0335 -0.0412 -1.5385
 7621SOL    HW234500   4.117   2.690   6.735  0.6236 -0.2762  1.2846
 7622SOL     OW34501   0.706   0.748   8.738 -0.0951 -0.2945 -0.2543
 7622SOL    HW134502   0.691   0.691   8.814 -1.1986 -0.4978 -0.6239
 7622SOL    HW234503   0.777   0.802   8.772 -0.7248 -0.1312  0.8015
 7623SOL     OW34504   3.124   1.960   4.499  0.1922 -0.4193  0.2521
 7623SOL    HW134505   3.105   1.888   4.559 -0.1228  1.0193  1.8851
 7623SOL    HW234506   3.078   2.030   4.545 -0.2325 -0.4599 -0.1065
 7624SOL     OW34507   4.581   0.420   8.496  0.2269 -0.4485 -0.0950
 7624SOL    HW134508   4.615   0.375   8.574  0.8205 -0.9754 -0.6594
 7624SOL    HW234509   4.652   0.478   8.470 -1.3418  1.1413 -0.8321
 7625SOL     OW34510   1.516   2.807   3.911  0.2082 -0.0182  0.0812
 7625SOL    HW134511   1.474   2.792   3.827 -1.7011 -0.2730  1.0925
 7625SOL    HW234512   1.497   2.723   3.953 -0.5505  0.2417  0.2622
 7626SOL     OW34513   3.444   3.121   3.535  0.7773  0.3743  0.8759
 7626SOL    HW134514   3.490   3.203   3.519  0.1121  0.8309  1.3169
 7626SOL    HW234515   3.374   3.156   3.589 -0.3869  1.0347 -1.0485
 7627SOL     OW34516   2.129   4.676   4.970  0.1302 -0.2613  0.1006
 7627SOL    HW134517   2.193   4.661   4.900  0.1440  1.7031 -0.2927
 7627SOL    HW234518   2.153   4.597   5.019 -1.9617 -0.9056  0.0876
 7628SOL     OW34519   3.544   4.266   3.492  0.0599 -0.4762 -0.2979
 7628SOL    HW134520   3.558   4.290   3.401 -0.0334  1.0076  0.0743
 7628SOL    HW234521   3.466   4.214   3.475 -0.9897  0.6359  1.1808
 7629SOL     OW34522   0.000   1.080  16.630  0.3736 -0.8238  0.0976
 7629SOL    HW134523   0.065   1.151  16.624  0.9108 -1.1324  2.3620
 7629SOL    HW234524   4.701   1.068  16.542  0.6369  1.5323 -0.3439
 7630SOL     OW34525   2.368   4.727   3.094  0.0312  0.6764 -0.4352
 7630SOL    HW134526   2.345   4.695   3.181  0.5767 -0.3491 -0.6717
 7630SOL    HW234527   2.387   0.080   3.116 -2.2051  1.1250 -0.4377
 7631SOL     OW34528   4.320   4.267   8.186  0.1756 -0.1343 -0.1363
 7631SOL    HW134529   4.340   4.230   8.272  2.7569 -2.9344 -1.9799
 7631SOL    HW234530   4.252   4.329   8.214  1.6723  0.2806  2.5626
 7632SOL     OW34531   2.175   0.365   2.859 -0.2544  0.1861  0.4700
 7632SOL    HW134532   2.266   0.394   2.848 -0.8787  2.5876  1.5146
 7632SOL    HW234533   2.173   0.285   2.911 -1.4300  1.1944  1.9833
 7633SOL     OW34534   0.652   3.696   5.780 -0.1438 -0.3660  0.8331
 7633SOL    HW134535   0.705   3.670   5.705 -0.3815 -0.7381  0.7939
 7633SOL    HW234536   0.674   3.633   5.848  2.1860  2.6675  2.9288
 7634SOL     OW34537   4.704   3.086   5.173  0.4661  0.3227  0.2402
 7634SOL    HW134538   4.690   3.158   5.234  2.1502 -0.2512  1.3229
 7634SOL    HW234539   4.726   3.133   5.093 -0.5700 -3.2511 -2.1451
 7635SOL     OW34540   1.063   2.930  14.125  0.6602 -0.2620 -0.2608
 7635SOL    HW134541   0.983   2.944  14.073 -0.0409  0.1038  0.9224
 7635SOL    HW234542   1.021   2.881  14.196  2.2755  1.8199  2.1299
 7636SOL     OW34543   3.516   3.890  13.193 -0.2172  0.7865  0.6627
 7636SOL    HW134544   3.529   3.983  13.208  3.6641  0.0400  1.8925
 7636SOL    HW234545   3.600   3.854  13.222 -0.0554  0.1615 -0.5821
 7637SOL     OW34546   1.419   4.298   4.203  0.0661 -0.3732  0.0711
 7637SOL    HW134547   1.368   4.230   4.159  0.6313  0.5530 -2.0169
 7637SOL    HW234548   1.490   4.248   4.245  1.5554  0.8624 -0.9643
 7638SOL     OW34549   2.345   0.159   4.569 -0.3712 -0.2074  0.1284
 7638SOL    HW134550   2.316   0.145   4.659 -0.2781  1.0185  0.3478
 7638SOL    HW234551   2.406   0.228   4.597 -1.4067  0.7413  0.0250
 7639SOL     OW34552   3.747   0.520   2.021 -0.6545  0.6517 -0.1917
 7639SOL    HW134553   3.784   0.498   2.107  0.4031  1.7756 -0.3585
 7639SOL    HW234554   3.667   0.470   2.037 -0.1114 -0.1783 -0.0287
 7640SOL     OW34555   2.395   1.549   5.285  0.1966  1.0470  0.0135
 7640SOL    HW134556   2.488   1.550   5.308 -0.2655 -0.3476  1.8421
 7640SOL    HW234557   2.377   1.642   5.299 -0.4601  0.9387 -0.1319
 7641SOL     OW34558   3.979   3.529   2.848 -0.3177  0.0053  0.4976
 7641SOL    HW134559   3.885   3.538   2.837  0.1346  2.8876 -0.9047
 7641SOL    HW234560   3.977   3.525   2.944 -2.3930 -1.7715  0.3796
 7642SOL     OW34561   1.765   1.210   8.320  0.4463 -0.4792  0.1595
 7642SOL    HW134562   1.730   1.196   8.232 -0.9880  0.7816  0.5328
 7642SOL    HW234563   1.836   1.145   8.321  0.5051 -0.4291 -0.5540
 7643SOL     OW34564   1.404   1.308   2.753  0.1612 -0.1893  0.2663
 7643SOL    HW134565   1.472   1.313   2.687 -1.1475 -0.1575 -1.0852
 7643SOL    HW234566   1.322   1.333   2.711  0.8837  0.9550 -0.4498
 7644SOL     OW34567   1.091   0.630  15.089 -0.8777  0.0425 -0.3774
 7644SOL    HW134568   1.017   0.667  15.041 -2.2611  0.2295  1.9184
 7644SOL    HW234569   1.038   0.570  15.142  0.2227 -1.6394 -1.1811
 7645SOL     OW34570   3.154   1.086   6.178  0.3693 -0.1099 -0.6017
 7645SOL    HW134571   3.078   1.144   6.181 -0.1302 -0.7902  0.4105
 7645SOL    HW234572   3.219   1.141   6.135 -0.2049  3.1568  2.6455
 7646SOL     OW34573   0.441   0.703   6.292 -0.3976  0.5964  0.0522
 7646SOL    HW134574   0.465   0.773   6.231  1.9374 -0.9966 -0.8407
 7646SOL    HW234575   0.355   0.677   6.257  0.4699 -1.8162 -0.2620
 7647SOL     OW34576   0.164   0.134   6.327 -0.0457 -0.4035 -1.0212
 7647SOL    HW134577   0.086   0.190   6.327  0.4084  0.2370  2.4514
 7647SOL    HW234578   0.206   0.168   6.407  1.7978 -3.3036 -0.7642
 7648SOL     OW34579   0.075   1.602  13.366  0.1731 -0.3557 -0.6582
 7648SOL    HW134580   0.069   1.696  13.346 -1.8321 -0.6051 -1.1899
 7648SOL    HW234581   0.006   1.595  13.432  0.1179 -0.8017 -0.7637
 7649SOL     OW34582   4.717   0.487   0.406  0.2359 -0.3860  0.4576
 7649SOL    HW134583   4.693   0.406   0.451  0.8691 -2.1164 -2.3236
 7649SOL    HW234584   0.058   0.451   0.367 -1.0902  0.0315 -2.6680
 7650SOL     OW34585   0.165   2.249   2.246  0.5340 -0.4341  0.5137
 7650SOL    HW134586   0.185   2.243   2.152 -0.6457  1.7048  0.1046
 7650SOL    HW234587   0.251   2.224   2.278  0.3772 -2.0777 -0.3282
 7651SOL     OW34588   0.331   3.392   9.169 -0.2152  0.3959 -0.0458
 7651SOL    HW134589   0.333   3.480   9.206 -1.9182  0.4476 -0.0722
 7651SOL    HW234590   0.397   3.340   9.216 -3.4003 -1.1714  2.7367
 7652SOL     OW34591   1.733   3.103   8.320  0.2154  0.3201 -0.0928
 7652SOL    HW134592   1.728   3.073   8.411 -0.1210 -1.3466 -0.6661
 7652SOL    HW234593   1.647   3.144   8.306  0.1696  0.8117  1.6081
 7653SOL     OW34594   1.557   4.165   5.196 -0.6962  0.1691  0.0220
 7653SOL    HW134595   1.491   4.218   5.242 -0.5369  0.1776  0.2412
 7653SOL    HW234596   1.592   4.221   5.126  0.1837 -0.0635  0.2773
 7654SOL     OW34597   1.104   1.470   2.216  0.2893 -0.2931 -0.3036
 7654SOL    HW134598   1.054   1.449   2.295  0.0881 -5.1244 -1.7182
 7654SOL    HW234599   1.128   1.381   2.191 -2.0991 -0.8651 -0.5652
 7655SOL     OW34600   1.082   2.187   3.799  0.2406 -0.0440  0.1531
 7655SOL    HW134601   1.138   2.139   3.861  1.3388  0.5715 -0.3476
 7655SOL    HW234602   1.041   2.259   3.846  0.1757  0.2089 -0.2910
 7656SOL     OW34603   1.821   0.530   1.058  0.2453  0.0410 -0.2415
 7656SOL    HW134604   1.876   0.492   0.990 -0.7094 -0.0530 -0.9526
 7656SOL    HW234605   1.750   0.548   0.996 -0.7377 -2.8190  0.0444
 7657SOL     OW34606   0.710   1.576  17.360  0.7849 -0.0409 -0.3943
 7657SOL    HW134607   0.767   1.499  17.347  0.6230 -0.2985  0.3854
 7657SOL    HW234608   0.632   1.549  17.311 -0.8038  1.5238  1.2904
 7658SOL     OW34609   1.574   1.288   6.123  0.1544  0.0580  0.2604
 7658SOL    HW134610   1.567   1.201   6.085 -1.0955  0.7243 -1.0332
 7658SOL    HW234611   1.577   1.259   6.214 -2.0464 -1.1011 -0.0376
 7659SOL     OW34612   1.493   4.005  10.840  0.8031  0.0969 -0.0801
 7659SOL    HW134613   1.517   3.919  10.808 -0.1938 -0.3372  0.3389
 7659SOL    HW234614   1.488   4.051  10.756  1.3028 -2.0625 -1.2937
 7660SOL     OW34615   1.222   0.037  12.727  0.7246 -0.2483  0.4966
 7660SOL    HW134616   1.136   0.006  12.700  0.3311  3.3637 -2.4683
 7660SOL    HW234617   1.264   0.014  12.644  0.1480  1.7876 -0.3683
 7661SOL     OW34618   0.921   3.700  14.748  0.2367  0.1711 -0.0012
 7661SOL    HW134619   0.985   3.721  14.680  0.0933  3.0389  0.7399
 7661SOL    HW234620   0.979   3.710  14.824 -0.1495  1.0756  0.1762
 7662SOL     OW34621   4.680   4.060   8.090  0.0306 -0.4564 -0.6018
 7662SOL    HW134622   0.006   4.049   8.159  1.1552  1.9848 -1.2599
 7662SOL    HW234623   4.728   4.013   8.022  0.0102 -0.0832 -0.8712
 7663SOL     OW34624   4.268   1.898   5.066  0.3356 -0.4856  0.8869
 7663SOL    HW134625   4.184   1.853   5.062 -0.2299  0.4201  2.4007
 7663SOL    HW234626   4.260   1.954   5.144  2.6433 -0.7463  1.3304
 7664SOL     OW34627   3.229   3.172   2.972  0.9746  0.5892 -0.3682
 7664SOL    HW134628   3.150   3.227   2.978  1.4076  1.1085  0.6633
 7664SOL    HW234629   3.280   3.202   3.047  1.3899 -0.2785 -0.3120
 7665SOL     OW34630   3.673   3.261   2.946 -0.8700 -0.8213 -0.0033
 7665SOL    HW134631   3.683   3.334   2.886  0.7301 -1.0330  0.0102
 7665SOL    HW234632   3.735   3.279   3.017 -0.8995 -0.6751 -0.0163
 7666SOL     OW34633   0.781   1.932   3.363  0.3793 -0.0074  0.1769
 7666SOL    HW134634   0.866   1.903   3.329 -0.2035 -0.5672 -0.7900
 7666SOL    HW234635   0.727   1.853   3.364  1.4700 -0.8454 -3.9723
 7667SOL     OW34636   1.106   0.175  17.181 -0.2964  0.1730  0.0017
 7667SOL    HW134637   1.190   0.181  17.136 -0.8676 -0.2279 -1.1204
 7667SOL    HW234638   1.092   0.081  17.179  1.6408 -0.1391  0.9867
 7668SOL     OW34639   4.475   1.123   6.880  0.2571  0.7453 -0.0122
 7668SOL    HW134640   4.557   1.117   6.930 -0.3285 -0.1288  0.8580
 7668SOL    HW234641   4.498   1.077   6.800 -0.1524  1.3819 -0.4878
 7669SOL     OW34642   2.061   0.380   0.998 -0.4431 -0.1269  0.1606
 7669SOL    HW134643   2.059   0.390   1.093  2.1784  0.5332  0.1497
 7669SOL    HW234644   2.065   0.287   0.978 -0.2788 -0.2624  0.8247
 7670SOL     OW34645   3.852   1.364   0.819 -0.3482 -0.0145 -0.3483
 7670SOL    HW134646   3.922   1.400   0.765  0.2924  2.8476  2.4082
 7670SOL    HW234647   3.889   1.283   0.855  0.2693  0.4570  0.0848
 7671SOL     OW34648   3.651   4.430   8.027 -0.2631  0.0982  0.6632
 7671SOL    HW134649   3.709   4.374   7.974 -0.1910  0.8794 -0.0797
 7671SOL    HW234650   3.720   4.483   8.066  0.1018 -0.1231  0.3240
 7672SOL     OW34651   1.821   3.533   7.182  0.1251 -0.1012 -0.4423
 7672SOL    HW134652   1.863   3.448   7.186  1.2383  0.5308  1.1802
 7672SOL    HW234653   1.757   3.512   7.114 -1.0328  1.7657  0.0489
 7673SOL     OW34654   1.212   0.288   1.943  0.2703  0.6642 -0.2252
 7673SOL    HW134655   1.210   0.337   2.026  2.0347 -0.8323  0.7252
 7673SOL    HW234656   1.185   0.199   1.965  2.2890  1.0645  3.9585
 7674SOL     OW34657   2.315   4.518   3.729  0.4611  0.1780 -0.1769
 7674SOL    HW134658   2.318   4.473   3.645  2.4771 -1.8421  0.9795
 7674SOL    HW234659   2.399   4.496   3.770 -0.9415 -0.4808  2.3664
 7675SOL     OW34660   1.793   2.642   6.502  0.0645 -0.0181 -0.1698
 7675SOL    HW134661   1.772   2.700   6.575  1.5542 -1.5054  1.4417
 7675SOL    HW234662   1.888   2.649   6.497  0.0210  2.2578  2.3698
 7676SOL     OW34663   3.340   4.655   1.271 -0.4427 -0.2403  0.1586
 7676SOL    HW134664   3.402   4.585   1.293 -0.5160 -0.0991  0.8231
 7676SOL    HW234665   3.400   4.730   1.275 -3.3098  2.0721  0.0726
 7677SOL     OW34666   3.259   4.633  14.842  0.1697 -0.6104 -0.2274
 7677SOL    HW134667   3.349   4.603  14.827  0.1805 -1.1130  0.8934
 7677SOL    HW234668   3.254   4.717  14.796  0.9021  0.9142  2.4945
 7678SOL     OW34669   0.582   0.181   2.227  0.4989  0.0161 -0.0531
 7678SOL    HW134670   0.665   0.179   2.180 -0.3658  2.6523 -1.7100
 7678SOL    HW234671   0.558   0.271   2.207 -1.5773 -0.6590 -0.6552
 7679SOL     OW34672   1.902   3.889  11.807  0.3251  0.7397  0.4578
 7679SOL    HW134673   1.891   3.799  11.837 -0.3947  1.1026  1.2849
 7679SOL    HW234674   1.943   3.928  11.884  3.1211 -0.6422 -0.3616
 7680SOL     OW34675   3.955   1.845   3.429  0.8426 -0.3253  0.6292
 7680SOL    HW134676   3.939   1.769   3.485 -3.0393  0.2034  0.2840
 7680SOL    HW234677   4.019   1.806   3.370  0.2700 -0.2236 -0.0554
 7681SOL     OW34678   3.719   1.652  10.178  0.0522 -0.5992  0.2942
 7681SOL    HW134679   3.760   1.567  10.194  1.3576 -0.0453 -0.1009
 7681SOL    HW234680   3.631   1.615  10.179 -0.7096  1.2700  2.1859
 7682SOL     OW34681   2.589   4.209   8.744  0.3066  0.3549 -0.0461
 7682SOL    HW134682   2.673   4.192   8.701  0.4264 -1.3765  0.8564
 7682SOL    HW234683   2.540   4.216   8.662  0.1928 -0.2016 -0.0296
 7683SOL     OW34684   3.216   4.000  13.109 -0.1241  0.0913  0.2130
 7683SOL    HW134685   3.149   4.045  13.161  0.7717  1.5187  0.1350
 7683SOL    HW234686   3.292   4.058  13.104 -0.1534  0.1145  0.0405
 7684SOL     OW34687   1.632   2.205   2.772  0.0622 -0.3362 -0.9297
 7684SOL    HW134688   1.626   2.296   2.799  0.6854 -1.0893  1.7487
 7684SOL    HW234689   1.564   2.214   2.705 -1.3324 -1.8551  0.2695
 7685SOL     OW34690   2.819   0.326   6.938 -0.1011 -0.5593  0.5274
 7685SOL    HW134691   2.788   0.240   6.913  0.4750 -0.7291  0.3952
 7685SOL    HW234692   2.909   0.304   6.962  0.3367 -0.2435 -0.8017
 7686SOL     OW34693   2.236   0.509   5.583  0.3526 -0.4222 -0.4044
 7686SOL    HW134694   2.148   0.505   5.619  0.1433 -0.3543 -0.9045
 7686SOL    HW234695   2.258   0.600   5.605 -0.2715 -0.5430  0.7236
 7687SOL     OW34696   4.355   3.899  10.171  0.1514  0.7208  0.1613
 7687SOL    HW134697   4.337   3.943  10.254 -0.2163 -0.3597  0.6589
 7687SOL    HW234698   4.297   3.949  10.114  0.5919  0.7421 -0.2703
 7688SOL     OW34699   4.205   4.479   5.798  0.2498 -0.1082  0.2254
 7688SOL    HW134700   4.157   4.401   5.769 -1.2989  1.0910 -0.4197
 7688SOL    HW234701   4.271   4.431   5.848 -0.0786 -0.6800  0.1216
 7689SOL     OW34702   4.038   0.458  10.777 -0.2853 -0.2064 -0.1367
 7689SOL    HW134703   4.003   0.457  10.866  2.5156  2.0920  0.9780
 7689SOL    HW234704   4.040   0.552  10.758 -1.6006  0.1940  1.7237
 7690SOL     OW34705   2.645   3.337   6.318 -0.1956 -0.2908 -0.8396
 7690SOL    HW134706   2.673   3.245   6.323 -0.7628 -0.3646  1.2632
 7690SOL    HW234707   2.733   3.372   6.309 -0.0798  0.0738  1.6758
 7691SOL     OW34708   1.325   0.400   3.431  0.3173 -0.5956 -0.5322
 7691SOL    HW134709   1.318   0.442   3.517 -1.1915 -0.0548 -0.9194
 7691SOL    HW234710   1.250   0.447   3.394  1.4980  0.0945 -2.0373
 7692SOL     OW34711   1.580   1.818  12.914 -0.2927  0.1672  0.1487
 7692SOL    HW134712   1.635   1.833  12.837 -0.6592 -0.4958 -0.2491
 7692SOL    HW234713   1.592   1.725  12.933 -1.1966 -0.5277 -2.7113
 7693SOL     OW34714   4.292   3.332   9.598 -0.5256  0.0162  0.1794
 7693SOL    HW134715   4.340   3.267   9.649 -1.5527 -1.7361 -1.0698
 7693SOL    HW234716   4.225   3.370   9.655 -0.3577 -1.4058  1.3083
 7694SOL     OW34717   1.746   2.917   8.106  0.1500  0.0885 -0.6004
 7694SOL    HW134718   1.780   2.969   8.178 -0.4885 -1.6279  0.9392
 7694SOL    HW234719   1.824   2.881   8.064  1.1980 -0.6836  2.0232
 7695SOL     OW34720   3.719   0.137  15.913 -0.1006 -0.2433  0.7423
 7695SOL    HW134721   3.759   0.171  15.833  1.2743 -2.9497  0.2811
 7695SOL    HW234722   3.666   0.065  15.878 -0.1247  1.2910 -2.3624
 7696SOL     OW34723   1.649   2.962   7.827 -0.2800  0.0926  0.2591
 7696SOL    HW134724   1.660   2.972   7.921  1.5536  0.4134  0.0017
 7696SOL    HW234725   1.589   2.887   7.833  1.0227 -0.8439  1.3402
 7697SOL     OW34726   1.807   3.693   4.961 -0.5641  0.1699 -0.4876
 7697SOL    HW134727   1.740   3.641   4.917 -0.4697 -0.5406  0.2047
 7697SOL    HW234728   1.777   3.668   5.048 -0.5511 -0.6210 -0.7108
 7698SOL     OW34729   0.635   3.126   4.119 -0.2575 -0.7410  0.3819
 7698SOL    HW134730   0.618   3.076   4.040  1.7072 -0.2395 -0.3472
 7698SOL    HW234731   0.707   3.075   4.156  0.0812 -0.1094  0.6055
 7699SOL     OW34732   0.821   2.549  16.135 -0.2843 -0.4064  0.1179
 7699SOL    HW134733   0.888   2.578  16.197  1.1643  0.0984 -1.6915
 7699SOL    HW234734   0.738   2.584  16.168 -0.1775  1.8040 -1.9374
 7700SOL     OW34735   3.907   2.092   8.592 -0.4606 -0.3730  0.0469
 7700SOL    HW134736   3.839   2.131   8.647  0.5577 -1.0632  1.7972
 7700SOL    HW234737   3.873   2.003   8.581  4.3492 -2.0023 -1.7703
 7701SOL     OW34738   1.543   3.283   8.942 -0.3133 -0.0795  0.1793
 7701SOL    HW134739   1.506   3.238   9.018 -1.7278  0.5062 -0.1518
 7701SOL    HW234740   1.633   3.302   8.969  1.0462 -2.3874 -2.7355
 7702SOL     OW34741   2.206   1.667   8.001  0.0062 -0.4121  0.8393
 7702SOL    HW134742   2.157   1.648   8.081  2.1918  2.1418  2.7932
 7702SOL    HW234743   2.283   1.713   8.035  0.3092 -0.3385  0.0552
 7703SOL     OW34744   4.051   3.616   3.298  0.0549  0.2894 -0.2565
 7703SOL    HW134745   4.060   3.710   3.283 -1.1428  0.3316 -0.6849
 7703SOL    HW234746   4.122   3.612   3.363 -0.1484  2.4181  0.1050
 7704SOL     OW34747   1.928   0.330   6.348  0.2088 -0.1325 -0.2539
 7704SOL    HW134748   2.004   0.300   6.299 -1.4854 -1.8956 -1.8023
 7704SOL    HW234749   1.913   0.420   6.319 -0.4883  0.8837  3.2459
 7705SOL     OW34750   0.958   4.161   9.846 -0.0514 -0.5936 -0.1317
 7705SOL    HW134751   1.041   4.146   9.802 -0.5537 -1.9930 -0.6018
 7705SOL    HW234752   0.955   4.087   9.907  1.8199 -1.2940 -0.9086
 7706SOL     OW34753   3.196   1.931  10.491  0.0554  0.4148 -0.0920
 7706SOL    HW134754   3.126   1.889  10.542  0.0515 -1.0055 -1.2593
 7706SOL    HW234755   3.275   1.884  10.518  1.4395  1.6616 -2.0047
 7707SOL     OW34756   3.499   0.108  12.640  0.6494  0.3402 -0.2642
 7707SOL    HW134757   3.564   0.140  12.703 -0.9781  1.4691  0.8390
 7707SOL    HW234758   3.489   0.186  12.586  0.6072  1.3923  1.2539
 7708SOL     OW34759   4.035   1.724   2.304  0.1571 -0.5468  0.5071
 7708SOL    HW134760   4.048   1.724   2.210 -1.9117  1.1897  0.2271
 7708SOL    HW234761   3.959   1.668   2.315  1.8231 -2.7676  0.7408
 7709SOL     OW34762   0.017   2.348  13.721 -0.6878  0.4389  0.2648
 7709SOL    HW134763   0.035   2.441  13.711 -0.4844  0.2020 -1.6266
 7709SOL    HW234764   4.721   2.330  13.634  1.4930 -2.6646  0.0285
 7710SOL     OW34765   1.074   2.424   4.122  0.0848 -0.1814  0.5258
 7710SOL    HW134766   1.116   2.486   4.063  0.6432 -0.5472  0.5362
 7710SOL    HW234767   1.008   2.381   4.068 -0.8508  0.4062  1.2096
 7711SOL     OW34768   4.197   1.660  10.337 -0.5402  0.3257 -0.0050
 7711SOL    HW134769   4.141   1.738  10.330  0.4458  1.2270  2.2174
 7711SOL    HW234770   4.242   1.674  10.420 -1.5833 -0.6096  0.7084
 7712SOL     OW34771   2.512   0.505   5.516  0.4389 -0.1267 -0.1940
 7712SOL    HW134772   2.512   0.519   5.421 -0.8509 -1.8325 -0.4552
 7712SOL    HW234773   2.419   0.494   5.535  0.3474 -3.5651 -2.5152
 7713SOL     OW34774   3.468   2.704   9.792  0.0588  0.0756  0.3895
 7713SOL    HW134775   3.383   2.665   9.770  0.3303 -0.1851 -0.2040
 7713SOL    HW234776   3.455   2.798   9.792 -0.5467 -0.0090  0.4073
 7714SOL     OW34777   4.312   3.363   8.918 -0.5317 -0.0058  0.1723
 7714SOL    HW134778   4.250   3.311   8.867  1.9191  0.2587 -3.1211
 7714SOL    HW234779   4.327   3.311   8.997  0.6962 -1.6107 -1.1327
 7715SOL     OW34780   0.612   3.513  12.786  0.5227 -0.1387  0.4585
 7715SOL    HW134781   0.594   3.422  12.764  0.3945  0.2978 -1.1810
 7715SOL    HW234782   0.707   3.518  12.801  0.0695 -0.0761  3.3264
 7716SOL     OW34783   1.223   4.693   2.362  0.0267  0.1415  0.2476
 7716SOL    HW134784   1.297   4.634   2.350  0.0387  0.5448 -1.7525
 7716SOL    HW234785   1.149   4.633   2.364  0.2044 -0.1246 -1.2458
 7717SOL     OW34786   3.112   2.590   2.878  0.1835 -0.4750  0.7554
 7717SOL    HW134787   3.022   2.612   2.902  0.9998  1.9939  1.4752
 7717SOL    HW234788   3.158   2.637   2.948  0.5184 -0.3622  0.4602
 7718SOL     OW34789   4.188   0.945   6.312  0.9001  0.7090 -0.0094
 7718SOL    HW134790   4.200   1.039   6.322  0.5385  0.8034 -0.4247
 7718SOL    HW234791   4.210   0.935   6.219  0.5666  1.1137 -0.1368
 7719SOL     OW34792   1.005   4.112   7.600 -0.2077  0.1771  0.1979
 7719SOL    HW134793   0.957   4.047   7.548 -0.9882  1.2970 -0.4610
 7719SOL    HW234794   0.976   4.104   7.691 -2.4401  2.2718 -0.3348
 7720SOL     OW34795   2.576   1.980  10.860 -0.0495  0.5592  0.2687
 7720SOL    HW134796   2.591   1.887  10.872  0.4107  0.6234  0.1927
 7720SOL    HW234797   2.662   2.001  10.823  0.3761 -1.5314  0.0695
 7721SOL     OW34798   1.811   3.938  13.267  0.5933  0.3355 -0.2405
 7721SOL    HW134799   1.771   3.962  13.350 -1.0291  0.0116 -0.9145
 7721SOL    HW234800   1.747   3.982  13.210  0.1131 -0.6793 -0.4851
 7722SOL     OW34801   4.206   4.227   5.120 -0.2116  0.7465 -0.2878
 7722SOL    HW134802   4.210   4.275   5.037 -1.0712 -1.5941 -1.6849
 7722SOL    HW234803   4.267   4.278   5.174 -0.0937  0.7410 -0.4155
 7723SOL     OW34804   4.626   0.323   1.502 -0.3894  0.2158 -0.1738
 7723SOL    HW134805   4.649   0.240   1.459  1.0527  0.1644  0.6961
 7723SOL    HW234806   4.566   0.290   1.568 -1.3633  0.3252 -0.9935
 7724SOL     OW34807   0.138   4.034  16.989 -0.1145 -0.4686 -0.6149
 7724SOL    HW134808   0.111   3.964  16.930  0.3174 -1.3281  0.2168
 7724SOL    HW234809   0.202   3.983  17.038 -0.7639  0.1450  0.8470
 7725SOL     OW34810   1.538   1.806   7.021 -0.4681 -0.5341 -0.5301
 7725SOL    HW134811   1.501   1.794   7.108  1.0620 -1.2145  0.0285
 7725SOL    HW234812   1.519   1.898   7.000  0.8645 -0.7207 -2.5297
 7726SOL     OW34813   0.236   0.772  11.974  0.1734  0.0087 -0.4072
 7726SOL    HW134814   0.166   0.785  12.039  0.4174  1.1685 -0.3670
 7726SOL    HW234815   0.210   0.688  11.938 -1.2620  1.3751 -2.5182
 7727SOL     OW34816   1.905   3.862   2.792 -0.2682  0.6104  0.4480
 7727SOL    HW134817   1.925   3.804   2.865 -1.5058  0.7156  0.8674
 7727SOL    HW234818   1.955   3.827   2.718  0.1715 -2.6033  2.3091
 7728SOL     OW34819   1.270   3.837   8.039 -0.1633 -0.7048  0.3673
 7728SOL    HW134820   1.364   3.852   8.027 -0.4857  1.0194 -0.0787
 7728SOL    HW234821   1.256   3.749   8.004 -1.3417 -0.0551 -0.8202
 7729SOL     OW34822   2.811   2.480   5.616 -0.2992 -0.3401 -0.4341
 7729SOL    HW134823   2.891   2.449   5.575 -1.1032 -4.4364  1.0538
 7729SOL    HW234824   2.740   2.455   5.556 -0.7130  0.0758 -0.1223
 7730SOL     OW34825   2.327   3.790   9.101  0.1162  0.0165 -0.3529
 7730SOL    HW134826   2.357   3.719   9.158 -0.4730  0.6108  0.7003
 7730SOL    HW234827   2.256   3.745   9.056 -0.7184 -0.5758  1.6052
 7731SOL     OW34828   1.477   4.522  14.242  0.1587  0.7279 -0.1327
 7731SOL    HW134829   1.423   4.545  14.318  1.3669  0.8967  0.6798
 7731SOL    HW234830   1.517   4.439  14.265 -0.8692  0.7783  1.8712
 7732SOL     OW34831   3.105   3.311   8.617  0.0038  0.4113  0.3255
 7732SOL    HW134832   3.028   3.362   8.591  0.2239  0.6338  0.1090
 7732SOL    HW234833   3.061   3.240   8.664 -1.1358  0.0116 -1.3150
 7733SOL     OW34834   0.662   3.704   2.740 -0.7182  0.0700  0.1115
 7733SOL    HW134835   0.686   3.797   2.739  0.7354 -0.2713  2.4036
 7733SOL    HW234836   0.727   3.677   2.804  1.2239 -1.1352 -2.3800
 7734SOL     OW34837   0.804   4.322  17.360  0.1510 -0.1360  0.0581
 7734SOL    HW134838   0.770   4.239  17.327  1.6313 -0.2937 -1.0926
 7734SOL    HW234839   0.817   4.371  17.279 -0.5185 -1.1729 -0.6900
 7735SOL     OW34840   3.020   0.847   8.597  0.0137  0.3742 -0.0963
 7735SOL    HW134841   2.931   0.812   8.599  0.9497 -1.8820  1.1753
 7735SOL    HW234842   2.999   0.938   8.575  1.0129  0.7537  0.5509
 7736SOL     OW34843   1.532   3.891   7.848  0.3683 -0.4393 -0.4331
 7736SOL    HW134844   1.545   3.893   7.753  0.5946  0.5507 -0.3761
 7736SOL    HW234845   1.579   3.812   7.875  0.5324 -0.1920  0.0046
 7737SOL     OW34846   4.130   3.369   7.141 -0.3831  0.2341 -0.7142
 7737SOL    HW134847   4.089   3.428   7.078 -0.8902  0.5515 -0.0855
 7737SOL    HW234848   4.140   3.422   7.220 -1.0591 -1.9873  0.8646
 7738SOL     OW34849   3.499   3.756   4.259  0.1856  0.7305  0.0997
 7738SOL    HW134850   3.492   3.850   4.242  0.3429  0.8886  0.8625
 7738SOL    HW234851   3.412   3.725   4.234 -0.3625  0.0591  2.8215
 7739SOL     OW34852   2.347   0.050   7.298 -0.0831 -0.4577  0.6734
 7739SOL    HW134853   2.388   4.723   7.240  2.5683  1.3194  0.5593
 7739SOL    HW234854   2.261   0.054   7.256  0.8101  1.4037 -0.9082
 7740SOL     OW34855   2.945   4.097   5.154  0.0504  0.4136 -0.4081
 7740SOL    HW134856   2.968   4.064   5.241  0.5614  1.0569 -0.3002
 7740SOL    HW234857   3.026   4.062   5.118  1.8416  1.4449  2.6104
 7741SOL     OW34858   0.378   2.382  11.569 -0.3806 -0.2616 -0.2130
 7741SOL    HW134859   0.339   2.347  11.649  0.9455 -0.4368  0.3434
 7741SOL    HW234860   0.457   2.328  11.570 -0.3598 -0.2385 -0.6240
 7742SOL     OW34861   0.955   1.558   5.821 -0.1333 -0.2966 -0.1868
 7742SOL    HW134862   0.983   1.604   5.741 -2.1928 -1.0212 -1.3055
 7742SOL    HW234863   1.033   1.564   5.877  0.8002 -0.7199 -1.4276
 7743SOL     OW34864   3.118   3.259   6.366  0.1016  0.1249 -0.1775
 7743SOL    HW134865   3.205   3.229   6.340 -0.6147 -2.1176  0.0168
 7743SOL    HW234866   3.072   3.175   6.370 -1.4691  1.0170  0.8613
 7744SOL     OW34867   0.223   1.848  16.841 -0.1153 -0.0142  0.6514
 7744SOL    HW134868   0.315   1.825  16.827 -0.0047 -0.0464  1.4339
 7744SOL    HW234869   0.176   1.807  16.769  1.9694 -1.0440 -0.1489
 7745SOL     OW34870   1.611   3.957  14.277 -0.8216 -0.0593 -0.3385
 7745SOL    HW134871   1.603   4.015  14.201  1.3095  0.7455  0.0709
 7745SOL    HW234872   1.521   3.925  14.286 -0.8909  0.5716  1.2541
 7746SOL     OW34873   2.071   4.710   3.214 -0.8005  0.0759  0.0279
 7746SOL    HW134874   2.056   4.618   3.195 -1.0877  0.6206 -2.2770
 7746SOL    HW234875   2.116   4.714   3.299  1.2838  2.2072 -1.1560
 7747SOL     OW34876   1.991   3.290   3.552 -1.0690  0.0823 -0.0832
 7747SOL    HW134877   1.993   3.197   3.572 -1.7307 -0.0273 -0.5339
 7747SOL    HW234878   2.000   3.334   3.636  0.9134 -0.8489  0.1867
 7748SOL     OW34879   2.783   0.194   7.564 -0.0619 -0.0644 -0.1652
 7748SOL    HW134880   2.830   0.179   7.646  0.2946 -0.0128 -0.3605
 7748SOL    HW234881   2.744   0.111   7.538  0.8709 -0.3715 -0.5536
 7749SOL     OW34882   4.508   3.755   6.007  0.0664 -0.1977  0.6688
 7749SOL    HW134883   4.555   3.674   6.027 -1.4352 -1.4145 -0.7341
 7749SOL    HW234884   4.582   3.794   5.960 -0.9645 -0.9679 -1.5813
 7750SOL     OW34885   0.932   2.847   6.000 -0.3707 -0.5704  0.3914
 7750SOL    HW134886   0.848   2.813   6.029 -0.3809  0.7948  1.9318
 7750SOL    HW234887   0.972   2.874   6.082  1.4453 -0.3646 -0.5462
 7751SOL     OW34888   0.710   2.069  10.701  0.2110 -0.2305  0.6960
 7751SOL    HW134889   0.671   2.142  10.653  0.9166  0.4407  1.1459
 7751SOL    HW234890   0.658   1.992  10.679  0.5044 -0.7292  1.7143
 7752SOL     OW34891   4.144   4.559   7.901 -0.0804  0.0322 -0.2953
 7752SOL    HW134892   4.082   4.617   7.945  0.8435  0.1990  0.7831
 7752SOL    HW234893   4.150   4.481   7.956 -0.4794 -0.1920 -0.5742
 7753SOL     OW34894   2.823   0.262  15.567 -0.0744 -0.3630  0.4071
 7753SOL    HW134895   2.855   0.251  15.478 -3.2738 -2.0948 -0.5652
 7753SOL    HW234896   2.732   0.231  15.568  0.3215 -1.6004 -1.0202
 7754SOL     OW34897   2.851   0.903   6.686  0.6596  0.0281  0.1442
 7754SOL    HW134898   2.762   0.872   6.671  1.1049 -0.6066 -1.1440
 7754SOL    HW234899   2.894   0.818   6.698 -1.0130 -0.9236 -0.7359
 7755SOL     OW34900   0.591   2.042   2.926  0.0763 -0.0835  0.2491
 7755SOL    HW134901   0.532   2.066   2.855 -0.7774 -2.9075  0.0190
 7755SOL    HW234902   0.645   2.121   2.933 -0.9167  0.8939 -3.5259
 7756SOL     OW34903   2.557   2.666   2.906 -0.2002  0.7586 -0.0085
 7756SOL    HW134904   2.523   2.688   2.993  0.1333  2.1385 -0.2422
 7756SOL    HW234905   2.508   2.586   2.884  0.3333  0.4654 -0.1284
 7757SOL     OW34906   0.600   3.969   5.655 -0.1543  0.5248 -0.2826
 7757SOL    HW134907   0.609   3.914   5.732 -1.5195  0.5029 -0.1453
 7757SOL    HW234908   0.690   3.960   5.624 -0.2767 -2.1027  0.1486
 7758SOL     OW34909   4.315   2.964   4.389  0.1878 -0.0833 -0.2402
 7758SOL    HW134910   4.408   2.974   4.369 -0.0243  1.1412 -0.6054
 7758SOL    HW234911   4.275   2.983   4.304  0.5932 -0.0184 -0.4137
 7759SOL     OW34912   4.387   3.099  15.605 -0.4039 -0.3702  0.2453
 7759SOL    HW134913   4.423   3.053  15.529 -1.5101  1.7050 -1.5198
 7759SOL    HW234914   4.296   3.070  15.601 -0.4457 -0.2226  0.1325
 7760SOL     OW34915   3.249   0.584  13.678 -0.3451  0.4340  0.8769
 7760SOL    HW134916   3.243   0.542  13.593  1.5821  0.1631  0.8814
 7760SOL    HW234917   3.327   0.636  13.656 -0.1129  0.0615  0.8224
 7761SOL     OW34918   2.630   3.280   5.479  0.5083 -0.0283 -0.2562
 7761SOL    HW134919   2.565   3.232   5.531 -0.7148  0.0786 -1.7095
 7761SOL    HW234920   2.686   3.286   5.557  1.8862 -0.5341 -1.1992
 7762SOL     OW34921   0.739   0.723   3.034  0.2324 -0.1495 -0.3748
 7762SOL    HW134922   0.686   0.677   2.969  2.7999 -2.6612 -0.6573
 7762SOL    HW234923   0.776   0.643   3.071  1.1033 -0.0795 -1.0939
 7763SOL     OW34924   3.919   1.287   6.048  0.6716  0.0249  0.0482
 7763SOL    HW134925   3.864   1.354   6.005  1.5177  1.1377  0.7068
 7763SOL    HW234926   3.999   1.298   5.997  0.1889 -1.1702 -0.9812
 7764SOL     OW34927   3.191   0.752   3.242 -0.5590 -0.2101 -0.2145
 7764SOL    HW134928   3.257   0.792   3.298 -0.0302  0.7304 -1.4932
 7764SOL    HW234929   3.210   0.805   3.164 -0.5786  1.5876  1.0162
 7765SOL     OW34930   2.779   0.406  13.479 -0.1085  0.5691 -0.0780
 7765SOL    HW134931   2.773   0.445  13.567  0.1746 -2.9238  1.4980
 7765SOL    HW234932   2.812   0.475  13.422 -0.4400 -0.1605 -1.1499
 7766SOL     OW34933   0.710   1.157   4.018  0.1857 -0.2650  0.2460
 7766SOL    HW134934   0.623   1.177   3.982  0.2488  0.1958  0.3499
 7766SOL    HW234935   0.700   1.064   4.039  1.2227 -0.4993 -0.3246
 7767SOL     OW34936   0.037   0.654   3.506 -0.0500 -0.1970  0.1238
 7767SOL    HW134937   0.094   0.654   3.584  0.2660 -0.5918 -0.1118
 7767SOL    HW234938   0.001   0.743   3.508 -0.6377 -0.4371  0.0204
 7768SOL     OW34939   4.483   0.348   3.724  0.6811  0.0573 -0.4053
 7768SOL    HW134940   4.557   0.293   3.749 -0.2637 -0.3118  1.5168
 7768SOL    HW234941   4.523   0.391   3.648 -0.2868 -1.6346 -1.8437
 7769SOL     OW34942   2.107   1.903   9.081 -0.0344 -0.4000 -0.6312
 7769SOL    HW134943   2.018   1.874   9.103 -0.0191 -0.6963 -0.9681
 7769SOL    HW234944   2.155   1.833   9.035 -1.1685 -0.4052 -1.8067
 7770SOL     OW34945   1.000   1.972  11.173 -0.5114  0.3652 -0.2432
 7770SOL    HW134946   0.979   1.945  11.262  1.7094 -0.8294 -0.0671
 7770SOL    HW234947   1.094   1.982  11.190 -0.5559 -0.0194  0.2486
 7771SOL     OW34948   1.125   4.498  11.309 -0.4693 -0.2188  0.5342
 7771SOL    HW134949   1.066   4.466  11.377 -0.4101  0.6615  0.9983
 7771SOL    HW234950   1.178   4.558  11.361 -1.2730  1.5265 -0.6612
 7772SOL     OW34951   2.940   4.527   4.004  0.0061  0.0184  0.2202
 7772SOL    HW134952   2.991   4.570   4.072  1.1355 -0.3749 -0.3832
 7772SOL    HW234953   2.973   4.437   3.996 -1.1107 -0.4625  0.9545
 7773SOL     OW34954   4.257   1.233   6.348 -0.2422 -0.0106  0.2758
 7773SOL    HW134955   4.188   1.285   6.307  1.1509  2.4764  1.0925
 7773SOL    HW234956   4.338   1.269   6.311  0.5006 -2.3025 -0.3365
 7774SOL     OW34957   1.252   0.404   8.256  0.1810  0.2960 -0.1501
 7774SOL    HW134958   1.219   0.372   8.340 -1.0615  0.9240 -0.3991
 7774SOL    HW234959   1.210   0.489   8.244  1.8268  1.0454 -0.5763
 7775SOL     OW34960   4.180   1.415   2.328 -0.0362  0.3088  0.0079
 7775SOL    HW134961   4.154   1.405   2.420 -2.3166 -0.4279 -0.7045
 7775SOL    HW234962   4.093   1.422   2.288  0.6798 -1.2536 -1.8076
 7776SOL     OW34963   2.410   1.983   8.950 -0.3315 -0.2788 -0.2133
 7776SOL    HW134964   2.362   1.988   8.867 -0.6668  1.0915  0.0539
 7776SOL    HW234965   2.493   1.957   8.908 -0.6590 -1.9875  0.2160
 7777SOL     OW34966   0.440   2.972   4.331 -0.0989  0.2167 -0.1272
 7777SOL    HW134967   0.468   2.886   4.300  2.7317  0.2522  2.3570
 7777SOL    HW234968   0.480   3.033   4.269 -0.7071  0.1869 -0.5564
 7778SOL     OW34969   3.097   3.236   7.931 -0.2188  0.3715 -0.4411
 7778SOL    HW134970   3.142   3.228   8.015 -0.7573  1.4084 -0.0456
 7778SOL    HW234971   3.148   3.174   7.878 -0.7599 -1.2014  0.8757
 7779SOL     OW34972   2.012   2.444   4.176 -0.0944 -0.3211 -0.9388
 7779SOL    HW134973   2.102   2.465   4.203  0.2206 -1.3571 -1.1731
 7779SOL    HW234974   2.028   2.435   4.082  0.2378  0.8211 -1.0023
 7780SOL     OW34975   3.163   2.195  14.444 -0.3563 -0.0271  0.0300
 7780SOL    HW134976   3.217   2.228  14.372 -0.4220  1.2169  0.5528
 7780SOL    HW234977   3.145   2.105  14.418 -2.3904  0.8644 -1.6954
 7781SOL     OW34978   0.402   2.180   2.784  0.0721 -0.0972  0.5424
 7781SOL    HW134979   0.442   2.221   2.708  0.1675 -0.4669  0.3945
 7781SOL    HW234980   0.396   2.251   2.849 -0.4504  0.2280  0.1397
 7782SOL     OW34981   4.323   2.473   6.373  0.7824  0.0661 -0.0883
 7782SOL    HW134982   4.333   2.492   6.466 -1.9323  1.5065 -0.0907
 7782SOL    HW234983   4.402   2.425   6.346  1.3335  0.9715 -0.0671
 7783SOL     OW34984   0.068   1.675   1.398  0.5889 -0.3551 -0.3424
 7783SOL    HW134985   0.150   1.723   1.408  0.9977 -1.1175 -0.0344
 7783SOL    HW234986   0.079   1.636   1.311  1.4836  0.8381 -0.7669
 7784SOL     OW34987   4.221   4.449  10.544 -0.2598 -0.0283 -0.0987
 7784SOL    HW134988   4.266   4.467  10.462 -0.3414 -0.8130 -0.3140
 7784SOL    HW234989   4.190   4.537  10.566  0.9906 -0.1030  2.0246
 7785SOL     OW34990   3.886   2.462   7.406 -0.6655 -0.3144 -0.3306
 7785SOL    HW134991   3.815   2.512   7.366 -0.1739  1.3915  0.9641
 7785SOL    HW234992   3.957   2.497   7.352 -0.0141 -0.7238  0.2643
 7786SOL     OW34993   3.992   3.198   3.375 -0.3389 -0.0594 -0.7806
 7786SOL    HW134994   3.921   3.262   3.373 -0.5392 -0.0749  4.7798
 7786SOL    HW234995   4.064   3.260   3.384  0.6298 -1.1863 -0.6824
 7787SOL     OW34996   4.041   4.652   8.759  0.3111  0.0266 -0.2391
 7787SOL    HW134997   4.102   4.656   8.833 -1.8588 -0.8478  1.5859
 7787SOL    HW234998   4.012   4.562   8.771  1.2207 -0.2775 -0.2995
 7788SOL     OW34999   1.326   1.089   5.678  0.1924  0.2138  0.4350
 7788SOL    HW135000   1.403   1.037   5.701 -0.2111 -0.1443  0.9490
 7788SOL    HW235001   1.287   1.033   5.610  1.2667 -1.8438  1.5155
 7789SOL     OW35002   0.329   1.505   1.470 -0.3767 -0.5043 -0.4627
 7789SOL    HW135003   0.357   1.591   1.438  1.9350 -0.8906  0.5284
 7789SOL    HW235004   0.397   1.479   1.533 -1.1958  2.1487  1.5293
 7790SOL     OW35005   0.384   2.123   4.745  0.0684 -0.1379 -0.2332
 7790SOL    HW135006   0.300   2.168   4.748  0.0787 -0.1298 -0.0348
 7790SOL    HW235007   0.388   2.100   4.652 -0.0408 -0.2843 -0.2010
 7791SOL     OW35008   2.486   0.001   2.292 -0.4774 -0.7827  0.7798
 7791SOL    HW135009   2.540   0.012   2.214 -0.8881 -1.9298  0.3226
 7791SOL    HW235010   2.437   4.664   2.258 -0.5805  0.1130 -1.0411
 7792SOL     OW35011   2.234   2.598   9.690 -1.0280 -0.3960 -0.0422
 7792SOL    HW135012   2.160   2.577   9.747 -0.0500 -2.8661  0.3445
 7792SOL    HW235013   2.303   2.631   9.747  0.2902 -1.2630 -1.1173
 7793SOL     OW35014   1.808   4.125  10.520  0.5130  0.1460 -0.4783
 7793SOL    HW135015   1.831   4.033  10.511 -1.0212 -0.2661 -0.2087
 7793SOL    HW235016   1.815   4.162  10.432  1.8170 -0.3826 -0.6007
 7794SOL     OW35017   0.502   0.807   7.257  0.1962  0.5148 -0.2845
 7794SOL    HW135018   0.513   0.863   7.179  1.1086  3.0612  1.6734
 7794SOL    HW235019   0.504   0.720   7.216 -0.9033  0.6993 -0.7164
 7795SOL     OW35020   0.565   4.660   6.622 -0.3603 -0.1053 -0.5991
 7795SOL    HW135021   0.507   4.586   6.642  1.1304 -0.6661  1.6511
 7795SOL    HW235022   0.651   4.634   6.655  0.7797  2.5257 -1.4790
 7796SOL     OW35023   2.518   3.004  13.390 -0.4968 -1.0514 -0.1157
 7796SOL    HW135024   2.476   3.012  13.304 -0.5035 -0.1515 -0.0290
 7796SOL    HW235025   2.605   3.040  13.370 -0.8141 -0.9140 -1.2311
 7797SOL     OW35026   1.363   3.931  16.307 -0.2662  0.2223  0.5730
 7797SOL    HW135027   1.297   3.935  16.238 -0.1937 -1.6977  0.3874
 7797SOL    HW235028   1.317   3.983  16.372 -1.1004  0.8074 -0.4987
 7798SOL     OW35029   1.738   0.716   8.686  0.1830  0.0701 -0.2262
 7798SOL    HW135030   1.812   0.732   8.745 -1.2071 -0.8720  1.7652
 7798SOL    HW235031   1.761   0.772   8.612 -0.1568  1.0594  0.4280
 7799SOL     OW35032   3.337   1.298  12.526 -0.0314 -0.8988 -0.4775
 7799SOL    HW135033   3.261   1.276  12.579 -0.5489 -0.0450 -0.8624
 7799SOL    HW235034   3.395   1.317  12.599 -0.6099  0.9813 -0.5172
 7800SOL     OW35035   1.688   0.688   9.771  0.6714 -0.1413 -0.2125
 7800SOL    HW135036   1.757   0.744   9.736 -1.0076  1.3486 -1.1130
 7800SOL    HW235037   1.613   0.719   9.720  0.4700  0.0837  0.2128
 7801SOL     OW35038   0.708   4.001   5.022 -1.0315 -0.1295  0.8796
 7801SOL    HW135039   0.784   4.057   5.038  0.7646 -2.8884  2.0282
 7801SOL    HW235040   0.636   4.049   5.062 -0.1610  1.1755  0.8542
 7802SOL     OW35041   0.047   4.593   4.904  0.5643 -0.3828  0.4368
 7802SOL    HW135042   0.079   4.663   4.961 -0.1894  2.0869 -2.1581
 7802SOL    HW235043   0.116   4.588   4.838  0.3412  0.6541  0.1256
 7803SOL     OW35044   0.219   3.762   6.052 -0.4257  0.0144 -0.0212
 7803SOL    HW135045   0.237   3.796   6.140 -2.3302 -2.0102  1.1469
 7803SOL    HW235046   0.295   3.786   5.998 -0.0960  1.6007  1.1466
 7804SOL     OW35047   2.405   0.577   4.744 -0.2326  0.6106 -0.0265
 7804SOL    HW135048   2.323   0.529   4.732  0.8492 -1.2497 -0.0035
 7804SOL    HW235049   2.380   0.650   4.800 -0.6226 -0.7142  1.5109
 7805SOL     OW35050   0.864   2.695   4.680 -0.3445  0.4332  0.0954
 7805SOL    HW135051   0.910   2.655   4.753 -0.2210  0.3332 -0.0362
 7805SOL    HW235052   0.800   2.751   4.723 -1.1961 -1.1647  0.9021
 7806SOL     OW35053   3.382   1.650  12.731  0.4290  0.7642  0.6021
 7806SOL    HW135054   3.345   1.709  12.665  3.2816  0.7381 -1.0159
 7806SOL    HW235055   3.445   1.596  12.684  0.4734  0.3335  1.1585
 7807SOL     OW35056   4.421   4.090   2.543  0.3719  0.0316 -0.8213
 7807SOL    HW135057   4.461   4.005   2.522  1.1617  0.2753 -0.3047
 7807SOL    HW235058   4.328   4.070   2.541  0.8596 -2.2399 -1.3865
 7808SOL     OW35059   3.789   4.149   9.281  1.0416 -0.6628  0.2173
 7808SOL    HW135060   3.726   4.211   9.318  1.9404 -0.0769  0.7796
 7808SOL    HW235061   3.869   4.203   9.288 -0.2451  1.0746  1.5442
 7809SOL     OW35062   0.520   2.028  15.610 -0.2444 -0.2813 -0.6118
 7809SOL    HW135063   0.478   1.948  15.578  0.9079 -0.5288 -1.5156
 7809SOL    HW235064   0.544   2.069  15.527  1.1952  0.1366  0.0107
 7810SOL     OW35065   1.439   3.164   3.353  0.1566 -0.5115  0.0487
 7810SOL    HW135066   1.420   3.257   3.345 -0.0100 -0.6345 -1.0120
 7810SOL    HW235067   1.401   3.145   3.439  1.5018 -1.8399  0.3470
 7811SOL     OW35068   1.433   1.741   3.381 -0.3082  1.0014 -0.0255
 7811SOL    HW135069   1.517   1.758   3.339 -0.6238 -1.2833 -1.5675
 7811SOL    HW235070   1.368   1.742   3.311 -1.1280 -0.5803  0.7213
 7812SOL     OW35071   0.937   4.426   8.591  0.6072 -0.0737 -0.6848
 7812SOL    HW135072   0.960   4.475   8.670  0.5305 -0.2709 -0.5396
 7812SOL    HW235073   0.851   4.458   8.563  0.1483 -0.9935 -0.3642
 7813SOL     OW35074   0.876   4.167   5.134 -0.1455 -0.4161  0.1800
 7813SOL    HW135075   0.948   4.167   5.197 -1.6437  0.3388  1.9066
 7813SOL    HW235076   0.914   4.214   5.061 -0.2759  1.9796  1.6578
 7814SOL     OW35077   3.925   4.001   1.702 -1.1695  0.1288  0.2622
 7814SOL    HW135078   3.959   4.089   1.718  0.5149 -0.6608  0.9666
 7814SOL    HW235079   3.830   4.010   1.709 -0.9367  1.2286  1.9142
 7815SOL     OW35080   3.111   3.230  16.141 -0.2064  0.0690  0.8959
 7815SOL    HW135081   3.185   3.265  16.090 -0.1266 -0.4438  0.6576
 7815SOL    HW235082   3.083   3.313  16.181  0.7453  0.8727 -0.0798
 7816SOL     OW35083   0.919   4.063  17.123  0.0814 -0.0306  0.5698
 7816SOL    HW135084   0.861   3.987  17.124 -0.4273  0.3570  0.3476
 7816SOL    HW235085   0.968   4.051  17.204  0.0998  0.7960  0.6764
 7817SOL     OW35086   3.874   1.757   0.395  0.0292  0.3374  0.1573
 7817SOL    HW135087   3.931   1.720   0.328 -0.5609 -0.5011  0.1245
 7817SOL    HW235088   3.867   1.843   0.353  0.4613 -0.3565 -1.3072
 7818SOL     OW35089   4.382   2.773   7.847  0.5967  0.4610 -0.6194
 7818SOL    HW135090   4.402   2.782   7.940  0.0736  0.8729 -0.5465
 7818SOL    HW235091   4.447   2.707   7.822 -0.8340 -1.2894  0.2510
 7819SOL     OW35092   3.461   1.009   5.863 -0.2257 -0.3652  0.3427
 7819SOL    HW135093   3.441   0.997   5.956 -1.3951 -0.7171  0.0461
 7819SOL    HW235094   3.394   1.070   5.832  0.2554 -0.8099 -1.5618
 7820SOL     OW35095   0.878   1.816   5.562 -0.6390 -0.3139 -0.1423
 7820SOL    HW135096   0.945   1.877   5.530  0.7824 -1.1555  1.2288
 7820SOL    HW235097   0.844   1.858   5.641  0.1739  1.8378 -0.9390
 7821SOL     OW35098   4.520   2.862   7.117 -0.0501 -0.6722  0.6688
 7821SOL    HW135099   4.525   2.777   7.073  0.6313 -2.5803  4.4995
 7821SOL    HW235100   4.581   2.918   7.068  0.6141 -1.7464  0.2659
 7822SOL     OW35101   3.684   2.656   8.063  0.1695 -0.2563  0.7362
 7822SOL    HW135102   3.743   2.658   8.138  1.6304  0.4459 -0.4217
 7822SOL    HW235103   3.607   2.692   8.106  0.6318 -0.2094  1.5322
 7823SOL     OW35104   0.171   0.454   9.273 -0.4823  0.1548 -0.1159
 7823SOL    HW135105   0.208   0.369   9.297 -1.2339  0.5989  2.5725
 7823SOL    HW235106   0.230   0.494   9.209  0.0821 -0.0220  0.2866
 7824SOL     OW35107   0.753   0.614   5.460  0.2757  0.5528 -0.3099
 7824SOL    HW135108   0.759   0.709   5.447 -2.1309  0.5007 -1.8774
 7824SOL    HW235109   0.663   0.603   5.430 -0.1923  0.5242  1.1220
 7825SOL     OW35110   0.028   0.193   9.236 -0.5111 -0.1409 -0.0449
 7825SOL    HW135111   0.117   0.187   9.271 -0.2851  2.1553 -0.2219
 7825SOL    HW235112   4.731   0.137   9.305 -1.8219  1.5892  0.6788
 7826SOL     OW35113   1.291   3.199  11.681  0.6218  0.0590 -0.5072
 7826SOL    HW135114   1.196   3.213  11.682  0.5800 -0.1548 -2.2565
 7826SOL    HW235115   1.328   3.287  11.676 -1.4778  0.8631 -1.9096
 7827SOL     OW35116   3.887   4.501   5.500  0.1796  0.3872  0.3174
 7827SOL    HW135117   3.963   4.478   5.553 -0.0100 -1.9552 -0.4264
 7827SOL    HW235118   3.824   4.520   5.569 -0.2181  2.0231 -0.4903
 7828SOL     OW35119   1.155   4.592   8.038  0.3354 -0.5736 -0.3627
 7828SOL    HW135120   1.180   4.531   7.969 -1.1638  2.4597 -3.6127
 7828SOL    HW235121   1.196   4.548   8.112  1.6958 -1.6413 -1.7460
 7829SOL     OW35122   4.572   1.224  17.425 -0.2948 -0.4733  0.0699
 7829SOL    HW135123   4.578   1.287  17.498  1.8535 -0.5156 -0.0463
 7829SOL    HW235124   4.534   1.145  17.463 -3.0683  1.2445  0.8380
 7830SOL     OW35125   0.302   1.037  12.244 -0.1247 -0.0361 -0.2448
 7830SOL    HW135126   0.258   1.112  12.206 -2.4007 -1.0637  0.3614
 7830SOL    HW235127   0.248   0.960  12.224  0.4582 -1.4319  3.4791
 7831SOL     OW35128   1.388   3.702   3.425  0.2838 -0.3654  0.3072
 7831SOL    HW135129   1.345   3.717   3.509 -0.9616  0.7649 -0.5182
 7831SOL    HW235130   1.475   3.733   3.451 -0.6563  1.9272  0.7490
 7832SOL     OW35131   2.454   4.417  13.656  0.1296  0.9497  0.2106
 7832SOL    HW135132   2.491   4.359  13.722  1.3752 -0.3444 -1.6437
 7832SOL    HW235133   2.404   4.477  13.711  2.3040  0.3744  2.7928
 7833SOL     OW35134   3.879   0.873  10.946 -0.7908 -0.1264 -0.0315
 7833SOL    HW135135   3.793   0.840  10.973 -1.2648  1.7988  0.8561
 7833SOL    HW235136   3.868   0.954  10.996  2.0773  0.9186 -1.1152
 7834SOL     OW35137   2.900   0.699   6.959 -0.0069 -0.7290 -0.3719
 7834SOL    HW135138   2.843   0.690   7.035  0.6871  0.2614  0.2616
 7834SOL    HW235139   2.913   0.793   6.963 -3.6065 -0.3693  2.8020
 7835SOL     OW35140   3.201   2.604   9.743 -0.4972 -0.3380 -0.6695
 7835SOL    HW135141   3.155   2.564   9.817 -1.7819 -0.2738 -1.4308
 7835SOL    HW235142   3.176   2.565   9.659  0.0488 -1.1864 -0.4364
 7836SOL     OW35143   1.199   3.127   5.234  0.1007  0.3715 -0.3168
 7836SOL    HW135144   1.167   3.095   5.149  1.3388 -0.5988 -0.4212
 7836SOL    HW235145   1.270   3.184   5.205 -1.5937  2.8429  0.3950
 7837SOL     OW35146   3.028   1.948   3.817  0.4460 -0.2477  0.1644
 7837SOL    HW135147   2.979   1.957   3.899 -0.2341  0.1547 -0.2893
 7837SOL    HW235148   3.086   1.877   3.845  0.2224 -0.2593  0.6094
 7838SOL     OW35149   1.735   4.601   8.853 -0.0035 -0.9661  0.2239
 7838SOL    HW135150   1.803   4.539   8.826 -0.1660 -1.1844  0.3148
 7838SOL    HW235151   1.763   4.678   8.803  0.5323 -1.6561 -0.5398
 7839SOL     OW35152   4.666   3.601   3.752 -0.0294  0.0105  0.0355
 7839SOL    HW135153   4.722   3.623   3.827 -0.5670  1.3790  0.0212
 7839SOL    HW235154   4.591   3.570   3.803  0.0069 -1.1247 -0.5995
 7840SOL     OW35155   1.069   4.519   2.786  0.9062 -0.3622  1.0766
 7840SOL    HW135156   1.023   4.573   2.722  0.3569 -2.7079 -0.5183
 7840SOL    HW235157   1.113   4.585   2.840  0.2298  2.7797 -2.1799
 7841SOL     OW35158   1.532   0.361   6.478  0.0878 -0.1498  0.3110
 7841SOL    HW135159   1.442   0.347   6.447  0.2744 -1.2554  0.2927
 7841SOL    HW235160   1.515   0.440   6.529  3.0316  0.7721 -0.1279
 7842SOL     OW35161   2.532   2.847   2.695 -0.4365  0.1293  0.0044
 7842SOL    HW135162   2.449   2.813   2.663 -0.4019  0.7928 -0.7864
 7842SOL    HW235163   2.555   2.802   2.777 -2.4346  1.1894  1.1627
 7843SOL     OW35164   2.592   0.079   1.605  0.3353 -0.2252  0.2328
 7843SOL    HW135165   2.601   0.157   1.660 -3.2308  0.2075  0.2096
 7843SOL    HW235166   2.511   0.046   1.642  1.5282 -2.6817  0.6134
 7844SOL     OW35167   2.810   4.447  11.754 -0.2939 -0.0503  0.3896
 7844SOL    HW135168   2.787   4.415  11.666 -0.6481  1.1078  0.0710
 7844SOL    HW235169   2.736   4.412  11.804  0.3651 -0.6307  0.9770
 7845SOL     OW35170   3.322   3.950   6.434  0.1823 -0.1589 -0.3065
 7845SOL    HW135171   3.306   3.867   6.479 -2.2138  0.2197 -0.4394
 7845SOL    HW235172   3.310   3.919   6.344  3.2325 -0.0068 -0.7579
 7846SOL     OW35173   3.459   2.937   6.386 -0.4072 -0.1602  0.3063
 7846SOL    HW135174   3.424   2.906   6.469  2.2675  1.4242  2.0108
 7846SOL    HW235175   3.542   2.969   6.421 -0.7047 -0.0545  0.9191
 7847SOL     OW35176   3.819   2.149  14.779  0.4427 -0.0416 -0.1880
 7847SOL    HW135177   3.778   2.063  14.769 -0.2233 -0.2474  4.0857
 7847SOL    HW235178   3.830   2.194  14.696 -1.0968  0.7070  0.0114
 7848SOL     OW35179   2.225   0.590   6.538 -0.2441  0.2667  0.1795
 7848SOL    HW135180   2.202   0.607   6.630 -2.5000 -3.5998  0.3159
 7848SOL    HW235181   2.252   0.499   6.536 -1.5418 -0.1125 -0.2247
 7849SOL     OW35182   2.681   0.699  13.431  0.3540  0.2473 -0.3079
 7849SOL    HW135183   2.687   0.793  13.419  1.1293 -0.0217 -1.9590
 7849SOL    HW235184   2.770   0.667  13.450  0.7350  1.4539 -0.0560
 7850SOL     OW35185   4.557   1.824  15.879  0.3561 -0.0894 -0.5735
 7850SOL    HW135186   4.584   1.790  15.793 -0.6194 -2.9485  0.2516
 7850SOL    HW235187   4.603   1.907  15.865  0.4398 -0.1514 -0.6757
 7851SOL     OW35188   2.508   1.527   9.298 -0.3632 -0.1862 -0.6097
 7851SOL    HW135189   2.448   1.601   9.301 -2.2578 -1.7093 -0.7423
 7851SOL    HW235190   2.531   1.517   9.206  1.1724  0.3166 -0.2902
 7852SOL     OW35191   2.806   1.095   3.858 -0.1206  0.2318  0.0381
 7852SOL    HW135192   2.887   1.054   3.827 -0.3277  0.4274 -0.7587
 7852SOL    HW235193   2.820   1.083   3.952 -0.9475 -0.6665  0.0574
 7853SOL     OW35194   3.980   1.056   4.584  0.1405 -0.1658 -0.3413
 7853SOL    HW135195   3.966   1.043   4.490  1.9531 -1.9387 -0.3853
 7853SOL    HW235196   3.990   1.151   4.579 -0.1214 -0.0482  1.4701
 7854SOL     OW35197   2.066   4.134   6.465  0.4044  0.4528 -0.0251
 7854SOL    HW135198   2.079   4.050   6.420 -1.2452 -0.1527  0.6186
 7854SOL    HW235199   2.126   4.124   6.539  1.2827  1.6384 -0.5834
 7855SOL     OW35200   0.147   4.197   2.371 -0.4386  0.4712  0.3268
 7855SOL    HW135201   0.140   4.260   2.298 -1.0786  1.2323  1.0402
 7855SOL    HW235202   0.061   4.195   2.414 -0.4605  1.1620  0.3294
 7856SOL     OW35203   2.509   0.555   8.884  0.3669  0.0592  0.2824
 7856SOL    HW135204   2.559   0.483   8.923 -0.7768 -0.5086  0.7324
 7856SOL    HW235205   2.434   0.539   8.942 -0.0378  1.4628  0.1540
 7857SOL     OW35206   2.933   1.026  14.992 -0.2935  0.2743 -0.9739
 7857SOL    HW135207   2.936   1.117  14.964 -2.2198  0.6957  0.1866
 7857SOL    HW235208   3.001   0.984  14.940 -1.0857 -1.2153 -0.8057
 7858SOL     OW35209   0.950   2.501   6.109  0.1980 -0.2547  0.3619
 7858SOL    HW135210   0.975   2.429   6.051 -0.2066  0.0144 -0.1444
 7858SOL    HW235211   1.028   2.555   6.104  0.7982 -1.2506 -1.2698
 7859SOL     OW35212   2.507   1.857   6.451 -0.2301  0.2573  0.4303
 7859SOL    HW135213   2.412   1.861   6.439  0.1871  1.8376 -2.2926
 7859SOL    HW235214   2.512   1.937   6.504 -1.3371 -0.2606  1.3111
 7860SOL     OW35215   4.253   4.735  10.747  0.5099  0.4404  0.6062
 7860SOL    HW135216   4.339   0.018  10.711  0.9869 -0.8421  0.9705
 7860SOL    HW235217   4.205   0.079  10.756  2.3833  1.2009  3.5276
 7861SOL     OW35218   2.259   4.062   7.812  0.1923  0.6106 -0.3954
 7861SOL    HW135219   2.282   4.147   7.848 -2.1020  1.3050 -0.6133
 7861SOL    HW235220   2.204   4.015   7.874  0.2680  1.1651  0.0877
 7862SOL     OW35221   4.238   2.781  12.316  0.4994 -0.1476 -0.6043
 7862SOL    HW135222   4.162   2.816  12.363 -1.5606 -2.8962 -1.9104
 7862SOL    HW235223   4.258   2.849  12.253  3.5737  0.5382  1.1089
 7863SOL     OW35224   1.678   4.401  14.767  0.0441 -0.2266 -0.4588
 7863SOL    HW135225   1.750   4.373  14.824  1.2392  2.3058 -0.6889
 7863SOL    HW235226   1.644   4.484  14.802  2.3268  0.1492  0.8808
 7864SOL     OW35227   2.024   2.917   3.698  0.4849 -0.1561 -0.3195
 7864SOL    HW135228   1.929   2.915   3.688  0.0251 -0.5119  4.2946
 7864SOL    HW235229   2.043   2.871   3.780 -1.6040 -1.5108 -0.5978
 7865SOL     OW35230   2.150   3.487   6.502  0.3007  0.8083 -0.0499
 7865SOL    HW135231   2.080   3.435   6.542  0.2699 -1.1907 -2.6874
 7865SOL    HW235232   2.199   3.519   6.577  2.7462  0.1518 -1.3618
 7866SOL     OW35233   0.212   1.461   2.109 -0.2791  0.3820 -0.0868
 7866SOL    HW135234   0.132   1.493   2.067 -1.2278 -5.1426 -2.4988
 7866SOL    HW235235   0.186   1.369   2.117  1.2269 -0.1473 -1.2159
 7867SOL     OW35236   0.155   1.461   2.806  0.1962  0.6850  0.5413
 7867SOL    HW135237   0.099   1.530   2.771 -0.9873 -1.0667 -0.9882
 7867SOL    HW235238   0.191   1.428   2.724 -1.0852 -1.3457  0.7867
 7868SOL     OW35239   3.633   4.073  10.913  0.1604  0.4161 -1.0215
 7868SOL    HW135240   3.669   4.078  10.825  0.9295 -1.9988 -0.8436
 7868SOL    HW235241   3.686   4.137  10.960 -0.5361 -0.6529  1.1921
 7869SOL     OW35242   2.035   0.021   6.574 -0.0507 -0.6758 -0.3708
 7869SOL    HW135243   1.987   0.103   6.581 -1.2333 -1.5422  1.7921
 7869SOL    HW235244   1.968   4.705   6.533  0.1887 -1.3547  0.1279
 7870SOL     OW35245   1.143   0.763   6.074 -0.0681 -0.3596  0.1179
 7870SOL    HW135246   1.071   0.704   6.049 -0.1609 -0.7802  1.3853
 7870SOL    HW235247   1.089   0.813   6.136 -0.7188  0.3640 -1.0151
 7871SOL     OW35248   1.039   4.687   6.076  0.3624 -0.0322 -0.1631
 7871SOL    HW135249   0.964   0.007   6.062 -0.4723 -0.5747  2.0097
 7871SOL    HW235250   1.102   4.736   6.129  2.0025 -0.1248 -2.0375
 7872SOL     OW35251   1.610   0.808  17.512 -0.6237 -0.5570 -0.0220
 7872SOL    HW135252   1.662   0.797  17.433 -1.8536 -0.4826 -0.8512
 7872SOL    HW235253   1.555   0.730  17.521  0.1080 -0.9978  0.5218
 7873SOL     OW35254   2.613   0.818   9.503  0.1500 -0.0301  0.0174
 7873SOL    HW135255   2.587   0.769   9.581  0.4513  2.0661  1.4178
 7873SOL    HW235256   2.647   0.893   9.552  0.6735 -0.5768  0.4967
 7874SOL     OW35257   1.676   2.814   4.331  0.4324  0.5028  0.6462
 7874SOL    HW135258   1.624   2.868   4.272  0.6005 -0.6505 -0.5400
 7874SOL    HW235259   1.610   2.784   4.394 -1.3964 -2.4512 -2.7125
 7875SOL     OW35260   0.776   0.475  17.543  0.0492 -0.1976  0.4590
 7875SOL    HW135261   0.754   0.535  17.472  1.2933  0.1751  0.3853
 7875SOL    HW235262   0.819   0.399  17.505  0.4901  0.0889  0.3811
 7876SOL     OW35263   3.769   3.895   4.426  0.2897  0.2959  0.4257
 7876SOL    HW135264   3.751   3.852   4.510 -1.5434 -0.8240 -0.5409
 7876SOL    HW235265   3.702   3.962   4.415  1.3498  1.7640  2.7542
 7877SOL     OW35266   0.923   4.707  12.239 -0.1632  0.0026 -0.2209
 7877SOL    HW135267   1.013   4.675  12.228 -0.6599 -2.0041  1.6674
 7877SOL    HW235268   0.934   0.023  12.318 -1.5003  0.4829 -0.3758
 7878SOL     OW35269   2.580   4.477   8.776  0.4119  0.3061  0.0353
 7878SOL    HW135270   2.588   4.384   8.798  0.5395 -0.2916 -2.5488
 7878SOL    HW235271   2.622   4.472   8.690 -0.5159  1.4910 -0.4793
 7879SOL     OW35272   3.436   1.928  10.238  0.7794  0.5039  0.2948
 7879SOL    HW135273   3.414   2.021  10.244 -1.0596 -0.0514  2.0791
 7879SOL    HW235274   3.504   1.924  10.306  1.6085 -0.7396 -0.6094
 7880SOL     OW35275   2.400   2.409   4.864 -0.4984 -0.0054  0.2644
 7880SOL    HW135276   2.475   2.466   4.848  0.1925 -1.5184 -1.8885
 7880SOL    HW235277   2.440   2.322   4.859  0.7861  0.6705 -1.3387
 7881SOL     OW35278   0.542   4.037   9.252 -0.0201 -0.9371 -1.0433
 7881SOL    HW135279   0.541   3.948   9.217  1.5987 -2.3258  2.3716
 7881SOL    HW235280   0.497   4.028   9.337 -0.6435 -0.5958 -1.3363
 7882SOL     OW35281   3.522   4.612   5.279 -0.2076 -0.4329  0.5642
 7882SOL    HW135282   3.565   4.534   5.244 -0.1624 -0.0981 -0.1295
 7882SOL    HW235283   3.438   4.584   5.242  0.6430 -3.0015  0.5902
 7883SOL     OW35284   0.626   1.003  14.646  0.5723  0.2704  0.7805
 7883SOL    HW135285   0.713   1.032  14.675  0.0514  1.3945  1.2072
 7883SOL    HW235286   0.580   1.087  14.646  1.0696  0.5423  0.0786
 7884SOL     OW35287   4.611   3.101   7.928  0.3812  0.4649  0.0568
 7884SOL    HW135288   4.611   3.005   7.931  1.9127  0.3444 -2.8608
 7884SOL    HW235289   4.691   3.119   7.977  1.4361 -0.8482 -1.1695
 7885SOL     OW35290   3.535   3.199   4.639 -0.4264 -0.3554  0.0734
 7885SOL    HW135291   3.485   3.280   4.628 -0.9373 -0.4994  1.4265
 7885SOL    HW235292   3.590   3.203   4.560 -1.7783  3.4966 -0.6300
 7886SOL     OW35293   3.898   1.542   7.751  0.3969  0.1750  0.3603
 7886SOL    HW135294   3.873   1.491   7.828 -1.2000  0.8471  0.2927
 7886SOL    HW235295   3.905   1.466   7.692  2.4752 -0.1865  1.0781
 7887SOL     OW35296   2.096   3.607   5.390 -0.8605  0.0591 -0.3941
 7887SOL    HW135297   2.066   3.586   5.301 -1.4560  0.3895 -0.2709
 7887SOL    HW235298   2.041   3.682   5.414  1.4637  0.6877  2.8436
 7888SOL     OW35299   1.850   2.489   3.155 -0.3319 -0.3382 -0.1428
 7888SOL    HW135300   1.760   2.520   3.153 -0.6420 -1.2181  0.3248
 7888SOL    HW235301   1.904   2.560   3.190 -1.3878  0.2240  0.3167
 7889SOL     OW35302   1.543   4.373   5.027  0.1378  0.1782 -0.8023
 7889SOL    HW135303   1.542   4.456   5.074 -1.0565 -1.6701  2.5262
 7889SOL    HW235304   1.529   4.403   4.938 -2.8369  0.9155 -0.1046
 7890SOL     OW35305   1.782   3.992  12.886  0.4800  0.2497  0.0425
 7890SOL    HW135306   1.865   3.979  12.932  0.0026  0.0557  0.8547
 7890SOL    HW235307   1.728   3.992  12.965 -0.4399 -0.8863 -0.5673
 7891SOL     OW35308   4.249   1.344   2.830  0.0182 -0.0384  0.5579
 7891SOL    HW135309   4.168   1.360   2.877 -0.0047 -2.1812  1.2530
 7891SOL    HW235310   4.309   1.327   2.902  0.1221  0.1427  0.5131
 7892SOL     OW35311   1.361   2.563  15.929 -0.0627  0.1728 -0.2321
 7892SOL    HW135312   1.376   2.605  16.014 -1.3704  0.3385 -0.0841
 7892SOL    HW235313   1.280   2.603  15.899 -0.5031  0.3582  1.2231
 7893SOL     OW35314   2.625   1.545   4.046 -0.7464 -0.6318  0.4063
 7893SOL    HW135315   2.554   1.481   4.049 -0.3726 -1.0940 -0.5195
 7893SOL    HW235316   2.668   1.509   3.968 -0.3657 -0.4508  0.5341
 7894SOL     OW35317   2.547   4.486   5.287 -0.7016 -0.2935  0.0283
 7894SOL    HW135318   2.607   4.419   5.317  1.9633  3.0665  2.2240
 7894SOL    HW235319   2.459   4.465   5.319  0.5188 -2.5997  1.8214
 7895SOL     OW35320   3.973   3.596   7.928  0.1687 -0.2468 -0.7093
 7895SOL    HW135321   3.937   3.510   7.946 -0.4460 -0.2534 -1.9817
 7895SOL    HW235322   3.904   3.662   7.935 -0.6083 -1.1285 -0.1194
 7896SOL     OW35323   4.578   2.019   2.601  0.1026 -0.5539  0.3525
 7896SOL    HW135324   4.543   2.106   2.583  0.4093 -0.0583  2.1563
 7896SOL    HW235325   4.511   1.962   2.562  0.8346 -0.1758 -1.4660
 7897SOL     OW35326   2.014   1.850   0.536 -0.1006 -0.1364  0.1286
 7897SOL    HW135327   1.926   1.883   0.554  0.5362  1.9152 -0.5155
 7897SOL    HW235328   2.024   1.785   0.605 -1.9079  1.9242  2.3552
 7898SOL     OW35329   2.811   0.806   2.846 -0.3906 -0.4886 -0.6598
 7898SOL    HW135330   2.887   0.758   2.813  0.6600  0.5576  0.2013
 7898SOL    HW235331   2.813   0.872   2.776  1.2806 -2.4863 -2.4851
 7899SOL     OW35332   0.279   4.245   6.348 -0.1286 -0.5081  0.2385
 7899SOL    HW135333   0.195   4.255   6.303  1.1783 -0.8070 -2.2560
 7899SOL    HW235334   0.331   4.180   6.300 -0.7823 -0.5228 -0.4445
 7900SOL     OW35335   1.365   1.145   4.918  0.0423 -0.6102 -0.2923
 7900SOL    HW135336   1.280   1.101   4.912 -0.0448 -0.4071 -0.5626
 7900SOL    HW235337   1.395   1.117   5.004 -1.6249 -0.9365  0.1803
 7901SOL     OW35338   0.587   2.817   1.402  0.2811 -0.0506 -0.5114
 7901SOL    HW135339   0.547   2.904   1.399 -3.9033 -1.9336  1.4636
 7901SOL    HW235340   0.680   2.835   1.390 -0.4987  4.1999 -0.4064
 7902SOL     OW35341   1.909   3.047   2.446 -0.4762 -0.0169  0.2928
 7902SOL    HW135342   1.883   2.955   2.455 -0.9696  0.1624  0.7147
 7902SOL    HW235343   1.953   3.075   2.526  0.6935  0.4373 -0.5185
 7903SOL     OW35344   3.711   1.908   2.940  0.6466  0.0637 -0.4271
 7903SOL    HW135345   3.757   1.944   3.016 -1.5672  0.6366  0.6431
 7903SOL    HW235346   3.714   1.986   2.884  1.4710  0.6033  0.3806
 7904SOL     OW35347   2.528   2.412   7.700 -0.2275 -0.3540  0.2275
 7904SOL    HW135348   2.460   2.416   7.632 -0.7189 -1.8818  0.6172
 7904SOL    HW235349   2.480   2.375   7.775  1.0283 -0.7157  0.8405
 7905SOL     OW35350   2.123   3.289  12.016  0.2370 -0.4323  0.4729
 7905SOL    HW135351   2.217   3.307  12.010  0.1209  0.2088  0.5189
 7905SOL    HW235352   2.122   3.196  12.036 -0.2237 -0.9297 -1.8900
 7906SOL     OW35353   2.108   0.627   2.776 -0.1805  0.0305 -0.1126
 7906SOL    HW135354   2.075   0.654   2.862  0.0893 -0.1571  0.0483
 7906SOL    HW235355   2.079   0.536   2.777  0.5384 -0.1959  0.2653
 7907SOL     OW35356   1.593   3.673   1.716  0.3973 -0.2450 -0.0717
 7907SOL    HW135357   1.603   3.761   1.679  2.6628 -1.1420 -1.5617
 7907SOL    HW235358   1.633   3.691   1.801  1.2482 -0.4241 -0.4364
 7908SOL     OW35359   3.941   2.157   3.403  0.2293  0.2335 -0.0650
 7908SOL    HW135360   3.977   2.212   3.472 -2.0109  1.7771 -0.1289
 7908SOL    HW235361   3.991   2.075   3.404 -1.8012 -0.9707  1.7988
 7909SOL     OW35362   0.071   1.663   2.674  0.4193  0.0146 -0.3303
 7909SOL    HW135363   4.735   1.724   2.673  1.9157  1.8274  0.1618
 7909SOL    HW235364   0.092   1.648   2.582 -0.3464  1.8131 -0.7962
 7910SOL     OW35365   0.396   1.062   5.140 -0.2911  0.0157  0.0660
 7910SOL    HW135366   0.423   1.150   5.163 -0.9627 -0.1032  1.2891
 7910SOL    HW235367   0.300   1.064   5.136 -0.2796 -0.2265 -0.4087
 7911SOL     OW35368   4.185   2.834   6.269  0.3100 -0.1999  0.1496
 7911SOL    HW135369   4.132   2.755   6.281 -1.2388  1.0231  1.3999
 7911SOL    HW235370   4.202   2.844   6.176 -3.1327 -2.7332 -0.7280
 7912SOL     OW35371   2.557   0.000  10.894  0.0383  0.6109 -0.7225
 7912SOL    HW135372   2.559   0.080  10.948 -0.6319 -0.2499  0.5863
 7912SOL    HW235373   2.469   0.007  10.856 -0.7669 -3.4977  0.4455
 7913SOL     OW35374   0.768   4.403   2.535  0.2367  0.4765  0.4775
 7913SOL    HW135375   0.754   4.458   2.611 -1.0066 -1.4856  1.6794
 7913SOL    HW235376   0.681   4.405   2.494  0.3109  1.6182  0.3802
 7914SOL     OW35377   1.006   1.400   0.329 -0.0599 -0.7307 -0.4127
 7914SOL    HW135378   1.084   1.357   0.296  0.3102  0.3890 -0.9937
 7914SOL    HW235379   0.978   1.342   0.400  0.6889  0.1838  0.6370
 7915SOL     OW35380   2.161   3.860  13.398  0.2633  0.1594 -0.5236
 7915SOL    HW135381   2.180   3.802  13.325 -1.1061  1.6566 -2.0991
 7915SOL    HW235382   2.145   3.946  13.359  0.7280  0.4149 -0.1507
 7916SOL     OW35383   1.390   0.508   5.455  0.5782  0.1237 -0.3109
 7916SOL    HW135384   1.470   0.509   5.403  0.3136 -0.1730 -0.7230
 7916SOL    HW235385   1.425   0.555   5.530 -0.0951  0.4882 -0.2212
 7917SOL     OW35386   1.997   0.854   9.380  0.0102 -0.1842  0.2068
 7917SOL    HW135387   1.931   0.870   9.447 -2.2698 -3.8435 -1.1581
 7917SOL    HW235388   2.080   0.869   9.424  1.0047  0.4428 -1.8692
 7918SOL     OW35389   4.556   2.897   7.451 -0.3283 -0.1161  0.1460
 7918SOL    HW135390   4.600   2.950   7.519 -0.9669 -0.4347  0.8073
 7918SOL    HW235391   4.630   2.842   7.426 -0.9171 -0.7766 -0.1468
 7919SOL     OW35392   0.191   1.299  17.671  0.8365 -0.2895  0.1421
 7919SOL    HW135393   0.163   1.207  17.671 -1.3280  0.3669 -1.8778
 7919SOL    HW235394   0.210   1.308   0.013  1.7246  0.1005 -0.0780
 7920SOL     OW35395   0.640   0.494   0.249  0.9276  0.3837 -0.5620
 7920SOL    HW135396   0.658   0.496   0.155 -1.1237 -0.1794 -0.9634
 7920SOL    HW235397   0.699   0.428   0.286 -1.4370 -1.0861  0.5922
 7921SOL     OW35398   4.257   0.192   4.072 -0.2627  0.2447  0.0832
 7921SOL    HW135399   4.332   0.138   4.100 -0.1181 -0.7969 -2.3444
 7921SOL    HW235400   4.294   0.252   4.008  0.5329  0.6848  0.9439
 7922SOL     OW35401   1.341   3.480   8.968  0.2010 -0.2273  0.2799
 7922SOL    HW135402   1.395   3.402   8.980  1.1485  0.3850 -0.0008
 7922SOL    HW235403   1.257   3.435   8.958 -0.5212  1.4586 -1.3864
 7923SOL     OW35404   0.426   0.498   5.612 -0.1199 -0.2059  0.0806
 7923SOL    HW135405   0.459   0.536   5.531 -3.0984 -0.1784 -1.1174
 7923SOL    HW235406   0.333   0.520   5.619 -0.2756 -0.3194 -1.6622
 7924SOL     OW35407   0.334   4.019   5.186  0.0510  0.0928  0.3387
 7924SOL    HW135408   0.348   4.052   5.097 -0.8642  0.1515  0.2122
 7924SOL    HW235409   0.397   4.082   5.220  0.1290 -0.4445  1.2049
 7925SOL     OW35410   1.155   4.484  16.712  0.0031  0.0089 -0.3981
 7925SOL    HW135411   1.223   4.417  16.718 -0.4783 -0.3702  0.7979
 7925SOL    HW235412   1.111   4.470  16.796  1.4613  1.5185  0.6166
 7926SOL     OW35413   2.168   3.726   8.289  0.1186 -0.0093  0.0204
 7926SOL    HW135414   2.188   3.820   8.298  0.6005 -0.1012 -0.1085
 7926SOL    HW235415   2.107   3.713   8.216  0.4933 -2.6179  0.2030
 7927SOL     OW35416   2.865   2.805   6.115  0.0574  0.0462  0.8156
 7927SOL    HW135417   2.877   2.789   6.209  2.1796 -2.1070  0.1739
 7927SOL    HW235418   2.911   2.733   6.072  0.0288  0.7099 -0.3173
 7928SOL     OW35419   3.017   0.584  12.616 -0.2093 -0.2033 -0.0098
 7928SOL    HW135420   3.097   0.623  12.581 -1.2189  1.5962 -0.2955
 7928SOL    HW235421   2.956   0.633  12.560 -0.8462 -2.6279 -1.4383
 7929SOL     OW35422   0.273   4.246   6.669  0.2532 -0.2472 -0.0400
 7929SOL    HW135423   0.185   4.216   6.689  0.2323  0.2376  0.5765
 7929SOL    HW235424   0.265   4.243   6.574 -1.3153 -0.3842  0.1038
 7930SOL     OW35425   2.957   1.139  14.330 -0.4975  0.2041 -0.0891
 7930SOL    HW135426   2.954   1.138  14.235 -0.2668  0.8200 -0.1034
 7930SOL    HW235427   2.960   1.045  14.350 -1.8209  0.1413 -0.1685
 7931SOL     OW35428   3.230   3.731   6.580 -0.8387 -0.1487 -0.2416
 7931SOL    HW135429   3.248   3.723   6.674  1.3417  0.8835 -0.5732
 7931SOL    HW235430   3.200   3.643   6.555 -1.3812  0.0433 -0.2707
 7932SOL     OW35431   1.232   2.021   3.967 -0.6694 -0.2737  0.1049
 7932SOL    HW135432   1.320   2.038   3.999 -0.0540 -0.1006 -1.6457
 7932SOL    HW235433   1.238   1.947   3.907 -1.9300 -0.0277 -0.3197
 7933SOL     OW35434   2.387   1.677   3.432  0.5097 -0.5154  0.3441
 7933SOL    HW135435   2.419   1.725   3.355 -0.5765  3.1213  2.1700
 7933SOL    HW235436   2.370   1.749   3.492  2.2838 -0.1160  0.3669
 7934SOL     OW35437   2.152   1.234  17.533  0.3086 -0.1236 -0.1677
 7934SOL    HW135438   2.234   1.281  17.515  0.4328  0.0200  0.7568
 7934SOL    HW235439   2.094   1.298  17.493 -1.0725 -0.3196  1.5097
 7935SOL     OW35440   1.444   3.083   2.197 -0.3210  0.1497 -0.4092
 7935SOL    HW135441   1.419   2.996   2.228  1.5308 -0.0460  0.5690
 7935SOL    HW235442   1.466   3.050   2.110 -1.5714 -1.6338 -0.0453
 7936SOL     OW35443   1.600   3.452   8.557 -0.5870  0.1141  0.0189
 7936SOL    HW135444   1.519   3.407   8.582 -2.0208  2.4569 -0.4574
 7936SOL    HW235445   1.664   3.398   8.604  0.8672 -0.4023 -2.5551
 7937SOL     OW35446   4.169   1.113  12.891  0.5126  0.0114 -0.1043
 7937SOL    HW135447   4.206   1.025  12.892 -0.3603 -0.3373  1.5716
 7937SOL    HW235448   4.108   1.130  12.819 -0.8044 -0.4566  0.8907
 7938SOL     OW35449   1.570   4.026   3.031  0.6429 -0.3227 -0.0045
 7938SOL    HW135450   1.535   4.107   2.993 -0.2671 -0.6425  0.1592
 7938SOL    HW235451   1.569   3.964   2.958  1.7780 -1.6595  1.1036
 7939SOL     OW35452   1.102   0.128   4.800 -0.1320  0.0469  0.2436
 7939SOL    HW135453   1.179   0.177   4.769 -1.4740  1.7378 -0.4110
 7939SOL    HW235454   1.031   0.156   4.742  1.7107 -1.4775 -2.8131
 7940SOL     OW35455   1.780   4.141   3.697 -0.2636 -0.0994 -0.2633
 7940SOL    HW135456   1.717   4.071   3.682 -3.5745  3.1865 -1.6250
 7940SOL    HW235457   1.741   4.185   3.773 -0.9017  0.4789 -0.9343
 7941SOL     OW35458   0.701   1.142   0.676  0.3967  0.4423  0.4203
 7941SOL    HW135459   0.771   1.078   0.691  0.8456  0.8933  0.2819
 7941SOL    HW235460   0.674   1.155   0.767  0.8088  0.2194  0.5748
 7942SOL     OW35461   3.557   0.593   5.016  0.1090  0.1388 -0.2966
 7942SOL    HW135462   3.561   0.677   4.969 -1.8413 -0.6301 -1.8389
 7942SOL    HW235463   3.643   0.604   5.056 -0.6491  2.2514  0.7507
 7943SOL     OW35464   0.307   4.484   8.864 -0.2510 -0.2196 -0.2005
 7943SOL    HW135465   0.286   4.575   8.841 -1.5521 -0.5265 -0.2548
 7943SOL    HW235466   0.234   4.441   8.909  0.0814  0.2152  0.7656
 7944SOL     OW35467   2.069   3.927   3.488 -0.1236  0.3201 -0.3453
 7944SOL    HW135468   2.098   3.836   3.493 -0.2161  0.1951 -2.1379
 7944SOL    HW235469   2.137   3.966   3.434  0.7333 -1.1810 -0.3392
 7945SOL     OW35470   1.001   0.934   6.873 -0.2720 -0.5657 -0.3106
 7945SOL    HW135471   1.027   0.869   6.808 -0.6195 -1.3487  0.3367
 7945SOL    HW235472   1.088   0.957   6.906 -0.8278 -0.4430  1.0697
 7946SOL     OW35473   4.708   3.890   7.012  0.3383 -0.1017 -0.0618
 7946SOL    HW135474   0.007   3.814   6.967  0.7270 -0.4657  0.8873
 7946SOL    HW235475   4.616   3.864   7.016  0.3531 -0.4168 -1.7997
 7947SOL     OW35476   4.163   2.950  17.647  0.3397 -0.6903  0.0242
 7947SOL    HW135477   4.221   2.912  17.582 -0.9919 -0.1051 -1.5078
 7947SOL    HW235478   4.167   2.883  17.715  1.6907 -1.2017 -0.5630
 7948SOL     OW35479   4.409   2.240   7.586  0.2387 -0.5362 -0.1766
 7948SOL    HW135480   4.349   2.296   7.537 -0.4241  1.0613  2.4306
 7948SOL    HW235481   4.350   2.173   7.619  0.4462 -1.4101 -1.5802
 7949SOL     OW35482   4.512   2.444   2.822  0.1054 -0.5872  0.1583
 7949SOL    HW135483   4.573   2.513   2.849 -0.9947  0.4268  0.0620
 7949SOL    HW235484   4.565   2.414   2.749  0.2858 -1.1928  0.5409
 7950SOL     OW35485   3.462   3.428   3.532 -0.1266 -0.4240  0.2428
 7950SOL    HW135486   3.469   3.497   3.465 -0.8580 -0.3083  0.2902
 7950SOL    HW235487   3.493   3.472   3.611 -2.4949  1.3870  0.1465
 7951SOL     OW35488   3.197   3.910   8.710 -0.2925  0.3380  0.1529
 7951SOL    HW135489   3.109   3.874   8.697  0.0104  0.2496 -1.5731
 7951SOL    HW235490   3.183   4.004   8.705  0.6142  0.3633 -1.8251
 7952SOL     OW35491   4.178   1.179   3.176 -0.1453  0.0884  0.2457
 7952SOL    HW135492   4.219   1.108   3.226  0.0453 -2.0306 -2.9043
 7952SOL    HW235493   4.097   1.147   3.138 -0.2827  0.2111  0.4362
 7953SOL     OW35494   0.614   1.080   2.419 -0.2721  0.3120 -0.1729
 7953SOL    HW135495   0.626   0.985   2.409  0.6910  0.3592  0.4826
 7953SOL    HW235496   0.677   1.104   2.487  0.3140 -0.4285 -0.4459
 7954SOL     OW35497   3.311   3.198   0.524 -0.0584  0.1013  0.5064
 7954SOL    HW135498   3.355   3.238   0.449  2.5111  0.0212  1.9883
 7954SOL    HW235499   3.299   3.274   0.582 -1.0716  1.9321 -2.0728
 7955SOL     OW35500   4.684   1.471   6.418 -0.1755 -0.2876  0.2391
 7955SOL    HW135501   0.008   1.411   6.459 -0.7300 -2.2876 -1.8229
 7955SOL    HW235502   4.724   1.513   6.342 -0.3995 -1.5856 -0.6024
 7956SOL     OW35503   3.565   1.712   1.733 -0.2501 -0.1390 -0.3230
 7956SOL    HW135504   3.511   1.637   1.710 -1.3286  0.4682  0.2290
 7956SOL    HW235505   3.648   1.711   1.686 -0.4811  0.2578 -0.7354
 7957SOL     OW35506   1.999   4.423   4.855 -0.7261 -0.0865  0.2188
 7957SOL    HW135507   1.951   4.476   4.919 -1.7550  1.9368 -2.2159
 7957SOL    HW235508   2.020   4.484   4.784  0.7126 -0.4594  0.3272
 7958SOL     OW35509   0.925   0.775  17.015 -0.0322  0.1080  0.1752
 7958SOL    HW135510   0.969   0.700  17.057  0.1753 -0.5522 -1.2305
 7958SOL    HW235511   0.833   0.749  17.016 -0.2413  0.8102 -2.6096
 7959SOL     OW35512   4.381   1.390   8.115 -0.4208  0.5865 -0.0743
 7959SOL    HW135513   4.286   1.392   8.100 -0.8354  0.0828  2.3575
 7959SOL    HW235514   4.393   1.484   8.112 -2.4409  0.8996  1.2438
 7960SOL     OW35515   3.504   2.977   9.339 -0.5494  0.2937 -0.1641
 7960SOL    HW135516   3.436   2.998   9.403  0.8897 -2.8813  2.4802
 7960SOL    HW235517   3.510   3.053   9.282 -1.0767  1.6701  1.5936
 7961SOL     OW35518   4.451   2.357   2.264  0.6192  0.0042  0.2568
 7961SOL    HW135519   4.482   2.295   2.198 -0.1170  0.4405 -0.4971
 7961SOL    HW235520   4.503   2.433   2.236  1.2123 -0.0299  1.2598
 7962SOL     OW35521   3.625   4.385   2.802  0.0474 -0.0546  0.0726
 7962SOL    HW135522   3.551   4.375   2.862 -1.3402 -0.8476 -1.7925
 7962SOL    HW235523   3.575   4.417   2.727 -2.0447 -0.3243  1.3503
 7963SOL     OW35524   3.970   3.135   4.554  0.1818 -0.1476 -0.3628
 7963SOL    HW135525   4.052   3.096   4.524  1.0324  2.2400 -1.2025
 7963SOL    HW235526   3.922   3.053   4.550  1.1222 -0.7729  1.0144
 7964SOL     OW35527   0.883   0.133  17.735  0.1512  0.6821  0.2409
 7964SOL    HW135528   0.849   0.206   0.036  1.5289  1.8000 -0.4329
 7964SOL    HW235529   0.963   0.170  17.699  0.1552  1.6353  1.2174
 7965SOL     OW35530   1.844   4.561   2.426 -0.6305  0.1648 -0.4203
 7965SOL    HW135531   1.823   4.468   2.417  0.1254  0.2202 -2.7762
 7965SOL    HW235532   1.929   4.569   2.468  0.0756 -0.4160 -1.7426
 7966SOL     OW35533   2.914   0.679  14.761 -0.2948  0.1955  0.2754
 7966SOL    HW135534   2.994   0.726  14.784 -0.3065 -0.0904  0.9020
 7966SOL    HW235535   2.854   0.725  14.819  0.0384 -1.3782  1.8727
 7967SOL     OW35536   3.132   1.027  17.463 -0.2531  0.0252 -0.1955
 7967SOL    HW135537   3.071   0.954  17.460 -2.2613  1.6401  1.1931
 7967SOL    HW235538   3.130   1.064  17.375 -0.9946  0.3398 -0.0472
 7968SOL     OW35539   4.605   2.285   5.947  0.0486  0.3073  0.1409
 7968SOL    HW135540   4.690   2.262   5.984 -0.6923 -2.2233  0.2916
 7968SOL    HW235541   4.621   2.379   5.935  2.4874  0.0202  1.1542
 7969SOL     OW35542   1.145   4.734  13.670 -0.0622 -0.2887 -0.1424
 7969SOL    HW135543   1.162   4.680  13.747  0.0770  0.1705  0.1484
 7969SOL    HW235544   1.092   0.067  13.708 -2.6925 -0.7156 -3.0078
 7970SOL     OW35545   3.732   0.671  11.110 -0.0071  0.0388  0.7426
 7970SOL    HW135546   3.717   0.708  11.197  1.9105  2.7320 -0.0709
 7970SOL    HW235547   3.657   0.612  11.110 -2.1519  2.7417  0.0949
 7971SOL     OW35548   4.472   3.178   8.194  0.1704  0.1285 -0.2159
 7971SOL    HW135549   4.487   3.170   8.100  0.9588 -2.5098  0.1272
 7971SOL    HW235550   4.516   3.108   8.242 -1.8586 -0.0609  1.3640
 7972SOL     OW35551   1.535   0.744  14.023  0.0200  0.0458 -0.8253
 7972SOL    HW135552   1.474   0.732  14.096  1.1867 -1.0410 -0.0497
 7972SOL    HW235553   1.605   0.692  14.060  0.8151 -0.2431 -2.7184
 7973SOL     OW35554   4.346   3.860   5.051 -0.2470  0.1938  0.6924
 7973SOL    HW135555   4.398   3.938   5.070 -1.1534  0.8343  0.5203
 7973SOL    HW235556   4.346   3.807   5.130 -0.9534  0.8067  1.0982
 7974SOL     OW35557   2.121   0.467   4.652  0.0626  0.3308  0.3174
 7974SOL    HW135558   2.058   0.482   4.722  0.5431 -0.0097  0.8195
 7974SOL    HW235559   2.098   0.384   4.610 -0.9276 -0.9671  3.4130
 7975SOL     OW35560   0.134   2.651   5.154  0.0742  0.2896  0.0301
 7975SOL    HW135561   0.228   2.639   5.139  0.3351  1.0147  1.0616
 7975SOL    HW235562   0.127   2.747   5.155 -2.0861  0.1427 -2.3730
 7976SOL     OW35563   2.103   2.305   8.051  0.4188 -0.2515  0.1731
 7976SOL    HW135564   2.082   2.212   8.057  1.2266 -0.4783 -0.4673
 7976SOL    HW235565   2.017   2.345   8.037  0.9887  0.9875  0.2859
 7977SOL     OW35566   4.442   4.693   1.313  0.6985 -0.1220  0.4440
 7977SOL    HW135567   4.403   4.606   1.301 -2.0479  1.4708 -2.1226
 7977SOL    HW235568   4.513   4.671   1.373 -0.0096  0.7983  1.6173
 7978SOL     OW35569   4.420   1.652   3.365 -0.1843 -0.3914  0.4552
 7978SOL    HW135570   4.349   1.707   3.331 -1.1040 -1.6305  0.3859
 7978SOL    HW235571   4.445   1.599   3.289  3.1170  2.3078 -0.3568
 7979SOL     OW35572   1.021   0.506   4.104  0.3555 -0.0949  0.5055
 7979SOL    HW135573   1.068   0.527   4.023 -2.3257  3.3063 -0.1294
 7979SOL    HW235574   1.003   0.412   4.110 -0.4447  0.0840  0.8305
 7980SOL     OW35575   1.335   1.789   8.178  0.5764 -0.6856  0.0845
 7980SOL    HW135576   1.299   1.710   8.219  3.5591 -2.1754 -0.1328
 7980SOL    HW235577   1.394   1.815   8.248 -1.2730  0.9174  1.0698
 7981SOL     OW35578   0.487   4.229  16.842  0.6761  0.1966 -0.3001
 7981SOL    HW135579   0.502   4.167  16.914 -0.7909  0.0294 -0.1384
 7981SOL    HW235580   0.548   4.298  16.865  1.4913 -0.6728  0.1731
 7982SOL     OW35581   1.827   0.691   4.299  0.7921  0.5047  0.3073
 7982SOL    HW135582   1.839   0.698   4.204 -1.6583  4.3872  0.2564
 7982SOL    HW235583   1.821   0.598   4.318 -2.5692  0.5588 -0.5273
 7983SOL     OW35584   1.917   1.302  10.643  0.4034 -0.1283 -0.2191
 7983SOL    HW135585   1.835   1.350  10.631  0.6280  0.2894 -0.0687
 7983SOL    HW235586   1.964   1.360  10.702  1.4686 -1.1702 -0.0569
 7984SOL     OW35587   1.355   0.768  14.556  0.1676  0.8536 -0.3055
 7984SOL    HW135588   1.291   0.825  14.513 -0.2303 -0.3429 -1.2983
 7984SOL    HW235589   1.304   0.693  14.587 -0.9432  0.3646 -3.2965
 7985SOL     OW35590   0.750   3.193   8.783  0.4103 -0.5140  0.1635
 7985SOL    HW135591   0.657   3.210   8.769  0.6124  1.0718  0.6988
 7985SOL    HW235592   0.758   3.204   8.878  1.6426  1.6821 -0.2030
 7986SOL     OW35593   0.686   4.391   5.561  0.4671 -0.2959 -0.7399
 7986SOL    HW135594   0.751   4.442   5.610  2.2577 -2.9170 -0.3534
 7986SOL    HW235595   0.619   4.454   5.534 -0.0180 -1.2689 -1.8104
 7987SOL     OW35596   3.604   4.094  16.170  0.2816  0.2210  0.3449
 7987SOL    HW135597   3.656   4.107  16.249 -0.2123  2.9564  0.2182
 7987SOL    HW235598   3.629   4.004  16.149  0.6814  1.0386 -2.6919
 7988SOL     OW35599   3.386   4.484  13.675 -0.0321  0.1440  0.7029
 7988SOL    HW135600   3.316   4.488  13.740  1.0882  2.1174  1.7875
 7988SOL    HW235601   3.438   4.557  13.709  0.3281 -0.8271  2.2199
 7989SOL     OW35602   1.801   2.699   3.832 -0.4546 -0.4440 -0.4697
 7989SOL    HW135603   1.832   2.655   3.753 -0.8024  0.6399 -1.1974
 7989SOL    HW235604   1.792   2.788   3.797 -1.1231  0.1546  1.2109
 7990SOL     OW35605   0.344   2.716   3.460 -0.5712  0.2080 -0.6266
 7990SOL    HW135606   0.259   2.748   3.429 -1.9395  0.4222  3.3345
 7990SOL    HW235607   0.347   2.768   3.540 -0.6705  0.8145 -1.0155
 7991SOL     OW35608   2.525   1.569  16.459 -0.1969 -0.1574  0.0067
 7991SOL    HW135609   2.543   1.650  16.411 -0.0566  0.5663  1.2639
 7991SOL    HW235610   2.598   1.514  16.429 -0.2263  0.0910 -0.5149
 7992SOL     OW35611   2.718   3.834   0.886 -0.0377 -0.1900 -0.1102
 7992SOL    HW135612   2.767   3.887   0.824 -0.2583 -0.3371 -0.4065
 7992SOL    HW235613   2.734   3.897   0.957  0.3452  1.9510 -2.1205
 7993SOL     OW35614   0.646   4.131  17.252  0.0899 -0.1047 -0.0617
 7993SOL    HW135615   0.673   4.060  17.194  1.9629  1.4822 -1.0897
 7993SOL    HW235616   0.632   4.076  17.330 -1.5039  0.0815 -0.2109
 7994SOL     OW35617   4.033   1.869   7.276  0.2846 -0.9184 -0.2999
 7994SOL    HW135618   4.041   1.800   7.343 -0.0112  1.5480  2.2926
 7994SOL    HW235619   4.096   1.836   7.212 -0.3458 -1.2477 -0.7470
 7995SOL     OW35620   0.551   3.585   6.671 -0.2131 -0.8744  0.7938
 7995SOL    HW135621   0.632   3.629   6.647 -1.4577  1.5038  0.9485
 7995SOL    HW235622   0.585   3.520   6.733  1.7186  0.5032  1.1581
 7996SOL     OW35623   1.281   3.822  16.684 -0.0241 -0.0759 -0.0267
 7996SOL    HW135624   1.306   3.800  16.595  1.6273  2.2987 -0.1455
 7996SOL    HW235625   1.309   3.749  16.740 -0.5259  0.4014  0.8507
 7997SOL     OW35626   2.315   1.040   0.980  0.0405 -0.3856  0.2551
 7997SOL    HW135627   2.377   0.992   1.034  1.7523  1.8545  0.2873
 7997SOL    HW235628   2.309   1.123   1.028 -0.7305 -0.5737  0.4786
 7998SOL     OW35629   4.594   2.103   0.251  0.2392  0.1139  0.5889
 7998SOL    HW135630   4.610   2.044   0.324 -2.5355 -1.7300 -0.3126
 7998SOL    HW235631   4.670   2.162   0.260 -1.9709  3.0716 -0.1648
 7999SOL     OW35632   2.426   3.354  15.176  0.0782  0.2163 -0.1869
 7999SOL    HW135633   2.354   3.290  15.173 -1.0944  1.5040  0.5882
 7999SOL    HW235634   2.502   3.300  15.156 -0.5334 -0.6223 -0.2598
 8000SOL     OW35635   1.864   0.777   8.910 -0.2304  0.3833  0.3922
 8000SOL    HW135636   1.856   0.783   9.005  3.4898  0.2896  0.7338
 8000SOL    HW235637   1.956   0.749   8.904 -0.1200  0.9220 -0.3599
 8001SOL     OW35638   1.964   2.488   5.290 -0.6141  0.8317 -0.1450
 8001SOL    HW135639   2.037   2.448   5.243  0.4278  3.0239 -0.4082
 8001SOL    HW235640   1.988   2.580   5.283  0.9909  0.6422  2.6730
 8002SOL     OW35641   3.057   0.609   1.764  0.4419  0.5410 -0.1357
 8002SOL    HW135642   3.036   0.702   1.755 -1.7314 -0.1227 -1.8424
 8002SOL    HW235643   3.063   0.601   1.860  4.0245 -2.1839 -0.5965
 8003SOL     OW35644   0.659   3.603   3.845 -0.6272 -0.1567  0.0872
 8003SOL    HW135645   0.635   3.521   3.802 -1.1024  0.7428 -1.3499
 8003SOL    HW235646   0.578   3.618   3.895  0.2655  3.7592  0.3049
 8004SOL     OW35647   1.700   1.858  17.402 -0.7640 -0.4936 -0.1080
 8004SOL    HW135648   1.621   1.811  17.378  0.4720 -2.0764 -1.0622
 8004SOL    HW235649   1.774   1.802  17.380 -0.1099 -0.3051  1.5865
 8005SOL     OW35650   2.789   1.846   5.964  0.2816  0.7307  0.3673
 8005SOL    HW135651   2.789   1.846   6.060 -1.7014  1.4460  0.3727
 8005SOL    HW235652   2.874   1.881   5.938  0.0270  1.4064  0.4397
 8006SOL     OW35653   4.148   0.526   8.204 -0.1562 -0.0956 -0.2108
 8006SOL    HW135654   4.189   0.587   8.144 -1.8409 -0.2943 -1.5623
 8006SOL    HW235655   4.207   0.521   8.279 -0.0119  0.5315 -0.2898
 8007SOL     OW35656   0.104   0.784   7.460  0.2560 -0.1428 -0.4511
 8007SOL    HW135657   0.032   0.832   7.419  0.5040  0.7710  0.1786
 8007SOL    HW235658   0.068   0.698   7.482  0.5187 -0.9020 -2.9372
 8008SOL     OW35659   0.323   1.212   1.604  0.5405 -0.4073  0.2787
 8008SOL    HW135660   0.321   1.252   1.517  1.4846 -0.3550  0.2779
 8008SOL    HW235661   0.253   1.148   1.594  1.0089 -0.8598 -0.0691
 8009SOL     OW35662   2.891   1.389  10.479  0.2844  0.2659 -0.1014
 8009SOL    HW135663   2.912   1.307  10.523  0.8762  1.1193  1.1961
 8009SOL    HW235664   2.946   1.375  10.402  0.1081 -1.4220  0.0648
 8010SOL     OW35665   2.801   4.394   4.984 -0.5809 -0.7608 -0.3923
 8010SOL    HW135666   2.799   4.305   4.947 -0.7150 -1.8234  2.1886
 8010SOL    HW235667   2.713   4.421   4.957  0.0770  2.2551  0.4796
 8011SOL     OW35668   1.809   3.678   5.527 -0.1665  0.2139  0.2142
 8011SOL    HW135669   1.720   3.703   5.551  0.6445 -0.1815  3.6959
 8011SOL    HW235670   1.790   3.605   5.468 -1.1442  0.9416 -0.3490
 8012SOL     OW35671   4.451   4.353   5.875  0.3447  0.4473  0.2155
 8012SOL    HW135672   4.498   4.433   5.897  0.3104  0.2608  0.9730
 8012SOL    HW235673   4.523   4.291   5.868 -1.4291 -1.7331  1.2642
 8013SOL     OW35674   2.164   4.054   7.558  0.2490 -0.0377  0.2632
 8013SOL    HW135675   2.178   4.021   7.647 -0.0452 -0.2604  0.2271
 8013SOL    HW235676   2.226   4.127   7.552  2.6236 -2.1651 -0.5744
 8014SOL     OW35677   4.348   1.705   5.799  0.1953  0.1270  0.1824
 8014SOL    HW135678   4.394   1.669   5.874  2.7605  1.5693 -0.7124
 8014SOL    HW235679   4.331   1.795   5.827 -0.9722 -0.4075  1.1895
 8015SOL     OW35680   1.801   4.431   6.698 -0.0487 -0.0601 -0.0952
 8015SOL    HW135681   1.893   4.455   6.704 -0.2575  0.5729  0.5346
 8015SOL    HW235682   1.808   4.336   6.694 -3.0919 -0.2829 -0.1788
 8016SOL     OW35683   0.415   0.994   8.670  0.5095 -0.0506 -0.1358
 8016SOL    HW135684   0.389   1.000   8.578 -2.1627  0.8519  0.6948
 8016SOL    HW235685   0.331   0.979   8.713  0.8766  1.0597  0.9610
 8017SOL     OW35686   2.224   4.383   8.490 -0.5504  0.0065  0.6276
 8017SOL    HW135687   2.226   4.310   8.552  0.5224 -0.3460  0.1822
 8017SOL    HW235688   2.319   4.388   8.474 -0.2165 -0.7330  2.3809
 8018SOL     OW35689   2.588   0.833  16.135  0.0474 -0.1759  0.9828
 8018SOL    HW135690   2.664   0.806  16.187  1.4818  1.8665 -0.0617
 8018SOL    HW235691   2.568   0.922  16.164 -1.4088  0.1187 -0.9406
 8019SOL     OW35692   4.204   0.929  11.283 -0.0502 -0.1621  0.3111
 8019SOL    HW135693   4.179   0.867  11.352  1.1510  0.6868  1.4954
 8019SOL    HW235694   4.234   1.006  11.330 -0.0869  0.8181 -1.3014
 8020SOL     OW35695   3.946   1.368   9.128 -0.5956  0.9385  0.3034
 8020SOL    HW135696   3.850   1.366   9.137 -0.5118 -1.5963  0.6638
 8020SOL    HW235697   3.972   1.368   9.220 -2.2598 -0.4816  0.7772
 8021SOL     OW35698   4.167   1.001   0.355  0.4904 -0.3190 -0.1631
 8021SOL    HW135699   4.160   1.064   0.282  0.0330  0.5944  0.6714
 8021SOL    HW235700   4.124   0.922   0.321  2.3975 -1.7790  0.8376
 8022SOL     OW35701   1.428   3.139   3.892  0.1212 -0.7161  0.5728
 8022SOL    HW135702   1.360   3.205   3.903  2.1179  1.0389  2.3279
 8022SOL    HW235703   1.427   3.094   3.976  0.6775  0.8342  1.4090
 8023SOL     OW35704   4.281   1.049   7.053  0.9987 -0.3616  0.2283
 8023SOL    HW135705   4.358   1.009   7.093  1.1394 -1.9610 -1.6569
 8023SOL    HW235706   4.325   1.102   6.987 -0.8912  0.3300 -0.4706
 8024SOL     OW35707   1.966   2.778   5.716  0.4295 -0.4930  0.2435
 8024SOL    HW135708   1.895   2.830   5.678  2.2751  0.7014 -1.5712
 8024SOL    HW235709   1.917   2.718   5.772  0.9115 -2.1103 -1.0426
 8025SOL     OW35710   1.775   1.604   1.491  0.1827  0.7071 -0.0352
 8025SOL    HW135711   1.729   1.681   1.458 -0.5012  0.1751 -0.3204
 8025SOL    HW235712   1.864   1.630   1.468 -0.7644  2.3267 -1.9685
 8026SOL     OW35713   0.505   2.857   6.913 -0.0077 -0.4118  0.2045
 8026SOL    HW135714   0.431   2.821   6.864 -0.1394 -1.3239  1.0922
 8026SOL    HW235715   0.554   2.903   6.845 -3.3358 -2.7233 -3.7578
 8027SOL     OW35716   4.556   1.734   4.631  0.0937 -0.2378  0.5188
 8027SOL    HW135717   4.562   1.641   4.610  0.0394  0.1810 -1.3589
 8027SOL    HW235718   4.462   1.748   4.623  0.8509  3.3741 -2.4109
 8028SOL     OW35719   0.831   2.912   2.303 -0.3223 -0.1621  0.3277
 8028SOL    HW135720   0.816   3.005   2.319 -1.2509 -0.5172  1.5749
 8028SOL    HW235721   0.855   2.917   2.211 -1.0710  0.0706  0.1437
 8029SOL     OW35722   0.078   1.405   1.458 -0.2556 -0.2557 -0.1644
 8029SOL    HW135723   0.042   1.492   1.476  1.9076  0.4750  0.5942
 8029SOL    HW235724   0.169   1.433   1.452  0.3877 -2.3745 -0.4029
 8030SOL     OW35725   1.754   2.250  13.160 -0.4844 -0.1613 -0.1479
 8030SOL    HW135726   1.752   2.198  13.241 -0.5322 -0.0663 -0.0872
 8030SOL    HW235727   1.781   2.333  13.198 -0.4158 -0.4132  0.3581
 8031SOL     OW35728   4.144   4.664  13.106 -0.3438  0.6313  0.1145
 8031SOL    HW135729   4.108   4.661  13.017  1.5333 -1.2659 -0.6000
 8031SOL    HW235730   4.113   0.015  13.116  1.8169  1.4433 -0.4086
 8032SOL     OW35731   4.003   3.722   5.776  0.3168  0.0266  0.1239
 8032SOL    HW135732   3.980   3.756   5.690  0.0161  1.6032  0.8166
 8032SOL    HW235733   3.930   3.743   5.834  1.9590  1.4440  1.6953
 8033SOL     OW35734   4.296   3.760   6.736  0.0640  0.4142 -0.3445
 8033SOL    HW135735   4.291   3.764   6.641 -0.7830  1.4924 -0.2495
 8033SOL    HW235736   4.251   3.843   6.753  0.1507 -0.0037  1.9284
 8034SOL     OW35737   0.780   4.087   3.787 -0.2253 -0.1677 -0.1602
 8034SOL    HW135738   0.685   4.078   3.797 -0.0647  1.5498  2.8201
 8034SOL    HW235739   0.808   4.105   3.877  2.0387 -0.5153 -0.7968
 8035SOL     OW35740   4.064   4.706   7.347  0.1417  0.7368 -0.2937
 8035SOL    HW135741   4.128   4.718   7.418  1.4967  1.9580 -1.7146
 8035SOL    HW235742   4.057   4.611   7.345  2.4871  0.5639 -0.3502
 8036SOL     OW35743   1.351   4.443   1.255 -0.0895 -0.2757  0.2464
 8036SOL    HW135744   1.414   4.496   1.206  1.1073 -0.2284  1.8324
 8036SOL    HW235745   1.318   4.403   1.175  0.4576  0.4381 -0.3445
 8037SOL     OW35746   3.099   0.031  17.304  0.2506 -0.5662  0.6253
 8037SOL    HW135747   3.150   0.004  17.381 -0.2269  1.8260  1.7862
 8037SOL    HW235748   3.161   0.085  17.255  0.7089 -2.1578 -0.5557
 8038SOL     OW35749   4.247   1.143   4.596 -0.2108 -0.5427 -0.2245
 8038SOL    HW135750   4.296   1.130   4.677  0.4209  0.6100 -0.4190
 8038SOL    HW235751   4.180   1.075   4.597 -0.5417 -0.1921  1.5323
 8039SOL     OW35752   3.399   0.968   8.496  0.1337  0.3186  0.8359
 8039SOL    HW135753   3.312   1.007   8.491  0.1122  0.3323  1.3119
 8039SOL    HW235754   3.451   1.047   8.509  0.6036 -0.0866  1.4392
 8040SOL     OW35755   0.007   1.271   1.725  0.1939  0.1319 -0.9925
 8040SOL    HW135756   0.020   1.193   1.779 -0.7954  1.4609  1.1551
 8040SOL    HW235757   0.043   1.244   1.640  0.3306 -2.5616 -0.0656
 8041SOL     OW35758   4.370   1.401   8.843 -0.5080 -0.2018  0.4583
 8041SOL    HW135759   4.279   1.372   8.852  0.0540 -2.0437  0.1300
 8041SOL    HW235760   4.376   1.431   8.934  1.1077 -0.5571  0.4770
 8042SOL     OW35761   3.224   3.563  17.267  0.3377  0.8323  0.1890
 8042SOL    HW135762   3.181   3.482  17.292  0.0249  0.9069 -0.1178
 8042SOL    HW235763   3.315   3.533  17.275 -0.0116 -0.5667 -1.1911
 8043SOL     OW35764   3.228   0.026   7.993 -0.7141 -0.7327 -0.0381
 8043SOL    HW135765   3.312   4.720   7.982 -0.7882 -2.0586  4.6832
 8043SOL    HW235766   3.247   0.101   8.050 -2.1372 -1.0483  0.8499
 8044SOL     OW35767   0.722   1.596   4.266 -0.2633 -0.4452  0.2884
 8044SOL    HW135768   0.778   1.655   4.214  0.3972 -1.0440  0.3173
 8044SOL    HW235769   0.763   1.512   4.249 -0.8357 -0.5760 -0.4606
 8045SOL     OW35770   2.068   1.586   4.508 -0.4372 -0.1491 -0.5035
 8045SOL    HW135771   2.033   1.672   4.532  1.3563  0.4336  0.0329
 8045SOL    HW235772   2.160   1.609   4.503 -0.6594  0.9999  0.7310
 8046SOL     OW35773   2.842   1.273   5.515 -0.0461  0.0497 -0.1821
 8046SOL    HW135774   2.887   1.192   5.493 -0.0063 -0.5476  2.0959
 8046SOL    HW235775   2.756   1.237   5.537  0.5602 -0.5712  1.1579
 8047SOL     OW35776   0.177   4.346   3.119  0.0469  0.0572 -0.4697
 8047SOL    HW135777   0.265   4.314   3.101 -0.4000 -0.1159 -2.3095
 8047SOL    HW235778   0.139   4.276   3.066  0.4814  1.2049 -2.2932
 8048SOL     OW35779   2.876   1.817   4.787  0.1626 -0.2538  0.1103
 8048SOL    HW135780   2.848   1.732   4.823  0.1919 -0.8006 -1.1456
 8048SOL    HW235781   2.830   1.811   4.704 -1.5444 -1.4502  1.1321
 8049SOL     OW35782   4.457   4.434   2.661  0.0268 -0.2788 -0.4167
 8049SOL    HW135783   4.516   4.508   2.644 -0.9169  0.3045 -1.1175
 8049SOL    HW235784   4.373   4.480   2.662  0.7979  1.1340 -0.3113
 8050SOL     OW35785   3.573   1.005  16.545  0.1082 -0.9388 -0.8318
 8050SOL    HW135786   3.522   0.924  16.551  0.5081 -0.9276  2.6536
 8050SOL    HW235787   3.643   0.976  16.487  0.7501 -0.0204 -0.5132
 8051SOL     OW35788   0.376   2.618   1.924 -0.1097 -0.1315  0.6025
 8051SOL    HW135789   0.424   2.637   2.005  1.3058  0.4224 -0.3629
 8051SOL    HW235790   0.451   2.597   1.868 -1.3235  1.9281 -1.7476
 8052SOL     OW35791   4.439   2.590   0.830  0.7238 -0.0210 -0.2088
 8052SOL    HW135792   4.528   2.613   0.857  1.1010 -1.8755  0.1074
 8052SOL    HW235793   4.396   2.668   0.793  1.3767  0.5262  0.1739
 8053SOL     OW35794   1.118   3.104  11.370  0.4861  0.0532  0.0490
 8053SOL    HW135795   1.105   3.127  11.462 -0.2678 -1.2277  0.2611
 8053SOL    HW235796   1.209   3.133  11.366 -0.5452  2.7514 -3.3250
 8054SOL     OW35797   0.577   0.229  16.304 -0.4277  0.0208  0.3571
 8054SOL    HW135798   0.494   0.183  16.302  0.2854 -1.2284 -0.5161
 8054SOL    HW235799   0.550   0.321  16.306  1.5013  0.5863  0.7226
 8055SOL     OW35800   0.734   0.997   3.727  0.0360  0.1650 -0.1947
 8055SOL    HW135801   0.807   1.042   3.684  0.0875  1.9496  1.7929
 8055SOL    HW235802   0.689   1.059   3.784 -1.3534 -1.1893  0.1930
 8056SOL     OW35803   1.677   3.936   9.399 -0.0235 -0.5882 -0.2796
 8056SOL    HW135804   1.692   3.879   9.323 -0.2981 -1.5660  0.4153
 8056SOL    HW235805   1.729   4.009   9.364 -0.3213  0.6703  1.9048
 8057SOL     OW35806   2.771   1.717   3.148 -0.0763 -0.0741  0.0247
 8057SOL    HW135807   2.714   1.642   3.168 -1.8799  0.7876 -1.8593
 8057SOL    HW235808   2.840   1.711   3.214 -0.1650  0.8259  0.1942
 8058SOL     OW35809   2.675   0.039   5.928  0.5761  0.2917  0.5431
 8058SOL    HW135810   2.672   0.131   5.953  0.8565  0.3130  0.5062
 8058SOL    HW235811   2.583   0.025   5.909  0.9774 -0.8744 -0.5736
 8059SOL     OW35812   2.780   0.928   9.886 -0.2021  0.1398 -0.2609
 8059SOL    HW135813   2.801   1.015   9.920 -0.2543  0.6154 -1.4637
 8059SOL    HW235814   2.826   0.930   9.802 -1.5926 -2.8158 -1.0936
 8060SOL     OW35815   1.612   3.983  16.235 -0.4301  0.5431 -0.3457
 8060SOL    HW135816   1.541   3.989  16.300  2.7703 -0.7028  3.2702
 8060SOL    HW235817   1.604   4.067  16.189 -0.4303  0.3624 -0.6753
 8061SOL     OW35818   4.369   1.120  16.518 -0.3160 -0.7995  0.2426
 8061SOL    HW135819   4.278   1.113  16.488  0.1921 -0.8817 -1.2559
 8061SOL    HW235820   4.410   1.162  16.443 -0.0075  0.8801  1.3607
 8062SOL     OW35821   0.196   0.979   3.637  0.2294  0.3609 -0.7282
 8062SOL    HW135822   0.125   0.964   3.574 -0.3660  1.0000 -0.2177
 8062SOL    HW235823   0.249   1.040   3.586  0.6409 -0.8966 -1.8182
 8063SOL     OW35824   0.630   1.597   1.931  0.2470  0.1897  0.8166
 8063SOL    HW135825   0.618   1.607   2.026  0.4884  1.5166  0.7084
 8063SOL    HW235826   0.540   1.570   1.912  1.5971 -1.3749 -3.3948
 8064SOL     OW35827   2.204   2.651   2.259  0.4430 -0.0139 -0.9344
 8064SOL    HW135828   2.129   2.692   2.216  1.6682  3.3429  0.1670
 8064SOL    HW235829   2.254   2.721   2.299 -0.2306 -0.5257  0.7819
 8065SOL     OW35830   1.197   4.061   4.739  0.4826  0.2792 -0.0736
 8065SOL    HW135831   1.283   4.095   4.763  0.2068  0.9028  0.0216
 8065SOL    HW235832   1.207   4.044   4.646  2.1022 -1.2254  0.3787
 8066SOL     OW35833   3.518   0.814  12.503 -0.1820  0.3245 -0.2257
 8066SOL    HW135834   3.488   0.882  12.443  0.3400  2.0011  1.4251
 8066SOL    HW235835   3.542   0.872  12.575  2.5365  1.1898 -1.8245
 8067SOL     OW35836   2.943   2.835  13.303 -0.5681  0.3324 -0.0130
 8067SOL    HW135837   3.034   2.858  13.286 -0.3874 -0.6041 -0.3300
 8067SOL    HW235838   2.919   2.889  13.378 -1.4195  2.0186 -1.5082
 8068SOL     OW35839   3.305   1.089   3.589 -0.0212  0.4675  0.6338
 8068SOL    HW135840   3.289   1.180   3.567 -1.7859  0.4635  1.8708
 8068SOL    HW235841   3.240   1.079   3.658 -0.1805 -2.7479  0.0419
 8069SOL     OW35842   1.543   4.432   8.451  0.4827  0.4100 -0.3793
 8069SOL    HW135843   1.627   4.476   8.463  0.1637  0.3428  2.1609
 8069SOL    HW235844   1.523   4.446   8.359 -1.4595  1.0875  0.1553
 8070SOL     OW35845   3.374   2.384   7.558  0.0317 -0.1192  0.4888
 8070SOL    HW135846   3.459   2.382   7.602 -0.1663 -2.0983  0.7955
 8070SOL    HW235847   3.369   2.468   7.512 -0.0670 -0.5527 -0.2902
 8071SOL     OW35848   3.312   0.754  15.080  0.3993 -0.1615  0.1803
 8071SOL    HW135849   3.308   0.670  15.126  2.2913  0.0908  0.8212
 8071SOL    HW235850   3.304   0.827  15.142  0.2671 -0.6837  0.7770
 8072SOL     OW35851   4.184   3.090   4.903 -0.2830  0.1879 -0.2359
 8072SOL    HW135852   4.130   3.167   4.921 -0.9048 -0.1162 -0.8458
 8072SOL    HW235853   4.191   3.087   4.808  0.5813  0.2266 -0.1781
 8073SOL     OW35854   3.243   1.572   7.577 -0.1117  0.6835 -0.0093
 8073SOL    HW135855   3.186   1.647   7.561 -0.0727  0.8509  0.6236
 8073SOL    HW235856   3.300   1.618   7.638  3.6937 -2.9296 -0.8140
 8074SOL     OW35857   3.933   0.948  12.697 -0.3905  0.2323 -0.0793
 8074SOL    HW135858   3.997   0.891  12.655  1.3884  1.7516  0.5496
 8074SOL    HW235859   3.913   0.896  12.775  0.3632  0.8791  0.5500
 8075SOL     OW35860   4.273   0.700  13.099 -0.8074  0.4514  0.2936
 8075SOL    HW135861   4.274   0.605  13.085 -0.3432  0.3874  0.7632
 8075SOL    HW235862   4.298   0.702  13.192  1.9059  0.1669 -0.4277
 8076SOL     OW35863   0.904   3.491  15.697 -0.0743  0.6245 -0.5992
 8076SOL    HW135864   0.912   3.543  15.777 -0.7816 -0.2207  0.0190
 8076SOL    HW235865   0.809   3.490  15.690 -0.1171 -0.5610  0.1695
 8077SOL     OW35866   4.013   0.126   6.689 -0.3068 -0.1415 -0.2551
 8077SOL    HW135867   4.059   0.042   6.696 -1.0971 -0.5776 -0.1602
 8077SOL    HW235868   3.992   0.135   6.596  0.6389  1.3513 -0.3206
 8078SOL     OW35869   1.571   4.475  15.699  0.1613  0.5438 -0.0418
 8078SOL    HW135870   1.577   4.568  15.680  2.2036  0.9417  2.5642
 8078SOL    HW235871   1.581   4.455  15.606 -0.2980 -1.5144  0.3504
 8079SOL     OW35872   4.664   0.465   5.335 -0.1395 -0.3782  0.3878
 8079SOL    HW135873   4.582   0.459   5.384 -0.5018  2.9478  0.1593
 8079SOL    HW235874   4.658   0.386   5.281 -2.0261  0.3521 -0.4793
 8080SOL     OW35875   3.987   0.699  14.675 -0.6861  0.2430 -0.3916
 8080SOL    HW135876   4.012   0.636  14.743 -0.0331 -0.3353 -1.1579
 8080SOL    HW235877   3.898   0.670  14.654  0.2447 -3.0328  0.1972
 8081SOL     OW35878   1.459   0.025   7.393  0.7938  0.1227  0.4072
 8081SOL    HW135879   1.544   0.011   7.434  0.6515 -4.1355 -0.7126
 8081SOL    HW235880   1.433   0.116   7.407  0.0977  0.0633 -0.4403
 8082SOL     OW35881   3.830   1.849   0.798  0.1572  0.5253  0.2145
 8082SOL    HW135882   3.859   1.762   0.773 -0.9205  0.4555 -0.7959
 8082SOL    HW235883   3.772   1.838   0.873  1.1190 -0.5019  0.7948
 8083SOL     OW35884   0.765   2.509  12.351 -0.0215 -0.4450 -0.3779
 8083SOL    HW135885   0.760   2.461  12.268 -0.1785  0.4999 -0.9196
 8083SOL    HW235886   0.854   2.494  12.385  0.4880  0.6478 -1.2064
 8084SOL     OW35887   3.928   0.437   4.196 -0.3976  0.4898 -0.1626
 8084SOL    HW135888   3.862   0.387   4.148 -0.3358  0.8375 -0.6092
 8084SOL    HW235889   3.874   0.485   4.258 -2.0101 -2.2246  0.5321
 8085SOL     OW35890   4.204   1.483   5.749 -0.4615 -0.3636 -0.0043
 8085SOL    HW135891   4.227   1.574   5.767  2.3321 -1.0114 -0.3580
 8085SOL    HW235892   4.130   1.498   5.690  0.0255  0.5703 -0.3765
 8086SOL     OW35893   3.022   1.519   8.080  0.4515  0.3232 -0.1727
 8086SOL    HW135894   3.044   1.540   7.989 -1.5906  0.1811 -0.6894
 8086SOL    HW235895   2.958   1.585   8.107 -1.6301 -1.0404 -1.7500
 8087SOL     OW35896   2.775   2.588  16.564  0.1799 -0.1536 -0.4014
 8087SOL    HW135897   2.682   2.566  16.561 -0.1616  1.2072 -0.0881
 8087SOL    HW235898   2.831   2.514  16.587 -0.0757  0.0042  0.7398
 8088SOL     OW35899   4.201   0.755  14.509 -0.0164 -0.5905 -0.2149
 8088SOL    HW135900   4.172   0.720  14.425  0.4646  0.4941 -0.8368
 8088SOL    HW235901   4.121   0.735  14.558  0.5176  0.0217  0.9131
 8089SOL     OW35902   1.551   2.162   6.531  0.0705 -0.5993 -0.5077
 8089SOL    HW135903   1.488   2.120   6.590  0.7995 -3.5705 -1.8174
 8089SOL    HW235904   1.557   2.252   6.562 -1.8102 -0.1755 -1.3272
 8090SOL     OW35905   4.224   1.634  13.695  0.1789  0.1136  0.1575
 8090SOL    HW135906   4.147   1.681  13.664  0.3345 -0.5024 -1.1318
 8090SOL    HW235907   4.242   1.563  13.633 -0.9539  0.9579 -1.1319
 8091SOL     OW35908   0.391   1.232   5.753 -0.4482  0.1026  0.3167
 8091SOL    HW135909   0.394   1.324   5.728  1.2335 -0.6229 -2.1578
 8091SOL    HW235910   0.436   1.194   5.677 -0.5404  0.3836  0.1205
 8092SOL     OW35911   2.841   3.413   7.047 -0.4455 -0.7989  0.2091
 8092SOL    HW135912   2.749   3.439   7.051  0.5452  2.7962 -0.3785
 8092SOL    HW235913   2.858   3.390   7.138 -0.5684 -0.0181  0.4237
 8093SOL     OW35914   1.896   4.526  13.348  0.0288 -0.5118  0.0192
 8093SOL    HW135915   1.854   4.446  13.381 -2.4904  0.5244 -0.6719
 8093SOL    HW235916   1.926   4.555  13.434 -0.7538 -0.6776  0.3456
 8094SOL     OW35917   3.380   0.875   4.802 -0.7017 -0.2234 -0.1843
 8094SOL    HW135918   3.471   0.861   4.829 -0.6529 -1.7648 -1.1252
 8094SOL    HW235919   3.340   0.920   4.877 -0.8502 -0.9260  0.1632
 8095SOL     OW35920   2.699   1.744   1.923 -0.3107  0.5857  0.4254
 8095SOL    HW135921   2.791   1.737   1.897 -1.3988 -1.1508 -2.9649
 8095SOL    HW235922   2.702   1.811   1.991  1.6934  0.7233  0.2103
 8096SOL     OW35923   0.634   1.195  14.911 -0.3917  0.8507 -0.3363
 8096SOL    HW135924   0.597   1.110  14.933 -1.4659  0.4781 -3.5599
 8096SOL    HW235925   0.561   1.219  14.854 -0.1147  1.0813 -0.5958
 8097SOL     OW35926   0.308   3.309  12.138 -0.4479 -0.0266  0.2250
 8097SOL    HW135927   0.252   3.231  12.143  1.0321 -1.0754  0.2298
 8097SOL    HW235928   0.385   3.285  12.190 -0.6427 -0.4583  0.3210
 8098SOL     OW35929   0.232   2.072  17.020  0.5381 -0.0787 -0.1193
 8098SOL    HW135930   0.231   1.976  17.020 -0.2238 -0.0654 -2.7794
 8098SOL    HW235931   0.263   2.100  17.107  1.2433  2.3962 -1.1810
 8099SOL     OW35932   3.527   0.867   5.615  0.2075 -0.5688 -0.1482
 8099SOL    HW135933   3.506   0.921   5.691  0.5416 -0.2679 -0.2745
 8099SOL    HW235934   3.486   0.782   5.636 -0.1148 -0.3295  0.2021
 8100SOL     OW35935   1.336   4.342   3.241  0.0137 -0.6177  0.0209
 8100SOL    HW135936   1.402   4.319   3.175 -0.2475  0.4086 -0.5882
 8100SOL    HW235937   1.393   4.402   3.288 -0.1347  0.4930 -1.1917
 8101SOL     OW35938   1.036   2.234   3.061 -0.9520 -0.2116  0.0814
 8101SOL    HW135939   1.012   2.294   2.991 -1.2302  0.9351  1.1755
 8101SOL    HW235940   0.990   2.272   3.136 -0.0064  1.0337  0.0199
 8102SOL     OW35941   4.064   4.151   6.611 -0.2444 -0.1364  0.6866
 8102SOL    HW135942   4.055   4.163   6.516  0.1868 -0.3908  0.6129
 8102SOL    HW235943   3.999   4.216   6.638  0.3237  0.9323 -0.4525
 8103SOL     OW35944   1.188   0.150   3.282  0.7070  0.0531 -0.4119
 8103SOL    HW135945   1.213   0.058   3.269  1.1445 -0.3399  3.3637
 8103SOL    HW235946   1.272   0.194   3.288  1.5737 -1.4819 -1.2636
 8104SOL     OW35947   0.126   2.170   7.822 -0.0371 -0.1747 -0.6767
 8104SOL    HW135948   0.042   2.172   7.869 -0.7267 -0.8221 -1.8941
 8104SOL    HW235949   0.110   2.240   7.759  0.1178  1.4400  1.0658
 8105SOL     OW35950   0.350   2.949   6.581  0.2104  0.3292 -0.0584
 8105SOL    HW135951   0.267   2.977   6.543 -0.1408  0.1016  0.5466
 8105SOL    HW235952   0.348   3.006   6.658  0.4528 -3.2119  2.6007
 8106SOL     OW35953   2.624   3.962   8.872  0.3113 -0.3749 -0.1864
 8106SOL    HW135954   2.628   3.991   8.963  1.9386  0.1229 -0.4127
 8106SOL    HW235955   2.649   4.043   8.828 -1.0252 -0.0544 -0.3736
 8107SOL     OW35956   1.087   4.157  11.565  0.2454  0.3589  0.3903
 8107SOL    HW135957   1.050   4.244  11.554  1.6878  0.9074 -0.0804
 8107SOL    HW235958   1.130   4.156  11.651 -0.0561  2.4779  0.5425
 8108SOL     OW35959   3.422   1.679  13.489  0.1209  0.7630  0.0636
 8108SOL    HW135960   3.352   1.691  13.553 -1.6665 -1.9051 -1.3915
 8108SOL    HW235961   3.494   1.663  13.550  0.0426 -1.6892 -0.4753
 8109SOL     OW35962   0.739   2.392   0.410  0.3076 -0.4317 -0.2754
 8109SOL    HW135963   0.707   2.423   0.326  2.0695  1.3134 -0.3027
 8109SOL    HW235964   0.812   2.336   0.384 -0.6712 -0.6400 -2.5559
 8110SOL     OW35965   1.092   0.970   7.739  0.5234  0.1953 -0.7065
 8110SOL    HW135966   1.028   0.919   7.688  3.7272 -1.9007 -2.6294
 8110SOL    HW235967   1.092   1.040   7.673 -1.0731  1.1828  0.3229
 8111SOL     OW35968   2.169   1.639   5.484 -0.2487  0.1900 -1.0077
 8111SOL    HW135969   2.113   1.645   5.561  1.2108 -2.8025  0.2541
 8111SOL    HW235970   2.233   1.576   5.517  1.5784  3.4792  1.7520
 8112SOL     OW35971   0.974   0.253   5.500  0.6781 -0.6882  0.6419
 8112SOL    HW135972   0.928   0.269   5.418 -0.6743  0.0373  1.5383
 8112SOL    HW235973   0.907   0.276   5.565  0.7238  3.1838 -0.6474
 8113SOL     OW35974   3.537   4.668  11.507 -0.1259  0.0815  0.2865
 8113SOL    HW135975   3.512   4.733  11.442  0.2095 -1.4429 -1.3454
 8113SOL    HW235976   3.628   4.655  11.479 -1.0220 -0.0476 -2.4585
 8114SOL     OW35977   2.593   4.129   9.547  0.2063 -0.0358 -0.2865
 8114SOL    HW135978   2.675   4.170   9.521 -1.2620  2.6476 -0.7420
 8114SOL    HW235979   2.556   4.197   9.604  1.9703  0.0306  0.7617
 8115SOL     OW35980   2.533   4.428   3.269  0.1279 -0.5678  0.4803
 8115SOL    HW135981   2.585   4.506   3.250 -1.6482  0.9637  1.8593
 8115SOL    HW235982   2.477   4.466   3.336 -0.1751  1.4498 -0.9201
 8116SOL     OW35983   2.380   1.367   4.576  1.0635  0.2394  0.4686
 8116SOL    HW135984   2.384   1.460   4.557  1.0343  0.3697  1.1022
 8116SOL    HW235985   2.424   1.333   4.498  1.0672  0.2890  0.4496
 8117SOL     OW35986   2.552   1.233   9.978  0.3399  0.1884  0.4385
 8117SOL    HW135987   2.505   1.232  10.061  0.8916  0.4281  0.7583
 8117SOL    HW235988   2.498   1.185   9.914 -0.7626  2.9055 -0.6481
 8118SOL     OW35989   4.440   3.200  10.376  0.3566  0.2488  0.0136
 8118SOL    HW135990   4.488   3.127  10.336 -2.0143 -0.6064 -1.2319
 8118SOL    HW235991   4.505   3.268  10.394  0.8473 -0.0259 -0.6913
 8119SOL     OW35992   3.559   3.586   9.600  0.1359  0.5118 -0.3916
 8119SOL    HW135993   3.559   3.514   9.663  1.5815  1.3920  0.6008
 8119SOL    HW235994   3.652   3.609   9.598  0.3101 -0.1974 -0.4554
 8120SOL     OW35995   0.561   1.371   8.498  0.0434  0.3602  0.3777
 8120SOL    HW135996   0.521   1.359   8.584 -0.6946 -2.0624 -0.3158
 8120SOL    HW235997   0.489   1.342   8.443  0.8209 -1.2126  0.1870
 8121SOL     OW35998   3.000   4.689   4.232  0.0628 -0.0244  0.1953
 8121SOL    HW135999   3.024   4.640   4.311  0.5042  0.3768  0.3107
 8121SOL    HW236000   2.963   0.028   4.273 -0.8058 -0.6556  0.5994
 8122SOL     OW36001   3.098   0.873   8.274  0.3667 -0.3028 -0.3854
 8122SOL    HW136002   3.186   0.836   8.267  0.8601  1.0928 -1.6087
 8122SOL    HW236003   3.039   0.798   8.279 -0.6999  0.5532 -0.1645
 8123SOL     OW36004   1.727   2.908   5.591  0.2460 -0.0003  0.1690
 8123SOL    HW136005   1.751   2.983   5.536  0.3293 -1.9645 -2.4840
 8123SOL    HW236006   1.634   2.922   5.609 -0.0819  0.4262 -1.8499
 8124SOL     OW36007   1.138   3.337   4.136 -0.4331 -0.4721 -0.5249
 8124SOL    HW136008   1.110   3.373   4.052  0.9378 -0.4436 -0.9525
 8124SOL    HW236009   1.111   3.246   4.119  0.7923 -0.5722 -1.9281
 8125SOL     OW36010   0.604   1.061   4.589  0.1972 -0.1471 -0.1773
 8125SOL    HW136011   0.604   1.081   4.683 -2.5476  0.1695 -0.2213
 8125SOL    HW236012   0.573   1.144   4.551 -0.6314 -0.6455 -0.5957
 8126SOL     OW36013   3.808   4.276   5.313 -0.0479 -0.1653 -0.0136
 8126SOL    HW136014   3.810   4.355   5.368 -1.5544  1.1659 -1.8671
 8126SOL    HW236015   3.787   4.307   5.225  1.6973  0.8904 -0.0507
 8127SOL     OW36016   0.935   2.579   1.711  0.3917  0.1614  0.3425
 8127SOL    HW136017   0.858   2.634   1.719 -0.0193 -0.4501  0.5975
 8127SOL    HW236018   1.000   2.628   1.762  0.6642  1.9260 -1.7026
 8128SOL     OW36019   4.331   4.479  14.580  0.1480  0.1176 -0.0702
 8128SOL    HW136020   4.344   4.417  14.652 -1.0155  0.7992  0.7234
 8128SOL    HW236021   4.245   4.520  14.591  0.1188 -1.1601  4.3197
 8129SOL     OW36022   4.218   3.682   6.060 -0.3469  0.1223 -0.1579
 8129SOL    HW136023   4.303   3.717   6.033  0.3581 -1.8387 -0.4297
 8129SOL    HW236024   4.187   3.759   6.107 -0.1923 -1.1804  2.0527
 8130SOL     OW36025   2.252   0.865  10.231 -0.3271 -0.3609 -0.1944
 8130SOL    HW136026   2.208   0.788  10.194 -3.3130  1.6842 -0.8240
 8130SOL    HW236027   2.199   0.937  10.199  1.1297  0.2961 -1.1334
 8131SOL     OW36028   3.838   3.687   7.239  0.8276  0.2779  0.0752
 8131SOL    HW136029   3.906   3.739   7.283 -0.3229  2.7486 -1.0703
 8131SOL    HW236030   3.863   3.696   7.147 -1.6057 -0.7995 -0.6817
 8132SOL     OW36031   3.604   0.401  16.535 -0.4917  0.0381  0.2396
 8132SOL    HW136032   3.652   0.361  16.462 -1.3887 -0.0698 -0.2956
 8132SOL    HW236033   3.653   0.483  16.540 -0.6573  0.2017 -0.9336
 8133SOL     OW36034   1.825   1.025   7.653  0.3198  0.2906  0.0016
 8133SOL    HW136035   1.784   1.034   7.568 -0.6184 -0.1310  0.4081
 8133SOL    HW236036   1.775   0.961   7.704  3.1070  0.1361  2.5703
 8134SOL     OW36037   1.079   2.729  10.570  0.0189 -0.3539  0.8148
 8134SOL    HW136038   1.140   2.797  10.597  0.6349 -0.7782  0.4762
 8134SOL    HW236039   1.030   2.726  10.652 -0.4528 -0.9378  0.5184
 8135SOL     OW36040   2.616   3.720   7.794 -0.0372  0.3341  0.0253
 8135SOL    HW136041   2.628   3.644   7.737  1.0349 -0.2793  1.0749
 8135SOL    HW236042   2.616   3.682   7.882 -0.3231 -0.3880 -0.2859
 8136SOL     OW36043   2.223   3.618  14.974 -0.0522  0.2862  0.5867
 8136SOL    HW136044   2.264   3.620  14.887 -0.9347 -1.3823  0.1407
 8136SOL    HW236045   2.172   3.537  14.966  0.5280  0.2311 -2.9562
 8137SOL     OW36046   1.434   3.007   5.102 -0.3321 -0.5544  0.1347
 8137SOL    HW136047   1.491   2.965   5.038  1.6712  2.1031  0.1579
 8137SOL    HW236048   1.466   2.966   5.182 -1.0841  0.8522  1.1490
 8138SOL     OW36049   2.747   1.715   9.728 -0.7573 -0.0664 -0.2677
 8138SOL    HW136050   2.701   1.693   9.647  0.8975  1.6392 -1.6958
 8138SOL    HW236051   2.786   1.797   9.698 -0.1144 -0.0920  0.4951
 8139SOL     OW36052   1.665   2.381   2.438 -0.0589  0.0351  0.4276
 8139SOL    HW136053   1.694   2.437   2.366  0.2110 -0.7719 -0.0881
 8139SOL    HW236054   1.620   2.443   2.496  1.6573 -1.9012  3.8155
 8140SOL     OW36055   2.237   0.931   8.316  0.1792  0.1031 -0.2455
 8140SOL    HW136056   2.260   0.948   8.407  1.2899  1.1410 -0.7023
 8140SOL    HW236057   2.325   0.924   8.278  1.3552 -0.9389  2.7298
 8141SOL     OW36058   4.612   2.884   1.191 -0.3114  0.1706  0.0009
 8141SOL    HW136059   4.674   2.839   1.133 -0.8776 -1.4319  0.6311
 8141SOL    HW236060   4.606   2.825   1.266 -3.6895  0.4562 -0.0295
 8142SOL     OW36061   3.496   0.606   2.716 -0.1061 -0.2612  0.0730
 8142SOL    HW136062   3.455   0.630   2.799 -0.1590 -0.2382  0.0402
 8142SOL    HW236063   3.582   0.640   2.738  0.3198 -0.5852 -1.0858
 8143SOL     OW36064   3.117   2.580  10.857  0.2301  0.2174 -0.2080
 8143SOL    HW136065   3.193   2.562  10.912 -1.9492 -3.0773  1.7389
 8143SOL    HW236066   3.049   2.521  10.890  2.5223 -0.3235  3.4772
 8144SOL     OW36067   0.790   0.897   4.231 -0.1200 -0.2362 -0.7258
 8144SOL    HW136068   0.817   0.810   4.260 -0.1409  0.2355  0.7338
 8144SOL    HW236069   0.769   0.869   4.142  0.4091  0.2680 -1.0099
 8145SOL     OW36070   0.910   2.351   0.043 -1.3860 -0.5018 -0.5578
 8145SOL    HW136071   0.871   2.396  17.720  0.3182  1.1460 -0.4712
 8145SOL    HW236072   0.975   2.418   0.065 -2.6453  0.1627  1.0920
 8146SOL     OW36073   0.045   2.135   0.936  0.1622 -0.5529  0.1936
 8146SOL    HW136074   4.709   2.088   0.898  1.9114 -1.6645 -1.8223
 8146SOL    HW236075   0.019   2.225   0.920 -0.3103 -0.2842  2.4114
 8147SOL     OW36076   3.652   0.962   8.804  0.2395 -0.0895 -0.5543
 8147SOL    HW136077   3.705   0.895   8.762  0.2795 -2.5604  3.4469
 8147SOL    HW236078   3.675   0.956   8.896 -0.5695 -0.8588 -0.4046
 8148SOL     OW36079   3.144   4.464  16.102  0.9461 -0.6664  0.1693
 8148SOL    HW136080   3.186   4.379  16.087  0.3627 -0.8688 -0.2873
 8148SOL    HW236081   3.142   4.468  16.198  0.2786 -1.3642  0.1839
 8149SOL     OW36082   0.575   2.397   7.426 -0.2049 -0.0355  0.2674
 8149SOL    HW136083   0.543   2.380   7.337  0.8819  0.3532 -0.1978
 8149SOL    HW236084   0.666   2.416   7.402 -0.6604 -1.3256 -2.5042
 8150SOL     OW36085   1.014   3.418   7.836  0.0362 -0.0492 -0.2936
 8150SOL    HW136086   0.919   3.428   7.828 -0.0494  0.8858  1.7566
 8150SOL    HW236087   1.037   3.475   7.763 -1.3496  1.5795  0.5490
 8151SOL     OW36088   0.462   1.220  17.727 -0.8284 -0.0325 -0.1874
 8151SOL    HW136089   0.454   1.167   0.055 -1.4074 -1.7786 -1.4144
 8151SOL    HW236090   0.377   1.197  17.689 -0.7037 -1.2203  0.2490
 8152SOL     OW36091   2.076   2.175  16.561  0.0859 -0.4070 -0.4259
 8152SOL    HW136092   2.014   2.245  16.542  1.0325  0.1471 -1.4860
 8152SOL    HW236093   2.067   2.175  16.656  0.5073  2.0906 -0.3749
 8153SOL     OW36094   4.072   4.688   2.949 -0.2143 -0.4472 -0.0180
 8153SOL    HW136095   4.122   4.611   2.923  0.2447 -0.3717  0.6066
 8153SOL    HW236096   4.068   4.725   2.861 -1.0487  0.1133  0.2582
 8154SOL     OW36097   4.718   4.627  14.324 -0.5567 -0.2277  0.2531
 8154SOL    HW136098   4.677   4.705  14.361 -0.1593  0.0461  0.1122
 8154SOL    HW236099   4.669   4.552  14.359  2.6741 -1.7363  1.5941
 8155SOL     OW36100   3.292   0.684  17.215 -0.0335 -0.3754 -0.2690
 8155SOL    HW136101   3.293   0.652  17.305 -0.5708 -1.0307 -0.4878
 8155SOL    HW236102   3.385   0.706  17.213 -0.4207  1.2434 -0.6673
 8156SOL     OW36103   0.371   2.423   8.619  0.7206 -0.6094 -0.1810
 8156SOL    HW136104   0.455   2.410   8.663 -0.6661 -2.5853  1.8803
 8156SOL    HW236105   0.311   2.405   8.691  1.3123 -1.5831  0.0646
 8157SOL     OW36106   2.506   0.711   5.018  0.0095  0.1674 -0.0907
 8157SOL    HW136107   2.439   0.778   5.029  0.2403  0.7384 -2.3164
 8157SOL    HW236108   2.571   0.767   4.976 -0.7016  0.6416 -0.5541
 8158SOL     OW36109   4.252   3.485   0.519  0.1511 -0.2317 -0.2342
 8158SOL    HW136110   4.298   3.406   0.545  1.0240  0.1784 -0.5357
 8158SOL    HW236111   4.300   3.504   0.438 -1.8325  0.6810 -1.1974
 8159SOL     OW36112   3.824   1.554   2.366 -0.0946 -0.1386 -0.3518
 8159SOL    HW136113   3.815   1.593   2.453  1.4143 -0.4356 -0.0644
 8159SOL    HW236114   3.795   1.464   2.386  1.5136 -0.4731  0.4564
 8160SOL     OW36115   1.430   1.599   6.497 -0.5897  0.1353  0.1537
 8160SOL    HW136116   1.375   1.591   6.419  0.9531 -0.5195 -0.8570
 8160SOL    HW236117   1.378   1.547   6.558  0.0221 -0.6038  0.0482
 8161SOL     OW36118   0.857   2.495   9.200 -0.1698 -0.3495 -0.2178
 8161SOL    HW136119   0.893   2.502   9.288 -0.7211  0.1215 -0.0299
 8161SOL    HW236120   0.828   2.405   9.211 -0.8113 -0.4560 -2.7061
 8162SOL     OW36121   2.830   0.209   8.175 -0.1254 -0.2142 -0.0412
 8162SOL    HW136122   2.829   0.271   8.102  1.1024 -1.7893 -1.3918
 8162SOL    HW236123   2.785   0.130   8.143 -0.2505  0.1856 -0.8672
 8163SOL     OW36124   3.411   0.823   7.963  0.5926  0.4909 -0.3100
 8163SOL    HW136125   3.470   0.858   7.896  1.4004  0.8147  0.5617
 8163SOL    HW236126   3.456   0.835   8.047 -0.8703 -0.4230  0.6008
 8164SOL     OW36127   0.968   2.220  14.416 -0.0252 -0.5024  0.2722
 8164SOL    HW136128   0.947   2.127  14.423 -1.5931 -0.1007  0.9143
 8164SOL    HW236129   0.955   2.253  14.505  2.8177  1.5401 -0.0538
 8165SOL     OW36130   2.324   1.171   4.282  0.6348 -0.1476 -0.0463
 8165SOL    HW136131   2.376   1.239   4.324  0.7093  0.8302 -1.7459
 8165SOL    HW236132   2.242   1.217   4.266 -0.0613 -0.6092  2.1537
 8166SOL     OW36133   2.339   1.193  17.741 -0.4329  0.1940 -0.1689
 8166SOL    HW136134   2.324   1.265  17.679  0.7416  0.0918 -0.5929
 8166SOL    HW236135   2.271   1.204   0.056  0.9670  2.2833  0.9298
 8167SOL     OW36136   2.757   4.004   1.101 -0.4237 -0.0943 -0.2338
 8167SOL    HW136137   2.737   4.028   1.192  2.3220  0.6988  0.1578
 8167SOL    HW236138   2.693   4.057   1.054 -1.1856 -1.1770 -0.4120
 8168SOL     OW36139   3.690   4.397   6.534  0.5296  0.9688  0.8692
 8168SOL    HW136140   3.600   4.386   6.503  0.4507 -0.1228  1.5078
 8168SOL    HW236141   3.719   4.480   6.495  0.7949  1.3715  1.9399
 8169SOL     OW36142   3.920   0.780  16.013 -0.0945  0.6718 -0.1936
 8169SOL    HW136143   3.887   0.699  15.974 -0.6548  1.5102 -1.4503
 8169SOL    HW236144   3.900   0.847  15.947  0.4056  0.9250 -0.0883
 8170SOL     OW36145   1.897   0.686   4.038 -0.6042  0.1561 -0.4701
 8170SOL    HW136146   1.873   0.593   4.043  3.1826 -0.7481  0.6752
 8170SOL    HW236147   1.992   0.686   4.030 -0.5434  0.5949  0.2962
 8171SOL     OW36148   0.352   0.843   1.400  0.4705  0.4009 -0.4572
 8171SOL    HW136149   0.437   0.850   1.442  0.1662 -0.3320  0.2878
 8171SOL    HW236150   0.378   0.835   1.308 -0.6269  2.9537 -1.0016
 8172SOL     OW36151   4.201   3.153   8.185 -0.3642 -0.0233  0.0816
 8172SOL    HW136152   4.290   3.176   8.210 -0.5716 -1.0761  1.8545
 8172SOL    HW236153   4.214   3.114   8.099 -1.6670 -0.7165  0.1894
 8173SOL     OW36154   1.428   2.967   3.196 -0.1510  0.5901  0.3606
 8173SOL    HW136155   1.435   3.027   3.271  1.0506 -1.3062  1.7842
 8173SOL    HW236156   1.388   3.025   3.132  0.3784  0.1583 -0.3624
 8174SOL     OW36157   0.867   3.447  10.910 -0.5123  0.1570 -0.2542
 8174SOL    HW136158   0.901   3.434  10.822  2.8792 -1.8045  1.3635
 8174SOL    HW236159   0.936   3.424  10.973 -0.5154 -1.8026 -0.9761
 8175SOL     OW36160   0.370   3.847   6.341 -0.0981  0.1985 -0.2950
 8175SOL    HW136161   0.358   3.842   6.436 -2.4909  1.0313 -0.5794
 8175SOL    HW236162   0.449   3.799   6.315  1.4930  2.4896  0.2383
 8176SOL     OW36163   1.425   3.613   2.332  0.1310  0.3868 -0.1271
 8176SOL    HW136164   1.494   3.547   2.336  0.5306  0.7609 -0.8368
 8176SOL    HW236165   1.366   3.589   2.404 -0.0451  1.0685 -0.0513
 8177SOL     OW36166   3.118   0.649   8.452 -0.0607  0.5866  0.1610
 8177SOL    HW136167   3.071   0.589   8.510  2.4372 -2.2623 -0.7155
 8177SOL    HW236168   3.106   0.733   8.495 -0.3719  0.8006 -0.3434
 8178SOL     OW36169   3.653   0.315   4.344 -0.1076 -0.2658 -0.1436
 8178SOL    HW136170   3.569   0.292   4.383 -1.2849  1.1753 -1.8478
 8178SOL    HW236171   3.629   0.293   4.254 -1.4667 -1.3380  0.4838
 8179SOL     OW36172   1.952   2.273  12.690  0.1192  0.6141 -0.3155
 8179SOL    HW136173   1.872   2.315  12.659 -1.4440 -1.4736  0.9488
 8179SOL    HW236174   1.984   2.222  12.616  0.7937  0.5462  0.0207
 8180SOL     OW36175   0.609   1.068  11.208 -0.4034 -0.0367 -0.0955
 8180SOL    HW136176   0.606   0.974  11.224  0.7344  0.1444  1.1264
 8180SOL    HW236177   0.596   1.084  11.114  0.0531 -0.2862 -0.2010
 8181SOL     OW36178   1.242   3.791   2.656  0.1106 -0.7842 -0.3001
 8181SOL    HW136179   1.250   3.721   2.591 -1.0635 -1.0915 -0.1135
 8181SOL    HW236180   1.148   3.807   2.645 -0.0038 -0.1120  1.7254
 8182SOL     OW36181   2.714   3.534   8.360  0.1169  0.0730  0.2689
 8182SOL    HW136182   2.729   3.460   8.302  0.9214 -1.2085  2.1356
 8182SOL    HW236183   2.628   3.511   8.396 -0.7417  0.5424 -1.4390
 8183SOL     OW36184   1.039   1.436   2.482  0.2318 -0.0413  0.3004
 8183SOL    HW136185   1.099   1.460   2.552  1.2621 -2.8025  0.3761
 8183SOL    HW236186   1.007   1.351   2.512 -1.1067 -0.3009 -1.8519
 8184SOL     OW36187   4.331   3.908   0.694 -0.2153 -0.1418 -0.0490
 8184SOL    HW136188   4.333   3.995   0.654 -2.4384  0.3081  0.8016
 8184SOL    HW236189   4.363   3.856   0.620 -2.2912 -0.4968 -0.6898
 8185SOL     OW36190   0.053   4.518   6.627  0.0496  0.1246 -0.4555
 8185SOL    HW136191   0.059   4.531   6.721 -1.1274  2.0056 -0.6331
 8185SOL    HW236192   0.005   4.436   6.635  0.9413 -0.5925 -2.3458
 8186SOL     OW36193   0.483   3.839   7.680 -0.5449 -0.0696  0.0044
 8186SOL    HW136194   0.454   3.826   7.770  0.6354 -0.4967  0.3271
 8186SOL    HW236195   0.395   3.841   7.642  0.0538  2.5809 -1.2475
 8187SOL     OW36196   0.788   3.239   6.191 -0.9807  0.3114  0.3986
 8187SOL    HW136197   0.749   3.168   6.141  0.1476 -0.3832  0.5165
 8187SOL    HW236198   0.828   3.294   6.124 -0.9713 -0.3081 -0.1022
 8188SOL     OW36199   3.740   3.260   4.453  0.1467 -0.3228 -0.2490
 8188SOL    HW136200   3.807   3.325   4.431  2.1666 -2.0925  0.6512
 8188SOL    HW236201   3.800   3.192   4.484 -0.0281  0.2594  1.3457
 8189SOL     OW36202   1.943   0.182   2.220  0.0550  0.0950  0.7528
 8189SOL    HW136203   1.984   0.267   2.203  0.9062 -0.2628  0.9971
 8189SOL    HW236204   1.865   0.196   2.272 -0.3239  1.6711 -0.2438
 8190SOL     OW36205   3.757   2.482   8.373  0.2821  0.2727 -0.0422
 8190SOL    HW136206   3.771   2.575   8.357 -0.6885  0.1527 -1.5535
 8190SOL    HW236207   3.691   2.483   8.443 -0.3401  1.3148 -0.6423
 8191SOL     OW36208   3.166   1.521   6.878 -0.2858 -0.1797  0.9099
 8191SOL    HW136209   3.165   1.436   6.921 -1.1103  0.3756  1.9927
 8191SOL    HW236210   3.074   1.535   6.854 -0.4601  0.8962  2.1622
 8192SOL     OW36211   3.722   0.336   4.057  0.0618  0.2501  0.1694
 8192SOL    HW136212   3.732   0.297   3.969 -1.2593  1.6185 -0.5821
 8192SOL    HW236213   3.627   0.347   4.064  0.0946  0.0752  0.8549
 8193SOL     OW36214   0.173   3.445   8.306 -0.8827  0.0514 -0.8714
 8193SOL    HW136215   0.144   3.356   8.327 -1.1350 -0.4612 -3.3001
 8193SOL    HW236216   0.187   3.482   8.393 -3.4889  1.1568 -0.9074
 8194SOL     OW36217   3.335   3.148   8.915 -0.0175 -0.0623  0.0553
 8194SOL    HW136218   3.408   3.113   8.864 -0.3890 -0.7858  0.0188
 8194SOL    HW236219   3.317   3.229   8.867 -0.3440 -1.8458 -2.8637
 8195SOL     OW36220   3.980   0.752  16.298 -0.3093 -0.6793 -0.2461
 8195SOL    HW136221   3.956   0.762  16.206 -0.9284  1.0274  0.1047
 8195SOL    HW236222   4.030   0.671  16.291  0.3608 -0.0748 -2.6802
 8196SOL     OW36223   4.500   0.611   2.775 -0.0978 -0.5141  0.3225
 8196SOL    HW136224   4.525   0.519   2.761  0.1300 -0.4148  0.0684
 8196SOL    HW236225   4.478   0.598   2.867 -0.7673 -2.9981 -0.1868
 8197SOL     OW36226   0.651   1.017   5.705  0.5547  0.0529 -0.4067
 8197SOL    HW136227   0.584   1.035   5.772  0.3357  0.1402 -0.6499
 8197SOL    HW236228   0.709   1.091   5.718 -2.5112  2.4035 -0.1079
 8198SOL     OW36229   1.756   1.154   8.633 -0.6119 -0.5940  0.3405
 8198SOL    HW136230   1.811   1.140   8.710  2.2859 -0.6328 -1.7280
 8198SOL    HW236231   1.824   1.190   8.575 -0.2973 -1.3858  0.2234
 8199SOL     OW36232   1.461   2.139  15.325  0.7307  0.0498  0.2525
 8199SOL    HW136233   1.398   2.101  15.264  1.4935 -1.2265  0.2599
 8199SOL    HW236234   1.428   2.109  15.410 -0.1277 -1.9585 -0.7842
 8200SOL     OW36235   1.147   2.100   2.074  0.3680 -0.5312 -0.7974
 8200SOL    HW136236   1.225   2.045   2.079  1.8364  1.6135 -0.2126
 8200SOL    HW236237   1.067   2.051   2.094  0.2223  0.4515  1.0636
 8201SOL     OW36238   0.040   1.835   4.731 -0.1063  0.3783 -0.3470
 8201SOL    HW136239   4.695   1.804   4.695  1.0742 -0.4433 -2.4030
 8201SOL    HW236240   0.025   1.927   4.752 -0.4555  0.9544 -3.0205
 8202SOL     OW36241   0.991   0.247   5.060  0.0314  0.3680  0.1359
 8202SOL    HW136242   1.023   0.223   4.973 -1.5108 -1.6520  0.1151
 8202SOL    HW236243   1.020   0.338   5.066  1.4433 -0.2560  2.3998
 8203SOL     OW36244   3.423   3.205   7.166 -0.3676  0.0882 -0.2511
 8203SOL    HW136245   3.423   3.228   7.073 -0.4873  0.0619 -0.2577
 8203SOL    HW236246   3.517   3.213   7.185 -0.0663 -0.5339 -1.4478
 8204SOL     OW36247   2.165   3.256   0.379 -0.4493 -0.3143 -0.0489
 8204SOL    HW136248   2.132   3.180   0.426 -2.1319 -0.6373 -1.7597
 8204SOL    HW236249   2.188   3.207   0.299 -1.7443  1.1501 -1.3142
 8205SOL     OW36250   1.742   4.511   2.973 -0.5058 -0.3005 -0.4741
 8205SOL    HW136251   1.745   4.588   2.916 -0.9205  1.8168  2.3729
 8205SOL    HW236252   1.678   4.469   2.916  1.1908 -3.6170  0.0295
 8206SOL     OW36253   1.856   1.605  11.156  0.1981  1.0097 -0.3412
 8206SOL    HW136254   1.909   1.526  11.146  1.9801  2.0003  1.1049
 8206SOL    HW236255   1.869   1.604  11.251 -1.8080 -1.0539 -0.1029
 8207SOL     OW36256   3.543   1.708   3.696 -0.6763  0.1495  0.0364
 8207SOL    HW136257   3.595   1.779   3.734  1.5267 -1.1960 -0.4934
 8207SOL    HW236258   3.519   1.738   3.608  1.0660 -0.5370 -0.6719
 8208SOL     OW36259   1.341   3.399   3.435  0.3969 -0.1257  0.0439
 8208SOL    HW136260   1.356   3.492   3.422  0.6088 -0.2973 -0.9253
 8208SOL    HW236261   1.249   3.390   3.462  0.4386 -1.6338 -0.2683
 8209SOL     OW36262   1.197   0.893   5.550 -0.2215  0.2415  0.2032
 8209SOL    HW136263   1.174   0.891   5.457  0.9878  1.2086 -0.1090
 8209SOL    HW236264   1.151   0.815   5.581  2.1584 -1.1487  0.1941
 8210SOL     OW36265   2.442   0.550   7.157  0.3769  0.0457  0.2285
 8210SOL    HW136266   2.384   0.497   7.102 -1.1349  0.8698  1.0353
 8210SOL    HW236267   2.519   0.494   7.169 -0.1492 -0.5836  0.6924
 8211SOL     OW36268   1.815   1.420   3.275  0.1434 -0.0430  0.6297
 8211SOL    HW136269   1.796   1.453   3.363 -0.1813  0.2668  0.4389
 8211SOL    HW236270   1.841   1.328   3.288  0.5665  0.0459  0.4222
 8212SOL     OW36271   0.552   0.983   4.298 -0.2293  0.4929 -0.1436
 8212SOL    HW136272   0.636   0.946   4.272 -0.2563  0.1892  0.2114
 8212SOL    HW236273   0.565   0.989   4.393  1.4432 -0.5256 -0.3089
 8213SOL     OW36274   2.819   2.013   5.443 -0.1321  0.1092  0.1521
 8213SOL    HW136275   2.899   1.985   5.489 -1.0988 -0.5535  1.4246
 8213SOL    HW236276   2.779   2.066   5.512 -0.0327  1.2774 -0.6967
 8214SOL     OW36277   4.401   1.080  11.053 -0.1469 -0.3976  0.4197
 8214SOL    HW136278   4.383   0.996  11.094  0.8774 -1.1426 -0.6395
 8214SOL    HW236279   4.495   1.086  11.073  0.5932 -0.3865 -3.0093
 8215SOL     OW36280   2.955   0.931   9.661 -0.2129  0.4770  0.5956
 8215SOL    HW136281   2.935   0.869   9.591 -1.0898  2.5769 -0.9922
 8215SOL    HW236282   2.998   1.001   9.612  1.9026 -1.8403 -0.8772
 8216SOL     OW36283   1.157   2.862   7.094 -0.2418  0.0028  0.2887
 8216SOL    HW136284   1.063   2.881   7.100 -0.0499  1.1273 -0.2809
 8216SOL    HW236285   1.160   2.860   6.998 -0.6934 -2.5803  0.3240
 8217SOL     OW36286   0.549   1.134  12.349  0.0128 -0.2203  0.4582
 8217SOL    HW136287   0.588   1.059  12.304 -0.9729  1.0179 -2.4077
 8217SOL    HW236288   0.457   1.116  12.329  0.4304 -0.2186 -1.4351
 8218SOL     OW36289   4.311   3.930  10.456  0.5457 -0.3119  0.3748
 8218SOL    HW136290   4.259   3.869  10.509  1.6468 -0.9708  0.7011
 8218SOL    HW236291   4.263   4.011  10.470  0.8799 -0.1726  0.7171
 8219SOL     OW36292   0.810   1.593   6.934 -0.4141 -0.0653  0.1150
 8219SOL    HW136293   0.776   1.523   6.991 -2.2515 -1.4224 -2.6474
 8219SOL    HW236294   0.896   1.614   6.970  0.4995 -2.2561 -0.7742
 8220SOL     OW36295   1.222   4.390   4.873 -0.1189 -0.1708  0.1970
 8220SOL    HW136296   1.178   4.475   4.874 -1.6726 -0.9647 -0.1735
 8220SOL    HW236297   1.309   4.419   4.845 -0.9954  0.0356 -2.3369
 8221SOL     OW36298   2.207   1.576   3.016  0.6092 -0.6391  0.1970
 8221SOL    HW136299   2.143   1.642   2.988 -0.5161 -1.7118  0.2689
 8221SOL    HW236300   2.161   1.559   3.098 -0.2314  3.9177  0.6768
 8222SOL     OW36301   3.518   4.459   4.377 -0.9299  0.3910 -0.1728
 8222SOL    HW136302   3.571   4.441   4.454 -0.8477  1.2236 -0.0307
 8222SOL    HW236303   3.572   4.423   4.307 -0.3367 -0.1558  0.5721
 8223SOL     OW36304   4.084   0.778   4.206 -0.0339  0.6892  0.1634
 8223SOL    HW136305   4.045   0.865   4.217 -2.4931 -0.1541 -2.0771
 8223SOL    HW236306   4.046   0.743   4.287  0.0440  2.6352  1.0449
 8224SOL     OW36307   0.016   1.016   6.823 -0.4755 -0.2903 -0.0588
 8224SOL    HW136308   0.065   0.935   6.834 -2.2140 -1.1869  1.1809
 8224SOL    HW236309   4.724   1.000   6.734  4.4534  1.5083 -2.0687
 8225SOL     OW36310   2.365   2.827   6.688  0.3030  0.1992  0.5903
 8225SOL    HW136311   2.378   2.879   6.608  2.2319  0.9088  1.3699
 8225SOL    HW236312   2.451   2.821   6.728  0.7818  0.2109 -0.4219
 8226SOL     OW36313   0.104   3.327   3.169 -0.3638  0.0188 -0.2413
 8226SOL    HW136314   0.191   3.288   3.182 -0.6177 -1.3061 -2.6388
 8226SOL    HW236315   0.113   3.401   3.109  0.2300 -0.2800 -0.5133
 8227SOL     OW36316   0.562   0.519   7.975  0.4508  0.6976  0.1782
 8227SOL    HW136317   0.615   0.441   7.955 -0.2401 -0.1590  1.6569
 8227SOL    HW236318   0.567   0.519   8.071 -1.1548 -1.7035  0.2619
 8228SOL     OW36319   2.321   2.235   4.055  0.1423 -0.7130 -0.2454
 8228SOL    HW136320   2.272   2.314   4.077  4.2073  0.6009  4.1613
 8228SOL    HW236321   2.332   2.269   3.966 -1.9131  0.2774 -0.1248
 8229SOL     OW36322   2.239   4.699  13.201  0.2318  0.2560 -0.0021
 8229SOL    HW136323   2.263   0.015  13.126  0.3241 -0.1187 -0.2439
 8229SOL    HW236324   2.325   4.681  13.240  0.2221  1.0052  0.3697
 8230SOL     OW36325   1.361   3.319   8.663  0.1819  0.5471 -0.0522
 8230SOL    HW136326   1.430   3.321   8.729  0.5265  4.6047 -0.5625
 8230SOL    HW236327   1.283   3.335   8.715 -0.7004  0.4782 -1.3312
 8231SOL     OW36328   0.911   1.715   2.764  0.1601 -0.1697  0.4799
 8231SOL    HW136329   0.848   1.647   2.743 -1.2659  1.1659  0.4741
 8231SOL    HW236330   0.869   1.738   2.847  1.5468  2.0000  0.5890
 8232SOL     OW36331   0.072   0.947  14.906 -0.2700  0.8784  0.4177
 8232SOL    HW136332   0.027   0.985  14.981  0.0853 -1.3035  1.7328
 8232SOL    HW236333   0.104   1.027  14.863  2.1966 -0.0923  0.4323
 8233SOL     OW36334   3.275   4.073   1.293 -0.0242 -0.1892  0.0187
 8233SOL    HW136335   3.181   4.093   1.295  0.4358  2.0951 -1.2400
 8233SOL    HW236336   3.292   4.006   1.359  0.6438  1.1960  1.2562
 8234SOL     OW36337   1.528   0.840  14.345 -0.2976 -0.1484  0.3619
 8234SOL    HW136338   1.489   0.927  14.348  0.4137  0.1639  0.4643
 8234SOL    HW236339   1.487   0.802  14.422  1.8319  0.5021  1.8191
 8235SOL     OW36340   3.060   4.112   6.754  0.1903 -0.6214 -0.4999
 8235SOL    HW136341   3.046   4.103   6.848  1.3420  1.5569 -0.1414
 8235SOL    HW236342   3.156   4.108   6.756  0.1020 -1.7560  0.9781
 8236SOL     OW36343   2.587   1.334  12.974 -0.4508  0.1459  0.1940
 8236SOL    HW136344   2.678   1.302  12.974 -0.4965  0.0241 -0.5622
 8236SOL    HW236345   2.536   1.259  13.004  0.1427 -0.0296  0.7774
 8237SOL     OW36346   4.588   3.020   4.171  0.1773 -0.5377  0.2780
 8237SOL    HW136347   4.594   2.960   4.097 -0.4768  0.2584 -0.4380
 8237SOL    HW236348   4.590   3.104   4.125 -0.0318 -0.0227  1.2087
 8238SOL     OW36349   2.335   0.106   6.348  0.2422 -0.2708 -0.4831
 8238SOL    HW136350   2.381   0.068   6.422 -0.4642 -1.8415 -0.8426
 8238SOL    HW236351   2.334   0.031   6.288  2.7535 -1.0977  0.5301
 8239SOL     OW36352   2.691   0.086  14.709  0.4009 -0.0169 -0.1140
 8239SOL    HW136353   2.738   0.014  14.667 -2.0060 -1.4814 -0.2848
 8239SOL    HW236354   2.733   0.167  14.677 -0.4711  0.6941  0.5592
 8240SOL     OW36355   4.311   0.478   9.602 -0.2544 -0.0896 -0.2598
 8240SOL    HW136356   4.384   0.441   9.652 -0.9414  2.4948  2.6156
 8240SOL    HW236357   4.335   0.452   9.512  2.0227  0.7001  0.1232
 8241SOL     OW36358   3.850   0.265   8.087 -0.2659 -0.1229  0.2011
 8241SOL    HW136359   3.821   0.200   8.023 -0.7002 -1.2997  1.6075
 8241SOL    HW236360   3.793   0.244   8.160 -0.4966  3.8631  1.1880
 8242SOL     OW36361   2.237   1.967   4.750 -0.6358 -0.3227  0.1873
 8242SOL    HW136362   2.242   2.045   4.696 -0.5149 -1.2531 -1.1587
 8242SOL    HW236363   2.158   1.991   4.798 -1.2549  2.2790 -2.1135
 8243SOL     OW36364   3.428   1.161   6.850  0.9854  0.2857 -0.3626
 8243SOL    HW136365   3.473   1.205   6.779  0.6242 -1.2888 -1.5547
 8243SOL    HW236366   3.372   1.104   6.797  0.2235 -0.6339  1.4256
 8244SOL     OW36367   0.771   2.010  10.945  0.1975 -0.2165  0.4168
 8244SOL    HW136368   0.750   2.034  10.855  1.1618  0.6547  0.4230
 8244SOL    HW236369   0.771   2.095  10.989 -0.2095  0.6996 -1.3703
 8245SOL     OW36370   2.562   0.788   9.768  0.0273 -0.1074  0.1501
 8245SOL    HW136371   2.507   0.745   9.834  0.7148 -1.5224 -0.2072
 8245SOL    HW236372   2.642   0.810   9.816  1.0270  1.3380 -2.2209
 8246SOL     OW36373   4.613   1.502   4.897 -0.7168  0.4593 -0.1208
 8246SOL    HW136374   4.553   1.538   4.962 -0.2572  0.3428  0.3700
 8246SOL    HW236375   4.561   1.516   4.817 -1.2781  1.1510  0.3668
 8247SOL     OW36376   0.850   0.000   4.956  0.1882  0.0433  0.4940
 8247SOL    HW136377   0.879   0.062   5.023  0.5020  1.0831 -0.6027
 8247SOL    HW236378   0.756   0.020   4.953  0.1938 -0.2547 -2.3458
 8248SOL     OW36379   0.430   1.685  11.588 -0.5455 -0.8388 -0.2061
 8248SOL    HW136380   0.356   1.731  11.548 -0.6248  0.3271  1.3080
 8248SOL    HW236381   0.449   1.620  11.520  1.0892 -0.0814 -0.4564
 8249SOL     OW36382   0.888   0.921   1.685  0.2894  0.2525  0.5338
 8249SOL    HW136383   0.882   0.910   1.780  0.4470  2.0324  0.7440
 8249SOL    HW236384   0.811   0.969   1.657 -0.3921  0.3107  2.4843
 8250SOL     OW36385   2.445   1.590   5.603 -0.2449 -0.1274  0.0181
 8250SOL    HW136386   2.484   1.654   5.544  0.1737 -0.6262 -0.2516
 8250SOL    HW236387   2.447   1.628   5.690  0.1971  1.3562 -0.6423
 8251SOL     OW36388   1.851   3.898   7.610 -0.1514 -0.0491 -0.0334
 8251SOL    HW136389   1.790   3.972   7.613  0.7130  0.6378  0.6369
 8251SOL    HW236390   1.838   3.864   7.522 -1.8203 -1.7904  0.8917
 8252SOL     OW36391   3.031   0.536   0.553  0.4109  0.4585  0.1765
 8252SOL    HW136392   3.029   0.621   0.598  0.1984  0.6238 -0.1519
 8252SOL    HW236393   3.093   0.495   0.613 -1.4316 -1.8297  0.4933
 8253SOL     OW36394   1.946   3.810  16.476  0.2849 -0.0472 -0.0325
 8253SOL    HW136395   1.925   3.724  16.513 -0.3388  0.4647  0.7891
 8253SOL    HW236396   1.991   3.857  16.546 -1.7869  2.3439 -0.3072
 8254SOL     OW36397   2.415   0.862   7.991 -0.1069  0.1911  0.4047
 8254SOL    HW136398   2.396   0.769   7.979  2.8158 -0.1070 -1.9173
 8254SOL    HW236399   2.345   0.894   7.934 -0.3341 -0.5997  0.2364
 8255SOL     OW36400   4.352   0.961   5.247  0.2712 -0.2646  0.6588
 8255SOL    HW136401   4.439   0.991   5.219 -0.5656  3.5114  2.1783
 8255SOL    HW236402   4.376   0.913   5.327  0.8448 -0.0666  0.6072
 8256SOL     OW36403   1.993   1.219   8.072  0.4163  0.6188 -0.0549
 8256SOL    HW136404   1.910   1.171   8.078 -0.2745  1.6144 -1.7016
 8256SOL    HW236405   2.004   1.218   7.977 -1.7191  3.0527 -0.3208
 8257SOL     OW36406   3.143   3.797   0.581  0.3259 -0.2085 -0.1491
 8257SOL    HW136407   3.233   3.799   0.550  0.0134  0.5837 -1.0146
 8257SOL    HW236408   3.170   3.824   0.668 -1.9656  1.5510  0.0152
 8258SOL     OW36409   1.624   1.347   7.543  0.3106  0.1203  0.2032
 8258SOL    HW136410   1.537   1.308   7.541  1.0794 -1.5525  0.0433
 8258SOL    HW236411   1.668   1.266   7.518 -1.1933 -0.3968 -0.7750
 8259SOL     OW36412   4.541   2.797   2.495 -0.1443 -0.1132 -0.3563
 8259SOL    HW136413   4.448   2.799   2.520 -0.2212 -0.3824 -0.6211
 8259SOL    HW236414   4.591   2.812   2.575  1.1023 -2.3741 -0.7137
 8260SOL     OW36415   2.458   1.918  17.283  0.0502  0.0259 -0.1205
 8260SOL    HW136416   2.544   1.891  17.314 -0.7852 -1.0623  1.2743
 8260SOL    HW236417   2.482   2.000  17.239 -0.4029  1.2897  1.9869
 8261SOL     OW36418   3.803   0.870   8.557  0.1299  0.1695  0.0094
 8261SOL    HW136419   3.890   0.830   8.549  0.4678 -0.0476  5.1064
 8261SOL    HW236420   3.751   0.798   8.521 -1.6042  1.0907  0.6911
 8262SOL     OW36421   3.840   1.056  10.680  0.0953  0.1348 -0.3949
 8262SOL    HW136422   3.834   1.021  10.769  0.2605  1.9427  0.3330
 8262SOL    HW236423   3.864   0.979  10.628  2.3890  0.8407 -0.4038
 8263SOL     OW36424   3.278   3.533   4.119  0.0650 -0.2461  0.0328
 8263SOL    HW136425   3.193   3.540   4.163  1.5649  0.1133  2.8438
 8263SOL    HW236426   3.312   3.460   4.170 -0.9171 -1.0873 -0.5121
 8264SOL     OW36427   4.368   1.046   1.778  0.6451 -0.4770 -0.1559
 8264SOL    HW136428   4.413   1.068   1.697 -0.3940  0.4007 -0.4979
 8264SOL    HW236429   4.424   0.984   1.825  0.1072 -0.7930  0.0724
 8265SOL     OW36430   1.842   2.226   7.710  0.1057  0.3590 -0.2094
 8265SOL    HW136431   1.841   2.270   7.625  1.1285  1.2136  0.2108
 8265SOL    HW236432   1.901   2.284   7.760 -0.9521  0.5574  0.7987
 8266SOL     OW36433   1.832   0.740   9.180  0.6856  0.5764  0.0662
 8266SOL    HW136434   1.783   0.702   9.253 -0.0019 -1.2546 -1.3525
 8266SOL    HW236435   1.901   0.783   9.230 -0.3258  0.3419  1.6666
 8267SOL     OW36436   1.795   3.459   1.941 -0.1591 -0.7153 -0.0581
 8267SOL    HW136437   1.842   3.516   2.001 -0.2781 -1.1040  0.4087
 8267SOL    HW236438   1.711   3.504   1.933  0.1786 -0.4617 -1.9731
 8268SOL     OW36439   1.839   4.715   4.226 -0.0194  0.0907 -0.9588
 8268SOL    HW136440   1.790   4.737   4.147 -0.8138  0.3598 -0.3918
 8268SOL    HW236441   1.779   4.656   4.272 -1.7786  3.0977  0.5457
 8269SOL     OW36442   1.935   2.788   7.972 -0.5716 -0.1504 -0.2123
 8269SOL    HW136443   1.988   2.709   7.977  0.7411  0.5650 -2.7918
 8269SOL    HW236444   1.988   2.854   7.927  1.1219 -0.6206  1.1012
 8270SOL     OW36445   4.290   0.919   2.916 -0.6665 -0.4449  0.3845
 8270SOL    HW136446   4.205   0.947   2.949  0.0188 -1.8554  3.2671
 8270SOL    HW236447   4.304   0.830   2.948 -0.5185 -0.5682 -0.0222
 8271SOL     OW36448   4.216   1.114   7.901  0.1704  0.0425 -0.6772
 8271SOL    HW136449   4.289   1.129   7.841  1.0149 -0.9248  0.1106
 8271SOL    HW236450   4.145   1.118   7.837  2.2103 -1.7369 -3.0819
 8272SOL     OW36451   2.677   4.072   9.119 -0.5257  0.1580 -0.2457
 8272SOL    HW136452   2.757   4.023   9.140 -0.4245 -0.4629 -2.0820
 8272SOL    HW236453   2.629   4.022   9.185  0.7814 -0.9741 -0.1549
 8273SOL     OW36454   0.406   2.557   6.571 -1.2329 -0.0054  0.2207
 8273SOL    HW136455   0.456   2.546   6.652 -0.8078  4.8043  0.6184
 8273SOL    HW236456   0.332   2.501   6.594 -1.9924  0.6550 -0.6187
 8274SOL     OW36457   3.340   4.421   4.161 -0.1020 -0.0380  0.2881
 8274SOL    HW136458   3.367   4.388   4.075 -0.3907  1.6926 -0.4449
 8274SOL    HW236459   3.422   4.401   4.207 -1.0672  1.4445  2.6204
 8275SOL     OW36460   0.913   0.256  11.810 -0.0492 -0.1724  0.3567
 8275SOL    HW136461   0.937   0.346  11.831  2.0194 -0.7441  0.4357
 8275SOL    HW236462   0.822   0.271  11.833 -0.1810 -0.5286  0.0783
 8276SOL     OW36463   3.289   4.156   5.565  0.0254 -0.1629  0.3810
 8276SOL    HW136464   3.247   4.179   5.648  1.1583 -1.9879  1.4767
 8276SOL    HW236465   3.311   4.242   5.530 -0.7652  0.8420  2.3336
 8277SOL     OW36466   1.990   2.289   0.418  0.2090 -0.1390  0.4831
 8277SOL    HW136467   2.036   2.244   0.488  1.0700  0.4846  0.3154
 8277SOL    HW236468   1.898   2.278   0.444  0.1374  1.4957  0.9192
 8278SOL     OW36469   2.631   2.821   6.784 -1.2768 -0.3340 -0.2453
 8278SOL    HW136470   2.657   2.826   6.876 -0.6877  1.1090 -0.4791
 8278SOL    HW236471   2.709   2.779   6.748  0.1591 -1.1818  3.8255
 8279SOL     OW36472   3.103   1.229  16.999 -0.1949  0.6423  0.0378
 8279SOL    HW136473   3.019   1.200  17.033 -0.0295 -0.5521 -0.5776
 8279SOL    HW236474   3.158   1.209  17.075 -1.3517 -0.2259  0.6472
 8280SOL     OW36475   4.453   3.137   4.940  0.0832  0.0941 -0.5557
 8280SOL    HW136476   4.361   3.134   4.916 -0.0488 -0.0464 -0.0303
 8280SOL    HW236477   4.455   3.223   4.982  0.7306  0.5836 -1.5767
 8281SOL     OW36478   1.769   2.227  11.390 -0.2971 -0.6355 -0.2792
 8281SOL    HW136479   1.698   2.241  11.327 -0.4599  1.7699  0.4393
 8281SOL    HW236480   1.742   2.278  11.467  0.4376  0.9858 -1.0803
 8282SOL     OW36481   0.158   3.413   3.513  0.1990  0.1670 -0.1658
 8282SOL    HW136482   0.202   3.328   3.506  1.1240  0.6220  0.0558
 8282SOL    HW236483   0.181   3.434   3.604  0.8299 -1.3017  0.0277
 8283SOL     OW36484   3.665   3.831   4.019 -0.2245  0.0959 -0.2913
 8283SOL    HW136485   3.571   3.827   4.037  0.0866  1.0594  1.4782
 8283SOL    HW236486   3.687   3.784   4.099 -1.2342 -0.6103 -0.4308
 8284SOL     OW36487   1.160   0.034  11.468 -0.2885 -0.0045  0.0870
 8284SOL    HW136488   1.065   0.045  11.463 -0.2880  0.9063  2.3031
 8284SOL    HW236489   1.189   0.069  11.552  1.3050  1.0924 -0.9077
 8285SOL     OW36490   0.183   1.729   6.032  0.2542  0.2491 -0.8757
 8285SOL    HW136491   0.162   1.794   5.965  1.8260  1.5825 -0.0544
 8285SOL    HW236492   0.257   1.684   5.991 -1.4730 -0.5693 -3.1768
 8286SOL     OW36493   3.207   3.455   4.755  0.0820  0.1867  0.1758
 8286SOL    HW136494   3.234   3.390   4.819  1.2200 -0.2751 -0.7670
 8286SOL    HW236495   3.269   3.443   4.683  0.6858 -1.8455  1.0530
 8287SOL     OW36496   0.571   3.074   8.514 -0.6288 -0.4168 -0.1743
 8287SOL    HW136497   0.508   3.032   8.572 -0.0679 -0.1787  0.6164
 8287SOL    HW236498   0.637   3.005   8.498  0.3388  0.6630 -0.8380
 8288SOL     OW36499   0.458   0.877   1.155 -0.0950  0.2025 -0.3005
 8288SOL    HW136500   0.448   0.853   1.062  3.4541 -2.9697  0.1408
 8288SOL    HW236501   0.526   0.944   1.149  0.1698  0.0264  0.7759
 8289SOL     OW36502   3.927   0.396  13.155  0.5562 -0.0895  0.0206
 8289SOL    HW136503   3.854   0.458  13.147 -0.9070 -1.7491  0.4957
 8289SOL    HW236504   3.989   0.447  13.208 -1.0338  0.4115  1.4188
 8290SOL     OW36505   0.887   2.800   3.983 -0.0469 -0.0126 -0.0123
 8290SOL    HW136506   0.816   2.744   3.953  1.5661 -1.3697 -1.2453
 8290SOL    HW236507   0.899   2.853   3.904 -0.1912  0.9079  0.5742
 8291SOL     OW36508   2.983   3.717  10.149  0.4940  0.7460 -0.3544
 8291SOL    HW136509   2.957   3.645  10.092  2.7213 -1.6667  1.6747
 8291SOL    HW236510   3.065   3.685  10.185  0.4290 -1.3704 -2.1069
 8292SOL     OW36511   1.182   1.162   3.812  0.3876 -0.1313  0.2841
 8292SOL    HW136512   1.171   1.114   3.894  0.4572  0.1771  0.4735
 8292SOL    HW236513   1.171   1.251   3.844 -0.0409 -0.1180  0.0977
 8293SOL     OW36514   4.507   1.607  14.156  0.0846 -0.1136  0.9198
 8293SOL    HW136515   4.454   1.645  14.086  0.6092  0.0305  0.6049
 8293SOL    HW236516   4.539   1.527  14.115  0.2504  1.1013 -1.2848
 8294SOL     OW36517   4.245   0.715   7.484  0.0325  0.3032  0.3198
 8294SOL    HW136518   4.235   0.810   7.490  1.8877  0.4511  1.2409
 8294SOL    HW236519   4.286   0.702   7.398 -0.6672 -0.1780  0.0574
 8295SOL     OW36520   0.122   3.399   7.512 -0.1408  0.3773 -0.1830
 8295SOL    HW136521   0.202   3.443   7.483  1.4367 -0.1967  3.3072
 8295SOL    HW236522   0.103   3.445   7.594 -0.8886 -0.4510  0.1008
 8296SOL     OW36523   1.308   4.262   1.849 -0.0957 -0.1318 -0.2883
 8296SOL    HW136524   1.289   4.354   1.869  0.7702  0.1200 -0.5970
 8296SOL    HW236525   1.274   4.221   1.928  0.1172 -0.4070 -0.3381
 8297SOL     OW36526   4.593   1.768   5.661 -0.5363  0.3094 -0.4955
 8297SOL    HW136527   4.508   1.757   5.704  0.0665 -0.8779  0.3863
 8297SOL    HW236528   4.623   1.678   5.653  0.3576  0.8298 -2.9356
 8298SOL     OW36529   2.116   0.467   0.757  0.2658  0.2006  0.3498
 8298SOL    HW136530   2.089   0.444   0.846 -3.6147  2.7066 -0.1884
 8298SOL    HW236531   2.207   0.439   0.766  0.4144  0.5843  0.0275
 8299SOL     OW36532   0.934   3.953   8.459  0.2530  0.3317 -0.0300
 8299SOL    HW136533   0.885   3.878   8.424  1.3786  0.3269 -1.6115
 8299SOL    HW236534   1.007   3.954   8.396 -0.5033 -2.1770 -0.9849
 8300SOL     OW36535   0.070   2.824   2.327 -0.3040 -0.1327 -0.2936
 8300SOL    HW136536   0.086   2.744   2.276 -4.0887 -0.8500 -0.3146
 8300SOL    HW236537   4.715   2.815   2.343 -0.2862  1.5321  0.7789
 8301SOL     OW36538   4.318   2.158   2.724  0.5931 -0.1376  0.1769
 8301SOL    HW136539   4.319   2.161   2.819 -1.4228  0.5193  0.1645
 8301SOL    HW236540   4.251   2.091   2.713 -0.7111  1.1666  0.2520
 8302SOL     OW36541   3.367   0.626   1.573  0.0763 -0.0027  0.1624
 8302SOL    HW136542   3.373   0.721   1.568  1.6303 -0.0777  0.5372
 8302SOL    HW236543   3.382   0.615   1.667  1.3781  2.0832  0.1907
 8303SOL     OW36544   2.642   0.805   1.924 -0.5040 -0.3283 -0.1775
 8303SOL    HW136545   2.713   0.851   1.969 -1.6462  1.7484 -0.4945
 8303SOL    HW236546   2.600   0.885   1.891 -0.8761 -0.3170  0.3133
 8304SOL     OW36547   4.250   2.051   6.426  0.2856 -0.3792 -0.0597
 8304SOL    HW136548   4.248   2.142   6.457 -2.2819 -0.5210  0.2492
 8304SOL    HW236549   4.301   2.049   6.346 -0.0377  0.7788 -0.2971
 8305SOL     OW36550   1.846   1.804   9.078 -0.0697  0.4912  0.3278
 8305SOL    HW136551   1.805   1.825   8.994  1.3745  1.3458 -0.1779
 8305SOL    HW236552   1.821   1.712   9.084 -0.2937  0.4192 -1.5010
 8306SOL     OW36553   3.503   3.535  10.758  0.0581  0.2787  0.4507
 8306SOL    HW136554   3.456   3.461  10.795  0.8853 -0.6545 -0.3866
 8306SOL    HW236555   3.439   3.604  10.780  0.7326  1.5426 -1.5704
 8307SOL     OW36556   0.888   2.929   4.502  0.1906 -0.3615 -0.7422
 8307SOL    HW136557   0.882   2.835   4.522  0.0071 -0.0512  0.7001
 8307SOL    HW236558   0.863   2.941   4.410 -0.3326 -1.5977 -0.7675
 8308SOL     OW36559   3.618   1.499   9.604 -0.4390  0.7273  0.1576
 8308SOL    HW136560   3.604   1.522   9.696  0.9051  1.3653  0.2072
 8308SOL    HW236561   3.609   1.404   9.612  0.4569  0.8070  1.9972
 8309SOL     OW36562   4.616   3.540  11.374 -0.1551  0.1355  0.1283
 8309SOL    HW136563   4.641   3.604  11.307  1.7839 -1.1246 -0.3718
 8309SOL    HW236564   4.696   3.518  11.422  1.0193 -3.1939 -3.3310
 8310SOL     OW36565   4.087   0.385   5.125  0.3650 -0.0158  0.0726
 8310SOL    HW136566   4.142   0.344   5.191  1.3930  0.6122 -0.3992
 8310SOL    HW236567   4.105   0.477   5.143  1.8101  0.0594 -1.6895
 8311SOL     OW36568   2.656   3.707   3.971 -0.4677  0.3308 -0.2043
 8311SOL    HW136569   2.736   3.669   3.934  0.1438  1.4741 -0.0320
 8311SOL    HW236570   2.681   3.796   3.994 -0.0089 -0.3932  2.0994
 8312SOL     OW36571   1.732   1.797  16.533  0.1058 -0.2316 -0.4006
 8312SOL    HW136572   1.690   1.827  16.453  0.1979  1.8213  0.3340
 8312SOL    HW236573   1.664   1.805  16.600  0.7354 -1.7401  0.4245
 8313SOL     OW36574   0.573   0.448  16.783 -0.6336  0.0698  0.1388
 8313SOL    HW136575   0.576   0.458  16.688 -1.1998  1.1059  0.2326
 8313SOL    HW236576   0.614   0.362  16.798  0.7071  0.3688 -1.7680
 8314SOL     OW36577   0.454   2.443   0.599 -0.1845 -0.0573  0.0502
 8314SOL    HW136578   0.427   2.412   0.513 -0.6837  0.3906  0.0522
 8314SOL    HW236579   0.429   2.370   0.656 -0.4046 -1.1091 -1.3883
 8315SOL     OW36580   1.108   4.600   8.772 -0.2415 -0.4759  0.1989
 8315SOL    HW136581   1.086   4.691   8.791  3.5772  0.1187  1.5492
 8315SOL    HW236582   1.075   4.562   8.853 -2.0509  1.5208  0.3999
 8316SOL     OW36583   3.991   0.172   4.243  0.0177 -0.0060 -0.5717
 8316SOL    HW136584   3.986   0.268   4.247  2.3000  0.0672  0.6996
 8316SOL    HW236585   4.073   0.162   4.196 -1.2398  0.6385 -2.8774
 8317SOL     OW36586   1.159   4.658   4.963 -0.1033  0.3009 -0.1702
 8317SOL    HW136587   1.242   4.703   4.949 -0.6056  0.9278 -1.1475
 8317SOL    HW236588   1.089   4.702   4.914  1.4369  3.3107  0.3125
 8318SOL     OW36589   0.698   0.827   9.141 -0.4249  0.4726  0.0976
 8318SOL    HW136590   0.633   0.874   9.193 -0.2058  0.6570  0.2010
 8318SOL    HW236591   0.666   0.843   9.052  1.7552 -0.9709 -0.9400
 8319SOL     OW36592   4.120   2.531   1.071 -0.1830  0.0355  0.1128
 8319SOL    HW136593   4.160   2.618   1.080  1.4076 -0.6448 -0.3594
 8319SOL    HW236594   4.092   2.525   1.163  1.1817  0.3000  0.5493
 8320SOL     OW36595   1.217   1.982   2.673  0.5287 -0.2848  0.5408
 8320SOL    HW136596   1.151   1.914   2.660  0.7678 -0.4927  0.4096
 8320SOL    HW236597   1.160   2.058   2.681 -0.2740 -0.8012 -0.2862
 8321SOL     OW36598   2.181   1.708   1.945 -0.1317 -0.3243  0.8131
 8321SOL    HW136599   2.146   1.690   2.032 -2.3333 -1.0526 -0.2292
 8321SOL    HW236600   2.243   1.775   1.974 -0.2016  0.4066 -0.7332
 8322SOL     OW36601   0.795   2.140  11.723 -0.0966  0.7718 -0.1956
 8322SOL    HW136602   0.794   2.134  11.819  2.5684  0.1641 -0.1826
 8322SOL    HW236603   0.822   2.054  11.690 -1.4750  1.5936 -3.3995
 8323SOL     OW36604   0.595   2.198   6.688  0.2010 -0.1830 -0.2486
 8323SOL    HW136605   0.634   2.166   6.606  0.6173 -1.4170  0.4391
 8323SOL    HW236606   0.612   2.291   6.673 -1.4335  0.0181 -0.9130
 8324SOL     OW36607   2.045   4.564  11.087  0.4968  0.4996  0.4054
 8324SOL    HW136608   1.951   4.548  11.094  0.5210 -0.5099 -1.8428
 8324SOL    HW236609   2.056   4.548  10.993  0.0050 -0.2778  0.4880
 8325SOL     OW36610   2.638   4.672   6.626 -0.9404  0.7757  0.0910
 8325SOL    HW136611   2.732   4.670   6.607 -1.1527  1.3131 -1.0594
 8325SOL    HW236612   2.605   4.614   6.558 -1.0557  0.4279  0.4448
 8326SOL     OW36613   3.806   2.877   5.979  0.6005  0.3943 -0.4563
 8326SOL    HW136614   3.825   2.950   6.039 -1.3595 -0.1806  0.8467
 8326SOL    HW236615   3.880   2.819   6.000 -0.5898  0.1298  2.9788
 8327SOL     OW36616   4.210   1.362   6.871 -0.3329  0.3617  0.2788
 8327SOL    HW136617   4.191   1.327   6.785 -1.3731  0.1552  0.5965
 8327SOL    HW236618   4.250   1.444   6.842  1.9227 -0.0361  2.2165
 8328SOL     OW36619   2.375   0.203  17.455  0.7584 -0.6523 -0.3896
 8328SOL    HW136620   2.436   0.131  17.440 -0.3845 -1.3725 -1.5760
 8328SOL    HW236621   2.334   0.170  17.535  0.3049  2.1018  0.5105
 8329SOL     OW36622   3.542   1.761   5.921 -0.0351 -0.3478 -0.2279
 8329SOL    HW136623   3.487   1.781   5.997 -1.4156 -3.6257 -0.3509
 8329SOL    HW236624   3.493   1.687   5.886 -0.6572  0.2108 -0.5330
 8330SOL     OW36625   3.548   1.403   2.697 -0.1568 -0.5003  0.0714
 8330SOL    HW136626   3.534   1.447   2.781 -0.1325 -2.8764  1.3337
 8330SOL    HW236627   3.469   1.427   2.650 -0.6178  0.5433  1.3967
 8331SOL     OW36628   1.839   3.158   9.490  0.1316 -0.1259  0.1288
 8331SOL    HW136629   1.794   3.126   9.412  0.5711 -1.2856  0.3482
 8331SOL    HW236630   1.867   3.074   9.527  1.0708 -0.8085 -2.1541
 8332SOL     OW36631   3.010   4.615   7.922  0.6577 -0.6581 -0.9543
 8332SOL    HW136632   3.083   4.672   7.949  1.3698 -0.2367 -3.7656
 8332SOL    HW236633   3.058   4.537   7.950  0.7212 -0.5300 -0.7032
 8333SOL     OW36634   4.529   0.363   2.213 -0.3932 -0.3555 -0.3490
 8333SOL    HW136635   4.554   0.390   2.125  1.7978 -1.0209  0.0592
 8333SOL    HW236636   4.506   0.445   2.257  1.6572  1.2256 -2.2370
 8334SOL     OW36637   4.202   3.663   3.549  0.2514  0.2688 -0.8951
 8334SOL    HW136638   4.241   3.748   3.568  1.9973 -0.5282 -0.8550
 8334SOL    HW236639   4.208   3.621   3.635 -1.7334  1.9714  0.0867
 8335SOL     OW36640   0.581   3.893   4.163  0.6845 -0.2690  0.6254
 8335SOL    HW136641   0.523   3.825   4.196 -0.0260 -0.8400 -1.7951
 8335SOL    HW236642   0.668   3.867   4.193  0.6770  1.5063  2.2494
 8336SOL     OW36643   4.406   0.520   5.462  0.9160 -0.5774 -0.2701
 8336SOL    HW136644   4.443   0.495   5.547  0.7626  0.7507  0.1775
 8336SOL    HW236645   4.313   0.530   5.480  0.8803  0.6740 -1.1959
 8337SOL     OW36646   0.302   1.056   4.869  0.2620 -0.4022 -0.3014
 8337SOL    HW136647   0.372   1.092   4.923  0.1540  2.3850 -2.0947
 8337SOL    HW236648   0.291   0.971   4.913  1.4147  0.5171  1.7593
 8338SOL     OW36649   3.352   4.670  14.099  0.1262 -0.1787  0.4929
 8338SOL    HW136650   3.332   4.697  14.189  1.5858 -0.2383  0.8484
 8338SOL    HW236651   3.279   4.615  14.071  1.9469 -1.4341 -1.8137
 8339SOL     OW36652   0.935   1.124   5.334 -0.0305 -0.4478  0.3646
 8339SOL    HW136653   0.925   1.052   5.271  0.3127 -2.0096  2.0916
 8339SOL    HW236654   0.862   1.181   5.311  1.0056  0.2610 -1.1106
 8340SOL     OW36655   2.413   1.569  16.129 -0.2120  0.2168  0.0115
 8340SOL    HW136656   2.482   1.624  16.167  0.6808 -0.7455 -0.2476
 8340SOL    HW236657   2.393   1.620  16.051  1.5083  3.0609  1.4169
 8341SOL     OW36658   3.189   4.709  10.464  0.5677 -0.6326  0.0930
 8341SOL    HW136659   3.266   4.675  10.509  0.0601 -0.7592  0.8686
 8341SOL    HW236660   3.120   4.700  10.531  2.3348  0.6259  2.0919
 8342SOL     OW36661   2.006   4.670  14.842 -0.4541  0.0054 -0.0421
 8342SOL    HW136662   1.993   4.646  14.751 -0.3885  0.9344 -0.2915
 8342SOL    HW236663   1.932   4.626  14.884  0.6967 -1.0339  0.8990
 8343SOL     OW36664   0.162   2.369   8.790  0.4155  0.3310 -0.3349
 8343SOL    HW136665   0.116   2.287   8.805 -0.2641  1.0123  1.2272
 8343SOL    HW236666   0.118   2.420   8.858  0.5357  2.1003 -1.5513
 8344SOL     OW36667   1.682   4.211   4.337  0.0512 -0.0729 -0.1046
 8344SOL    HW136668   1.757   4.270   4.350  1.0223 -1.6877  1.6707
 8344SOL    HW236669   1.727   4.128   4.319 -2.5578 -1.7321  0.9619
 8345SOL     OW36670   0.725   4.536  15.736  0.0682  0.0431  0.2066
 8345SOL    HW136671   0.757   4.611  15.687  0.7957 -0.5682 -0.2495
 8345SOL    HW236672   0.703   4.587  15.813  2.6559  2.2831 -0.5564
 8346SOL     OW36673   3.870   3.270   6.777 -0.0873 -0.1835 -0.1221
 8346SOL    HW136674   3.933   3.206   6.743  0.3442  0.0344  0.2726
 8346SOL    HW236675   3.810   3.208   6.819  0.6346 -1.0183 -0.3052
 8347SOL     OW36676   3.151   1.353  13.964 -0.2582  0.6738 -0.0722
 8347SOL    HW136677   3.150   1.271  14.013  1.0406 -0.0674 -1.3132
 8347SOL    HW236678   3.218   1.413  13.998 -0.1484  0.5322 -0.0376
 8348SOL     OW36679   3.026   3.050   6.096  0.1671  0.6031  0.3010
 8348SOL    HW136680   2.957   2.985   6.081 -0.5334  1.6677 -1.0821
 8348SOL    HW236681   3.088   2.986   6.132 -0.1894 -0.2830 -0.6289
 8349SOL     OW36682   0.066   4.024   6.713  0.4808 -0.0035  0.7481
 8349SOL    HW136683   0.058   3.929   6.714  1.6414 -0.1602 -3.9090
 8349SOL    HW236684   0.058   4.040   6.619 -1.3598  1.3073  1.1315
 8350SOL     OW36685   0.608   4.387   6.819 -0.8935  0.4803 -0.0441
 8350SOL    HW136686   0.522   4.402   6.779 -0.4378  0.9883 -0.8274
 8350SOL    HW236687   0.574   4.351   6.900 -2.7672  1.2096 -0.4954
 8351SOL     OW36688   2.799   1.080   3.381  0.0584  0.1596 -0.2914
 8351SOL    HW136689   2.722   1.126   3.349  1.1876  1.6092 -0.9655
 8351SOL    HW236690   2.834   1.043   3.300 -0.7794 -1.9845  0.3307
 8352SOL     OW36691   0.941   0.552   7.967 -0.8219  0.6398 -0.3229
 8352SOL    HW136692   0.928   0.470   7.921 -1.8970  0.2313  0.7011
 8352SOL    HW236693   1.018   0.586   7.922 -1.9299  2.8835 -0.5739
 8353SOL     OW36694   0.169   0.080  15.062  0.1564  0.2275 -0.7449
 8353SOL    HW136695   0.144   0.056  15.151 -2.2830  0.9063 -1.2629
 8353SOL    HW236696   0.165   4.732  15.021  1.1421 -0.7315  1.1757
 8354SOL     OW36697   2.428   4.306   4.379  0.2601  0.5546 -0.4308
 8354SOL    HW136698   2.457   4.352   4.300 -2.4851 -1.6097 -2.6789
 8354SOL    HW236699   2.447   4.215   4.356  3.0768  0.4218  2.3554
 8355SOL     OW36700   3.167   3.107  15.346 -0.1343 -0.2691  1.0578
 8355SOL    HW136701   3.245   3.052  15.356 -0.4341 -1.0565 -0.9057
 8355SOL    HW236702   3.102   3.052  15.301 -2.5062  2.0756  1.6130
 8356SOL     OW36703   2.034   4.612   1.598 -0.3655  0.5070  0.3150
 8356SOL    HW136704   1.960   4.646   1.548 -0.6748 -0.9424 -0.2433
 8356SOL    HW236705   2.106   4.664   1.562 -0.9004  1.0756  0.0665
 8357SOL     OW36706   0.071   1.077  13.027  0.2014  0.4998  0.2883
 8357SOL    HW136707   0.126   1.054  12.953 -1.8478  2.6081 -1.9070
 8357SOL    HW236708   0.130   1.070  13.102 -1.1402  0.0969  1.3113
 8358SOL     OW36709   3.538   4.625  16.099  0.1488 -0.7049 -0.2480
 8358SOL    HW136710   3.460   4.645  16.047 -0.8727 -2.3182  0.6531
 8358SOL    HW236711   3.516   4.534  16.122  0.9633  0.0748  3.5827
 8359SOL     OW36712   2.554   0.968   7.208  0.2826  0.1691  0.3048
 8359SOL    HW136713   2.579   1.014   7.128 -0.4433  1.2657  0.6926
 8359SOL    HW236714   2.544   1.046   7.263 -0.4795  0.4432 -0.2234
 8360SOL     OW36715   0.080   1.658  12.626 -0.1845  0.2574  0.3744
 8360SOL    HW136716   4.727   1.655  12.596  0.3948  1.3801 -1.4601
 8360SOL    HW236717   0.096   1.752  12.634 -2.3272  0.6095  0.5360
 8361SOL     OW36718   1.658   3.988   2.749  0.5583  0.4276  0.0156
 8361SOL    HW136719   1.746   3.953   2.765  0.7527  0.3109 -1.2797
 8361SOL    HW236720   1.598   3.914   2.755  2.9101 -1.4722  0.1285
 8362SOL     OW36721   2.075   4.436   8.276 -0.0704 -0.6084 -0.0479
 8362SOL    HW136722   2.129   4.416   8.353  0.6280  0.8977 -0.1546
 8362SOL    HW236723   2.133   4.497   8.232  0.4658  0.9029  2.7282
 8363SOL     OW36724   1.262   0.946   7.304 -0.3599  0.7224 -0.0252
 8363SOL    HW136725   1.229   0.869   7.350 -0.7734  0.5035 -0.6926
 8363SOL    HW236726   1.183   0.970   7.255 -0.6546  0.2159  0.1914
 8364SOL     OW36727   3.189   0.535   5.905 -0.1837 -0.4490 -0.0999
 8364SOL    HW136728   3.166   0.486   5.984  1.9304  0.4586  1.0876
 8364SOL    HW236729   3.139   0.616   5.919  1.5524  0.7052 -0.5013
 8365SOL     OW36730   4.565   1.830   7.938  0.1935  0.3459 -0.0890
 8365SOL    HW136731   4.651   1.856   7.971 -0.4625  1.9319  0.4280
 8365SOL    HW236732   4.511   1.895   7.985  0.7990  0.5823  0.2903
 8366SOL     OW36733   0.137   1.577   4.790  0.2780 -0.1938  0.0434
 8366SOL    HW136734   0.059   1.525   4.807 -0.0070  0.5670  1.0292
 8366SOL    HW236735   0.123   1.671   4.797  1.5037 -0.0914  1.1618
 8367SOL     OW36736   4.539   0.584   8.847  0.6048 -0.1797  0.2749
 8367SOL    HW136737   4.507   0.612   8.762  4.6188 -0.1945 -1.2687
 8367SOL    HW236738   4.597   0.514   8.818 -2.2266 -2.4421  0.1135
 8368SOL     OW36739   2.248   0.928   2.400  0.8065 -0.0688  0.3940
 8368SOL    HW136740   2.160   0.906   2.429  0.9445 -2.0837 -0.6883
 8368SOL    HW236741   2.287   0.925   2.487 -1.3375 -2.3504  1.2618
 8369SOL     OW36742   2.000   3.535  11.704 -0.0401 -0.3829  0.2634
 8369SOL    HW136743   1.942   3.535  11.781 -0.0563 -1.8853  0.2484
 8369SOL    HW236744   1.938   3.574  11.642  0.4652 -0.3046 -0.1875
 8370SOL     OW36745   0.529   0.350   9.102 -0.1696 -0.0966 -0.1850
 8370SOL    HW136746   0.557   0.281   9.163  2.2159  0.1062 -1.0441
 8370SOL    HW236747   0.475   0.292   9.049 -1.5645  0.5173  0.5751
 8371SOL     OW36748   2.882   2.751   9.949  0.3140  0.1771  0.4216
 8371SOL    HW136749   2.845   2.722   9.866  0.0270 -0.3533  0.7318
 8371SOL    HW236750   2.929   2.832   9.929 -2.3296  0.8339 -3.0611
 8372SOL     OW36751   1.020   2.765   4.940  0.3094 -0.5544  0.3172
 8372SOL    HW136752   1.015   2.857   4.966 -0.8828 -0.1809 -1.2227
 8372SOL    HW236753   1.113   2.743   4.947  0.4415  0.6289  2.5180
 8373SOL     OW36754   0.421   0.366   3.446 -0.0517  0.0458 -0.0778
 8373SOL    HW136755   0.357   0.436   3.436 -0.1056 -0.3144 -2.0967
 8373SOL    HW236756   0.507   0.406   3.439  0.1403 -0.2675  0.4446
 8374SOL     OW36757   4.672   0.064   6.069 -0.4280 -0.1889 -0.6435
 8374SOL    HW136758   4.625   0.069   6.152 -1.8490 -1.1226 -1.3759
 8374SOL    HW236759   4.736   0.135   6.075 -0.2732 -0.3630 -0.2845
 8375SOL     OW36760   1.046   3.691   0.255  0.4095 -0.5704 -0.3684
 8375SOL    HW136761   1.005   3.612   0.220  3.1915 -0.5218 -3.8137
 8375SOL    HW236762   1.079   3.655   0.337 -1.6317  0.3723  0.8626
 8376SOL     OW36763   4.203   2.494   4.709 -0.0710  0.3608 -0.1920
 8376SOL    HW136764   4.141   2.535   4.770  0.1201 -0.2069  0.3834
 8376SOL    HW236765   4.172   2.404   4.704  0.4353  0.1282  0.8956
 8377SOL     OW36766   1.163   3.073   8.423  0.2233  0.5598  0.2878
 8377SOL    HW136767   1.118   3.056   8.340 -0.9281 -0.6105  1.1389
 8377SOL    HW236768   1.139   3.163   8.444  0.5067  0.1049  2.5877
 8378SOL     OW36769   1.135   2.604   2.775 -0.6369 -0.6739  0.4334
 8378SOL    HW136770   1.066   2.583   2.712  1.0091 -0.3069 -1.4737
 8378SOL    HW236771   1.183   2.522   2.770  0.0932 -0.3626  2.5064
 8379SOL     OW36772   2.073   1.282   7.248 -0.2138  0.2606  0.7095
 8379SOL    HW136773   2.113   1.317   7.168  1.3859 -1.3224  0.8167
 8379SOL    HW236774   2.105   1.193   7.232 -1.1500  0.0528  0.0093
 8380SOL     OW36775   0.816   3.048   3.271  0.5194 -0.4025 -0.1435
 8380SOL    HW136776   0.840   3.077   3.182  0.8644 -0.7401 -0.1583
 8380SOL    HW236777   0.897   3.071   3.315  1.4422 -1.2658 -1.4061
 8381SOL     OW36778   2.333   0.523  16.016 -0.2693  0.6277  0.0482
 8381SOL    HW136779   2.275   0.452  16.043  1.8978 -0.9166  0.7036
 8381SOL    HW236780   2.380   0.483  15.943  2.9191  2.2000  1.2218
 8382SOL     OW36781   2.829   1.163   9.219 -0.2720  0.7470 -0.0719
 8382SOL    HW136782   2.772   1.107   9.272 -0.2497  0.6289 -0.1728
 8382SOL    HW236783   2.892   1.096   9.194  1.5786  0.7123  4.6380
 8383SOL     OW36784   0.479   4.284   3.553 -0.4627  0.0187 -0.6931
 8383SOL    HW136785   0.562   4.332   3.559 -0.9125  0.5397  1.4900
 8383SOL    HW236786   0.492   4.224   3.480  0.9044 -0.4440 -0.0726
 8384SOL     OW36787   1.290   0.297   5.869 -0.5535 -0.7789  0.5439
 8384SOL    HW136788   1.289   0.259   5.781  0.1349  4.6047 -1.8048
 8384SOL    HW236789   1.215   0.356   5.864  1.3957  1.6932  0.4363
 8385SOL     OW36790   1.318   3.591   5.104 -0.2610 -0.5797 -0.1900
 8385SOL    HW136791   1.289   3.601   5.013 -0.9216  0.6180  0.1664
 8385SOL    HW236792   1.382   3.661   5.111  0.9735 -1.7657  0.3251
 8386SOL     OW36793   3.326   1.512   2.048 -0.5238 -0.1545  0.0025
 8386SOL    HW136794   3.378   1.440   2.085 -1.0012  0.9466  2.8549
 8386SOL    HW236795   3.281   1.455   1.985  0.6375  0.3359 -1.2558
 8387SOL     OW36796   4.111   1.377   2.594 -0.0675  0.2788  0.0072
 8387SOL    HW136797   4.030   1.348   2.636 -0.5024  1.8697  0.2645
 8387SOL    HW236798   4.176   1.364   2.664  2.2395 -0.4090 -2.2577
 8388SOL     OW36799   0.819   4.431  17.026 -0.2309  0.7100 -0.8893
 8388SOL    HW136800   0.744   4.439  16.966 -1.3271 -1.1916  0.2092
 8388SOL    HW236801   0.776   4.489  17.089 -1.0844  0.0490 -0.8527
 8389SOL     OW36802   0.876   3.064   7.608  0.5944  0.2457 -0.3465
 8389SOL    HW136803   0.951   3.114   7.575  1.8170 -0.0516  1.9278
 8389SOL    HW236804   0.870   2.999   7.538 -0.9024  0.7763 -0.7130
 8390SOL     OW36805   2.249   4.161   9.949 -0.0638  0.4943 -0.3893
 8390SOL    HW136806   2.312   4.204   9.892 -0.4496 -0.2041 -1.3391
 8390SOL    HW236807   2.302   4.091   9.987  0.0090  0.4793 -0.5174
 8391SOL     OW36808   0.950   0.097   9.057 -0.3650  0.0844 -0.2793
 8391SOL    HW136809   1.025   0.156   9.069 -1.4339  1.5228 -0.6467
 8391SOL    HW236810   0.984   0.018   9.099 -0.3696  0.8704  1.1980
 8392SOL     OW36811   0.733   1.077  10.830 -0.0397  0.8562  0.0869
 8392SOL    HW136812   0.695   1.029  10.757 -0.7035  0.1307  0.8975
 8392SOL    HW236813   0.739   1.004  10.892 -0.2730  0.9824  0.2604
 8393SOL     OW36814   2.857   2.982   4.984 -0.2345 -0.0517 -0.5161
 8393SOL    HW136815   2.899   3.067   4.997  0.2236 -0.5615  1.3915
 8393SOL    HW236816   2.932   2.924   4.993  0.6953  1.3472  0.7768
 8394SOL     OW36817   2.628   1.402   7.985 -0.3666 -0.1683 -0.6277
 8394SOL    HW136818   2.721   1.385   7.970 -0.1335  1.2275 -0.8179
 8394SOL    HW236819   2.580   1.320   7.973 -3.8443  1.5629  1.3860
 8395SOL     OW36820   3.567   1.116   2.994  0.4740  1.0786  0.1032
 8395SOL    HW136821   3.548   1.033   3.038  1.3399  0.6999 -0.2573
 8395SOL    HW236822   3.492   1.123   2.934  0.9464  1.7004 -0.4105
 8396SOL     OW36823   2.885   0.777   9.462  0.0007 -0.4683  0.3747
 8396SOL    HW136824   2.907   0.702   9.407 -0.7892 -0.8757  0.6137
 8396SOL    HW236825   2.791   0.775   9.445 -0.0908  1.0163  0.6878
 8397SOL     OW36826   0.333   1.082  10.008 -0.6242  0.1511 -0.1136
 8397SOL    HW136827   0.238   1.072   9.998 -0.5145 -0.2132 -0.8087
 8397SOL    HW236828   0.367   1.053   9.923 -1.3358  1.6372 -0.9173
 8398SOL     OW36829   4.075   3.608   9.923  0.1480  0.0557 -0.0754
 8398SOL    HW136830   4.019   3.685   9.931 -0.8954 -0.8565  1.4083
 8398SOL    HW236831   4.158   3.629   9.966  1.1027 -0.0700 -1.8442
 8399SOL     OW36832   1.185   1.937   5.251  0.0624  0.1759 -0.7261
 8399SOL    HW136833   1.188   1.968   5.342  1.0809  2.4068 -1.5046
 8399SOL    HW236834   1.101   1.893   5.252  1.0342 -1.6632 -0.3356
 8400SOL     OW36835   2.167   2.775   7.384  0.1777 -0.0063  0.6356
 8400SOL    HW136836   2.120   2.692   7.375  0.2242 -0.0444  0.7484
 8400SOL    HW236837   2.256   2.741   7.390  0.1537  0.1689  2.0069
 8401SOL     OW36838   3.483   0.009   3.609 -0.2750  0.4603 -0.2143
 8401SOL    HW136839   3.400   0.020   3.656  1.2284  0.6610  2.3968
 8401SOL    HW236840   3.509   4.663   3.648 -0.2320 -0.0428 -1.3101
 8402SOL     OW36841   2.423   0.097  15.311 -0.3229  0.0884 -0.3884
 8402SOL    HW136842   2.493   0.158  15.288 -1.8080  1.0851 -2.2624
 8402SOL    HW236843   2.349   0.155  15.330  2.6233  3.0273  2.1794
 8403SOL     OW36844   0.853   3.466   1.945 -0.5745 -0.0906 -0.0135
 8403SOL    HW136845   0.824   3.548   1.905 -0.3900  1.6200  3.3444
 8403SOL    HW236846   0.925   3.449   1.885  0.1071  0.6160  0.6140
 8404SOL     OW36847   2.566   1.707  10.904 -0.5663  0.0487  0.0531
 8404SOL    HW136848   2.481   1.716  10.948 -2.1188  2.9457 -3.4799
 8404SOL    HW236849   2.560   1.622  10.863  0.0574  1.2764 -2.5617
 8405SOL     OW36850   4.166   1.279   4.198 -0.3744 -0.3778  0.5071
 8405SOL    HW136851   4.077   1.269   4.164 -1.0781  2.5650  1.4108
 8405SOL    HW236852   4.154   1.362   4.245 -0.7115 -1.2631  1.9699
 8406SOL     OW36853   3.540   3.842   9.055 -0.2122 -0.0687 -0.1674
 8406SOL    HW136854   3.464   3.832   8.997 -1.1435  1.6179  0.7742
 8406SOL    HW236855   3.603   3.825   8.985  0.5011 -2.6633  1.1114
 8407SOL     OW36856   4.095   0.621   1.671  0.4251  0.4538  0.1566
 8407SOL    HW136857   4.087   0.555   1.740  1.0833  0.5540  0.3258
 8407SOL    HW236858   4.001   0.627   1.654  0.1901  0.7362  1.5062
 8408SOL     OW36859   1.754   2.920   3.681 -0.2177  0.4679 -0.0878
 8408SOL    HW136860   1.707   3.002   3.694  0.1643  0.8059 -0.8550
 8408SOL    HW236861   1.720   2.893   3.596  0.4606  3.2491 -1.2214
 8409SOL     OW36862   0.126   2.547   5.656  0.1444 -0.2933 -0.7907
 8409SOL    HW136863   0.158   2.627   5.614  1.9344 -0.4141  0.3221
 8409SOL    HW236864   0.125   2.486   5.582  0.3394 -1.9214  0.5520
 8410SOL     OW36865   2.197   3.298   6.279 -0.0803  0.2946  0.4468
 8410SOL    HW136866   2.146   3.327   6.355 -1.5042  1.1888 -0.8484
 8410SOL    HW236867   2.229   3.384   6.250 -0.3516  0.5562  0.9237
 8411SOL     OW36868   2.703   2.046   3.710  0.2440 -0.2541  0.1090
 8411SOL    HW136869   2.658   2.011   3.786  0.3241  0.0713  0.3098
 8411SOL    HW236870   2.787   2.009   3.736  0.3191 -0.0979  0.0920
 8412SOL     OW36871   3.738   0.037   8.815 -0.0497  0.4017  0.1987
 8412SOL    HW136872   3.762   4.685   8.835  0.4113  0.5258  0.2001
 8412SOL    HW236873   3.748   0.032   8.719 -0.5467 -2.0021  0.2719
 8413SOL     OW36874   1.463   4.418   7.319  0.2418  0.1069 -0.4294
 8413SOL    HW136875   1.535   4.467   7.279  0.2242 -2.1320 -3.2452
 8413SOL    HW236876   1.454   4.455   7.407  0.8639 -1.3076  0.2238
 8414SOL     OW36877   1.464   2.496   0.072 -0.6721  0.1438  0.1701
 8414SOL    HW136878   1.500   2.585   0.074  1.4085 -0.5585 -4.6342
 8414SOL    HW236879   1.543   2.442   0.065 -2.2118 -2.3002  1.7666
 8415SOL     OW36880   1.783   0.432   0.022 -0.3502  0.1197 -0.3147
 8415SOL    HW136881   1.805   0.432  17.679  0.3411 -1.4713 -0.1575
 8415SOL    HW236882   1.864   0.453   0.069  0.4230  1.7574 -2.3481
 8416SOL     OW36883   2.056   0.200   2.655  0.0839  0.1562 -0.3176
 8416SOL    HW136884   2.085   0.122   2.702 -2.9919 -1.6212 -1.4082
 8416SOL    HW236885   2.106   0.273   2.692 -0.1066  0.1685 -0.0860
 8417SOL     OW36886   4.138   2.398   2.697  0.3563  0.5814 -0.6281
 8417SOL    HW136887   4.064   2.339   2.686  0.4132  0.3121  0.4555
 8417SOL    HW236888   4.212   2.343   2.723 -1.6861 -1.2587  1.2799
 8418SOL     OW36889   2.020   2.169   3.686 -0.1206 -0.2518 -0.3910
 8418SOL    HW136890   1.981   2.093   3.642  0.5176 -0.8917  0.1485
 8418SOL    HW236891   2.080   2.196   3.616 -2.0179 -0.4833 -2.1285
 8419SOL     OW36892   4.463   4.717   2.722 -1.2181 -0.4979  0.5462
 8419SOL    HW136893   4.522   4.718   2.647 -1.0655  0.6587  0.6833
 8419SOL    HW236894   4.496   0.062   2.756 -1.0841 -0.6355  0.7524
 8420SOL     OW36895   4.671   1.961   4.392  0.0729 -0.4316  0.6757
 8420SOL    HW136896   0.010   1.923   4.435 -0.3469 -0.8598  1.0506
 8420SOL    HW236897   4.698   2.050   4.371  0.1029 -0.6083 -0.0414
 8421SOL     OW36898   3.634   4.638  15.791 -0.6596 -0.5732  0.0574
 8421SOL    HW136899   3.565   4.616  15.853 -1.4798  3.0560  0.4415
 8421SOL    HW236900   3.695   4.565  15.801 -1.0113 -0.8514  0.1830
 8422SOL     OW36901   0.616   0.887   1.463 -0.3736  0.8103 -0.1779
 8422SOL    HW136902   0.675   0.962   1.462  3.3231 -2.0311  2.9469
 8422SOL    HW236903   0.655   0.836   1.391  1.8163  2.1367  0.0660
 8423SOL     OW36904   0.024   4.001   3.198 -0.1406 -0.2435  0.1834
 8423SOL    HW136905   4.721   4.019   3.113  1.3185  1.5778 -0.1342
 8423SOL    HW236906   4.704   3.932   3.230  1.8786 -2.5219 -1.1134
 8424SOL     OW36907   3.880   3.191  12.651  0.1771 -0.1147 -0.4307
 8424SOL    HW136908   3.894   3.238  12.733 -2.1071  0.1735 -0.2216
 8424SOL    HW236909   3.971   3.170  12.632 -0.5455 -1.1676 -2.7378
 8425SOL     OW36910   1.594   0.979  13.109 -0.2591 -0.3782 -0.1159
 8425SOL    HW136911   1.566   0.943  13.193 -1.9335  2.1516  0.4105
 8425SOL    HW236912   1.554   1.065  13.091  0.1906 -0.6304 -2.4043
 8426SOL     OW36913   1.162   1.298   6.843 -0.5385  0.0382  0.0419
 8426SOL    HW136914   1.173   1.348   6.763 -0.2619 -0.6752 -0.3661
 8426SOL    HW236915   1.242   1.248   6.827 -2.0840 -1.5815 -2.4829
 8427SOL     OW36916   0.715   2.857  13.303 -0.1193  0.2643 -0.3459
 8427SOL    HW136917   0.738   2.764  13.301  1.9292  0.7627 -0.0937
 8427SOL    HW236918   0.799   2.897  13.325 -0.5077  1.4566 -1.0310
 8428SOL     OW36919   1.591   2.474   7.941 -0.2210  0.3492 -0.3956
 8428SOL    HW136920   1.557   2.429   7.863  0.9684  1.3855 -1.5063
 8428SOL    HW236921   1.669   2.421   7.958  0.7526  1.8663 -0.1950
 8429SOL     OW36922   2.165   4.443   4.396 -0.3189 -0.3845 -0.0753
 8429SOL    HW136923   2.125   4.486   4.321 -1.2081 -0.9412  0.0734
 8429SOL    HW236924   2.258   4.447   4.376  0.1102 -0.4537  1.8977
 8430SOL     OW36925   1.665   2.215   2.063 -0.0640 -0.4634  0.3789
 8430SOL    HW136926   1.708   2.163   2.130 -0.6825 -1.0562  0.3103
 8430SOL    HW236927   1.740   2.245   2.011 -0.6781  1.1936  0.4671
 8431SOL     OW36928   2.742   3.323  15.013 -0.3943  0.0958 -0.0001
 8431SOL    HW136929   2.803   3.390  14.982 -1.0951  0.8088  0.1661
 8431SOL    HW236930   2.771   3.249  14.961  0.5716 -0.6210  1.5715
 8432SOL     OW36931   3.625   1.143   2.682 -0.5546 -0.5791  1.0689
 8432SOL    HW136932   3.556   1.094   2.728 -0.9969 -1.1570 -0.2040
 8432SOL    HW236933   3.584   1.229   2.675  1.3410  0.1370 -1.1477
 8433SOL     OW36934   0.815   3.318  13.529  0.0722 -0.0606 -0.2860
 8433SOL    HW136935   0.813   3.223  13.512 -1.5126 -0.3442  1.4919
 8433SOL    HW236936   0.893   3.344  13.481  1.0597 -0.3283  1.2013
 8434SOL     OW36937   1.568   2.311  11.040 -0.1096 -0.0253 -0.1175
 8434SOL    HW136938   1.586   2.327  11.133  0.9358 -0.6949 -0.2107
 8434SOL    HW236939   1.655   2.291  11.006 -1.1024 -0.3914 -2.3737
 8435SOL     OW36940   1.371   4.573   1.560 -0.0008  0.1206 -0.1033
 8435SOL    HW136941   1.312   4.625   1.504 -0.4028 -2.2814 -1.9127
 8435SOL    HW236942   1.358   4.611   1.647  2.6948  1.4625 -0.2836
 8436SOL     OW36943   3.432   1.001   6.134  0.2205 -0.1405 -0.6909
 8436SOL    HW136944   3.359   0.976   6.190  0.9171  0.4929  0.5154
 8436SOL    HW236945   3.462   1.086   6.168  1.0410 -1.6007  2.2975
 8437SOL     OW36946   4.592   1.683  14.413 -0.2512 -0.4927 -0.1519
 8437SOL    HW136947   4.578   1.589  14.426 -0.0406 -0.4743  0.2293
 8437SOL    HW236948   4.588   1.685  14.318  2.7048 -0.9944 -0.3044
 8438SOL     OW36949   1.357   0.925  11.508  0.4884 -0.0296  0.2694
 8438SOL    HW136950   1.315   1.005  11.476 -0.8428  0.1437  2.5156
 8438SOL    HW236951   1.448   0.955  11.499  0.6139  0.5805  3.7138
 8439SOL     OW36952   4.323   3.266   4.005 -0.5587  0.1839  0.1651
 8439SOL    HW136953   4.367   3.307   4.080  3.2749 -4.1583  0.3291
 8439SOL    HW236954   4.232   3.262   4.034 -0.5256  2.7093  0.5861
 8440SOL     OW36955   1.681   0.608   1.426 -0.0512  0.5932  0.8098
 8440SOL    HW136956   1.737   0.535   1.401 -1.6292 -0.8929  1.6828
 8440SOL    HW236957   1.728   0.674   1.375 -0.9005  1.2652  0.8880
 8441SOL     OW36958   3.251   3.049   7.287 -0.2071  0.0696  0.3106
 8441SOL    HW136959   3.276   3.064   7.379  1.9769  1.5069 -0.5055
 8441SOL    HW236960   3.322   3.100   7.247  0.9404 -1.6039  0.2035
 8442SOL     OW36961   0.594   1.866   5.506 -0.1652 -0.4775 -0.1388
 8442SOL    HW136962   0.579   1.841   5.415  0.8790  0.6450 -0.6115
 8442SOL    HW236963   0.684   1.897   5.498 -0.4459  0.1597 -0.7428
 8443SOL     OW36964   2.860   3.510   3.840  0.3002 -0.3555 -0.6018
 8443SOL    HW136965   2.796   3.439   3.830 -0.7496  0.4517  0.3959
 8443SOL    HW236966   2.905   3.521   3.757  0.2756 -1.5588 -0.7734
 8444SOL     OW36967   1.289   2.357  11.424  0.0092  0.1819 -0.0793
 8444SOL    HW136968   1.266   2.439  11.468 -0.7885  1.3959 -2.7404
 8444SOL    HW236969   1.379   2.348  11.457 -0.8881 -0.4689  2.2042
 8445SOL     OW36970   3.299   0.080  14.320  0.2501 -0.6459 -0.6171
 8445SOL    HW136971   3.211   0.116  14.336  0.6478 -0.6125  1.5529
 8445SOL    HW236972   3.349   0.157  14.295  0.1165 -0.0624  0.9242
 8446SOL     OW36973   3.164   3.242   5.963 -0.4306  0.7752  0.0713
 8446SOL    HW136974   3.204   3.182   5.900 -0.3339  0.6069  0.2902
 8446SOL    HW236975   3.108   3.184   6.015  0.6791 -1.7058 -1.4936
 8447SOL     OW36976   0.812   0.610  12.945  0.2752 -0.2615  0.5107
 8447SOL    HW136977   0.889   0.562  12.976 -0.3763 -2.1668 -0.8268
 8447SOL    HW236978   0.805   0.583  12.854 -0.2533  1.8817 -0.0945
 8448SOL     OW36979   3.676   3.379   3.253 -0.6141 -0.2413  0.1139
 8448SOL    HW136980   3.695   3.387   3.346 -0.1359 -1.1061  0.0953
 8448SOL    HW236981   3.731   3.441   3.206 -0.8172  0.0846  0.3086
 8449SOL     OW36982   0.170   1.951   7.692  0.1729  0.0995 -0.4345
 8449SOL    HW136983   0.163   2.041   7.723  0.3320 -0.2761  0.7006
 8449SOL    HW236984   0.077   1.931   7.680 -0.4972  0.9523  3.4120
 8450SOL     OW36985   0.615   2.528  14.319 -0.0826 -0.0870  0.7278
 8450SOL    HW136986   0.619   2.579  14.238  1.7859 -3.2198 -1.1331
 8450SOL    HW236987   0.681   2.460  14.304 -0.7402 -0.3127 -1.0675
 8451SOL     OW36988   2.256   1.952  16.532  0.6090 -0.2641  0.6259
 8451SOL    HW136989   2.199   2.029  16.531  0.7180 -0.1628  2.1355
 8451SOL    HW236990   2.215   1.886  16.477  2.6423  0.0769 -1.2816
 8452SOL     OW36991   4.330   0.704   1.683 -0.2797 -0.3819  0.0303
 8452SOL    HW136992   4.235   0.687   1.682 -0.1189 -1.2799 -0.8943
 8452SOL    HW236993   4.356   0.651   1.758  1.5481  1.9570  1.0050
 8453SOL     OW36994   3.881   0.837   5.660  0.7147 -0.1489 -0.3880
 8453SOL    HW136995   3.786   0.828   5.673  0.7667  0.6482  0.5973
 8453SOL    HW236996   3.909   0.749   5.683  1.1090 -0.1943 -1.0476
 8454SOL     OW36997   4.075   1.934   9.581 -0.0206 -0.4481  0.2110
 8454SOL    HW136998   4.168   1.952   9.597 -0.6080 -1.0496  4.3860
 8454SOL    HW236999   4.087   1.879   9.504 -1.6011  0.1304 -0.4452
 8455SOL     OW37000   2.149   3.634   9.321 -0.7664  0.1313 -0.2884
 8455SOL    HW137001   2.155   3.615   9.414  0.1881 -2.2620 -0.8502
 8455SOL    HW237002   2.088   3.708   9.317 -0.4057  0.4791  0.6648
 8456SOL     OW37003   0.692   3.878  11.476 -0.2243 -0.1678  0.1239
 8456SOL    HW137004   0.761   3.883  11.541 -0.0960  2.5529 -0.2292
 8456SOL    HW237005   0.750   3.897  11.402 -0.1683 -0.7095  0.0242
 8457SOL     OW37006   2.596   1.845   2.781  0.3200 -0.1096  0.1366
 8457SOL    HW137007   2.589   1.755   2.815  1.9781  0.4574  1.9526
 8457SOL    HW237008   2.621   1.895   2.858  1.4898  1.0861 -1.0359
 8458SOL     OW37009   2.359   0.465  11.419  0.0460  0.4266  0.3585
 8458SOL    HW137010   2.305   0.411  11.476  2.3830 -1.6651  0.5529
 8458SOL    HW237011   2.364   0.549  11.465 -1.7801  0.6893  0.0979
 8459SOL     OW37012   1.138   4.084   5.760 -0.0765 -0.2557 -0.1908
 8459SOL    HW137013   1.054   4.112   5.798 -0.1696  0.3096 -0.8110
 8459SOL    HW237014   1.171   4.031   5.832  1.2914 -1.7175 -1.8747
 8460SOL     OW37015   1.774   0.511   1.797 -0.0057  0.6101  0.1706
 8460SOL    HW137016   1.688   0.474   1.817  0.0263  0.3280 -0.1915
 8460SOL    HW237017   1.752   0.603   1.810  2.7342  1.0730  1.4041
 8461SOL     OW37018   3.712   4.256   8.303 -0.2823 -0.6712  0.4760
 8461SOL    HW137019   3.743   4.291   8.387 -0.8819 -0.6375  0.6857
 8461SOL    HW237020   3.628   4.231   8.341  0.4443 -3.5467  0.2207
 8462SOL     OW37021   2.850   0.033   8.395  0.0277  0.3320  0.2905
 8462SOL    HW137022   2.829   4.719   8.317 -2.2683  1.7989 -0.0917
 8462SOL    HW237023   2.885   0.112   8.354 -1.7619  1.7153  1.4118
 8463SOL     OW37024   3.761   3.565  10.637 -0.2055 -0.1042 -0.1908
 8463SOL    HW137025   3.689   3.534  10.692  0.2353 -0.0187  0.4461
 8463SOL    HW237026   3.828   3.513  10.681  0.0991 -0.4791 -1.0957
 8464SOL     OW37027   3.544   3.228   0.712 -0.0024 -0.0166  0.5261
 8464SOL    HW137028   3.459   3.193   0.739 -0.2220 -0.7699 -1.1307
 8464SOL    HW237029   3.547   3.309   0.763  1.1970 -0.8236  1.7365
 8465SOL     OW37030   0.680   4.280   9.309  0.2660 -0.3173 -0.4059
 8465SOL    HW137031   0.754   4.221   9.324 -2.1878 -3.7649 -1.8580
 8465SOL    HW237032   0.605   4.221   9.318 -0.2662  0.3303 -0.5107
 8466SOL     OW37033   2.050   4.465   5.919  0.2272  0.2223 -0.3683
 8466SOL    HW137034   1.982   4.532   5.914  1.5506  1.6492  1.1924
 8466SOL    HW237035   2.004   4.399   5.972 -0.1614  2.2314  1.7791
 8467SOL     OW37036   0.258   4.308   5.053 -0.3242 -0.2681 -0.1166
 8467SOL    HW137037   0.350   4.320   5.077 -0.9665  2.3433  1.0548
 8467SOL    HW237038   0.269   4.286   4.960 -0.9925  1.3689 -0.5999
 8468SOL     OW37039   1.660   3.789   1.320  0.1870  0.4443  0.4543
 8468SOL    HW137040   1.715   3.722   1.361 -0.7529  0.2160  1.3196
 8468SOL    HW237041   1.573   3.767   1.351  0.5817 -0.5377  0.8705
 8469SOL     OW37042   4.077   0.779   8.522 -0.1234 -0.0801  0.0461
 8469SOL    HW137043   4.078   0.686   8.545 -1.2140 -0.3025 -0.8012
 8469SOL    HW237044   4.140   0.822   8.580 -0.9758 -0.5377  1.3076
 8470SOL     OW37045   3.557   2.719   9.343 -0.6068  0.3692 -0.1146
 8470SOL    HW137046   3.575   2.680   9.429 -0.3504 -0.6175 -0.6140
 8470SOL    HW237047   3.525   2.807   9.359  0.9738  0.7591  0.9026
 8471SOL     OW37048   1.761   1.660   7.000  0.5266 -0.6670  0.4937
 8471SOL    HW137049   1.784   1.638   6.909  0.0271  0.8842 -0.0206
 8471SOL    HW237050   1.679   1.708   6.985 -0.3682 -2.0086  1.1085
 8472SOL     OW37051   1.981   4.183  15.226  0.1784 -0.1818  0.0069
 8472SOL    HW137052   1.964   4.183  15.132 -1.4591 -1.1950  0.3129
 8472SOL    HW237053   2.062   4.133  15.232  0.8756  1.0582  0.9656
 8473SOL     OW37054   0.812   1.747   7.210 -0.2869 -0.3385  0.2641
 8473SOL    HW137055   0.897   1.710   7.237 -0.0858  1.8631  2.6196
 8473SOL    HW237056   0.846   1.819   7.157 -0.2521 -1.2232 -0.9228
 8474SOL     OW37057   3.932   4.311   1.596 -0.2082 -0.0615 -0.5909
 8474SOL    HW137058   3.946   4.256   1.519  2.8996 -0.6861  0.4030
 8474SOL    HW237059   4.010   4.287   1.646  0.2413  0.7885 -0.8743
 8475SOL     OW37060   2.662   0.438   3.259 -0.0679 -0.4038  0.2104
 8475SOL    HW137061   2.591   0.405   3.314 -0.8055  1.9937  0.7156
 8475SOL    HW237062   2.680   0.356   3.214  1.2733  0.5363 -1.0130
 8476SOL     OW37063   2.254   0.512  15.605 -0.1765  0.3531  0.2391
 8476SOL    HW137064   2.317   0.575  15.571  0.4558 -1.6750 -2.4108
 8476SOL    HW237065   2.185   0.568  15.642  0.3763  0.5551  0.9475
 8477SOL     OW37066   3.887   2.562   2.966 -0.3312 -0.3198  0.1089
 8477SOL    HW137067   3.880   2.530   3.056  2.2882 -1.7031 -0.1675
 8477SOL    HW237068   3.848   2.491   2.915 -0.3785 -0.0532 -0.2258
 8478SOL     OW37069   4.605   1.812   0.361  0.2983 -0.1794  0.2102
 8478SOL    HW137070   4.601   1.776   0.449  1.8518  2.3638  1.2985
 8478SOL    HW237071   4.609   1.722   0.328 -1.7584 -0.4559  0.7412
 8479SOL     OW37072   3.531   3.914  11.416  0.4044  0.4955  0.8082
 8479SOL    HW137073   3.451   3.862  11.426  1.4819 -1.3293 -0.0968
 8479SOL    HW237074   3.507   3.983  11.355 -0.2015  0.2081  0.7218
 8480SOL     OW37075   1.434   3.900   6.425 -0.3796  0.1818  0.0889
 8480SOL    HW137076   1.367   3.838   6.455 -0.8327 -0.2403 -1.8026
 8480SOL    HW237077   1.487   3.846   6.366 -0.7501  1.2972 -1.2524
 8481SOL     OW37078   2.276   2.227  13.543 -0.7395  0.6297  0.3839
 8481SOL    HW137079   2.258   2.283  13.467  0.8992  0.0836 -0.4127
 8481SOL    HW237080   2.193   2.185  13.567 -0.1021 -1.8829 -1.8234
 8482SOL     OW37081   1.478   0.373   7.672 -0.1135  0.0807 -0.1776
 8482SOL    HW137082   1.570   0.351   7.658 -0.0403  0.6118 -0.5285
 8482SOL    HW237083   1.431   0.296   7.641  1.6535 -0.5398 -1.2983
 8483SOL     OW37084   4.390   3.359   5.662 -0.7515  0.5446  0.0619
 8483SOL    HW137085   4.479   3.390   5.680 -0.3521  1.0178 -2.6172
 8483SOL    HW237086   4.364   3.314   5.742  2.7416  0.0906  0.9726
 8484SOL     OW37087   3.365   2.212   0.050  0.2277  0.2791  0.6138
 8484SOL    HW137088   3.375   2.291   0.102 -2.7670  0.2281  1.2764
 8484SOL    HW237089   3.454   2.184   0.029 -0.2001 -0.4146 -0.3193
 8485SOL     OW37090   3.913   0.864   6.738  0.1268  0.5597 -0.5870
 8485SOL    HW137091   3.897   0.883   6.645 -2.4431  1.1203 -0.0195
 8485SOL    HW237092   3.918   0.769   6.734 -0.9822  0.4885 -0.2289
 8486SOL     OW37093   0.643   3.901  10.931  0.7453  0.1496  0.8447
 8486SOL    HW137094   0.675   3.854  10.854  0.7051  2.1874 -0.4144
 8486SOL    HW237095   0.688   3.849  10.997 -2.8163 -0.2505  2.9783
 8487SOL     OW37096   4.577   2.297   6.248 -0.2291 -0.0545 -0.2990
 8487SOL    HW137097   4.495   2.247   6.245 -0.7266  0.6913  1.0090
 8487SOL    HW237098   4.601   2.272   6.158  0.1725  0.8936 -0.4534
 8488SOL     OW37099   4.470   0.463   4.315 -0.3767  0.5180  0.1448
 8488SOL    HW137100   4.472   0.556   4.337 -2.8009  0.8472 -0.9566
 8488SOL    HW237101   4.375   0.457   4.331  0.2515  1.8324  4.2885
 8489SOL     OW37102   0.123   4.443   6.895 -0.1194 -0.5872 -0.6250
 8489SOL    HW137103   0.109   4.348   6.899  2.2443 -0.9343 -0.6084
 8489SOL    HW237104   0.171   4.471   6.973  0.3150  3.0478 -2.1943
 8490SOL     OW37105   2.224   1.227   1.630  0.2254  0.2488 -0.4775
 8490SOL    HW137106   2.145   1.261   1.672  0.9715 -1.8667  2.6053
 8490SOL    HW237107   2.289   1.222   1.700  0.5926  1.9053 -0.7028
 8491SOL     OW37108   0.223   2.998   7.709  0.1401  0.3742 -0.3786
 8491SOL    HW137109   0.271   3.077   7.733 -0.1796  0.5568 -0.3333
 8491SOL    HW237110   0.231   2.942   7.786 -0.0081  0.1977 -0.4911
 8492SOL     OW37111   1.740   4.029  13.512  0.5351  0.4396 -1.0330
 8492SOL    HW137112   1.747   3.971  13.588  1.5273 -1.6368 -2.7092
 8492SOL    HW237113   1.779   4.108  13.550 -0.0172  0.2324 -0.0444
 8493SOL     OW37114   0.069   4.217   7.649 -0.1899  0.5212 -0.3999
 8493SOL    HW137115   0.055   4.240   7.741 -1.8855 -0.1885 -0.4859
 8493SOL    HW237116   0.165   4.214   7.644 -0.1899  2.5371 -1.7299
 8494SOL     OW37117   3.242   1.999   5.039  0.1838 -0.1420 -0.4967
 8494SOL    HW137118   3.215   1.971   4.951 -0.8149  4.4581 -1.6831
 8494SOL    HW237119   3.319   1.944   5.051  2.6110  2.9969 -1.6515
 8495SOL     OW37120   2.529   0.505   4.346  0.0785  0.0690 -0.0558
 8495SOL    HW137121   2.578   0.422   4.345  0.3453  0.2085  1.4035
 8495SOL    HW237122   2.577   0.552   4.414  0.9379 -1.0093  0.0967
 8496SOL     OW37123   0.615   3.446   2.133 -0.5592 -0.1737 -0.4552
 8496SOL    HW137124   0.605   3.351   2.133  0.0074 -0.2381  1.2819
 8496SOL    HW237125   0.684   3.456   2.068  0.0285 -2.0329 -0.1056
 8497SOL     OW37126   4.169   2.393   9.037 -0.2002 -0.1986 -0.5324
 8497SOL    HW137127   4.149   2.307   9.002  2.3560 -1.2899  0.6846
 8497SOL    HW237128   4.262   2.390   9.061 -0.1769 -0.4976 -0.6612
 8498SOL     OW37129   3.616   4.655  14.486 -0.3729 -0.1012 -0.0924
 8498SOL    HW137130   3.527   4.619  14.494  0.1688 -1.0835  1.3644
 8498SOL    HW237131   3.676   4.581  14.486  2.1509  1.9839  0.4549
 8499SOL     OW37132   0.233   0.267   8.331 -0.1884  0.0356 -0.6337
 8499SOL    HW137133   0.273   0.333   8.388 -0.0609 -3.7329  3.6019
 8499SOL    HW237134   0.301   0.261   8.264  0.7306  3.4623 -0.0327
 8500SOL     OW37135   0.593   2.120   7.994  0.2980  0.0084  0.3750
 8500SOL    HW137136   0.556   2.053   7.936  0.1306  1.1239 -0.8261
 8500SOL    HW237137   0.660   2.066   8.034  1.2236  1.0170  0.1824
 8501SOL     OW37138   2.068   1.500  17.302  0.0141 -0.0839  0.2214
 8501SOL    HW137139   2.160   1.477  17.289 -0.4246 -1.3172 -0.6616
 8501SOL    HW237140   2.043   1.496  17.210  1.6068  1.7091 -0.2915
 8502SOL     OW37141   2.752   2.908  15.764  0.0312  0.0895 -1.1139
 8502SOL    HW137142   2.686   2.908  15.834  1.2534 -0.8469  0.0260
 8502SOL    HW237143   2.753   2.814  15.748 -0.4591  0.2978 -2.4170
 8503SOL     OW37144   4.371   2.671   5.294  0.1946 -0.0511 -0.0770
 8503SOL    HW137145   4.375   2.753   5.246  0.8137 -1.2158 -2.0127
 8503SOL    HW237146   4.451   2.678   5.346  0.4832  1.4873 -0.7482
 8504SOL     OW37147   2.562   4.034   3.475  0.1557 -0.1529  0.1337
 8504SOL    HW137148   2.572   4.127   3.451 -0.1089 -0.2893 -0.5207
 8504SOL    HW237149   2.596   4.038   3.564 -1.0016  0.6234  0.5450
 8505SOL     OW37150   3.832   3.561   6.343  0.4832  0.1067 -0.5899
 8505SOL    HW137151   3.798   3.598   6.262  0.4259  1.8984  0.2595
 8505SOL    HW237152   3.775   3.594   6.413  0.8257  0.1984 -0.3535
 8506SOL     OW37153   1.087   2.219   5.855 -0.3990 -0.2878  0.0259
 8506SOL    HW137154   1.159   2.218   5.918 -0.5807  1.2359  0.2470
 8506SOL    HW237155   1.026   2.158   5.896 -1.4392  0.7270 -0.0024
 8507SOL     OW37156   0.781   2.140   7.009  0.3040 -0.0609  0.0032
 8507SOL    HW137157   0.761   2.114   7.099  0.7601  1.4561  0.5462
 8507SOL    HW237158   0.696   2.144   6.967 -0.5668  0.5677  1.8431
 8508SOL     OW37159   0.050   2.625   8.645 -0.0759 -1.0274  0.8577
 8508SOL    HW137160   0.070   2.534   8.667  1.2529 -0.9922 -0.1848
 8508SOL    HW237161   4.734   2.648   8.720 -1.4116 -0.0769 -0.3974
 8509SOL     OW37162   0.083   1.520   5.640  0.2317  0.1032  0.6087
 8509SOL    HW137163   0.006   1.463   5.642  1.6102 -1.8816 -1.9361
 8509SOL    HW237164   0.117   1.513   5.729 -1.9479  1.5500  1.5359
 8510SOL     OW37165   4.686   2.394  17.386 -0.1295 -0.3398  0.1240
 8510SOL    HW137166   4.602   2.395  17.341  0.6574 -0.9763 -1.3283
 8510SOL    HW237167   4.662   2.405  17.478 -1.5794 -2.4957 -0.0025
 8511SOL     OW37168   1.190   2.907   7.356 -0.2026  0.3299  0.0776
 8511SOL    HW137169   1.249   2.982   7.351 -1.9604  1.7357  0.2117
 8511SOL    HW237170   1.182   2.881   7.264 -1.4442  1.2479 -0.0892
 8512SOL     OW37171   2.780   2.739   9.700  0.3560 -0.6977  0.8051
 8512SOL    HW137172   2.844   2.713   9.634 -0.6900 -2.7948  0.6218
 8512SOL    HW237173   2.778   2.833   9.683 -2.5898 -0.8603  0.2086
 8513SOL     OW37174   0.232   2.259   0.778 -0.7297 -0.2124  0.5991
 8513SOL    HW137175   0.311   2.208   0.759 -0.7620 -0.6624  1.6567
 8513SOL    HW237176   0.185   2.197   0.834 -3.0084 -0.2500 -1.3510
 8514SOL     OW37177   1.243   2.967   6.190 -0.6379 -0.3463  0.4800
 8514SOL    HW137178   1.253   2.998   6.280  1.4202 -0.0060  0.1350
 8514SOL    HW237179   1.320   2.913   6.170  1.3158  2.2438  1.0279
 8515SOL     OW37180   2.550   1.949   9.792 -0.3174  0.6201 -0.3186
 8515SOL    HW137181   2.540   1.960   9.697 -0.8236 -0.5758 -0.4026
 8515SOL    HW237182   2.642   1.966   9.811 -0.6359  1.2550  0.6472
 8516SOL     OW37183   3.399   2.652   4.963 -0.5404 -0.5887 -0.2324
 8516SOL    HW137184   3.452   2.597   5.020  2.3245  0.6805 -1.6413
 8516SOL    HW237185   3.351   2.582   4.918  0.8465 -0.6453 -1.6090
 8517SOL     OW37186   0.495   4.306   7.387 -0.6816 -0.2000  0.4510
 8517SOL    HW137187   0.422   4.320   7.327  0.9403  0.3446 -1.4054
 8517SOL    HW237188   0.550   4.384   7.376 -1.3859  0.1701 -0.4396
 8518SOL     OW37189   2.655   3.769   2.064 -0.3025 -0.2343  0.6833
 8518SOL    HW137190   2.739   3.815   2.053 -1.5928  2.5038  2.1833
 8518SOL    HW237191   2.602   3.831   2.113 -0.4027  0.0585  0.2069
 8519SOL     OW37192   2.502   1.960   9.232 -0.2924 -0.0143  0.2798
 8519SOL    HW137193   2.439   1.889   9.246  2.3537 -2.4171 -0.0732
 8519SOL    HW237194   2.499   1.959   9.137  1.0182 -2.0209  0.2443
 8520SOL     OW37195   1.031   1.865   6.406 -0.0646  0.3606 -0.1934
 8520SOL    HW137196   1.084   1.879   6.485  0.1053 -0.2322 -0.2071
 8520SOL    HW237197   1.061   1.931   6.343  1.1722 -1.3895 -1.4377
 8521SOL     OW37198   4.609   2.087  14.656  0.1749 -0.1199  0.5233
 8521SOL    HW137199   4.645   2.167  14.695 -1.6460  0.6877  0.5589
 8521SOL    HW237200   4.667   2.085  14.580 -0.4738  0.8529  0.0060
 8522SOL     OW37201   3.940   2.128   9.334 -0.1596  0.0317  0.0897
 8522SOL    HW137202   3.973   2.110   9.422  1.5361 -0.1163 -0.5838
 8522SOL    HW237203   4.009   2.188   9.308 -0.7620  0.3113 -0.8678
 8523SOL     OW37204   3.729   4.614   1.573  0.0319  0.5509 -0.3302
 8523SOL    HW137205   3.690   4.530   1.594  0.7880  0.2664 -0.0530
 8523SOL    HW237206   3.803   4.620   1.633 -0.4448 -1.9038  0.4909
 8524SOL     OW37207   3.011   1.030   6.505  1.0158 -0.7226  0.3270
 8524SOL    HW137208   2.966   0.979   6.572  1.5007 -2.4350 -0.6269
 8524SOL    HW237209   2.931   1.047   6.456  1.4015  2.1823  0.7176
 8525SOL     OW37210   4.170   1.391  11.413  0.2281  0.0767 -0.1646
 8525SOL    HW137211   4.242   1.333  11.438  0.4584  0.5614  0.2769
 8525SOL    HW237212   4.090   1.338  11.416  0.4727 -0.2573  0.4401
 8526SOL     OW37213   3.770   3.294   6.515  0.2549 -0.6566  0.1607
 8526SOL    HW137214   3.794   3.348   6.590 -0.6736 -1.0519  0.7504
 8526SOL    HW237215   3.733   3.362   6.459 -0.2517 -0.6263  0.5337
 8527SOL     OW37216   3.593   2.287   3.747  0.1890 -0.0815 -0.1319
 8527SOL    HW137217   3.544   2.312   3.669  0.5547 -2.1491 -1.0318
 8527SOL    HW237218   3.521   2.276   3.810  1.0437 -0.4125  0.7757
 8528SOL     OW37219   2.290   4.570   1.401 -0.3168 -0.3222  0.3527
 8528SOL    HW137220   2.336   4.596   1.321  1.5844 -1.1621  1.1895
 8528SOL    HW237221   2.294   4.649   1.455  0.4080  0.2170 -0.4994
 8529SOL     OW37222   4.667   0.236   7.237 -0.0504  0.7129 -0.1828
 8529SOL    HW137223   0.024   0.236   7.227 -0.1244  1.7594 -0.8575
 8529SOL    HW237224   4.662   0.176   7.312 -0.9742  0.1669 -0.6855
 8530SOL     OW37225   2.316   2.896   6.415  0.1866  0.2368 -0.2671
 8530SOL    HW137226   2.248   2.911   6.348 -0.3799 -0.6927  0.0929
 8530SOL    HW237227   2.380   2.964   6.397  0.4847  0.6718  2.4461
 8531SOL     OW37228   0.266   2.603  17.287  0.2683  0.5737  0.2871
 8531SOL    HW137229   0.239   2.520  17.326  2.9366  0.3146  1.5196
 8531SOL    HW237230   0.356   2.588  17.257 -0.0985 -2.3023  0.5817
 8532SOL     OW37231   2.839   0.799   6.228  0.2300 -0.0908  0.0676
 8532SOL    HW137232   2.786   0.767   6.301  1.8953 -0.2994  1.1943
 8532SOL    HW237233   2.919   0.748   6.238 -0.7758 -1.3825  1.4761
 8533SOL     OW37234   1.406   2.380   8.135 -0.0476 -0.4049  0.8373
 8533SOL    HW137235   1.457   2.394   8.056  0.8305 -0.5749  1.3697
 8533SOL    HW237236   1.326   2.354   8.089 -1.1185  1.4387  1.6868
 8534SOL     OW37237   2.455   3.799   4.412 -0.9361 -0.5191  0.5983
 8534SOL    HW137238   2.515   3.730   4.382  0.4736  1.9881 -2.3823
 8534SOL    HW237239   2.402   3.757   4.479 -1.1933 -1.6676 -0.3264
 8535SOL     OW37240   3.072   0.813   7.288 -0.2246 -0.1460 -0.2960
 8535SOL    HW137241   3.149   0.866   7.312 -1.4750  1.4698  0.2060
 8535SOL    HW237242   3.054   0.849   7.201  2.0760  0.4469 -0.5237
 8536SOL     OW37243   0.855   0.390   9.265 -0.6453 -0.2938  0.4008
 8536SOL    HW137244   0.759   0.393   9.259 -0.7554 -0.2664  2.4567
 8536SOL    HW237245   0.876   0.484   9.265  1.0666 -0.6900  3.4813
 8537SOL     OW37246   2.367   3.131  14.876 -0.0863 -0.0482  0.0552
 8537SOL    HW137247   2.338   3.122  14.966  1.9263  0.0724  0.7255
 8537SOL    HW237248   2.319   3.056  14.841 -0.3762  0.6244 -0.9913
 8538SOL     OW37249   1.619   1.157  14.861 -0.5988  0.5841 -0.4212
 8538SOL    HW137250   1.712   1.176  14.855 -0.6319  1.1004  0.8196
 8538SOL    HW237251   1.587   1.212  14.790 -0.1526  1.7235  0.2685
 8539SOL     OW37252   0.583   1.322  16.852  0.0166  0.1557  0.2450
 8539SOL    HW137253   0.527   1.381  16.801 -2.4096 -1.6839  0.7442
 8539SOL    HW237254   0.512   1.278  16.899 -1.4343  0.5092 -1.6078
 8540SOL     OW37255   1.621   1.355  16.746  0.3830  0.3618 -0.1119
 8540SOL    HW137256   1.680   1.354  16.822 -0.5648  2.1574  0.6706
 8540SOL    HW237257   1.671   1.407  16.683  2.4314  0.1216  1.3042
 8541SOL     OW37258   2.932   2.816   8.794 -0.0741  0.7419 -0.2721
 8541SOL    HW137259   2.868   2.783   8.857  2.8596 -1.0836  1.8227
 8541SOL    HW237260   2.996   2.745   8.799 -1.1864 -0.1155  1.8999
 8542SOL     OW37261   2.887   1.816   8.599  0.0056  0.1370 -0.3348
 8542SOL    HW137262   2.807   1.795   8.646  0.5453 -0.0065  0.5122
 8542SOL    HW237263   2.862   1.813   8.506  1.3031 -1.1409 -0.6306
 8543SOL     OW37264   3.462   3.339   8.175 -0.3839 -0.3338 -0.1315
 8543SOL    HW137265   3.465   3.434   8.162  0.8769  0.1722  3.8565
 8543SOL    HW237266   3.550   3.317   8.204  0.3923 -0.0315 -2.2800
 8544SOL     OW37267   2.789   0.411  14.928  0.6824 -0.3783  0.3045
 8544SOL    HW137268   2.862   0.401  14.990 -0.0058  2.4386  1.5602
 8544SOL    HW237269   2.825   0.458  14.853 -1.4482  1.2402  0.3211
 8545SOL     OW37270   4.483   1.674  10.838 -0.3299  0.1442 -0.2207
 8545SOL    HW137271   4.400   1.707  10.873 -1.1769  0.6366 -2.7114
 8545SOL    HW237272   4.497   1.596  10.892  2.4128  1.4025  0.8600
 8546SOL     OW37273   3.285   1.985   7.370 -0.7240 -0.6238  0.1603
 8546SOL    HW137274   3.276   1.923   7.298 -3.3303  1.5885 -1.4241
 8546SOL    HW237275   3.196   2.022   7.363 -0.9667 -1.3467 -0.5624
 8547SOL     OW37276   0.691   3.192   7.791  0.0683  0.1303  0.4467
 8547SOL    HW137277   0.753   3.143   7.737  1.1664  0.4416  1.4201
 8547SOL    HW237278   0.679   3.128   7.861  2.0809 -0.4280  0.2873
 8548SOL     OW37279   2.637   2.567   4.865  0.3471 -0.0415  0.1952
 8548SOL    HW137280   2.648   2.645   4.919  1.2690  0.5053 -0.7888
 8548SOL    HW237281   2.715   2.575   4.810 -0.6640  2.0707 -0.9473
 8549SOL     OW37282   4.575   1.052   8.928  0.3854  0.5090  0.1431
 8549SOL    HW137283   4.512   1.013   8.867 -1.8574  0.8255  2.2573
 8549SOL    HW237284   4.606   0.977   8.978  0.3033 -0.0688 -0.6585
 8550SOL     OW37285   2.474   0.514  17.142 -0.1525 -0.3322  0.3900
 8550SOL    HW137286   2.471   0.498  17.237  1.4155 -0.4555  0.4215
 8550SOL    HW237287   2.487   0.609  17.142  2.3524 -0.6578 -0.9007
 8551SOL     OW37288   0.343   0.364   0.763 -0.4015 -0.1126  0.4086
 8551SOL    HW137289   0.381   0.298   0.705 -0.1840  1.8425 -1.7186
 8551SOL    HW237290   0.249   0.358   0.747 -0.6226  1.1312  1.2307
 8552SOL     OW37291   3.934   1.211   4.057  0.0468 -0.0971 -0.2171
 8552SOL    HW137292   3.857   1.171   4.018 -0.9031  3.3969 -1.8605
 8552SOL    HW237293   4.001   1.193   3.991  0.7462  0.9071  0.2276
 8553SOL     OW37294   2.164   1.719   7.045  0.1564 -0.6565  0.4017
 8553SOL    HW137295   2.254   1.697   7.071  0.3810 -1.0204 -0.7054
 8553SOL    HW237296   2.167   1.686   6.956 -1.9971  1.1178 -0.3198
 8554SOL     OW37297   2.261   0.017   9.247 -0.4822 -0.2225  0.0509
 8554SOL    HW137298   2.343   0.005   9.295  0.5358 -0.7481 -1.8092
 8554SOL    HW237299   2.189   4.735   9.307 -1.5438 -1.4837 -1.6570
 8555SOL     OW37300   0.899   1.960   5.791 -0.4111 -0.8961  0.0898
 8555SOL    HW137301   0.879   1.999   5.876  2.0227 -0.6773  0.5560
 8555SOL    HW237302   0.995   1.963   5.795 -0.4628  1.1413  0.1015
 8556SOL     OW37303   4.448   4.402   0.148  0.3798 -0.1412  0.1501
 8556SOL    HW137304   4.381   4.356   0.098 -0.2465  0.5003  0.3986
 8556SOL    HW237305   4.406   4.395   0.234 -0.0887  0.3415 -0.0361
 8557SOL     OW37306   3.235   0.914   6.353  0.1344  0.5216 -0.1394
 8557SOL    HW137307   3.179   0.923   6.430 -2.8313 -1.5078 -2.0641
 8557SOL    HW237308   3.187   0.978   6.300 -0.3065 -0.0708 -0.4440
 8558SOL     OW37309   2.023   1.188   7.790  0.0972 -0.3051 -0.0646
 8558SOL    HW137310   1.956   1.143   7.738 -1.4766 -0.8854  2.4637
 8558SOL    HW237311   2.045   1.274   7.753 -0.5916  0.3938  1.1308
 8559SOL     OW37312   4.668   3.451   5.699  0.6668  0.0617  0.0082
 8559SOL    HW137313   4.713   3.535   5.708 -1.4186  1.2076 -0.1863
 8559SOL    HW237314   4.706   3.401   5.627  0.6101 -0.0318  0.0429
 8560SOL     OW37315   1.003   1.569   3.946 -0.9172 -0.2113 -0.0130
 8560SOL    HW137316   0.967   1.510   3.880 -1.4120  0.7642 -0.6066
 8560SOL    HW237317   1.091   1.531   3.951 -0.9637 -0.0138  2.2285
 8561SOL     OW37318   0.459   1.282   2.115  0.1506 -0.3057 -0.2279
 8561SOL    HW137319   0.415   1.368   2.117  2.3624  0.8463 -1.0728
 8561SOL    HW237320   0.421   1.242   2.037  0.8022  1.3810 -1.4262
 8562SOL     OW37321   0.649   4.235   2.893 -0.4777  0.0272 -0.2182
 8562SOL    HW137322   0.727   4.185   2.872 -1.1475 -1.4416  0.7246
 8562SOL    HW237323   0.666   4.323   2.858 -2.3637  1.1168  1.5868
 8563SOL     OW37324   1.289   1.545   5.333  0.1011  0.0256 -0.0867
 8563SOL    HW137325   1.280   1.565   5.240 -2.4225  2.5344  0.6977
 8563SOL    HW237326   1.345   1.467   5.332  2.6195  1.8130  1.0401
 8564SOL     OW37327   1.034   4.462   6.555 -0.6783  0.2510 -0.0091
 8564SOL    HW137328   1.074   4.375   6.556 -2.0978 -0.4151 -3.8409
 8564SOL    HW237329   0.946   4.441   6.587 -0.2627  0.8799  1.5507
 8565SOL     OW37330   1.093   2.437   6.386  0.0274 -0.0849  0.0333
 8565SOL    HW137331   1.007   2.480   6.379  0.9315  1.4838 -1.5458
 8565SOL    HW237332   1.150   2.498   6.338 -1.5808  0.2849 -1.4011
 8566SOL     OW37333   0.199   4.715   0.274  0.3952 -0.5802 -0.1769
 8566SOL    HW137334   0.195   0.007   0.183  3.2409  0.2819  0.0061
 8566SOL    HW237335   0.210   4.620   0.283  0.6985 -0.6089 -0.8493
 8567SOL     OW37336   1.445   0.473  13.473 -0.6750 -0.0022 -0.7250
 8567SOL    HW137337   1.530   0.486  13.515 -1.5295  2.4955  0.2130
 8567SOL    HW237338   1.389   0.503  13.545  0.7737  1.2562 -0.1328
 8568SOL     OW37339   4.600   4.588   0.283 -0.2121 -0.3209 -0.0508
 8568SOL    HW137340   4.529   4.598   0.346 -1.3433 -0.0394 -1.3508
 8568SOL    HW237341   4.556   4.530   0.220  0.6415  0.0043 -0.9503
 8569SOL     OW37342   1.640   0.462   5.343  0.5446  0.1670  0.2566
 8569SOL    HW137343   1.707   0.518   5.304 -0.6644  0.1702 -1.8707
 8569SOL    HW237344   1.683   0.385   5.378 -3.9364 -1.8616  1.3597
 8570SOL     OW37345   3.641   2.441  12.909  0.5105 -0.0538 -0.2188
 8570SOL    HW137346   3.553   2.424  12.944  0.6134 -0.0341  0.0441
 8570SOL    HW237347   3.697   2.378  12.954 -2.1172 -1.4467  1.1351
 8571SOL     OW37348   2.611   3.282   3.259 -0.4201  0.0192  0.1162
 8571SOL    HW137349   2.566   3.285   3.344  0.4515  0.3592  0.5706
 8571SOL    HW237350   2.533   3.270   3.205 -1.2636 -1.6798  1.7180
 8572SOL     OW37351   0.760   3.583  13.613 -0.0009  0.1012 -0.5277
 8572SOL    HW137352   0.769   3.495  13.576  1.6913  2.2180 -5.1190
 8572SOL    HW237353   0.665   3.593  13.615 -0.0275 -0.3659  1.3371
 8573SOL     OW37354   0.868   4.284   7.204  0.0402  0.3352  0.0791
 8573SOL    HW137355   0.801   4.279   7.272 -1.1520 -0.3305 -1.1303
 8573SOL    HW237356   0.945   4.284   7.260  0.2380  0.1519 -0.1913
 8574SOL     OW37357   3.043   2.143  16.646 -0.2793  0.1713  0.1455
 8574SOL    HW137358   3.064   2.234  16.669  1.9771  0.1126 -1.6946
 8574SOL    HW237359   3.127   2.098  16.657 -0.8146 -1.1953 -1.3500
 8575SOL     OW37360   2.784   2.442   6.273  0.0027 -0.0130  0.2807
 8575SOL    HW137361   2.703   2.482   6.243  0.5082  1.3620  0.7371
 8575SOL    HW237362   2.820   2.516   6.323 -1.9933  1.2422 -0.1548
 8576SOL     OW37363   3.012   0.758   4.677  0.2077 -0.4848  0.4941
 8576SOL    HW137364   2.937   0.699   4.679 -1.5899  1.7940  0.3432
 8576SOL    HW237365   3.064   0.721   4.749 -0.7980 -0.0943  1.4376
 8577SOL     OW37366   3.590   1.128   3.309 -0.1656  0.1998  0.1819
 8577SOL    HW137367   3.547   1.209   3.334 -0.7413 -0.4669  1.3467
 8577SOL    HW237368   3.662   1.162   3.255 -1.3597  2.6864  0.1592
 8578SOL     OW37369   1.500   1.251   4.519 -0.0971  0.1770 -0.1863
 8578SOL    HW137370   1.428   1.260   4.581  0.1018 -2.0390  0.3882
 8578SOL    HW237371   1.506   1.155   4.521 -0.6126  0.1785  2.1307
 8579SOL     OW37372   0.458   4.299  12.443 -0.2043  0.1961  0.0735
 8579SOL    HW137373   0.385   4.360  12.434 -0.2822  0.1896  0.6399
 8579SOL    HW237374   0.448   4.294  12.538  1.4576 -1.0573  0.1962
 8580SOL     OW37375   2.308   3.210  13.750 -0.1537 -0.0774 -0.3948
 8580SOL    HW137376   2.378   3.273  13.770  1.7430 -2.5969  0.9093
 8580SOL    HW237377   2.265   3.207  13.836 -0.1900 -0.9010 -0.4372
 8581SOL     OW37378   1.902   0.857  12.455  0.3038  0.2712 -0.5832
 8581SOL    HW137379   1.883   0.779  12.508 -2.4693  0.7141 -0.9265
 8581SOL    HW237380   1.817   0.901  12.466  1.1965  1.9505 -0.4030
 8582SOL     OW37381   1.784   0.322   2.591 -0.7661 -0.0550  0.4399
 8582SOL    HW137382   1.854   0.264   2.618  0.8692  0.5564 -2.4310
 8582SOL    HW237383   1.797   0.397   2.649 -0.4173  0.0391  0.2442
 8583SOL     OW37384   4.194   0.657   8.919 -0.1878  0.3234 -0.4103
 8583SOL    HW137385   4.212   0.646   8.825 -0.1609 -1.3063 -0.2142
 8583SOL    HW237386   4.098   0.657   8.912 -0.1859 -1.7323 -0.6077
 8584SOL     OW37387   4.095   3.456  13.510  0.2482 -0.1837  0.2254
 8584SOL    HW137388   4.051   3.494  13.586 -1.5170 -0.1368 -0.8243
 8584SOL    HW237389   4.143   3.380  13.544 -1.3734 -1.4497 -0.3047
 8585SOL     OW37390   2.567   3.665  15.571 -0.4803 -0.4174  0.6223
 8585SOL    HW137391   2.564   3.569  15.575 -1.8646 -0.4285 -0.4106
 8585SOL    HW237392   2.578   3.690  15.479  0.1367 -0.1900  0.7612
 8586SOL     OW37393   4.441   4.294   4.864 -0.0244  0.3335  0.8748
 8586SOL    HW137394   4.396   4.250   4.791  0.6376  0.9371  0.1107
 8586SOL    HW237395   4.449   4.382   4.828 -0.3847  0.8023  1.9334
 8587SOL     OW37396   2.168   0.304  16.081  0.2919 -0.5921 -0.0318
 8587SOL    HW137397   2.160   0.210  16.068  0.2297 -0.3302 -1.8769
 8587SOL    HW237398   2.115   0.311  16.161  1.0502  0.4540  0.3899
 8588SOL     OW37399   4.456   3.219  13.789  0.7338  0.4451  0.5672
 8588SOL    HW137400   4.498   3.265  13.861 -0.1210  1.6489  0.2820
 8588SOL    HW237401   4.366   3.215  13.822  0.3007 -0.3203 -0.7145
 8589SOL     OW37402   0.097   3.221  15.427 -0.0972 -0.4069  0.0500
 8589SOL    HW137403   0.080   3.298  15.482 -3.6152 -0.9299 -0.3146
 8589SOL    HW237404   0.183   3.246  15.394  0.3176 -0.9759  0.7168
 8590SOL     OW37405   2.492   2.844   4.528 -0.5097 -0.1203 -0.4723
 8590SOL    HW137406   2.484   2.937   4.508  1.7315  0.7214  2.4911
 8590SOL    HW237407   2.481   2.858   4.622  2.7340 -3.2702  0.4213
 8591SOL     OW37408   1.936   2.653   2.583  0.1770  0.8322 -0.8279
 8591SOL    HW137409   1.998   2.590   2.545 -0.9362 -0.5979 -0.2849
 8591SOL    HW237410   1.923   2.621   2.672 -0.5470 -0.3548 -1.3573
 8592SOL     OW37411   3.642   3.114   7.891 -0.0080 -0.1547 -0.1066
 8592SOL    HW137412   3.603   3.032   7.859 -0.8674  0.4397 -0.5901
 8592SOL    HW237413   3.665   3.088   7.980 -1.0509  0.3217  0.3025
 8593SOL     OW37414   1.080   4.659  17.178  0.2966  0.3655 -0.3321
 8593SOL    HW137415   1.130   4.597  17.125  1.2369  0.6118  0.2729
 8593SOL    HW237416   0.989   4.629  17.176  0.9715 -1.8114  1.0672
 8594SOL     OW37417   1.220   4.067   9.847  0.1049 -0.1570  0.3575
 8594SOL    HW137418   1.232   4.048   9.754 -0.2168 -0.3133  0.3483
 8594SOL    HW237419   1.310   4.058   9.880  0.1575  2.9655  1.1231
 8595SOL     OW37420   4.441   2.996  15.365 -0.2401 -0.5158 -0.0784
 8595SOL    HW137421   4.423   3.006  15.272  1.2250  2.9100  0.0176
 8595SOL    HW237422   4.533   2.974  15.355 -0.6510 -2.1010 -0.3105
 8596SOL     OW37423   0.615   1.703   6.121 -0.0284 -0.1295  0.2815
 8596SOL    HW137424   0.666   1.679   6.044  1.4692  1.4171  0.7889
 8596SOL    HW237425   0.673   1.717   6.197 -0.7702  0.6636  0.7062
 8597SOL     OW37426   1.860   2.013   9.239 -0.3378 -0.4571 -0.4918
 8597SOL    HW137427   1.849   1.974   9.325 -0.9512  0.1273 -0.3048
 8597SOL    HW237428   1.847   1.936   9.184 -0.9179  0.3514 -1.4940
 8598SOL     OW37429   3.908   2.003   0.337  0.0465  0.5648  0.2087
 8598SOL    HW137430   3.930   2.060   0.410  1.1991 -1.1366  1.2102
 8598SOL    HW237431   3.997   2.003   0.303 -0.2874  2.1074 -0.6320
 8599SOL     OW37432   4.613   3.658   6.482  0.3136  0.4632  0.1027
 8599SOL    HW137433   4.646   3.571   6.504 -0.4741 -0.0023 -0.5826
 8599SOL    HW237434   4.527   3.666   6.523 -1.3671 -0.0490 -3.3496
 8600SOL     OW37435   0.132   2.678   5.922 -0.0667  0.7097 -0.0478
 8600SOL    HW137436   0.062   2.740   5.943  0.0101 -0.0712  2.4745
 8600SOL    HW237437   0.100   2.649   5.837  2.6207 -0.9905 -0.5051
 8601SOL     OW37438   2.628   0.280   9.299  0.0891 -0.1995 -0.0701
 8601SOL    HW137439   2.612   0.270   9.393 -0.2722 -1.1439 -0.2261
 8601SOL    HW237440   2.586   0.199   9.271 -1.3398  0.5685 -0.1364
 8602SOL     OW37441   2.567   1.981   7.307  0.1109 -0.0523  0.2921
 8602SOL    HW137442   2.654   2.022   7.306  0.5729 -1.1769 -4.0104
 8602SOL    HW237443   2.596   1.894   7.278 -0.3178  0.0219 -0.3412
 8603SOL     OW37444   1.265   3.345  15.820 -0.5818  0.0960  0.1367
 8603SOL    HW137445   1.229   3.320  15.735 -0.6093  1.6642 -0.3148
 8603SOL    HW237446   1.357   3.360  15.798 -1.1191  2.7574 -0.3951
 8604SOL     OW37447   0.684   1.137   9.153  0.4197  0.8310 -0.6527
 8604SOL    HW137448   0.615   1.128   9.087 -0.7032 -0.0756  0.6616
 8604SOL    HW237449   0.694   1.232   9.164 -1.3046  0.8642  0.7163
 8605SOL     OW37450   4.409   2.883   8.097 -0.7615 -0.2471 -0.1431
 8605SOL    HW137451   4.375   2.931   8.173 -0.1534 -1.9797  1.2113
 8605SOL    HW237452   4.443   2.810   8.148  1.6045  1.1193  0.2520
 8606SOL     OW37453   2.787   2.001  11.078  0.2968  0.6128  0.1688
 8606SOL    HW137454   2.749   1.934  11.135  0.0535  0.1879 -0.4945
 8606SOL    HW237455   2.874   1.999  11.117  0.2862 -0.5387  0.1334
 8607SOL     OW37456   3.629   4.341   3.238  0.4483  1.2110  0.1936
 8607SOL    HW137457   3.655   4.301   3.155 -0.5608 -0.0160  0.4676
 8607SOL    HW237458   3.579   4.412   3.197  0.4785  1.7521  1.0974
 8608SOL     OW37459   4.345   2.074  15.594 -0.0527 -0.3157  0.0088
 8608SOL    HW137460   4.280   2.078  15.524  3.1935  1.1731 -2.9408
 8608SOL    HW237461   4.386   1.988  15.582  1.9031  0.3337  2.0516
 8609SOL     OW37462   2.526   4.520  16.120  0.2158  0.5789 -0.1919
 8609SOL    HW137463   2.581   4.452  16.081 -1.2360 -0.1845 -0.8952
 8609SOL    HW237464   2.442   4.475  16.120 -0.2724  1.4936  1.0390
 8610SOL     OW37465   1.994   2.184   3.120  0.6434  0.8221  0.3154
 8610SOL    HW137466   1.946   2.132   3.184 -0.5268  0.5126 -0.8317
 8610SOL    HW237467   1.926   2.223   3.066 -0.9082 -1.5106  0.6052
 8611SOL     OW37468   0.302   0.573   8.175 -0.0022  0.3160 -0.1993
 8611SOL    HW137469   0.350   0.643   8.129  1.1058 -0.1052  0.3131
 8611SOL    HW237470   0.211   0.597   8.157 -0.9810 -1.6024  2.1967
 8612SOL     OW37471   4.552   4.201   6.273 -0.1464  0.5347 -0.0223
 8612SOL    HW137472   4.630   4.246   6.242  0.4330 -0.4299  0.0113
 8612SOL    HW237473   4.495   4.193   6.197 -0.3105 -1.3185  0.2782
 8613SOL     OW37474   4.682   1.075   8.505 -0.2283 -0.2349 -0.1634
 8613SOL    HW137475   4.674   1.119   8.420  0.5976  0.0269 -0.1088
 8613SOL    HW237476   4.602   1.112   8.543 -1.8050 -1.9389 -1.8803
 8614SOL     OW37477   0.668   0.888   3.997 -0.0670 -0.6582  0.2119
 8614SOL    HW137478   0.685   0.841   3.915  0.0528 -1.0159  0.4404
 8614SOL    HW237479   0.580   0.853   4.013  0.3208 -1.2107  1.1509
 8615SOL     OW37480   0.311   0.485  12.097 -0.1092 -0.9129  0.0992
 8615SOL    HW137481   0.252   0.496  12.172 -1.4073  0.1718 -1.0828
 8615SOL    HW237482   0.368   0.561  12.103 -0.3291 -0.8201  0.9771
 8616SOL     OW37483   4.082   2.935   5.513 -0.6331  0.6038  0.6675
 8616SOL    HW137484   4.145   2.993   5.470 -2.9509  2.4791 -0.2212
 8616SOL    HW237485   3.993   2.952   5.481 -0.1694  1.3552 -0.2247
 8617SOL     OW37486   1.645   4.715   9.711  0.0744 -0.8744 -0.1156
 8617SOL    HW137487   1.643   0.017   9.624 -0.1470 -3.0073 -1.0887
 8617SOL    HW237488   1.716   4.655   9.690  1.3245  0.3351  0.5857
 8618SOL     OW37489   2.682   4.359  11.520 -0.1811  0.3222 -0.5122
 8618SOL    HW137490   2.707   4.279  11.474 -1.7013 -0.8905  0.7833
 8618SOL    HW237491   2.632   4.409  11.454 -2.3604 -0.2241  0.7231
 8619SOL     OW37492   2.379   3.128  17.007  0.1095 -0.0942 -0.7398
 8619SOL    HW137493   2.352   3.212  17.043  0.8449 -0.1202 -0.1347
 8619SOL    HW237494   2.300   3.109  16.956  0.8910  0.0550 -2.0179
 8620SOL     OW37495   1.478   0.159   1.650  0.1569  0.3554 -0.1557
 8620SOL    HW137496   1.418   0.232   1.637  0.6684  0.7032 -0.5371
 8620SOL    HW237497   1.559   0.206   1.631  1.7009 -1.4715  1.8891
 8621SOL     OW37498   3.660   0.598   6.850  0.0869  0.1465 -0.1189
 8621SOL    HW137499   3.754   0.579   6.842  0.5104  1.2937  1.8644
 8621SOL    HW237500   3.659   0.686   6.888  0.3788  0.0986 -0.0008
 8622SOL     OW37501   3.900   0.695   4.832  0.0274 -0.0175 -0.9555
 8622SOL    HW137502   3.874   0.781   4.864  0.9420 -0.6529  1.4967
 8622SOL    HW237503   3.971   0.711   4.770  1.4706  3.4501  1.5953
 8623SOL     OW37504   2.146   0.820  15.437 -0.1082  0.2451 -0.0137
 8623SOL    HW137505   2.092   0.761  15.489 -0.7633  0.1792 -0.7615
 8623SOL    HW237506   2.085   0.894  15.433 -0.5084 -0.1772 -1.9846
 8624SOL     OW37507   4.470   1.464   3.145  0.0323  0.1116 -0.4140
 8624SOL    HW137508   4.531   1.520   3.097  0.4643  0.7643  0.9009
 8624SOL    HW237509   4.471   1.386   3.088 -1.2155  1.4712 -2.3007
 8625SOL     OW37510   3.315   1.382   4.619 -0.0067 -0.6748  0.3705
 8625SOL    HW137511   3.402   1.379   4.657  0.3529  0.3889 -0.3505
 8625SOL    HW237512   3.331   1.330   4.540  1.7256  2.0060 -1.0301
 8626SOL     OW37513   0.049   1.570   3.967 -0.4161 -0.1491  0.1097
 8626SOL    HW137514   4.714   1.531   3.919 -1.4132  1.2026  0.5342
 8626SOL    HW237515   0.006   1.647   4.003  2.1084 -0.0000  2.7402
 8627SOL     OW37516   2.649   4.206   2.063  0.2207  0.3415  0.6683
 8627SOL    HW137517   2.626   4.270   2.130 -1.6306 -0.4545  0.8063
 8627SOL    HW237518   2.578   4.143   2.079 -0.3717  0.4875 -1.3635
 8628SOL     OW37519   1.493   2.515   2.599 -0.1697  0.0575  0.1804
 8628SOL    HW137520   1.403   2.489   2.582  0.5252 -3.0934  1.2234
 8628SOL    HW237521   1.501   2.576   2.672  0.4107 -2.0191  1.8561
 8629SOL     OW37522   3.986   1.159   0.527  0.2990  0.6953  0.4685
 8629SOL    HW137523   4.035   1.107   0.463  0.3967  0.4512  0.7423
 8629SOL    HW237524   4.006   1.107   0.605  0.3460  0.2797  0.1834
 8630SOL     OW37525   1.732   2.401  11.610  0.4648 -0.0051  0.1818
 8630SOL    HW137526   1.646   2.412  11.650  0.3029 -0.1774 -0.1255
 8630SOL    HW237527   1.776   2.481  11.640  0.7652 -0.4600  0.9434
 8631SOL     OW37528   3.993   2.387  16.803 -0.5162  0.0495 -0.0704
 8631SOL    HW137529   3.945   2.307  16.782 -3.0165  1.8937 -1.3245
 8631SOL    HW237530   4.067   2.369  16.745 -1.5744  1.2173 -1.7577
 8632SOL     OW37531   1.966   1.810   8.280  0.0688 -0.1779 -0.0007
 8632SOL    HW137532   1.874   1.827   8.262 -0.4367 -1.2928  1.5109
 8632SOL    HW237533   1.960   1.715   8.283 -1.3309 -0.1127 -0.9811
 8633SOL     OW37534   1.475   3.262   5.660  0.0641 -0.7242 -0.5550
 8633SOL    HW137535   1.379   3.258   5.665 -0.0385  0.2237 -1.6722
 8633SOL    HW237536   1.494   3.350   5.691  0.0877 -0.4071 -1.4673
 8634SOL     OW37537   4.432   1.530   3.592  0.1320  0.1928 -0.4043
 8634SOL    HW137538   4.431   1.588   3.515 -2.1766  0.6036 -0.0668
 8634SOL    HW237539   4.371   1.466   3.556  0.7075  1.7684 -4.2445
 8635SOL     OW37540   3.140   4.469  17.294 -0.0696 -0.1923 -0.2660
 8635SOL    HW137541   3.222   4.518  17.307 -0.3234  0.6518 -1.8692
 8635SOL    HW237542   3.136   4.423  17.378 -0.2842  0.6851  0.2081
 8636SOL     OW37543   3.683   0.573  16.085 -0.3180  0.2581 -0.0783
 8636SOL    HW137544   3.703   0.515  16.158 -0.3810  1.2433  0.7191
 8636SOL    HW237545   3.590   0.563  16.064  0.1092 -2.5442 -0.6568
 8637SOL     OW37546   0.604   3.776   9.182 -0.1153  0.0771  0.0401
 8637SOL    HW137547   0.573   3.738   9.264 -0.0749 -0.5653 -0.2468
 8637SOL    HW237548   0.686   3.727   9.179  0.6457  1.3300 -0.0149
 8638SOL     OW37549   3.262   3.064   9.934 -0.0149 -0.2272 -0.7062
 8638SOL    HW137550   3.322   3.049   9.861 -0.5368 -1.4395 -0.8735
 8638SOL    HW237551   3.304   3.004   9.996  1.3167  0.3952 -0.9874
 8639SOL     OW37552   1.482   1.702   5.509 -0.3432 -0.5362  0.2026
 8639SOL    HW137553   1.427   1.663   5.576 -0.5772 -0.4412  0.0674
 8639SOL    HW237554   1.430   1.666   5.438  0.3741  0.9008 -1.0672
 8640SOL     OW37555   1.099   1.672   1.950  0.4582  0.2345  0.3364
 8640SOL    HW137556   1.051   1.604   1.997  2.8278  0.2310  2.6965
 8640SOL    HW237557   1.050   1.665   1.868 -1.9329 -0.6553  1.8382
 8641SOL     OW37558   1.433   4.095  10.033 -0.4209 -0.1239  0.3150
 8641SOL    HW137559   1.516   4.109   9.989  0.5090 -0.4083  1.9541
 8641SOL    HW237560   1.439   4.009  10.075 -0.2173 -0.5765 -0.6421
 8642SOL     OW37561   2.233   3.039  10.796  0.2171 -0.4101 -0.3784
 8642SOL    HW137562   2.267   3.085  10.872  1.0097 -1.0971 -0.3204
 8642SOL    HW237563   2.140   3.044  10.819 -0.0984  1.7274 -2.0498
 8643SOL     OW37564   2.161   2.180   4.594 -0.2628 -0.3875 -0.1675
 8643SOL    HW137565   2.066   2.184   4.601  0.0060  1.7759  2.2116
 8643SOL    HW237566   2.181   2.267   4.629 -0.5137 -1.0866  1.6686
 8644SOL     OW37567   0.433   3.133   6.780  0.8280  0.3624 -0.1033
 8644SOL    HW137568   0.516   3.112   6.738 -0.7667 -0.2729 -2.9014
 8644SOL    HW237569   0.464   3.129   6.871 -1.9846  0.8674  0.8969
 8645SOL     OW37570   3.008   3.977  11.718  0.2558 -0.7045 -0.2700
 8645SOL    HW137571   2.980   4.010  11.804  0.4732 -0.5017 -0.2767
 8645SOL    HW237572   2.944   3.906  11.708 -2.5718  1.7826  0.0458
 8646SOL     OW37573   4.026   1.757   4.573 -0.2623 -0.3342  0.1093
 8646SOL    HW137574   3.981   1.740   4.491 -0.2107 -2.4723  0.5372
 8646SOL    HW237575   4.010   1.852   4.572  1.1968 -0.0588  2.5826
 8647SOL     OW37576   2.978   1.207   9.469  0.2783 -0.3157  0.4455
 8647SOL    HW137577   3.027   1.246   9.396 -1.4896 -0.7851 -0.9973
 8647SOL    HW237578   3.049   1.148   9.493  0.4253 -0.1295  0.4676
 8648SOL     OW37579   3.031   0.575   3.471  0.5456 -0.2338 -0.1950
 8648SOL    HW137580   3.094   0.638   3.508 -0.3757  1.0370 -0.7751
 8648SOL    HW237581   2.944   0.611   3.488  1.2560  0.4537  2.0370
 8649SOL     OW37582   4.088   1.851  13.975  0.7078  0.7876 -0.0913
 8649SOL    HW137583   4.158   1.900  13.932  0.7983 -1.3154 -2.3327
 8649SOL    HW237584   4.052   1.917  14.034  0.6047  0.0388  0.6837
 8650SOL     OW37585   4.116   0.968  10.584 -0.3216  0.6578 -0.2323
 8650SOL    HW137586   4.076   0.906  10.644  0.2198 -0.1585 -0.7074
 8650SOL    HW237587   4.203   0.991  10.618  0.0952 -1.6177  0.2207
 8651SOL     OW37588   2.343   3.611   3.602  0.0746  0.4419  0.1758
 8651SOL    HW137589   2.369   3.545   3.538 -1.0637  0.7493 -0.6189
 8651SOL    HW237590   2.338   3.684   3.540  0.3651  0.0678 -0.2900
 8652SOL     OW37591   2.332   3.756   2.173  0.2386 -0.2074 -0.8115
 8652SOL    HW137592   2.345   3.674   2.219 -0.7651  0.4981  0.7164
 8652SOL    HW237593   2.409   3.806   2.201 -0.3393 -0.5130  1.3472
 8653SOL     OW37594   0.689   2.957   7.972 -0.1243  0.1581  0.4871
 8653SOL    HW137595   0.729   2.928   8.054 -1.9046  0.4582  1.4608
 8653SOL    HW237596   0.763   2.940   7.914  0.7280  1.0068  1.3320
 8654SOL     OW37597   2.423   2.659   7.387 -0.3755 -0.3867  0.0641
 8654SOL    HW137598   2.415   2.569   7.420  0.5136 -0.5311 -0.1143
 8654SOL    HW237599   2.503   2.691   7.429  0.1001  0.7095 -1.6634
 8655SOL     OW37600   2.423   1.130  13.118  0.1681  0.2886 -0.3173
 8655SOL    HW137601   2.393   1.162  13.204 -0.9840 -1.1365 -0.1792
 8655SOL    HW237602   2.344   1.106  13.069  0.6437  1.5257 -1.6703
 8656SOL     OW37603   3.275   1.954   1.228 -0.1983 -0.2191  0.0262
 8656SOL    HW137604   3.280   1.889   1.158  1.4820 -0.9296  0.8047
 8656SOL    HW237605   3.244   2.033   1.183  2.6287 -0.2233 -1.9338
 8657SOL     OW37606   1.926   1.967   7.358  0.4250 -0.2504 -0.2162
 8657SOL    HW137607   1.865   1.925   7.418  0.6671 -1.6551 -0.9333
 8657SOL    HW237608   1.998   1.904   7.357 -0.2959 -1.0742  0.1344
 8658SOL     OW37609   0.511   2.159   6.954  0.4579 -0.0514 -0.0531
 8658SOL    HW137610   0.415   2.156   6.952  0.5098 -0.2568 -2.6478
 8658SOL    HW237611   0.540   2.183   6.866 -2.1155  2.3002 -0.2479
 8659SOL     OW37612   1.277   0.829   6.648  0.0499 -0.0710  0.2300
 8659SOL    HW137613   1.325   0.783   6.716  1.0340  1.5790  0.6608
 8659SOL    HW237614   1.296   0.921   6.666  0.3206  0.4425 -2.6165
 8660SOL     OW37615   2.064   0.695   3.649 -0.7366 -0.0289  0.2656
 8660SOL    HW137616   2.144   0.645   3.664 -0.3393  0.4474 -0.2495
 8660SOL    HW237617   2.082   0.780   3.690 -1.5692 -0.1419  0.8591
 8661SOL     OW37618   0.951   0.550   0.053 -0.5695 -0.1214  0.1688
 8661SOL    HW137619   0.887   0.498   0.005 -1.6904 -0.6441  2.2282
 8661SOL    HW237620   0.967   0.610  17.731  3.2235  0.7756  1.7427
 8662SOL     OW37621   1.013   4.493  15.875  0.7563 -0.4836 -0.7787
 8662SOL    HW137622   0.921   4.512  15.855  1.1831  0.6352 -1.6707
 8662SOL    HW237623   1.016   4.535  15.961  1.6754  0.7365 -1.3926
 8663SOL     OW37624   1.088   1.375   2.939 -0.0374 -0.2607 -0.3387
 8663SOL    HW137625   1.025   1.437   2.975 -1.3886 -1.4390 -0.6741
 8663SOL    HW237626   1.107   1.316   3.011  1.8915  0.7318 -0.0371
 8664SOL     OW37627   2.613   0.504   6.813  0.3477  0.1234 -0.0225
 8664SOL    HW137628   2.702   0.495   6.847  0.2495  0.8368  0.4157
 8664SOL    HW237629   2.591   0.411   6.817  1.3616 -0.1017  0.3281
 8665SOL     OW37630   0.823   2.952   4.209 -0.4407 -0.6022 -0.5337
 8665SOL    HW137631   0.830   2.900   4.129 -3.2552 -0.5017 -0.8371
 8665SOL    HW237632   0.871   3.027   4.176  1.0833 -1.7020 -0.8282
 8666SOL     OW37633   2.700   2.834  14.944  0.6959  0.3164 -0.4593
 8666SOL    HW137634   2.628   2.847  14.882  0.7975  0.3759 -0.5650
 8666SOL    HW237635   2.757   2.768  14.904 -1.0186 -0.6597 -1.3274
 8667SOL     OW37636   3.660   4.401   6.806  0.8273  0.3764 -0.4846
 8667SOL    HW137637   3.689   4.424   6.718  0.8757  0.8308 -0.3520
 8667SOL    HW237638   3.725   4.331   6.814 -0.3811 -0.5813  0.9097
 8668SOL     OW37639   1.975   2.454   5.566  0.1085  0.1463  0.4228
 8668SOL    HW137640   1.974   2.443   5.471  1.8994 -1.8950  0.6377
 8668SOL    HW237641   1.907   2.521   5.566 -1.5630 -1.5349  1.1422
 8669SOL     OW37642   3.789   1.356   0.498  0.4659  0.1179  0.3157
 8669SOL    HW137643   3.718   1.349   0.563  1.3893 -1.8940  1.1261
 8669SOL    HW237644   3.849   1.284   0.515 -1.1228 -1.1102  0.7423
 8670SOL     OW37645   4.398   0.682   2.527  0.1474 -0.4215 -0.0184
 8670SOL    HW137646   4.409   0.695   2.621 -2.0599  0.8253  0.0527
 8670SOL    HW237647   4.450   0.603   2.514 -0.7259 -0.6278 -2.2365
 8671SOL     OW37648   1.928   2.719   4.876 -0.2417 -0.0537  0.0894
 8671SOL    HW137649   1.865   2.791   4.873 -1.8219 -1.2817  3.8181
 8671SOL    HW237650   1.945   2.679   4.791  2.0828 -0.9858  0.9907
 8672SOL     OW37651   0.555   1.884   7.443 -0.2333  0.5726  0.2853
 8672SOL    HW137652   0.569   1.806   7.390 -1.7345 -1.0303  2.2332
 8672SOL    HW237653   0.462   1.877   7.466  0.4822  0.4737  3.1322
 8673SOL     OW37654   3.943   4.646   2.412  0.0960 -0.3962  0.3768
 8673SOL    HW137655   3.851   4.623   2.398  0.5475 -0.9167 -1.6914
 8673SOL    HW237656   3.934   4.649   2.507  2.5504  4.0756  0.4606
 8674SOL     OW37657   2.485   2.585   3.577 -0.1789 -0.7726 -0.8987
 8674SOL    HW137658   2.561   2.530   3.559 -0.2217 -1.2900  0.5521
 8674SOL    HW237659   2.451   2.609   3.491 -2.2606 -1.6773 -0.3144
 8675SOL     OW37660   1.369   4.437  11.881  0.2370 -0.4776 -0.1790
 8675SOL    HW137661   1.428   4.378  11.834 -1.5314 -0.6860 -2.1116
 8675SOL    HW237662   1.431   4.459  11.950  0.4372  1.4696 -0.9756
 8676SOL     OW37663   2.139   2.623   3.060  0.6574 -0.7805 -0.0997
 8676SOL    HW137664   2.211   2.687   3.057  1.3074 -1.3896  2.4171
 8676SOL    HW237665   2.071   2.674   3.104  1.3913 -0.1532  0.3175
 8677SOL     OW37666   0.097   4.053  15.334 -0.5443 -0.3407  0.5605
 8677SOL    HW137667   0.087   4.148  15.327 -0.3227 -0.2007  2.2459
 8677SOL    HW237668   0.142   4.034  15.251  1.0203  0.7811  1.1577
 8678SOL     OW37669   3.844   0.928  15.796  0.3654 -0.8982 -0.7858
 8678SOL    HW137670   3.838   1.017  15.762 -3.1545 -0.4250  1.0932
 8678SOL    HW237671   3.762   0.888  15.766 -0.5971  0.7615 -0.4134
 8679SOL     OW37672   1.258   2.576   7.742 -0.0419  0.3405 -0.1061
 8679SOL    HW137673   1.321   2.510   7.712 -2.6913 -1.4243 -1.8150
 8679SOL    HW237674   1.315   2.633   7.794 -0.9058 -0.7432  2.0497
 8680SOL     OW37675   3.007   0.719   5.085  0.0158 -0.3271  0.2578
 8680SOL    HW137676   3.099   0.705   5.110 -0.9717 -3.1055  2.3520
 8680SOL    HW237677   2.982   0.627   5.080  0.5772 -0.5166  0.8553
 8681SOL     OW37678   3.455   1.986   8.512 -0.0453  0.3717  0.1186
 8681SOL    HW137679   3.498   1.904   8.491 -2.2858 -0.9906  0.7739
 8681SOL    HW237680   3.360   1.974   8.510 -0.1836  1.7135 -0.9877
 8682SOL     OW37681   0.364   3.966   8.312 -0.0784  0.0567  0.1108
 8682SOL    HW137682   0.368   4.062   8.307  0.8195  0.0541  0.8984
 8682SOL    HW237683   0.456   3.940   8.309 -0.3529 -1.0589  1.3351
 8683SOL     OW37684   0.021   3.375  10.216 -0.5431  0.2745 -0.5063
 8683SOL    HW137685   0.082   3.403  10.284 -2.0616  0.5848  0.7156
 8683SOL    HW237686   4.678   3.380  10.267 -0.2678 -0.6785  0.0285
 8684SOL     OW37687   0.200   3.123   2.740  0.1412 -0.2085  0.3264
 8684SOL    HW137688   0.199   3.061   2.667  1.4487  1.7277 -1.3148
 8684SOL    HW237689   0.109   3.151   2.734  0.0372 -0.6338 -0.0712
 8685SOL     OW37690   0.945   2.424  14.014  0.4363 -0.7283  0.1530
 8685SOL    HW137691   0.913   2.513  14.020  0.3127 -0.8829  1.6646
 8685SOL    HW237692   1.016   2.439  13.951  0.1401  1.9898  0.5007
 8686SOL     OW37693   0.699   1.588   5.565  0.4057  0.6145  0.4550
 8686SOL    HW137694   0.766   1.656   5.574 -1.6336  2.7230 -0.1494
 8686SOL    HW237695   0.625   1.635   5.524  0.3378  0.6591  0.6310
 8687SOL     OW37696   0.463   2.548   5.628 -0.0349 -0.0991  0.2480
 8687SOL    HW137697   0.447   2.642   5.625 -1.3532 -0.3320 -0.1594
 8687SOL    HW237698   0.480   2.522   5.538  0.6233 -0.3798  0.4507
 8688SOL     OW37699   2.205   2.173   7.543 -0.0104 -0.1632 -0.2848
 8688SOL    HW137700   2.197   2.078   7.543 -2.2023  0.0133  0.3826
 8688SOL    HW237701   2.131   2.193   7.486 -0.7430 -1.1798  0.3130
 8689SOL     OW37702   0.052   1.874  11.710 -0.8092 -0.0097 -0.1194
 8689SOL    HW137703   0.036   1.838  11.797  1.3127  1.3609  0.8583
 8689SOL    HW237704   4.707   1.889  11.665 -1.2788  2.0201  1.4228
 8690SOL     OW37705   4.557   1.263   2.395 -0.1379 -0.3365 -0.3000
 8690SOL    HW137706   4.623   1.331   2.385  0.5145 -1.2618 -2.4101
 8690SOL    HW237707   4.482   1.300   2.348 -1.8746 -1.5252  1.5326
 8691SOL     OW37708   0.270   1.393   3.372 -0.4936  0.1802 -0.1819
 8691SOL    HW137709   0.228   1.478   3.361  1.2037  1.0901  0.4478
 8691SOL    HW237710   0.247   1.364   3.284 -0.9256 -1.3736  0.4344
 8692SOL     OW37711   2.109   4.597   2.520 -0.0277 -0.3105 -0.5802
 8692SOL    HW137712   2.166   4.664   2.481  0.2479 -0.0337  0.2993
 8692SOL    HW237713   2.157   4.566   2.597  0.5065 -1.2823 -1.3015
 8693SOL     OW37714   0.701   0.359   5.559 -0.0613  0.0743  0.6071
 8693SOL    HW137715   0.742   0.443   5.537 -0.3037  0.0836  0.1821
 8693SOL    HW237716   0.664   0.332   5.474 -0.5291 -1.3714  1.2775
 8694SOL     OW37717   3.728   1.579   6.882 -0.1780  0.5160 -0.2442
 8694SOL    HW137718   3.699   1.652   6.827  1.0553 -0.4994 -2.2132
 8694SOL    HW237719   3.775   1.535   6.811 -0.4181  0.1401 -0.1701
 8695SOL     OW37720   0.772   4.597   6.807  0.1887 -0.1081 -0.1421
 8695SOL    HW137721   0.826   4.578   6.884  0.8634 -0.9058 -0.8129
 8695SOL    HW237722   0.705   4.528   6.809  0.4335 -0.3451 -0.2885
 8696SOL     OW37723   1.575   3.607   3.963 -0.4799  0.0098  0.9715
 8696SOL    HW137724   1.516   3.553   3.911  3.1830 -0.7649 -2.3595
 8696SOL    HW237725   1.584   3.547   4.037  2.1638  0.2848  0.8952
 8697SOL     OW37726   3.782   2.962   5.530  0.5025  0.0492  0.3790
 8697SOL    HW137727   3.812   2.979   5.620 -2.7828 -0.2457  1.5372
 8697SOL    HW237728   3.722   3.033   5.509  0.6307 -0.5476 -2.0119
 8698SOL     OW37729   0.346   3.048   4.595 -0.7438 -0.1162  0.0423
 8698SOL    HW137730   0.405   3.046   4.519  0.0979 -1.6469  0.7396
 8698SOL    HW237731   0.262   3.028   4.553  0.4363 -0.4955 -2.1541
 8699SOL     OW37732   4.112   3.853   4.279  0.2840  0.3496 -0.0056
 8699SOL    HW137733   4.178   3.923   4.275  0.4202  0.3329  1.7568
 8699SOL    HW237734   4.059   3.893   4.348 -3.7611 -3.4255 -0.9711
 8700SOL     OW37735   4.234   3.434   6.161  0.2073  0.5034 -0.0634
 8700SOL    HW137736   4.210   3.526   6.145 -1.4292 -0.5092 -3.3244
 8700SOL    HW237737   4.163   3.400   6.216 -0.8542 -0.7312 -2.2254
 8701SOL     OW37738   2.439   2.413   5.186 -0.0173 -0.4766 -0.5771
 8701SOL    HW137739   2.388   2.336   5.161  1.1877 -1.0736 -1.1433
 8701SOL    HW237740   2.504   2.420   5.117 -0.9064 -0.0058 -1.3703
 8702SOL     OW37741   0.072   3.939  16.160 -0.1946  0.0551  0.1744
 8702SOL    HW137742   0.015   3.940  16.082 -1.0018  0.0522  0.7641
 8702SOL    HW237743   0.142   3.999  16.135 -1.5148  0.6212 -2.1910
 8703SOL     OW37744   2.671   4.448   2.776 -0.3419  0.1220  0.0788
 8703SOL    HW137745   2.719   4.373   2.810 -0.2213 -0.2300 -0.8638
 8703SOL    HW237746   2.631   4.486   2.854 -1.2980  0.7405 -0.7128
 8704SOL     OW37747   0.597   3.722   6.225 -0.0987  0.0034 -0.2715
 8704SOL    HW137748   0.596   3.628   6.243  3.9662 -0.0432 -0.2757
 8704SOL    HW237749   0.689   3.729   6.198  0.4733 -1.5841  1.2107
 8705SOL     OW37750   4.458   0.355  10.401  0.0695  0.2042  0.2924
 8705SOL    HW137751   4.365   0.345  10.421  0.3107 -2.2284  0.2584
 8705SOL    HW237752   4.449   0.367  10.307  0.7453  2.1843  0.4799
 8706SOL     OW37753   2.302   2.317   6.425 -0.2615 -0.1906 -0.9403
 8706SOL    HW137754   2.277   2.273   6.506 -3.1951 -1.5242 -2.5701
 8706SOL    HW237755   2.302   2.405   6.463  2.1525 -0.0245 -1.3555
 8707SOL     OW37756   4.596   3.894   9.308  0.1996  0.4658  0.0661
 8707SOL    HW137757   4.619   3.897   9.401  1.2724 -1.3295 -0.1219
 8707SOL    HW237758   4.583   3.987   9.292  0.6128  0.1546 -2.1120
 8708SOL     OW37759   4.642   1.109   0.312 -0.2495 -0.0897  0.3620
 8708SOL    HW137760   4.576   1.056   0.266 -0.6650 -0.7241  1.7106
 8708SOL    HW237761   4.673   1.035   0.363 -0.1177  1.0500  1.9282
 8709SOL     OW37762   2.277   3.682  15.438 -0.0555  1.0468  0.2197
 8709SOL    HW137763   2.301   3.590  15.445 -1.2325  0.7126 -0.0658
 8709SOL    HW237764   2.201   3.688  15.495  1.2605  0.6471  1.9920
 8710SOL     OW37765   0.755   0.511   2.677  0.6939  0.3518 -0.1534
 8710SOL    HW137766   0.660   0.514   2.664  0.7147  0.5816 -0.2422
 8710SOL    HW237767   0.788   0.587   2.630  1.2503 -0.0063 -0.3439
 8711SOL     OW37768   2.388   1.780   8.183 -0.0269 -0.3820  0.2809
 8711SOL    HW137769   2.480   1.790   8.156  0.1066 -3.3428 -0.3043
 8711SOL    HW237770   2.366   1.872   8.198 -2.5900 -0.5695 -2.2141
 8712SOL     OW37771   2.293   2.186   5.517  0.0663 -0.1321  0.2864
 8712SOL    HW137772   2.245   2.195   5.599 -1.5539 -0.6551 -0.6219
 8712SOL    HW237773   2.377   2.174   5.562  0.4351  2.0093  0.1831
 8713SOL     OW37774   2.782   0.204   6.271 -0.6550 -0.1903  0.4506
 8713SOL    HW137775   2.791   0.184   6.364 -1.0740 -0.8071  0.3618
 8713SOL    HW237776   2.803   0.297   6.265 -0.5696 -0.1798  0.9247
 8714SOL     OW37777   0.820   4.262  11.713  0.6615  0.3610 -0.3059
 8714SOL    HW137778   0.790   4.180  11.753  0.6675 -1.9364 -5.1276
 8714SOL    HW237779   0.829   4.312  11.795  2.7677 -1.5888  0.6677
 8715SOL     OW37780   1.793   2.667   8.575 -0.1438 -0.3488 -0.4045
 8715SOL    HW137781   1.702   2.662   8.544 -0.0634 -0.3212 -0.6452
 8715SOL    HW237782   1.785   2.619   8.657  0.6745  2.4557  1.3197
 8716SOL     OW37783   1.253   1.023   6.961 -0.3224 -0.3537  0.0734
 8716SOL    HW137784   1.341   0.990   6.979 -0.1400 -0.0639 -0.2979
 8716SOL    HW237785   1.262   1.062   6.875 -1.0711 -1.2524 -0.4181
 8717SOL     OW37786   0.630   0.229   8.372  0.6835 -0.2463 -0.5820
 8717SOL    HW137787   0.695   0.250   8.304 -0.1392  0.7018 -1.0655
 8717SOL    HW237788   0.568   0.301   8.361  1.7261  1.0522  1.8978
 8718SOL     OW37789   4.651   1.209   2.639 -0.3992 -0.3420  0.6189
 8718SOL    HW137790   4.622   1.223   2.548  2.0075 -3.9711 -0.7098
 8718SOL    HW237791   0.002   1.243   2.643 -0.5572  0.5019 -3.1755
 8719SOL     OW37792   4.719   1.873  12.387 -0.1143 -0.3807  0.0946
 8719SOL    HW137793   4.670   1.795  12.415 -1.2174  0.7548  1.3016
 8719SOL    HW237794   4.717   1.862  12.292  0.3599 -0.6082  0.1099
 8720SOL     OW37795   3.689   0.091   4.930  0.8093  0.7151  0.4107
 8720SOL    HW137796   3.721   0.136   4.852 -0.5497 -0.1341 -0.6403
 8720SOL    HW237797   3.735   0.141   4.998 -3.4226  2.1264  2.2288
 8721SOL     OW37798   1.879   2.255   0.725 -0.0500 -0.1371  0.1271
 8721SOL    HW137799   1.785   2.248   0.743 -0.5434  0.0029 -2.3670
 8721SOL    HW237800   1.923   2.188   0.776  0.2588 -2.0017 -2.6222
 8722SOL     OW37801   3.939   2.299   6.979  0.1907  0.4352  0.3369
 8722SOL    HW137802   3.970   2.277   7.067  1.5569  0.8560 -0.0495
 8722SOL    HW237803   3.898   2.385   6.975 -0.8210  0.1215  3.7142
 8723SOL     OW37804   4.590   2.216  17.173 -0.3194 -0.8651 -0.1539
 8723SOL    HW137805   4.676   2.175  17.174 -0.1826 -0.5711  0.9630
 8723SOL    HW237806   4.625   2.290  17.124  0.0238 -2.0812 -1.7476
 8724SOL     OW37807   3.063   4.426   9.352  0.0892 -0.2285 -0.2800
 8724SOL    HW137808   3.130   4.412   9.419  0.6405 -1.2412 -1.0410
 8724SOL    HW237809   3.109   4.494   9.303  0.7047 -0.9029 -0.6493
 8725SOL     OW37810   4.108   2.767   4.428 -0.0520  0.1501  0.5760
 8725SOL    HW137811   4.155   2.808   4.355  1.8112  0.7570  2.1109
 8725SOL    HW237812   4.022   2.784   4.390  0.9023  1.1047 -1.1759
 8726SOL     OW37813   1.421   0.868  15.304  0.2620  0.4858  0.2285
 8726SOL    HW137814   1.456   0.916  15.229 -0.7951 -0.1736 -0.6919
 8726SOL    HW237815   1.326   0.871  15.288  0.3779  1.1482 -0.3359
 8727SOL     OW37816   2.159   1.534   5.976 -0.9319 -0.0278  0.3276
 8727SOL    HW137817   2.076   1.508   5.937 -1.1719  0.4876  0.4965
 8727SOL    HW237818   2.187   1.605   5.919  0.1663 -2.3396 -2.0393
 8728SOL     OW37819   2.477   3.031  12.692 -0.0655  0.5218  0.1590
 8728SOL    HW137820   2.545   3.094  12.713 -0.3616  1.2608 -1.0495
 8728SOL    HW237821   2.526   2.949  12.687 -0.8917  0.0052  0.5047
 8729SOL     OW37822   0.843   0.779   0.795  0.0983  0.5851 -0.2302
 8729SOL    HW137823   0.766   0.818   0.836 -0.1102 -0.3004  0.2154
 8729SOL    HW237824   0.869   0.721   0.866  0.4338  1.0823  0.0540
 8730SOL     OW37825   3.226   4.034   5.127 -0.0868 -0.5877 -0.2688
 8730SOL    HW137826   3.218   4.128   5.138  0.6052 -0.5873  0.2863
 8730SOL    HW237827   3.321   4.027   5.133  0.0508  0.7889 -0.9251
 8731SOL     OW37828   2.682   3.556   7.603  0.3326 -0.1675  0.3711
 8731SOL    HW137829   2.627   3.512   7.538 -0.1198  2.6721 -1.1724
 8731SOL    HW237830   2.725   3.614   7.540 -0.0834 -1.7844 -1.3798
 8732SOL     OW37831   4.166   1.000   6.770 -0.4204  0.2791 -0.7697
 8732SOL    HW137832   4.184   1.020   6.862 -3.0912 -0.8876  0.0083
 8732SOL    HW237833   4.101   0.929   6.771 -0.3657  0.1794 -3.9728
 8733SOL     OW37834   2.190   2.136  10.817 -0.1398  0.4476 -0.1519
 8733SOL    HW137835   2.215   2.214  10.867  2.6794 -1.0434  0.7463
 8733SOL    HW237836   2.167   2.081  10.892  3.0256 -0.3684  0.1929
 8734SOL     OW37837   0.317   0.843   2.328 -0.5011 -0.3901 -0.4733
 8734SOL    HW137838   0.292   0.759   2.364  0.3777  0.2838  1.6839
 8734SOL    HW237839   0.258   0.844   2.252  0.3972 -1.4542 -1.1910
 8735SOL     OW37840   3.401   0.848   3.391 -0.1874 -0.0439 -0.0624
 8735SOL    HW137841   3.364   0.915   3.448  0.8026 -1.3331  2.1034
 8735SOL    HW237842   3.455   0.800   3.453  1.8878  1.7288 -0.5282
 8736SOL     OW37843   2.420   2.461   2.847  0.0292  0.3632  0.5500
 8736SOL    HW137844   2.325   2.446   2.845  0.0480  0.7031 -2.6849
 8736SOL    HW237845   2.450   2.388   2.793 -1.1102  0.3373 -0.0539
 8737SOL     OW37846   3.145   0.936   3.038  0.1595 -0.5618  0.1581
 8737SOL    HW137847   3.083   0.964   2.971  1.2345  0.4096 -0.4317
 8737SOL    HW237848   3.194   1.016   3.054  2.2280 -1.6498 -0.7546
 8738SOL     OW37849   0.699   4.219   9.004  0.2567  0.1982  0.1145
 8738SOL    HW137850   0.651   4.162   9.065  0.7575 -0.6610 -0.2912
 8738SOL    HW237851   0.656   4.303   9.016 -0.2002 -0.2015  1.2738
 8739SOL     OW37852   0.019   2.607   7.208  1.1764  0.4097 -0.7597
 8739SOL    HW137853   4.680   2.550   7.212  2.0054 -0.5046  2.1078
 8739SOL    HW237854   0.092   2.546   7.225 -1.4525 -2.6848 -0.5643
 8740SOL     OW37855   0.143   1.018  17.617 -0.1610 -0.1756 -0.3535
 8740SOL    HW137856   0.133   1.054  17.529  0.2998  0.8509  0.0069
 8740SOL    HW237857   0.232   0.985  17.616 -0.6546 -1.4868 -0.9506
 8741SOL     OW37858   3.114   2.181   4.760 -0.0484 -0.2625  0.7104
 8741SOL    HW137859   3.089   2.243   4.828  1.4492  1.8568 -0.6923
 8741SOL    HW237860   3.206   2.204   4.752 -0.8205  2.4540 -0.2163
 8742SOL     OW37861   2.118   0.354  14.900 -1.1722  0.0419 -0.5445
 8742SOL    HW137862   2.200   0.378  14.943 -0.2522 -0.6849 -1.8730
 8742SOL    HW237863   2.140   0.383  14.811 -2.1805 -0.0472 -0.8290
 8743SOL     OW37864   2.802   2.316   1.328  0.1190  0.1225  0.2474
 8743SOL    HW137865   2.888   2.353   1.351 -0.9393  1.6956  1.6787
 8743SOL    HW237866   2.756   2.323   1.412  0.7358 -2.1689  0.7806
 8744SOL     OW37867   2.552   4.286   7.133 -0.1278  0.3290  0.2422
 8744SOL    HW137868   2.557   4.245   7.047 -0.5805  1.7219 -0.4461
 8744SOL    HW237869   2.537   4.208   7.187 -3.0695  0.0631 -0.9472
 8745SOL     OW37870   4.721   2.390   0.955  0.3611 -0.3887  0.8736
 8745SOL    HW137871   4.697   2.402   1.047 -1.7613 -0.3134  0.3059
 8745SOL    HW237872   0.058   2.448   0.944 -0.4321  0.7550  1.5271
 8746SOL     OW37873   4.073   0.482  12.946 -0.4465 -0.2520 -0.0788
 8746SOL    HW137874   4.157   0.445  12.973  0.9177  2.5196 -0.5907
 8746SOL    HW237875   4.003   0.444  13.000  0.6138 -0.0335  1.4609
 8747SOL     OW37876   1.398   3.668  16.450  0.8670  0.7460 -0.3199
 8747SOL    HW137877   1.345   3.606  16.500  0.7752  0.9817 -0.1285
 8747SOL    HW237878   1.363   3.662  16.361 -0.0551  0.9885  0.0271
 8748SOL     OW37879   1.569   1.536  13.551 -0.2419  0.4154  0.0948
 8748SOL    HW137880   1.526   1.455  13.523 -1.8136  0.8687  1.2388
 8748SOL    HW237881   1.588   1.565  13.461 -1.8646 -2.6033 -1.2187
 8749SOL     OW37882   1.851   4.633  15.401 -0.8586 -0.0960 -0.5776
 8749SOL    HW137883   1.827   4.574  15.472 -1.0839 -0.3418 -0.8570
 8749SOL    HW237884   1.823   4.588  15.321 -1.2160  1.0955 -1.1281
 8750SOL     OW37885   4.041   2.459  12.171  0.6153 -0.1738 -0.2582
 8750SOL    HW137886   3.965   2.409  12.142  1.4224 -1.0404 -0.9081
 8750SOL    HW237887   4.004   2.547  12.171 -0.7570 -0.7636  0.6051
 8751SOL     OW37888   0.953   4.375  11.497  0.4614  0.4717  0.2078
 8751SOL    HW137889   0.904   4.343  11.573  1.5179  0.8614  1.0623
 8751SOL    HW237890   0.885   4.370  11.430 -0.1666 -0.8064  0.9437
 8752SOL     OW37891   3.388   2.200   4.793 -0.5027 -0.3160  0.6358
 8752SOL    HW137892   3.446   2.264   4.749 -2.3025  1.4367  0.8169
 8752SOL    HW237893   3.434   2.120   4.768  1.7041  0.7929  1.0718
 8753SOL     OW37894   1.434   4.194  16.399  0.6014 -0.1186 -0.2157
 8753SOL    HW137895   1.439   4.282  16.436 -1.5478  0.0920 -0.4771
 8753SOL    HW237896   1.479   4.214  16.316  2.8472 -2.5445  0.4240
 8754SOL     OW37897   3.719   2.434   6.122  0.6785  0.3660  0.2667
 8754SOL    HW137898   3.809   2.420   6.092  0.3923 -1.9357  0.4785
 8754SOL    HW237899   3.685   2.459   6.036  0.6240 -0.4707  0.0422
 8755SOL     OW37900   1.852   0.211   7.725 -0.2460  0.2419 -0.1289
 8755SOL    HW137901   1.899   0.142   7.772 -0.5037  0.4213  0.3941
 8755SOL    HW237902   1.764   0.174   7.720  0.1154 -0.4145 -1.7696
 8756SOL     OW37903   4.640   1.972   5.458  0.0048 -0.1330  0.1306
 8756SOL    HW137904   4.641   1.912   5.532 -1.9663 -1.9281 -1.3043
 8756SOL    HW237905   4.599   2.047   5.501 -1.1181  0.3866 -1.8729
 8757SOL     OW37906   4.044   4.005   3.946  0.6963  0.3702  0.2267
 8757SOL    HW137907   4.074   4.095   3.952  0.6057  0.3693  0.6700
 8757SOL    HW237908   3.966   4.020   3.893  2.3251  2.5410 -1.5499
 8758SOL     OW37909   4.324   1.639   7.260 -0.0419  0.1500 -0.2004
 8758SOL    HW137910   4.253   1.640   7.324  0.1126  0.2314 -0.0280
 8758SOL    HW237911   4.343   1.547   7.277  1.8171  0.9776  2.3612
 8759SOL     OW37912   1.555   4.213  14.590 -0.1651  0.2030 -0.1235
 8759SOL    HW137913   1.569   4.287  14.649  1.4446  0.8838 -1.3888
 8759SOL    HW237914   1.572   4.250  14.504 -0.3212  0.2984 -0.1140
 8760SOL     OW37915   1.437   1.933   5.674  0.3451 -0.1437 -0.1046
 8760SOL    HW137916   1.506   1.996   5.651  0.7084 -1.1009 -1.6482
 8760SOL    HW237917   1.448   1.852   5.625 -1.1376 -1.4508  1.7189
 8761SOL     OW37918   3.249   2.943   6.679  0.0384  0.3091 -0.0382
 8761SOL    HW137919   3.256   2.850   6.661  1.0674  0.6450 -1.3774
 8761SOL    HW237920   3.204   2.944   6.763 -1.7988  0.1340 -1.0230
 8762SOL     OW37921   4.175   4.394   3.651 -0.1002 -0.6195  0.5197
 8762SOL    HW137922   4.259   4.350   3.646  0.6318  1.0083 -1.4818
 8762SOL    HW237923   4.181   4.476   3.603  1.9074  0.6847  3.0248
 8763SOL     OW37924   0.541   1.568  10.718 -0.4019 -0.6872 -0.3907
 8763SOL    HW137925   0.548   1.489  10.665 -3.3582 -0.5871 -0.9721
 8763SOL    HW237926   0.561   1.535  10.805  2.4573  0.2342 -0.7089
 8764SOL     OW37927   0.084   2.513   9.017  0.0912  0.1587  0.0101
 8764SOL    HW137928   4.735   2.544   9.037  0.7533  0.6552  2.1474
 8764SOL    HW237929   0.128   2.508   9.102  2.6987 -0.3707 -1.3511
 8765SOL     OW37930   2.175   4.180   4.234 -0.8041 -0.0544 -0.3526
 8765SOL    HW137931   2.149   4.201   4.324  0.9083 -1.9981  0.5724
 8765SOL    HW237932   2.106   4.119   4.208 -0.5686  0.3250 -1.9184
 8766SOL     OW37933   1.405   4.531  16.362 -0.5517  0.4972 -0.1729
 8766SOL    HW137934   1.426   4.532  16.456  2.0642  1.3081 -0.7749
 8766SOL    HW237935   1.314   4.503  16.372 -0.0527 -1.0066  0.1431
 8767SOL     OW37936   1.118   4.278   5.111  0.3335  0.0792  0.1674
 8767SOL    HW137937   1.144   4.328   5.034  2.2144  0.2727  0.9158
 8767SOL    HW237938   1.190   4.215   5.119  0.6106  0.5095  1.0843
 8768SOL     OW37939   3.000   3.295   4.950  0.2861  0.8090  0.2007
 8768SOL    HW137940   2.934   3.345   4.902 -2.6236 -3.3964 -0.2204
 8768SOL    HW237941   3.046   3.258   4.874 -2.3409 -1.3504 -0.3114
 8769SOL     OW37942   2.898   2.435  13.049  0.0909 -0.7037  0.2941
 8769SOL    HW137943   2.947   2.366  13.094 -0.4257 -1.1922  0.1199
 8769SOL    HW237944   2.917   2.409  12.959  0.2775  0.9727 -0.1524
 8770SOL     OW37945   1.595   3.816   5.812  0.1585 -0.1289  0.1372
 8770SOL    HW137946   1.686   3.827   5.840  0.2150  1.2901 -0.5965
 8770SOL    HW237947   1.583   3.901   5.768 -3.6776  0.0155  1.4595
 8771SOL     OW37948   2.208   3.176   7.530 -0.1259 -0.0349  0.5941
 8771SOL    HW137949   2.178   3.087   7.548  0.5529 -1.2656 -4.1288
 8771SOL    HW237950   2.300   3.159   7.552 -0.3149 -1.8326  0.0637
 8772SOL     OW37951   0.876   1.342   0.091 -0.4898  0.3456 -0.3698
 8772SOL    HW137952   0.918   1.350   0.177  0.0910  0.5421 -0.6754
 8772SOL    HW237953   0.941   1.292   0.042  0.6455 -0.2445  1.7391
 8773SOL     OW37954   2.286   3.764   5.734  0.2116  0.6219  0.3082
 8773SOL    HW137955   2.321   3.774   5.645  0.3118 -0.0772  0.2679
 8773SOL    HW237956   2.238   3.845   5.752  0.7783  1.6957 -2.8366
 8774SOL     OW37957   2.425   4.610   6.809  0.4054 -0.1377  0.0042
 8774SOL    HW137958   2.421   4.516   6.790  0.2594 -0.4965  1.8704
 8774SOL    HW237959   2.499   4.644   6.759  0.0021  1.2712  0.3681
 8775SOL     OW37960   2.121   2.406   6.769 -0.1660 -0.0948  0.0371
 8775SOL    HW137961   2.159   2.448   6.692  0.2362 -0.6590 -0.0663
 8775SOL    HW237962   2.050   2.359   6.726  0.2112 -0.5236 -0.1195
 8776SOL     OW37963   4.688   2.448   2.564  0.0435  0.4746 -0.6327
 8776SOL    HW137964   4.601   2.416   2.541  1.1103 -1.2735 -2.1572
 8776SOL    HW237965   0.004   2.371   2.576  0.0104  0.5861  0.2793
 8777SOL     OW37966   0.219   1.899   6.229  0.4938 -0.4170  0.5018
 8777SOL    HW137967   0.238   1.975   6.174  0.9872  0.0127  1.2725
 8777SOL    HW237968   0.207   1.837   6.157  0.7126  0.9985 -0.7821
 8778SOL     OW37969   3.669   0.181   7.071  0.3875 -0.0954 -0.3647
 8778SOL    HW137970   3.754   0.216   7.044  0.1991  1.8996  1.5916
 8778SOL    HW237971   3.691   0.088   7.072  3.9071  0.7104 -1.1819
 8779SOL     OW37972   0.718   2.478   4.880 -0.2384  0.1903 -0.0018
 8779SOL    HW137973   0.776   2.500   4.953  0.1285 -1.3128  0.1440
 8779SOL    HW237974   0.669   2.560   4.865 -1.6767 -0.5330  0.7202
 8780SOL     OW37975   3.575   2.317   1.832  0.2560  0.1031  0.0212
 8780SOL    HW137976   3.588   2.236   1.882 -1.1931  0.6418  1.2915
 8780SOL    HW237977   3.482   2.310   1.810 -0.0659 -0.9421  1.6833
 8781SOL     OW37978   2.640   3.971   5.206  0.1998 -0.2091  0.5835
 8781SOL    HW137979   2.713   4.032   5.197 -1.6603  1.9419  0.2318
 8781SOL    HW237980   2.680   3.898   5.255  0.6575  0.0395  0.5784
 8782SOL     OW37981   4.606   0.226   6.955  0.1718 -0.1916 -0.1110
 8782SOL    HW137982   4.602   0.187   7.042 -1.1458  0.8236  0.2662
 8782SOL    HW237983   4.698   0.213   6.930 -0.4621 -2.0076 -1.5283
 8783SOL     OW37984   4.222   3.007   7.914  0.1492  0.2037 -0.0175
 8783SOL    HW137985   4.304   2.960   7.899  0.3392  0.8471 -1.0122
 8783SOL    HW237986   4.173   2.933   7.948  0.2969  0.0688 -0.0979
 8784SOL     OW37987   3.457   4.551   5.958  0.0401 -0.0545 -0.0217
 8784SOL    HW137988   3.521   4.494   6.002  0.6702 -0.3321 -1.3044
 8784SOL    HW237989   3.409   4.586   6.033 -1.4345 -2.2298  0.0476
 8785SOL     OW37990   3.685   1.861   4.824 -0.2417  0.0327  0.1369
 8785SOL    HW137991   3.745   1.791   4.848 -1.1698 -0.8221 -0.0216
 8785SOL    HW237992   3.657   1.888   4.911  2.3772 -0.7232  1.2103
 8786SOL     OW37993   4.497   4.310   1.841 -0.0446 -0.3960 -0.9969
 8786SOL    HW137994   4.528   4.222   1.817  0.3577 -0.4915 -0.1277
 8786SOL    HW237995   4.441   4.280   1.913  0.1297  2.9309  0.4805
 8787SOL     OW37996   2.206   4.537  17.042 -0.2990 -0.1889 -0.4674
 8787SOL    HW137997   2.229   4.626  17.015 -1.2221 -0.5837 -2.5896
 8787SOL    HW237998   2.296   4.520  17.070 -0.9066 -0.6587  1.2130
 8788SOL     OW37999   3.496   2.178   9.813 -0.1729 -0.3832 -0.0324
 8788SOL    HW138000   3.493   2.270   9.788  1.1899  0.0024  1.1859
 8788SOL    HW238001   3.540   2.179   9.898  1.1479  0.5244 -0.7159
 8789SOL     OW38002   0.875   1.426   6.108 -0.4991  0.4732 -0.3525
 8789SOL    HW138003   0.928   1.360   6.063 -0.3622 -0.7026  1.5293
 8789SOL    HW238004   0.895   1.504   6.057 -1.8440  0.1631 -1.3405
 8790SOL     OW38005   0.196   2.719   1.354  0.0437 -0.3480  0.2990
 8790SOL    HW138006   0.161   2.630   1.356 -0.0422 -0.3178  0.0857
 8790SOL    HW238007   0.127   2.779   1.382 -1.0905 -1.0467 -0.9980
 8791SOL     OW38008   4.292   0.907   1.515 -0.4617 -0.7872  0.1009
 8791SOL    HW138009   4.368   0.960   1.541 -0.2121 -1.2943  0.3952
 8791SOL    HW238010   4.312   0.830   1.569 -1.1755  0.1614  1.7216
 8792SOL     OW38011   3.039   1.518  13.590 -0.0779 -0.1573 -0.0110
 8792SOL    HW138012   2.979   1.552  13.656  0.4709  2.7739 -1.0298
 8792SOL    HW238013   3.106   1.586  13.591  0.4135 -0.6621  1.0702
 8793SOL     OW38014   1.846   1.204  10.381  0.0526 -0.1080 -0.4277
 8793SOL    HW138015   1.856   1.260  10.305 -1.8858  1.1523  0.2369
 8793SOL    HW238016   1.783   1.254  10.434  0.0895  0.2191 -0.6995
 8794SOL     OW38017   3.259   3.168   8.147 -0.2017 -0.0420 -0.1923
 8794SOL    HW138018   3.338   3.221   8.136 -0.1781 -0.2271 -0.9811
 8794SOL    HW238019   3.299   3.100   8.200 -1.6618  0.8505  2.0544
 8795SOL     OW38020   0.366   4.371   3.836  0.6553  0.0489  0.1230
 8795SOL    HW138021   0.409   4.453   3.811  1.5151 -1.0101 -1.8198
 8795SOL    HW238022   0.309   4.370   3.760 -0.4755 -1.2102  0.9949
 8796SOL     OW38023   2.570   0.930   6.687 -0.1695  0.6415 -0.2029
 8796SOL    HW138024   2.516   0.859   6.651 -0.6630  1.4370 -1.0388
 8796SOL    HW238025   2.560   0.910   6.780  0.9342 -2.0439 -0.6613
 8797SOL     OW38026   2.293   0.621   6.880 -0.2602  0.1239  0.9728
 8797SOL    HW138027   2.234   0.547   6.863  1.7959 -1.0210 -1.2359
 8797SOL    HW238028   2.234   0.693   6.859  0.0735 -0.0924 -0.7771
 8798SOL     OW38029   2.931   0.913   2.042  0.4204 -0.0849 -0.0141
 8798SOL    HW138030   2.949   0.823   2.016  0.1491 -0.7061  1.9884
 8798SOL    HW238031   2.978   0.952   1.968  0.6258 -0.8040 -0.2629
 8799SOL     OW38032   1.586   2.934   2.487  0.4790 -0.2622  0.0160
 8799SOL    HW138033   1.667   2.899   2.450  2.4575  2.1948  2.0133
 8799SOL    HW238034   1.513   2.891   2.442 -0.0503 -0.8237  1.4296
 8800SOL     OW38035   2.398   1.615   8.674 -0.2449  0.4324 -0.2636
 8800SOL    HW138036   2.340   1.576   8.740 -0.7595 -2.0642 -2.1879
 8800SOL    HW238037   2.345   1.606   8.595  0.7624 -0.9232 -0.7923
 8801SOL     OW38038   4.463   2.516  17.597 -0.7917 -0.4559  0.1352
 8801SOL    HW138039   4.396   2.584  17.588 -2.4237 -2.1765 -0.7593
 8801SOL    HW238040   4.532   2.565  17.642  1.3344 -3.2780 -0.0627
 8802SOL     OW38041   0.854   1.297  17.390 -0.1331  0.3923 -0.7218
 8802SOL    HW138042   0.921   1.341  17.442 -0.2935  0.5354 -0.6348
 8802SOL    HW238043   0.788   1.284  17.458  1.0813  1.9438  0.7560
 8803SOL     OW38044   1.546   1.786  12.019  0.1913  0.6076  0.2111
 8803SOL    HW138045   1.490   1.816  12.091  0.1561  0.3184  0.3019
 8803SOL    HW238046   1.470   1.774  11.962 -0.6194 -1.2080  1.6747
 8804SOL     OW38047   4.626   3.175  14.607 -0.2050  0.5691  0.2071
 8804SOL    HW138048   4.708   3.129  14.589  0.1285  0.9634  0.7378
 8804SOL    HW238049   4.601   3.151  14.696  1.2874 -1.3899  0.0986
 8805SOL     OW38050   4.420   3.090  14.182  0.5091  0.3449 -0.2547
 8805SOL    HW138051   4.511   3.064  14.195  0.0196  0.2929  3.2505
 8805SOL    HW238052   4.433   3.185  14.194 -0.2100  0.7053 -2.3952
 8806SOL     OW38053   4.021   0.972  14.739 -0.1216 -0.2719  0.3924
 8806SOL    HW138054   4.019   0.889  14.691 -1.9700 -1.2883  2.1912
 8806SOL    HW238055   4.097   0.960  14.795  1.4009 -1.5373 -1.9342
 8807SOL     OW38056   3.605   4.464   7.160 -0.2369  0.5950  0.3039
 8807SOL    HW138057   3.587   4.505   7.244  0.2019  1.6807 -0.1342
 8807SOL    HW238058   3.654   4.533   7.116  1.2704  0.1578  1.2913
 8808SOL     OW38059   3.768   3.700   4.944 -0.0851 -0.3245 -0.3926
 8808SOL    HW138060   3.834   3.631   4.935 -0.3715 -0.4409 -1.5991
 8808SOL    HW238061   3.715   3.660   5.012 -1.3579 -0.6212 -1.5609
 8809SOL     OW38062   0.599   0.712  15.142  0.7641  0.5570 -0.3593
 8809SOL    HW138063   0.550   0.631  15.156  0.1790  1.2411  1.5186
 8809SOL    HW238064   0.586   0.755  15.227  0.3937 -0.3313  0.0396
 8810SOL     OW38065   4.623   3.484   2.905 -0.1027  0.3481 -0.7765
 8810SOL    HW138066   4.693   3.418   2.906  0.7568  1.2512 -1.2971
 8810SOL    HW238067   4.637   3.535   2.825 -0.2026  1.9207  0.2219
 8811SOL     OW38068   1.073   3.052   3.580  0.1433  0.0560  0.2266
 8811SOL    HW138069   1.169   3.057   3.580  0.1309  0.2831  0.3663
 8811SOL    HW238070   1.045   3.111   3.510  1.4149  0.4466  0.0434
 8812SOL     OW38071   3.888   3.807   9.985  0.5568  0.3377 -0.9916
 8812SOL    HW138072   3.830   3.823   9.910 -0.3318  0.3371 -0.3064
 8812SOL    HW238073   3.824   3.815  10.056  1.2433  0.4570 -0.3956
 8813SOL     OW38074   0.244   1.114   6.176  0.5373  0.5723  0.2696
 8813SOL    HW138075   0.298   1.102   6.254  0.3250  0.6443  0.4237
 8813SOL    HW238076   0.322   1.125   6.121 -0.3365  0.6095 -0.9649
 8814SOL     OW38077   1.669   4.593   9.362  0.7035  0.3067 -0.3868
 8814SOL    HW138078   1.698   4.534   9.292 -0.7598 -0.0947 -0.6668
 8814SOL    HW238079   1.637   4.664   9.307 -1.1812 -0.4755 -0.3085
 8815SOL     OW38080   0.428   3.877   5.903  0.4723 -0.0540  0.6585
 8815SOL    HW138081   0.504   3.822   5.884  1.2858  0.4396  2.4171
 8815SOL    HW238082   0.450   3.901   5.993 -1.6224  2.1403  0.5770
 8816SOL     OW38083   0.315   4.223   8.612  0.2474  0.0545  0.1759
 8816SOL    HW138084   0.389   4.239   8.671  1.3037  0.8081 -1.3628
 8816SOL    HW238085   0.355   4.227   8.526  1.6661 -0.4295  0.8056
 8817SOL     OW38086   2.166   0.952   0.767 -0.0186 -0.3028  0.2567
 8817SOL    HW138087   2.221   0.977   0.841  0.1433  3.7191 -1.2476
 8817SOL    HW238088   2.114   0.894   0.822 -0.0793  0.3444  0.8805
 8818SOL     OW38089   2.016   3.303  16.884 -0.7516  0.0322 -0.1243
 8818SOL    HW138090   2.046   3.394  16.878  0.2574 -0.1641  2.0640
 8818SOL    HW238091   1.970   3.308  16.967 -1.2228  0.5074 -0.4112
 8819SOL     OW38092   2.251   0.020   7.822  0.1634 -0.7022  0.4211
 8819SOL    HW138093   2.284   0.068   7.746 -0.8178 -0.4337  0.1633
 8819SOL    HW238094   2.298   4.675   7.809  2.4214  0.8657 -1.5750
 8820SOL     OW38095   0.476   0.395   5.863 -0.5872 -0.0899  0.4621
 8820SOL    HW138096   0.475   0.442   5.779 -1.6894  0.6415  0.8901
 8820SOL    HW238097   0.404   0.333   5.856 -1.3917  0.8449  0.5525
 8821SOL     OW38098   4.288   1.779   1.577 -0.1653  0.5604  0.8120
 8821SOL    HW138099   4.363   1.757   1.523 -0.7593 -1.6997  0.9020
 8821SOL    HW238100   4.260   1.859   1.533 -2.0760 -0.5069  0.0727
 8822SOL     OW38101   4.461   4.505   1.654 -0.4490 -0.0197  0.0702
 8822SOL    HW138102   4.386   4.466   1.610  0.4588  1.0149 -2.3693
 8822SOL    HW238103   4.495   4.433   1.709  0.6837 -0.0683 -0.6925
 8823SOL     OW38104   0.729   2.353   0.753 -1.1876 -0.1303  0.6008
 8823SOL    HW138105   0.699   2.309   0.673 -0.0459  2.4560 -1.2330
 8823SOL    HW238106   0.815   2.313   0.765 -0.4674  0.8328 -1.3182
 8824SOL     OW38107   1.393   1.043  17.349  0.2021 -0.4840 -0.1513
 8824SOL    HW138108   1.451   1.017  17.278  2.0857 -1.5685  1.7479
 8824SOL    HW238109   1.309   1.017  17.311 -0.7137  0.3368  1.2897
 8825SOL     OW38110   1.139   1.547   6.047 -0.6414 -0.1764 -0.4046
 8825SOL    HW138111   1.229   1.518   6.030 -0.5294  0.0855 -0.2540
 8825SOL    HW238112   1.134   1.508   6.135 -0.4592  1.3966  0.3034
 8826SOL     OW38113   1.891   1.782   6.463  0.1706 -0.1502  0.6308
 8826SOL    HW138114   1.871   1.856   6.520  0.5425 -1.1248  2.0345
 8826SOL    HW238115   1.907   1.827   6.381 -0.8649 -1.2871 -0.1970
 8827SOL     OW38116   2.740   0.237   8.553  0.1426  0.1980  0.0096
 8827SOL    HW138117   2.754   0.175   8.481 -0.6895 -0.9955  0.8859
 8827SOL    HW238118   2.657   0.273   8.520 -0.6040 -1.6759 -0.1401
 8828SOL     OW38119   1.032   1.263  16.917 -0.6348 -0.0278 -0.6673
 8828SOL    HW138120   1.054   1.313  16.838  1.3346  0.2420  0.0557
 8828SOL    HW238121   0.962   1.318  16.952 -0.0832 -0.4765  1.1010
 8829SOL     OW38122   3.921   4.719   6.262  0.3043 -0.1377 -0.1351
 8829SOL    HW138123   3.830   4.726   6.231  0.8553 -1.2720 -2.0088
 8829SOL    HW238124   3.951   4.649   6.204 -0.0151  0.3233 -0.8635
 8830SOL     OW38125   2.200   3.066   4.593 -0.6146 -0.4134  0.0367
 8830SOL    HW138126   2.220   3.153   4.558 -0.8996 -0.5191 -0.3866
 8830SOL    HW238127   2.125   3.051   4.535 -1.6165  1.2764  0.8697
 8831SOL     OW38128   3.190   0.326   2.772 -0.0906  0.5121  0.0915
 8831SOL    HW138129   3.214   0.236   2.748 -2.7015  1.1075 -4.7366
 8831SOL    HW238130   3.118   0.336   2.710 -0.4584 -1.0801  0.2443
 8832SOL     OW38131   0.659   3.458   5.954  0.0029  0.1173 -0.2046
 8832SOL    HW138132   0.639   3.370   5.921  1.7389 -1.3938  2.8020
 8832SOL    HW238133   0.595   3.477   6.023  1.3380  1.1186  0.7458
 8833SOL     OW38134   2.922   3.338   4.487 -0.0533  0.3685 -0.2443
 8833SOL    HW138135   2.980   3.296   4.550  0.9193  2.3044  0.1389
 8833SOL    HW238136   2.930   3.431   4.509 -0.0668  0.7824 -1.9996
 8834SOL     OW38137   1.572   1.294   4.259  0.4457 -0.2433  0.2824
 8834SOL    HW138138   1.500   1.355   4.243  0.1345 -0.8318 -0.5648
 8834SOL    HW238139   1.567   1.279   4.354 -0.0876 -0.4820  0.2140
 8835SOL     OW38140   2.736   4.425   3.617 -0.4784  0.3723 -0.0929
 8835SOL    HW138141   2.708   4.517   3.615  1.4084  0.9513  0.4085
 8835SOL    HW238142   2.680   4.395   3.689 -0.9113 -0.5365 -0.8032
 8836SOL     OW38143   0.344   4.451   7.065 -0.2928  0.0805  0.0798
 8836SOL    HW138144   0.306   4.390   7.128  0.1338  0.8325  1.0650
 8836SOL    HW238145   0.399   4.388   7.018  1.9880  1.2174  1.2616
 8837SOL     OW38146   4.113   3.218   8.767 -0.1143  0.0437 -1.0117
 8837SOL    HW138147   4.025   3.181   8.769 -0.2486  0.5549  2.3293
 8837SOL    HW238148   4.140   3.197   8.678  0.7345 -1.2493 -0.4347
 8838SOL     OW38149   0.178   2.927   1.928  0.1443  0.2973 -0.2671
 8838SOL    HW138150   0.197   3.012   1.887 -2.4817  0.8681 -0.2704
 8838SOL    HW238151   0.241   2.931   2.000  0.7393  0.3635 -0.7818
 8839SOL     OW38152   1.758   4.716   1.202 -0.2016  0.7241  0.3448
 8839SOL    HW138153   1.779   0.016   1.116  4.0271  0.7898  1.4227
 8839SOL    HW238154   1.844   4.696   1.237  0.4184  1.7099 -0.5988
 8840SOL     OW38155   4.208   1.453   3.245  0.0451 -0.5820 -0.0549
 8840SOL    HW138156   4.200   1.364   3.209 -2.8530 -1.6361  3.1422
 8840SOL    HW238157   4.294   1.469   3.207  0.4488 -3.3339 -0.3268
 8841SOL     OW38158   3.419   3.100  16.055 -0.1894 -0.0271 -0.2992
 8841SOL    HW138159   3.389   3.189  16.036 -1.6551 -0.3732  0.3870
 8841SOL    HW238160   3.464   3.109  16.139 -3.1930 -0.0378  1.3151
 8842SOL     OW38161   0.881   4.428  16.166  0.0530  0.4277 -0.0064
 8842SOL    HW138162   0.924   4.355  16.121  0.6065  1.2158 -0.7461
 8842SOL    HW238163   0.795   4.387  16.177  0.2054 -0.1500 -0.9817
 8843SOL     OW38164   0.638   0.452   8.657  0.2934 -0.0607 -0.2465
 8843SOL    HW138165   0.652   0.498   8.740  1.6474  1.2200 -1.1657
 8843SOL    HW238166   0.716   0.491   8.617  0.8330  1.7252  2.5777
 8844SOL     OW38167   0.111   1.850   4.135  0.4280 -0.3354 -0.5001
 8844SOL    HW138168   0.129   1.926   4.080  1.6030 -0.9080 -0.9000
 8844SOL    HW238169   0.018   1.850   4.109 -0.1342  4.0779  1.5734
 8845SOL     OW38170   3.909   3.784   2.991 -0.0363 -0.6186 -0.1456
 8845SOL    HW138171   3.994   3.824   2.973 -0.2162  0.3659  1.2585
 8845SOL    HW238172   3.850   3.854   3.019  0.1517  0.0778 -1.4867
 8846SOL     OW38173   1.343   1.068   0.590 -0.0514  0.3633  0.1517
 8846SOL    HW138174   1.305   1.072   0.503  1.4772 -1.4310 -0.5894
 8846SOL    HW238175   1.420   1.016   0.567  1.2640  2.5550 -0.4361
 8847SOL     OW38176   0.715   1.727  17.592 -0.7319 -0.0991  0.3068
 8847SOL    HW138177   0.696   1.648  17.541  1.8806 -0.6185  0.1400
 8847SOL    HW238178   0.719   1.794  17.524  2.0092  0.1623  0.7348
 8848SOL     OW38179   3.299   2.819  14.721  0.3289 -0.3414  0.5644
 8848SOL    HW138180   3.366   2.867  14.769  1.9163 -1.8632 -0.1267
 8848SOL    HW238181   3.350   2.763  14.662  1.5822  2.9704 -1.5103
 8849SOL     OW38182   3.157   2.136  10.961  0.2560 -0.5442  0.0330
 8849SOL    HW138183   3.159   2.040  10.967 -0.1834 -0.6790 -2.0691
 8849SOL    HW238184   3.248   2.156  10.941  0.0697  0.0717 -0.2179
 8850SOL     OW38185   0.103   4.240   7.912 -0.4356 -0.3749 -0.0313
 8850SOL    HW138186   0.175   4.303   7.912 -1.5717  0.9228 -3.4938
 8850SOL    HW238187   0.067   4.261   7.998 -0.0858  0.8155 -0.1711
 8851SOL     OW38188   0.404   1.301   7.427  0.4555 -0.3511  0.8589
 8851SOL    HW138189   0.342   1.269   7.492  0.3051 -1.0361  0.3819
 8851SOL    HW238190   0.397   1.226   7.368  0.9814  0.9238 -0.8359
 8852SOL     OW38191   3.135   4.419   8.887 -0.2849 -0.1702 -0.4845
 8852SOL    HW138192   3.176   4.505   8.876 -0.4143  0.2453  2.3654
 8852SOL    HW238193   3.044   4.432   8.914  0.7077  2.4515  1.5456
 8853SOL     OW38194   0.735   2.717   9.285 -0.7206 -0.7388 -0.6155
 8853SOL    HW138195   0.784   2.788   9.244  1.8991 -1.9065  0.4927
 8853SOL    HW238196   0.777   2.640   9.246  0.1797  0.0747 -1.2323
 8854SOL     OW38197   3.027   1.736   7.525 -0.4463 -0.2270  0.2802
 8854SOL    HW138198   2.975   1.663   7.490 -1.5459  2.0423 -2.8841
 8854SOL    HW238199   3.032   1.786   7.443 -0.2248  0.8049  0.9260
 8855SOL     OW38200   0.665   1.086   6.501  0.5638 -0.5789 -0.1529
 8855SOL    HW138201   0.678   1.149   6.571 -1.5236  1.4480 -1.5847
 8855SOL    HW238202   0.641   1.011   6.555  2.1616  1.8143  3.8509
 8856SOL     OW38203   1.786   4.722  10.570 -0.3418 -0.6619  0.3052
 8856SOL    HW138204   1.813   4.647  10.517 -0.3968 -1.4783  1.4217
 8856SOL    HW238205   1.725   0.026  10.510  0.7865  3.1067  1.8247
 8857SOL     OW38206   2.957   1.028   5.471  1.0702 -0.0590  0.5304
 8857SOL    HW138207   3.042   1.028   5.427  0.6157 -0.4944 -0.3604
 8857SOL    HW238208   2.959   0.940   5.508  0.3559 -0.5851 -0.6525
 8858SOL     OW38209   3.396   1.764   4.000 -0.2519  0.3009  0.7866
 8858SOL    HW138210   3.304   1.744   4.011 -0.4376  1.8231  1.9570
 8858SOL    HW238211   3.437   1.717   4.073  0.1448 -2.4674 -1.1988
 8859SOL     OW38212   1.552   3.735   8.568  0.0533  0.6874  0.4045
 8859SOL    HW138213   1.587   3.646   8.557  0.4983  1.1178 -1.5102
 8859SOL    HW238214   1.481   3.718   8.630 -0.4457 -0.1317 -0.3992
 8860SOL     OW38215   0.226   4.250  17.168 -0.9587  0.1385  0.6772
 8860SOL    HW138216   0.196   4.323  17.113  0.3246  1.1035  1.2588
 8860SOL    HW238217   0.230   4.186  17.097  1.3310 -0.7862  1.6637
 8861SOL     OW38218   1.834   4.214   3.252  0.2973 -0.3754  0.2670
 8861SOL    HW138219   1.868   4.133   3.214 -0.0973 -0.6578  0.5053
 8861SOL    HW238220   1.881   4.225   3.335  0.0157  0.2114  0.3483
 8862SOL     OW38221   3.474   1.724   9.544 -0.2092  0.4880  0.4278
 8862SOL    HW138222   3.545   1.661   9.558 -1.5458 -0.3997  3.2336
 8862SOL    HW238223   3.515   1.810   9.550  0.2946  0.2534  0.3367
 8863SOL     OW38224   3.404   3.009   2.579  0.0872 -0.1278 -0.8395
 8863SOL    HW138225   3.343   2.944   2.615  1.4441 -1.6928 -1.3887
 8863SOL    HW238226   3.427   3.048   2.664 -1.6118  0.7714 -0.7883
 8864SOL     OW38227   2.480   0.785  17.153 -0.2707 -0.4330  0.0882
 8864SOL    HW138228   2.420   0.847  17.113  0.2615 -0.9348 -1.4739
 8864SOL    HW238229   2.559   0.839  17.157 -0.6674  0.2780 -1.6073
 8865SOL     OW38230   3.694   3.012  13.860 -0.1974 -0.4090 -0.0509
 8865SOL    HW138231   3.713   3.105  13.876  1.3753 -0.5134 -1.2960
 8865SOL    HW238232   3.757   2.968  13.917  2.4724  1.9155 -1.1879
 8866SOL     OW38233   4.444   1.229   3.023  0.2556 -0.2751 -0.2156
 8866SOL    HW138234   4.375   1.174   3.060 -0.1833 -0.5012 -1.3728
 8866SOL    HW238235   4.523   1.177   3.035 -0.0169 -0.5699  0.2888
 8867SOL     OW38236   3.599   1.323   6.156  0.0435 -0.4132 -0.3082
 8867SOL    HW138237   3.668   1.335   6.090 -0.1635  0.2007 -0.4128
 8867SOL    HW238238   3.521   1.328   6.100 -1.5199  2.0230  2.1048
 8868SOL     OW38239   3.929   4.315   3.716  0.1164 -0.2383  0.2028
 8868SOL    HW138240   3.952   4.285   3.804  0.2085 -0.8311 -0.0191
 8868SOL    HW238241   4.007   4.368   3.698 -0.5084  0.8380  0.7051
 8869SOL     OW38242   3.055   1.746   7.035  0.1094 -0.3391  0.0464
 8869SOL    HW138243   2.976   1.800   7.030  1.4862  1.7214  0.7063
 8869SOL    HW238244   3.105   1.763   6.956 -0.9960  1.3315 -0.2973
 8870SOL     OW38245   2.467   1.706   4.326 -0.0523 -0.0873 -0.0815
 8870SOL    HW138246   2.405   1.708   4.252  0.0745  0.1199 -0.1811
 8870SOL    HW238247   2.545   1.667   4.287  0.8952 -0.2716  2.0458
 8871SOL     OW38248   3.090   4.277   6.158  0.2128 -0.0002  0.3665
 8871SOL    HW138249   3.095   4.355   6.212  0.3021  0.5051 -0.3660
 8871SOL    HW238250   3.066   4.313   6.073  1.3155 -1.6201 -0.6475
 8872SOL     OW38251   4.101   1.673   8.624  0.2011 -0.0925 -0.1130
 8872SOL    HW138252   4.100   1.717   8.539 -1.8998 -0.5040 -0.2988
 8872SOL    HW238253   4.163   1.602   8.608 -1.4223 -1.1309 -1.7856
 8873SOL     OW38254   0.654   0.319   7.390 -0.2567  0.2328 -0.2105
 8873SOL    HW138255   0.575   0.364   7.419  0.1237  1.2849 -0.7919
 8873SOL    HW238256   0.618   0.230   7.393 -3.6567  1.6026 -0.4084
 8874SOL     OW38257   3.679   0.233   7.728 -0.2152 -0.0510  0.1248
 8874SOL    HW138258   3.659   0.324   7.750  2.2497  0.7041 -0.6774
 8874SOL    HW238259   3.595   0.218   7.685  0.2628 -4.0027  0.5651
 8875SOL     OW38260   1.577   3.755   6.230  0.3741 -0.2437  0.1731
 8875SOL    HW138261   1.622   3.832   6.195 -0.3374  0.0711 -0.0597
 8875SOL    HW238262   1.639   3.686   6.207  1.2947  1.3445 -2.1001
 8876SOL     OW38263   1.485   4.432  16.604  0.1583  0.3338 -0.5853
 8876SOL    HW138264   1.431   4.407  16.678 -0.7533  0.5255 -1.1879
 8876SOL    HW238265   1.577   4.416  16.627  0.2245 -0.9013 -1.7199
 8877SOL     OW38266   2.940   0.960   7.032 -0.0684 -0.3363  0.1856
 8877SOL    HW138267   2.954   1.041   7.080  0.6580 -1.0848  1.2454
 8877SOL    HW238268   3.020   0.963   6.980  0.2152  1.1420  0.7151
 8878SOL     OW38269   3.058   1.059   8.057  0.2362 -0.1364  0.1431
 8878SOL    HW138270   3.145   1.052   8.096 -0.4234  0.0683  1.6497
 8878SOL    HW238271   3.026   0.969   8.057 -0.1243 -0.0177 -0.7934
 8879SOL     OW38272   2.144   0.092  11.996 -0.2310  0.2538  0.2107
 8879SOL    HW138273   2.157   0.175  12.042 -1.9866  0.9023 -0.4898
 8879SOL    HW238274   2.187   0.033  12.058  0.3116  0.9451  0.4923
 8880SOL     OW38275   4.219   0.310   5.330 -0.1468  0.2939 -0.1745
 8880SOL    HW138276   4.278   0.361   5.385 -0.1993 -0.2277  0.3645
 8880SOL    HW238277   4.233   0.223   5.367 -2.1119  0.2719  0.5410
 8881SOL     OW38278   0.575   4.465   9.009  0.2492 -0.4361 -0.7286
 8881SOL    HW138279   0.615   4.525   9.072 -2.0804 -0.5872  0.9158
 8881SOL    HW238280   0.487   4.452   9.046 -0.3925  1.4346 -1.6022
 8882SOL     OW38281   0.887   2.304   3.968  0.6403 -0.4629  0.0620
 8882SOL    HW138282   0.866   2.211   3.971  2.1320 -0.8452 -1.4296
 8882SOL    HW238283   0.800   2.344   3.973  0.0580 -1.7237  0.0001
 8883SOL     OW38284   2.382   2.803   7.779 -0.5626  0.0050 -0.2215
 8883SOL    HW138285   2.449   2.745   7.742  0.3791  0.4472  0.8117
 8883SOL    HW238286   2.366   2.776   7.869 -1.7448 -2.1248 -1.0570
 8884SOL     OW38287   2.709   0.539  12.164  0.0823 -0.7754 -0.5618
 8884SOL    HW138288   2.770   0.607  12.137  1.3772 -1.3396  0.9237
 8884SOL    HW238289   2.632   0.595  12.158  0.7212  0.0777 -0.6676
 8885SOL     OW38290   1.855   3.110   9.941  1.3395  0.1246  0.1595
 8885SOL    HW138291   1.920   3.040   9.936  0.9759 -0.2361  0.4516
 8885SOL    HW238292   1.848   3.117  10.036 -3.6266  1.4725 -0.2923
 8886SOL     OW38293   4.107   1.486   6.272  0.6480  0.1433 -0.5640
 8886SOL    HW138294   4.125   1.478   6.179 -2.1944  1.3527 -1.2181
 8886SOL    HW238295   4.165   1.561   6.285 -1.1998  1.6618 -1.0146
 8887SOL     OW38296   4.669   2.160   3.972 -0.2381 -0.6719 -0.1457
 8887SOL    HW138297   0.024   2.174   3.954 -0.0535 -0.1779  1.2071
 8887SOL    HW238298   4.659   2.179   4.065  0.2961  0.7771 -0.3723
 8888SOL     OW38299   2.174   0.581   6.272 -0.1570 -0.4821 -0.1850
 8888SOL    HW138300   2.180   0.624   6.358  2.6218  1.2398 -1.2331
 8888SOL    HW238301   2.093   0.614   6.232 -0.5365 -3.2876 -1.7400
 8889SOL     OW38302   2.253   1.410   8.807 -0.0422  0.1716 -0.6138
 8889SOL    HW138303   2.288   1.323   8.792  0.0408 -0.0020  0.5958
 8889SOL    HW238304   2.188   1.376   8.869 -1.4947  0.1130 -2.1548
 8890SOL     OW38305   3.350   1.072  14.755  0.4484 -0.5779  0.4151
 8890SOL    HW138306   3.445   1.088  14.757  0.5665 -1.3878  1.2344
 8890SOL    HW238307   3.331   1.128  14.830  0.3300  0.1862 -0.1869
 8891SOL     OW38308   2.751   0.291   1.469 -0.6940  0.1064 -0.3646
 8891SOL    HW138309   2.659   0.317   1.461 -1.3516 -2.9345 -2.4911
 8891SOL    HW238310   2.793   0.365   1.512  0.8964 -1.0451  0.0377
 8892SOL     OW38311   0.833   4.275  16.509 -0.4189  0.2015  0.5045
 8892SOL    HW138312   0.835   4.282  16.604  0.0400 -0.3600  0.5408
 8892SOL    HW238313   0.844   4.180  16.503  0.1423  0.2397  0.9819
 8893SOL     OW38314   2.507   0.762   7.422 -0.3142  0.2341  0.5474
 8893SOL    HW138315   2.455   0.771   7.502 -1.0549 -2.8604  0.3878
 8893SOL    HW238316   2.559   0.842   7.411  1.2186 -1.0499 -1.4966
 8894SOL     OW38317   0.816   3.671  14.458 -0.5652  0.1433  0.0072
 8894SOL    HW138318   0.847   3.636  14.374 -0.4296  1.8164 -0.6415
 8894SOL    HW238319   0.892   3.725  14.480  0.3699 -0.3415 -2.0422
 8895SOL     OW38320   4.311   1.935   8.008 -0.1623  0.1856 -0.6411
 8895SOL    HW138321   4.252   1.960   7.937 -0.0122 -1.3086 -1.2795
 8895SOL    HW238322   4.316   2.016   8.059 -1.3338  0.8799 -1.6392
 8896SOL     OW38323   4.545   2.874   6.687 -0.0321  0.2312  0.0165
 8896SOL    HW138324   4.582   2.802   6.739 -0.5880 -1.5004 -1.9779
 8896SOL    HW238325   4.470   2.831   6.646  1.8262 -1.0590 -2.0284
 8897SOL     OW38326   3.037   0.575   3.840  0.2936  0.2613  0.1368
 8897SOL    HW138327   2.955   0.551   3.799 -1.2076  1.0822  2.6350
 8897SOL    HW238328   3.033   0.670   3.834 -1.0394 -0.0148 -3.4197
 8898SOL     OW38329   1.614   3.882  16.513 -0.5639  0.6675 -0.4007
 8898SOL    HW138330   1.573   3.799  16.493 -1.2396  0.4984  1.6664
 8898SOL    HW238331   1.616   3.911  16.422 -1.5733 -0.2537 -0.7071
 8899SOL     OW38332   0.875   2.526   5.752 -0.1430 -0.1347  0.2440
 8899SOL    HW138333   0.831   2.603   5.717  1.1911  0.8850  0.8246
 8899SOL    HW238334   0.809   2.488   5.811 -2.0526  3.7450  0.6372
 8900SOL     OW38335   3.494   0.256   8.539  0.0442 -0.3460 -0.2544
 8900SOL    HW138336   3.503   0.262   8.634  1.4597  0.5125 -0.4437
 8900SOL    HW238337   3.412   0.206   8.534  0.1497 -0.5921  0.4158
 8901SOL     OW38338   3.875   3.999   2.766  0.2862 -0.6677 -0.1688
 8901SOL    HW138339   3.901   3.917   2.724  0.6124  1.1934 -3.6069
 8901SOL    HW238340   3.949   4.025   2.821  0.0486 -1.3844  0.4872
 8902SOL     OW38341   2.417   3.588   9.531 -0.1396 -0.1884 -0.2896
 8902SOL    HW138342   2.460   3.666   9.565 -0.4008 -1.2153  2.4024
 8902SOL    HW238343   2.337   3.581   9.583  0.2785  0.4616  0.4351
 8903SOL     OW38344   2.077   2.203   5.338  0.0200 -0.5616 -0.1119
 8903SOL    HW138345   2.144   2.187   5.404  1.8217 -1.0237 -2.0640
 8903SOL    HW238346   2.131   2.194   5.260  0.4895 -1.4488  0.3073
 8904SOL     OW38347   4.413   0.632   7.689  0.1956 -0.2151 -0.1353
 8904SOL    HW138348   4.361   0.666   7.616 -0.1321  3.2082  1.6692
 8904SOL    HW238349   4.359   0.558   7.717 -0.5353  0.8073  1.1439
 8905SOL     OW38350   3.518   3.668   6.378 -1.0327  0.4052  0.1104
 8905SOL    HW138351   3.527   3.588   6.430  0.0710  1.1557  1.0737
 8905SOL    HW238352   3.425   3.662   6.358 -0.9353 -2.2439  0.5098
 8906SOL     OW38353   3.475   3.970   3.497  0.3078 -0.3217 -0.2880
 8906SOL    HW138354   3.517   3.885   3.500  1.7438  0.4142  0.5330
 8906SOL    HW238355   3.449   3.984   3.406  1.6026  1.3803 -0.4089
 8907SOL     OW38356   0.865   0.854   2.337 -1.1239  0.0061 -0.1155
 8907SOL    HW138357   0.900   0.795   2.271  0.8243  1.6612 -0.5497
 8907SOL    HW238358   0.868   0.931   2.281 -1.8746  0.1986  0.1189
 8908SOL     OW38359   4.294   3.461  14.854 -0.1091 -0.2031  0.0235
 8908SOL    HW138360   4.243   3.540  14.875  0.4385 -0.7369  3.4193
 8908SOL    HW238361   4.224   3.409  14.814 -0.3344  0.5727 -0.6060
 8909SOL     OW38362   1.862   4.712   7.020  0.0313  0.1640  0.2620
 8909SOL    HW138363   1.779   4.690   7.062 -0.7448  0.7787 -0.9230
 8909SOL    HW238364   1.843   0.059   6.981  2.3249  0.8717  0.6778
 8910SOL     OW38365   1.593   3.497  17.610  0.2466 -0.3486 -0.0102
 8910SOL    HW138366   1.647   3.535  17.679  0.3994  0.4064 -0.5499
 8910SOL    HW238367   1.630   3.533  17.529 -0.5198 -3.1603 -1.6351
 8911SOL     OW38368   0.030   4.652   0.470 -0.3377 -0.7057  0.0290
 8911SOL    HW138369   0.096   4.691   0.411 -0.4632  1.3142  1.2074
 8911SOL    HW238370   4.709   4.619   0.403 -0.0625  0.9651 -1.0474
 8912SOL     OW38371   3.549   4.550   8.318 -0.2942 -0.0754  0.1884
 8912SOL    HW138372   3.510   4.569   8.403  0.3711 -1.3548  0.7747
 8912SOL    HW238373   3.497   4.473   8.297  2.6255 -1.8582 -0.4147
 8913SOL     OW38374   3.868   3.106   3.954  0.0074 -0.0491  0.5872
 8913SOL    HW138375   3.801   3.105   4.021 -0.3436  0.1056  0.2376
 8913SOL    HW238376   3.835   3.052   3.882 -0.4218 -2.2362  2.4382
 8914SOL     OW38377   3.851   0.160   2.168  0.0957 -0.0566 -1.0314
 8914SOL    HW138378   3.945   0.174   2.156  0.2621 -2.8380 -3.2117
 8914SOL    HW238379   3.837   0.251   2.194 -0.6469 -0.0316 -1.5397
 8915SOL     OW38380   3.178   3.072  17.721 -0.2207 -0.2307  0.5671
 8915SOL    HW138381   3.163   3.167  17.712  0.7178 -0.2700 -1.2363
 8915SOL    HW238382   3.124   3.042  17.648 -0.9533  3.4900 -0.4362
 8916SOL     OW38383   2.855   3.923   3.421 -0.1660 -0.0653 -0.3677
 8916SOL    HW138384   2.931   3.976   3.397  2.4076 -3.9461 -0.7540
 8916SOL    HW238385   2.792   3.949   3.354  0.0788 -2.2478 -1.4474
 8917SOL     OW38386   0.088   1.249   4.948 -0.2064 -0.9156  0.4767
 8917SOL    HW138387   4.734   1.266   4.928  0.2104  0.5752 -0.1256
 8917SOL    HW238388   0.108   1.163   4.910  1.7878 -0.9743  1.6644
 8918SOL     OW38389   0.368   4.475   2.184  0.0754  0.0281 -0.5393
 8918SOL    HW138390   0.438   4.536   2.161 -0.6473  0.9278 -0.3641
 8918SOL    HW238391   0.392   4.460   2.275 -3.3464 -0.4895  0.2892
 8919SOL     OW38392   2.304   3.469   2.796  0.2207  0.5036 -0.4438
 8919SOL    HW138393   2.369   3.457   2.727  1.6810 -0.7382  1.1634
 8919SOL    HW238394   2.224   3.442   2.750 -0.9312  2.4355  0.4076
 8920SOL     OW38395   4.693   3.401   4.475  0.2229 -0.3152  0.4310
 8920SOL    HW138396   4.660   3.328   4.423  2.7829 -1.7461  0.8049
 8920SOL    HW238397   4.650   3.468   4.422 -1.0931  1.5665  3.8677
 8921SOL     OW38398   1.802   0.467  17.477  0.5273 -0.0486  0.1240
 8921SOL    HW138399   1.743   0.523  17.427  0.3820  1.4717  1.9951
 8921SOL    HW238400   1.873   0.531  17.483  0.0418  0.7234 -2.3607
 8922SOL     OW38401   0.188   4.000   6.227 -0.0622  0.3944  0.2875
 8922SOL    HW138402   0.105   4.004   6.275 -0.1901  2.5285 -0.1041
 8922SOL    HW238403   0.238   3.937   6.279 -2.2002 -0.7518  0.9305
 8923SOL     OW38404   1.301   2.647  10.397 -0.0655 -0.4761 -0.2525
 8923SOL    HW138405   1.217   2.663  10.441  0.1788 -0.2493  0.1356
 8923SOL    HW238406   1.284   2.563  10.355 -2.9909  0.0229 -0.0546
 8924SOL     OW38407   0.574   4.223   3.157  0.4562  0.3465 -0.1310
 8924SOL    HW138408   0.596   4.130   3.171 -1.3483 -0.4374 -2.5041
 8924SOL    HW238409   0.585   4.225   3.062  0.5734 -0.5080 -0.1412
 8925SOL     OW38410   3.611   3.552   5.148 -0.3136 -0.0768  0.5786
 8925SOL    HW138411   3.623   3.458   5.139 -1.1174 -0.1371  0.1561
 8925SOL    HW238412   3.532   3.566   5.200 -1.3248  0.6039 -1.1690
 8926SOL     OW38413   2.470   0.982   3.229  0.8500 -0.5287  0.2518
 8926SOL    HW138414   2.410   0.948   3.163 -0.3173  2.1770 -0.0982
 8926SOL    HW238415   2.514   0.901   3.253  0.1771 -0.7609  0.6928
 8927SOL     OW38416   2.878   3.337   9.105  0.2865  0.3817 -0.3573
 8927SOL    HW138417   2.791   3.367   9.080 -0.6041 -0.9156  1.2108
 8927SOL    HW238418   2.863   3.245   9.127  0.0865  0.7611  1.1072
 8928SOL     OW38419   4.475   3.635  13.154 -0.0478  0.5812 -0.3603
 8928SOL    HW138420   4.500   3.699  13.221 -0.6231 -1.0989  1.4376
 8928SOL    HW238421   4.428   3.572  13.209  1.2167 -0.1383 -0.1051
 8929SOL     OW38422   1.486   2.711   5.817 -0.0778  0.1178 -0.0355
 8929SOL    HW138423   1.405   2.738   5.861 -3.3855 -3.3790 -3.9444
 8929SOL    HW238424   1.542   2.788   5.820 -2.1210  1.6203 -0.5545
 8930SOL     OW38425   3.970   2.816   7.387  0.7033 -0.1967  0.8581
 8930SOL    HW138426   3.960   2.911   7.383 -1.2462 -0.5025 -1.2212
 8930SOL    HW238427   4.061   2.798   7.364  0.5429  0.2152 -0.1002
 8931SOL     OW38428   3.222   0.629   4.833 -0.0718 -0.6784 -0.1845
 8931SOL    HW138429   3.259   0.685   4.901 -3.5514  1.9180 -0.3937
 8931SOL    HW238430   3.260   0.673   4.757  0.4745  0.3051  0.6728
 8932SOL     OW38431   1.033   1.673  12.199 -0.0601  0.2459  0.4624
 8932SOL    HW138432   1.085   1.714  12.269  0.3278  2.2379 -0.9718
 8932SOL    HW238433   0.960   1.637  12.248 -1.0336  2.2136  0.4603
 8933SOL     OW38434   3.772   1.953   7.738  0.5186  0.0674 -0.4417
 8933SOL    HW138435   3.847   1.910   7.779  0.1247  1.2936  1.5721
 8933SOL    HW238436   3.793   1.947   7.645  1.5732 -1.2810 -0.1214
 8934SOL     OW38437   2.318   3.393   8.324  0.7193  0.5293 -0.0813
 8934SOL    HW138438   2.232   3.428   8.350  0.2075  0.0459 -1.1505
 8934SOL    HW238439   2.290   3.325   8.263  1.0669  1.2515 -1.0361
 8935SOL     OW38440   4.614   4.160   9.332 -0.9224 -0.4287 -0.2237
 8935SOL    HW138441   4.555   4.198   9.398  0.4270  1.8856 -0.3591
 8935SOL    HW238442   4.573   4.192   9.252 -1.2117  4.3428  1.8408
 8936SOL     OW38443   0.461   0.769   5.837  0.0355 -0.4405 -0.2099
 8936SOL    HW138444   0.508   0.698   5.793  0.6826 -1.7308  2.5151
 8936SOL    HW238445   0.389   0.783   5.776 -0.0041  1.4059  0.2455
 8937SOL     OW38446   0.297   0.387   6.193 -0.3000  0.4539  0.0337
 8937SOL    HW138447   0.285   0.342   6.109  0.4989 -1.3757  0.8870
 8937SOL    HW238448   0.240   0.333   6.247 -0.3433  1.3248  0.8557
 8938SOL     OW38449   3.832   1.669   1.941  0.1970  0.1751  0.1701
 8938SOL    HW138450   3.781   1.614   2.001  0.2093  0.8277  0.7862
 8938SOL    HW238451   3.796   1.755   1.961 -0.5996 -0.3955  1.2431
 8939SOL     OW38452   3.773   2.919   8.489 -0.5568  0.1537 -0.3433
 8939SOL    HW138453   3.842   2.962   8.539  1.6867 -0.6630 -2.7374
 8939SOL    HW238454   3.722   2.880   8.559  2.4816  0.3907  2.0032
 8940SOL     OW38455   0.779   1.762   3.002 -0.1401  0.2561  0.1372
 8940SOL    HW138456   0.826   1.844   3.013  0.8695 -0.5273  1.6985
 8940SOL    HW238457   0.689   1.783   3.029  0.1698  0.3576  1.1157
 8941SOL     OW38458   2.440   1.434   9.043 -0.5689 -0.2209  0.2730
 8941SOL    HW138459   2.526   1.396   9.057 -0.6534  0.2004  1.9077
 8941SOL    HW238460   2.392   1.359   9.007  1.7592 -0.6359 -2.0006
 8942SOL     OW38461   1.826   3.880   4.559  0.2398 -0.1488 -0.1652
 8942SOL    HW138462   1.835   3.934   4.480 -0.4565  0.7015  0.3266
 8942SOL    HW238463   1.797   3.939   4.629 -0.2400  0.0898 -0.5698
 8943SOL     OW38464   0.229   3.411  11.326  0.1324  0.5302  0.2604
 8943SOL    HW138465   0.246   3.501  11.354  3.6313 -0.0397  0.0505
 8943SOL    HW238466   0.320   3.382  11.323 -0.0305  0.1413 -0.7826
 8944SOL     OW38467   4.208   3.765   7.065  0.4265 -0.3890 -0.5094
 8944SOL    HW138468   4.240   3.843   7.018 -2.5833  0.6712 -0.7900
 8944SOL    HW238469   4.211   3.794   7.156 -1.2670 -2.1725  0.1158
 8945SOL     OW38470   2.169   2.707   5.576 -0.1322  0.0515 -0.2497
 8945SOL    HW138471   2.097   2.644   5.580 -0.6564  0.7190  0.7237
 8945SOL    HW238472   2.122   2.771   5.629  0.0815 -0.7377  0.8980
 8946SOL     OW38473   0.929   0.989   9.107 -0.4086 -0.0017  0.5124
 8946SOL    HW138474   0.903   1.079   9.086 -0.1871  0.6857  3.1021
 8946SOL    HW238475   0.843   0.955   9.132 -0.3722 -0.7176 -0.3446
 8947SOL     OW38476   3.108   2.587  13.270  0.0404 -0.0147  0.1053
 8947SOL    HW138477   3.167   2.512  13.271  2.0599  1.5962 -0.6776
 8947SOL    HW238478   3.163   2.665  13.274 -1.3548  0.9735  0.0589
 8948SOL     OW38479   4.440   3.559   3.935 -0.0113  0.0818  0.2103
 8948SOL    HW138480   4.451   3.509   4.016  2.4627  0.6220  0.2351
 8948SOL    HW238481   4.472   3.643   3.969 -3.4525  0.2692  2.9579
 8949SOL     OW38482   0.262   1.085  14.002  0.3299  0.3472 -0.2742
 8949SOL    HW138483   0.170   1.080  14.028  0.4994  1.0692  0.4703
 8949SOL    HW238484   0.291   1.008  14.051  0.4841  0.3958 -0.2905
 8950SOL     OW38485   1.702   4.462   5.278 -0.4021  0.2130 -0.6239
 8950SOL    HW138486   1.751   4.414   5.211  0.0912 -0.2180  0.0442
 8950SOL    HW238487   1.647   4.528   5.238 -1.6232  1.2969  2.8210
 8951SOL     OW38488   3.355   4.196   6.160 -0.3031  0.0925 -0.2627
 8951SOL    HW138489   3.261   4.214   6.156 -0.1040  0.8715 -1.6784
 8951SOL    HW238490   3.355   4.100   6.158  3.3188  0.0783 -0.2699
 8952SOL     OW38491   1.046   2.873   5.301  0.1712 -0.4445  0.1161
 8952SOL    HW138492   1.119   2.825   5.264 -0.1792 -0.8748 -0.0159
 8952SOL    HW238493   1.077   2.960   5.276 -0.0640 -0.2804  0.3789
 8953SOL     OW38494   0.798   0.403   6.493 -0.4504  0.2370 -0.0580
 8953SOL    HW138495   0.782   0.482   6.441  0.7340  1.5145  1.5237
 8953SOL    HW238496   0.711   0.380   6.525 -0.2204  0.3744  0.6587
 8954SOL     OW38497   2.621   2.896   6.061  0.7428 -0.2826  0.2773
 8954SOL    HW138498   2.695   2.843   6.090 -0.1545 -1.2616  0.7577
 8954SOL    HW238499   2.648   2.987   6.051  1.8917 -0.7204 -0.6238
 8955SOL     OW38500   0.458   4.048  17.046  0.4796  0.0302 -0.5431
 8955SOL    HW138501   0.491   4.059  17.136  0.3627  1.7239 -0.6996
 8955SOL    HW238502   0.471   3.955  17.031  0.8130 -0.2708  1.5540
 8956SOL     OW38503   4.002   0.068  11.610 -0.1385  0.7534 -0.1048
 8956SOL    HW138504   3.934   0.005  11.586 -0.2119  0.7581  0.0939
 8956SOL    HW238505   4.074   0.009  11.633 -1.9594 -1.1094  0.8074
 8957SOL     OW38506   0.276   0.381   8.846  0.0533 -0.3940  0.2626
 8957SOL    HW138507   0.319   0.401   8.763 -1.7456 -0.4992 -0.6957
 8957SOL    HW238508   0.336   0.315   8.881  2.4113  1.2642 -0.6481
 8958SOL     OW38509   1.482   3.002   7.119 -0.1555 -0.5876 -0.0829
 8958SOL    HW138510   1.442   2.919   7.092  0.8727 -0.7595 -1.0848
 8958SOL    HW238511   1.442   3.061   7.056  0.8463  0.5617  0.3687
 8959SOL     OW38512   1.455   0.801   9.659  0.2649 -0.3053 -0.0580
 8959SOL    HW138513   1.387   0.805   9.727 -1.1824 -2.9951 -1.3268
 8959SOL    HW238514   1.442   0.712   9.626  0.2149 -0.7011  1.0096
 8960SOL     OW38515   1.164   4.628   9.449  0.0137  1.0281  0.7386
 8960SOL    HW138516   1.145   4.655   9.538 -2.3111  0.3332  0.4571
 8960SOL    HW238517   1.250   4.588   9.462  0.8548  2.8782  0.9449
 8961SOL     OW38518   0.343   2.701   7.690  0.0422 -0.3192  0.1039
 8961SOL    HW138519   0.300   2.759   7.752 -1.7296  0.7559 -2.1291
 8961SOL    HW238520   0.426   2.673   7.727  0.5270 -0.2119 -0.9207
 8962SOL     OW38521   1.039   1.148   2.582  0.6997  0.0122  0.4446
 8962SOL    HW138522   1.124   1.125   2.544  0.4516  3.2026 -2.0306
 8962SOL    HW238523   1.066   1.155   2.674  1.4077  1.8505  0.0981
 8963SOL     OW38524   4.470   1.717   5.052 -0.1600  0.1596  0.0092
 8963SOL    HW138525   4.387   1.765   5.052 -1.0952 -1.4561  2.0341
 8963SOL    HW238526   4.511   1.754   5.131  0.6578 -1.9649  0.5731
 8964SOL     OW38527   1.552   2.064   6.976 -0.1428  0.2242  0.1010
 8964SOL    HW138528   1.537   2.154   7.004 -2.6663  0.0283 -0.5513
 8964SOL    HW238529   1.631   2.044   7.026 -1.0518 -1.6882  0.7954
 8965SOL     OW38530   0.168   2.007  11.075  0.7312 -0.0179  0.1084
 8965SOL    HW138531   0.085   2.054  11.080  0.2857 -0.8763  0.7534
 8965SOL    HW238532   0.140   1.920  11.047 -0.0892  0.5107 -0.7173
 8966SOL     OW38533   3.179   0.803   7.843  0.5273  0.0785 -0.4981
 8966SOL    HW138534   3.102   0.807   7.900  0.9212 -0.8780  0.0955
 8966SOL    HW238535   3.257   0.819   7.897 -0.8614 -1.1534  1.8914
 8967SOL     OW38536   1.706   1.025  13.586 -0.6043 -0.1587 -0.1214
 8967SOL    HW138537   1.800   1.018  13.602 -0.6243 -2.4946 -0.9001
 8967SOL    HW238538   1.703   0.942  13.538  1.0912 -1.2950  1.7558
 8968SOL     OW38539   1.733   0.309   1.603  0.3651 -0.2457  0.5502
 8968SOL    HW138540   1.765   0.361   1.529 -1.9710 -1.9922 -1.6781
 8968SOL    HW238541   1.768   0.357   1.678 -3.2719  0.7582  1.5742
 8969SOL     OW38542   0.349   0.689   7.481  0.6147  0.5173 -0.0050
 8969SOL    HW138543   0.370   0.724   7.394  0.5242 -0.5266 -0.4397
 8969SOL    HW238544   0.257   0.715   7.480  0.1652 -1.0378  1.8040
 8970SOL     OW38545   1.154   0.852  15.262  0.3203  0.2440  0.2054
 8970SOL    HW138546   1.123   0.771  15.221  0.5003  0.3442 -0.1320
 8970SOL    HW238547   1.072   0.901  15.259 -0.0486 -0.3744  0.2415
 8971SOL     OW38548   2.302   0.514   2.055  1.0205 -0.1096  0.0274
 8971SOL    HW138549   2.291   0.605   2.028  0.4565 -0.8448 -2.2262
 8971SOL    HW238550   2.352   0.517   2.137  0.6177 -1.0787  0.3037
 8972SOL     OW38551   0.032   1.026   7.633 -0.0968 -0.0571  0.0609
 8972SOL    HW138552   0.056   0.940   7.598  0.7365  0.8360 -1.5571
 8972SOL    HW238553   4.694   1.049   7.580 -0.2351 -2.3446 -0.7637
 8973SOL     OW38554   0.549   0.813   5.200  0.3951 -0.4116 -0.3738
 8973SOL    HW138555   0.471   0.855   5.235  1.5296  1.2870  0.1501
 8973SOL    HW238556   0.591   0.884   5.150  1.2465  0.1473  1.1341
 8974SOL     OW38557   4.586   3.881   9.591  0.1585 -0.2760  0.5504
 8974SOL    HW138558   4.569   3.794   9.626 -0.8946  0.8454  2.8104
 8974SOL    HW238559   4.584   3.933   9.671 -1.5055  0.9441 -0.2775
 8975SOL     OW38560   0.860   3.738   6.248 -0.0816 -0.3257  0.0964
 8975SOL    HW138561   0.918   3.813   6.235  0.6200 -1.5103 -3.4756
 8975SOL    HW238562   0.920   3.671   6.217  0.8718  0.5625  0.0251
 8976SOL     OW38563   1.908   1.915   0.906 -0.0588 -0.3977 -0.0694
 8976SOL    HW138564   1.997   1.933   0.879  0.2713 -0.6741  0.8105
 8976SOL    HW238565   1.887   1.827   0.874 -0.8130 -0.3525  0.3045
 8977SOL     OW38566   4.061   1.763   8.365  0.0973 -0.4412  0.2324
 8977SOL    HW138567   4.065   1.723   8.279 -2.1288 -1.7561  0.7409
 8977SOL    HW238568   4.064   1.857   8.345 -1.2750 -0.0210  2.0047
 8978SOL     OW38569   2.897   3.826   4.250  0.3037  0.1436  0.5319
 8978SOL    HW138570   2.921   3.795   4.163  0.3029 -0.6521  0.8175
 8978SOL    HW238571   2.983   3.822   4.291  0.8553 -0.0677 -0.6590
 8979SOL     OW38572   3.594   2.676   0.318  0.5476  0.4613 -1.0666
 8979SOL    HW138573   3.608   2.582   0.332  0.7084  0.7559  0.7126
 8979SOL    HW238574   3.499   2.686   0.330  0.1631 -3.0305 -1.1569
 8980SOL     OW38575   2.624   3.713   3.660 -0.4072  0.1619 -0.3461
 8980SOL    HW138576   2.576   3.701   3.579 -2.4909  0.1770  0.8952
 8980SOL    HW238577   2.555   3.715   3.726  1.0007 -1.4707  1.1884
 8981SOL     OW38578   1.996   2.062  11.326 -0.2308  0.2684  0.3973
 8981SOL    HW138579   1.955   2.003  11.262 -0.5015  0.2233  0.6145
 8981SOL    HW238580   1.920   2.099  11.371  0.7903  1.9092  0.7659
 8982SOL     OW38581   0.767   4.594  17.239  0.4424  0.3728 -0.8516
 8982SOL    HW138582   0.755   4.644  17.320  0.0280  0.7352 -1.1361
 8982SOL    HW238583   0.733   4.661  17.180  0.7934  1.0881 -0.2436
 8983SOL     OW38584   2.260   2.438   4.633 -0.3232 -0.0527  0.3494
 8983SOL    HW138585   2.329   2.407   4.574 -2.3682 -1.2552 -1.3997
 8983SOL    HW238586   2.303   2.413   4.715  1.1377  0.9122 -0.1132
 8984SOL     OW38587   4.048   3.523   9.494  0.0108 -0.6175 -0.4091
 8984SOL    HW138588   4.132   3.570   9.489 -1.5355  1.9634 -1.9508
 8984SOL    HW238589   4.006   3.540   9.410 -0.0056  0.3617 -0.2021
 8985SOL     OW38590   1.316   1.722   0.240  0.5050 -0.1858 -0.3977
 8985SOL    HW138591   1.393   1.694   0.290  0.1366  0.1209  0.3368
 8985SOL    HW238592   1.253   1.652   0.256 -0.7653  1.3395  1.3045
 8986SOL     OW38593   2.687   3.783   6.317 -0.0460 -0.2382 -0.4947
 8986SOL    HW138594   2.687   3.878   6.304  1.2217  0.0336  1.5591
 8986SOL    HW238595   2.592   3.768   6.318 -0.3483  1.5857  0.0778
 8987SOL     OW38596   0.744   2.836   8.199  0.4458  0.5723 -0.3726
 8987SOL    HW138597   0.798   2.769   8.157 -2.5688 -2.4954  0.5803
 8987SOL    HW238598   0.798   2.851   8.276 -1.2827 -0.9129  1.1373
 8988SOL     OW38599   2.654   2.247   1.793  0.0683  0.1390 -0.2589
 8988SOL    HW138600   2.627   2.271   1.704 -1.0720 -0.7451 -0.1502
 8988SOL    HW238601   2.616   2.323   1.836 -0.1590 -0.2854  0.2947
 8989SOL     OW38602   2.495   0.664   7.738  0.3588  0.1157  0.1614
 8989SOL    HW138603   2.414   0.618   7.763  0.2389 -0.5730 -1.4981
 8989SOL    HW238604   2.525   0.609   7.666 -1.2166 -2.7927  1.6818
 8990SOL     OW38605   2.586   2.668  10.925 -0.2693  0.5082  0.5030
 8990SOL    HW138606   2.538   2.737  10.880 -0.4597 -0.2018 -0.3908
 8990SOL    HW238607   2.671   2.672  10.880 -0.0503 -0.3191  0.8298
 8991SOL     OW38608   2.390   2.285   9.870 -0.7958 -0.0036  0.1515
 8991SOL    HW138609   2.321   2.220   9.855 -0.2461 -0.5573  0.0164
 8991SOL    HW238610   2.426   2.253   9.953  0.9935 -1.5427 -1.2212
 8992SOL     OW38611   4.163   4.393   9.696 -0.1311  0.3453  0.0365
 8992SOL    HW138612   4.193   4.395   9.605  1.2019  1.3870  0.4922
 8992SOL    HW238613   4.141   4.484   9.714 -1.1290  0.1259 -0.1306
 8993SOL     OW38614   3.130   4.376   6.986 -0.3141  0.3987 -0.4196
 8993SOL    HW138615   3.219   4.346   7.005 -0.1015  0.6320 -1.0653
 8993SOL    HW238616   3.089   4.291   7.000  0.1235  0.3049  0.2954
 8994SOL     OW38617   1.250   2.227   3.250 -0.4202 -0.4564  0.1232
 8994SOL    HW138618   1.182   2.235   3.183  0.0720  0.3806 -0.2872
 8994SOL    HW238619   1.301   2.165   3.197  1.8077  0.1878  1.5128
 8995SOL     OW38620   2.848   1.259   8.092  0.1410 -0.3952 -0.4212
 8995SOL    HW138621   2.908   1.326   8.059 -0.9981  1.0735  0.5431
 8995SOL    HW238622   2.902   1.180   8.093  1.0184  0.1826 -1.3716
 8996SOL     OW38623   0.174   2.543  17.654  0.0096 -0.2339 -0.1167
 8996SOL    HW138624   0.193   2.485  17.728  1.1220  0.1376 -0.1095
 8996SOL    HW238625   0.263   2.558  17.624 -0.7926  1.4622 -1.6747
 8997SOL     OW38626   3.421   1.424  16.613  0.1599 -0.4598  0.4688
 8997SOL    HW138627   3.386   1.396  16.698 -1.5729 -0.1265 -0.1415
 8997SOL    HW238628   3.507   1.384  16.622  0.7020  0.4602 -0.7385
 8998SOL     OW38629   2.601   3.770   6.018  0.3060 -0.5998  0.2715
 8998SOL    HW138630   2.636   3.814   6.095  0.2110  0.0718 -0.0682
 8998SOL    HW238631   2.647   3.686   6.012  3.3679  1.0261  0.9374
 8999SOL     OW38632   0.170   3.540  10.420  0.4205  0.1973  0.0335
 8999SOL    HW138633   0.142   3.631  10.418 -2.4766 -0.6447  0.8304
 8999SOL    HW238634   0.088   3.516  10.465 -0.6800  0.6006 -1.7452
 9000SOL     OW38635   4.171   3.954   2.550  0.0659  0.0898 -0.2422
 9000SOL    HW138636   4.095   4.012   2.551  1.4156  1.8127  2.0775
 9000SOL    HW238637   4.138   3.868   2.577  0.4731 -1.1387 -3.5719
 9001SOL     OW38638   2.484   3.100   4.437  0.0739 -0.0423 -0.2174
 9001SOL    HW138639   2.543   3.171   4.411 -1.0519  0.4303 -1.4528
 9001SOL    HW238640   2.425   3.153   4.490  2.2746  2.8087 -0.6015
 9002SOL     OW38641   1.893   0.643  16.671  0.1239 -0.6224 -0.0078
 9002SOL    HW138642   1.810   0.595  16.679 -0.8802  0.8423 -1.4335
 9002SOL    HW238643   1.896   0.677  16.582 -1.6220  0.2526  0.2703
 9003SOL     OW38644   2.005   2.860   9.934 -0.8890  0.4065 -0.1440
 9003SOL    HW138645   2.073   2.865  10.001  0.4823 -0.3656 -1.4806
 9003SOL    HW238646   1.982   2.767   9.935  2.1147 -0.3781 -2.5310
 9004SOL     OW38647   1.112   0.947  17.279 -0.4864  0.4745  0.3286
 9004SOL    HW138648   1.133   0.941  17.186  2.4731  1.3988  0.9442
 9004SOL    HW238649   1.019   0.972  17.272 -0.3654  0.2837 -1.9627
 9005SOL     OW38650   4.374   1.103   2.260  0.2307  0.0826  0.3438
 9005SOL    HW138651   4.371   1.044   2.336 -0.1260  2.5676  2.2734
 9005SOL    HW238652   4.382   1.039   2.189  2.1713  2.0343 -1.1838
 9006SOL     OW38653   4.667   1.185   1.323 -0.0617  0.4567  0.2154
 9006SOL    HW138654   4.703   1.262   1.367  0.2327  0.8853 -0.7776
 9006SOL    HW238655   4.650   1.216   1.234 -0.6429 -1.4397 -0.3267
 9007SOL     OW38656   0.552   2.281  10.873  0.6146 -0.0764 -0.1508
 9007SOL    HW138657   0.612   2.252  10.942  0.2641  0.6864  0.4647
 9007SOL    HW238658   0.479   2.220  10.876 -0.8143  1.6033 -0.9097
 9008SOL     OW38659   0.873   0.794   7.691  0.1751  0.0586 -0.5089
 9008SOL    HW138660   0.827   0.718   7.656  0.5026 -1.1745  1.6857
 9008SOL    HW238661   0.833   0.809   7.777 -0.9962 -0.2954 -0.9907
 9009SOL     OW38662   2.101   1.270   3.678 -0.2839  0.2895  0.2584
 9009SOL    HW138663   2.101   1.183   3.638  0.3897 -0.0075  0.9074
 9009SOL    HW238664   2.017   1.282   3.723 -0.0117 -2.9603  1.6957
 9010SOL     OW38665   3.488   4.438  10.038 -0.7537 -1.0387  0.2203
 9010SOL    HW138666   3.578   4.406  10.042 -0.9736 -1.5736  0.8952
 9010SOL    HW238667   3.495   4.479  10.124  0.0740 -0.6120 -0.0536
 9011SOL     OW38668   0.943   0.322   7.525 -0.2710  0.0682  0.1462
 9011SOL    HW138669   0.865   0.337   7.470  0.1880 -2.9747 -1.3567
 9011SOL    HW238670   0.912   0.315   7.615 -0.4635 -0.8906  0.0066
 9012SOL     OW38671   2.642   0.306   5.994 -0.2426 -0.2288  0.0859
 9012SOL    HW138672   2.711   0.368   6.018  0.1227 -0.1494 -1.1619
 9012SOL    HW238673   2.629   0.329   5.902  1.8903 -2.3318 -0.7426
 9013SOL     OW38674   3.556   2.312  16.052 -0.2555  0.0336 -0.0159
 9013SOL    HW138675   3.589   2.262  15.978  2.1982  1.3949  0.1519
 9013SOL    HW238676   3.573   2.253  16.126 -1.1572 -1.1573 -0.7661
 9014SOL     OW38677   0.264   2.244   3.367  0.1923  0.2485  0.3613
 9014SOL    HW138678   0.262   2.293   3.285  0.4060  1.2985  0.9804
 9014SOL    HW238679   0.352   2.206   3.362 -0.2817 -0.9449  1.2906
 9015SOL     OW38680   2.524   2.175  11.335 -0.0184  0.4739 -0.2514
 9015SOL    HW138681   2.608   2.142  11.302  0.5515  0.0609  1.5670
 9015SOL    HW238682   2.532   2.152  11.428  1.8536  1.8588 -0.0489
 9016SOL     OW38683   0.758   0.854   1.929  0.2600 -0.1536  0.7497
 9016SOL    HW138684   0.741   0.759   1.929  0.2874 -0.1552  0.1598
 9016SOL    HW238685   0.670   0.884   1.907  0.0162 -0.8429  0.7690
 9017SOL     OW38686   3.399   4.449   4.852  0.0294 -0.0975 -0.2320
 9017SOL    HW138687   3.395   4.353   4.856 -0.7052 -0.0617 -0.2002
 9017SOL    HW238688   3.323   4.480   4.900 -0.5946 -0.9850 -0.6309
 9018SOL     OW38689   0.917   0.182  16.705 -0.2085  0.1368  0.0001
 9018SOL    HW138690   0.909   0.136  16.622 -0.8043 -2.8767  1.7437
 9018SOL    HW238691   1.003   0.151  16.736 -0.4234  1.1487  1.6150
 9019SOL     OW38692   0.415   4.020   6.797 -0.1731  0.0263 -0.0098
 9019SOL    HW138693   0.386   3.947   6.742  1.0710  0.3131 -1.0452
 9019SOL    HW238694   0.372   4.084   6.741  1.1577 -0.6953 -1.8497
 9020SOL     OW38695   3.528   1.193   7.573 -0.0277  0.0191 -0.0079
 9020SOL    HW138696   3.499   1.263   7.515 -1.5746  1.0649  2.0180
 9020SOL    HW238697   3.475   1.119   7.542  0.3851 -0.3037  0.0618
 9021SOL     OW38698   1.744   0.430   0.778  0.2580  0.1207  0.4871
 9021SOL    HW138699   1.673   0.467   0.726  0.5234  0.6708  0.5074
 9021SOL    HW238700   1.806   0.398   0.712 -2.4994 -2.8404 -0.6314
 9022SOL     OW38701   3.317   4.399  12.098  0.4969 -0.1919  0.2070
 9022SOL    HW138702   3.359   4.475  12.057 -1.8646  1.4944  0.9332
 9022SOL    HW238703   3.242   4.397  12.039 -0.6890  3.3446  1.6235
 9023SOL     OW38704   0.138   1.493   4.514 -0.7977  0.1114  0.1122
 9023SOL    HW138705   0.172   1.516   4.600 -0.5588  1.2614 -0.2875
 9023SOL    HW238706   0.160   1.400   4.519 -1.3969 -0.1033 -1.1481
 9024SOL     OW38707   3.047   0.831   4.401 -0.7446  0.3282  0.1493
 9024SOL    HW138708   2.955   0.825   4.377  0.1727  0.9449 -3.5421
 9024SOL    HW238709   3.059   0.801   4.491  0.0142 -2.1497 -0.7729
 9025SOL     OW38710   2.044   1.247   1.858 -0.0711 -0.1145  0.2541
 9025SOL    HW138711   1.971   1.308   1.865  0.7388  0.8874  0.0090
 9025SOL    HW238712   2.009   1.159   1.871  2.4228 -0.8861  1.8629
 9026SOL     OW38713   3.687   0.669   8.778 -0.2687  0.4374  0.4407
 9026SOL    HW138714   3.607   0.712   8.746 -1.2977 -1.3795  0.5933
 9026SOL    HW238715   3.648   0.640   8.861 -0.0899 -0.6243  0.1527
 9027SOL     OW38716   3.736   2.699   3.223  0.3215 -0.2435  0.3745
 9027SOL    HW138717   3.823   2.660   3.219 -0.0323 -0.9217 -0.6867
 9027SOL    HW238718   3.728   2.726   3.314 -1.3482  0.7673 -0.0686
 9028SOL     OW38719   4.397   0.079   6.810 -0.2104  0.2215  0.0295
 9028SOL    HW138720   4.463   0.108   6.872 -1.4668  1.4956  0.7787
 9028SOL    HW238721   4.415   4.723   6.807  0.4638  0.3178  1.4857
 9029SOL     OW38722   4.023   2.393   8.534 -0.1739 -0.0440  0.4471
 9029SOL    HW138723   3.933   2.407   8.503 -0.6697 -0.2775  1.7614
 9029SOL    HW238724   4.041   2.473   8.583  0.5112 -0.6019  1.1045
 9030SOL     OW38725   1.360   0.462  10.790  0.1428 -0.1167  0.1187
 9030SOL    HW138726   1.288   0.400  10.775 -1.5638  1.6934  0.8288
 9030SOL    HW238727   1.421   0.415  10.733  1.0759  0.2538  0.8311
 9031SOL     OW38728   1.289   1.445   6.316 -0.4682  0.6387  0.0027
 9031SOL    HW138729   1.319   1.408   6.234  0.9314  1.3857  0.1723
 9031SOL    HW238730   1.298   1.369   6.373  0.5725  0.1881 -0.7667
 9032SOL     OW38731   1.320   1.017  14.017  0.0422  0.2366  0.5606
 9032SOL    HW138732   1.392   0.996  13.958 -1.3943 -1.8735 -0.4158
 9032SOL    HW238733   1.349   0.964  14.091  0.6088 -0.9740 -0.5384
 9033SOL     OW38734   2.985   0.199   0.668  0.1973 -0.2640 -0.2144
 9033SOL    HW138735   3.026   0.150   0.738 -1.6027 -1.8004 -0.2580
 9033SOL    HW238736   2.897   0.225   0.694  0.0792  0.2596 -1.1243
 9034SOL     OW38737   3.011   3.431   5.865 -0.6498  0.8085  0.1397
 9034SOL    HW138738   3.067   3.495   5.822  0.5623 -0.0088  0.5080
 9034SOL    HW238739   3.073   3.362   5.890 -0.9155  0.5942  0.2110
 9035SOL     OW38740   4.134   4.618  12.300  0.1937 -0.0847  0.5399
 9035SOL    HW138741   4.137   4.561  12.377  0.2731  0.5917  1.0385
 9035SOL    HW238742   4.088   4.555  12.243  1.2255  1.4409 -1.9623
 9036SOL     OW38743   2.051   3.429   7.649  0.5102 -0.2966  0.3628
 9036SOL    HW138744   2.018   3.405   7.562  1.3214  0.1644 -0.0711
 9036SOL    HW238745   1.987   3.386   7.706  0.9702 -1.3853  0.0606
 9037SOL     OW38746   4.127   3.752  13.351 -0.1085  0.0394 -0.0868
 9037SOL    HW138747   4.171   3.744  13.436  1.2217 -0.2289 -0.8122
 9037SOL    HW238748   4.077   3.833  13.358  1.0735  0.5307  2.6981
 9038SOL     OW38749   0.971   3.653   3.180 -0.1685  0.8459 -0.4965
 9038SOL    HW138750   1.059   3.628   3.207 -1.2222 -0.7621  1.4305
 9038SOL    HW238751   0.970   3.747   3.162  1.2919  0.7569 -1.0394
 9039SOL     OW38752   3.392   4.320   7.010 -0.1783  0.2017 -0.0078
 9039SOL    HW138753   3.480   4.343   6.982 -0.8917 -1.2118 -3.4873
 9039SOL    HW238754   3.378   4.376   7.086  0.3375  2.6811 -1.7636
 9040SOL     OW38755   2.229   1.813   1.038 -0.2119  0.5075 -0.7939
 9040SOL    HW138756   2.301   1.805   1.101  0.5939  0.0362 -1.7684
 9040SOL    HW238757   2.145   1.812   1.083  0.0440  1.1831 -0.2903
 9041SOL     OW38758   2.969   0.307   0.419 -0.1353 -0.1914 -0.0712
 9041SOL    HW138759   2.986   0.257   0.499  0.3521 -0.0413 -0.0826
 9041SOL    HW238760   2.972   0.395   0.458  1.6070 -0.0832 -0.4672
 9042SOL     OW38761   3.220   0.768   4.165  0.7286  0.7364  0.0738
 9042SOL    HW138762   3.166   0.788   4.241  1.8442 -0.6093  1.2287
 9042SOL    HW238763   3.202   0.674   4.156 -0.3261  0.9707 -0.1555
 9043SOL     OW38764   0.140   0.923   8.174  0.4887  0.8055 -0.1223
 9043SOL    HW138765   0.087   0.861   8.124 -0.2829 -0.4324  2.2792
 9043SOL    HW238766   0.125   0.906   8.267  1.8892  2.7650  0.4750
 9044SOL     OW38767   0.332   2.872   8.369 -0.0902 -1.0133 -0.6868
 9044SOL    HW138768   0.406   2.839   8.318 -0.7952 -1.1731 -1.6059
 9044SOL    HW238769   0.317   2.801   8.432  0.8328 -1.8835 -1.4395
 9045SOL     OW38770   4.666   1.889  10.831  0.5455 -0.2725 -0.2337
 9045SOL    HW138771   4.606   1.815  10.839  0.3815 -0.1075  0.0456
 9045SOL    HW238772   0.013   1.849  10.848 -0.1228 -0.8937  1.5823
 9046SOL     OW38773   1.884   0.607   4.815 -0.5783 -0.2825  0.4214
 9046SOL    HW138774   1.913   0.666   4.744  0.5146  0.2047  1.2667
 9046SOL    HW238775   1.794   0.639   4.813 -0.1110  1.0699  1.0821
 9047SOL     OW38776   1.164   3.930   0.549 -0.0233 -0.6200 -0.7596
 9047SOL    HW138777   1.198   4.017   0.528 -0.5363 -0.2217  0.0832
 9047SOL    HW238778   1.087   3.941   0.605  1.8918 -0.8783  1.9111
 9048SOL     OW38779   0.068   4.217  13.441  0.3942 -0.2100 -0.6959
 9048SOL    HW138780   0.136   4.177  13.387  1.4401  1.2055 -0.4367
 9048SOL    HW238781   0.111   4.266  13.511  0.2049 -0.5414 -0.3456
 9049SOL     OW38782   1.139   0.442   3.843 -0.1829 -0.0123  0.2316
 9049SOL    HW138783   1.090   0.499   3.784 -3.1851 -3.3597 -0.5425
 9049SOL    HW238784   1.229   0.467   3.825 -0.5966 -1.1366 -3.3312
 9050SOL     OW38785   2.564   1.120   2.602 -0.3386 -0.1425 -0.2488
 9050SOL    HW138786   2.558   1.159   2.515  1.8697 -0.0245 -0.3501
 9050SOL    HW238787   2.657   1.100   2.611 -0.8586 -1.4206  2.4363
 9051SOL     OW38788   2.966   3.859   1.184  0.0927  0.3517 -0.4146
 9051SOL    HW138789   2.885   3.892   1.145 -1.2788 -2.4245  0.0377
 9051SOL    HW238790   2.997   3.798   1.117  0.8908  2.1166 -1.6457
 9052SOL     OW38791   3.147   1.258   6.952  0.0233 -0.0459  0.2025
 9052SOL    HW138792   3.148   1.218   6.865  0.7616 -0.4060  0.3809
 9052SOL    HW238793   3.217   1.226   7.008  0.3969 -0.1290 -0.3150
 9053SOL     OW38794   1.440   0.425   3.165  0.3922  0.0608 -0.3469
 9053SOL    HW138795   1.519   0.372   3.155  0.9670  0.7737  0.4171
 9053SOL    HW238796   1.418   0.425   3.258 -1.5390 -0.0465 -0.7984
 9054SOL     OW38797   3.295   0.817   2.755 -0.2591 -0.3827 -0.0471
 9054SOL    HW138798   3.340   0.780   2.679 -1.6732 -0.2512 -0.9515
 9054SOL    HW238799   3.266   0.748   2.814  1.3862 -0.8601  0.2016
 9055SOL     OW38800   2.039   3.249   9.077 -0.6158  0.0071 -0.1123
 9055SOL    HW138801   2.107   3.210   9.022 -0.2470 -1.9350  1.6839
 9055SOL    HW238802   2.056   3.210   9.163  2.4843 -1.4642 -1.3804
 9056SOL     OW38803   1.609   3.423   1.346 -0.2783 -0.1468 -0.8695
 9056SOL    HW138804   1.538   3.474   1.309 -0.1735 -0.1908 -1.1359
 9056SOL    HW238805   1.641   3.473   1.421 -1.5709 -1.2630  0.4185
 9057SOL     OW38806   1.780   4.468   3.621  0.4303 -0.0639  0.3782
 9057SOL    HW138807   1.813   4.450   3.709  0.8956  4.4787  1.1539
 9057SOL    HW238808   1.811   4.558   3.608 -0.3679  0.2559  0.6026
 9058SOL     OW38809   1.919   0.729   8.278  0.1171 -0.5930 -0.0010
 9058SOL    HW138810   1.970   0.739   8.358 -1.8368 -1.3459  1.3281
 9058SOL    HW238811   1.877   0.645   8.296  0.6722 -0.5839  1.3348
 9059SOL     OW38812   3.163   1.342   9.307  0.1789  0.4880 -0.0671
 9059SOL    HW138813   3.212   1.280   9.253  0.0480  0.4383 -0.1292
 9059SOL    HW238814   3.236   1.387   9.351 -1.5679  1.2505  2.0337
 9060SOL     OW38815   1.603   0.101   7.738  0.0274  0.0600  0.1173
 9060SOL    HW138816   1.542   0.090   7.811 -0.0797 -0.2027 -0.0114
 9060SOL    HW238817   1.618   0.007   7.724 -0.8442 -0.3114  1.6331
 9061SOL     OW38818   1.522   4.055   0.282 -0.3870  0.4682  0.2585
 9061SOL    HW138819   1.479   3.992   0.339 -0.6900 -0.0599 -0.5456
 9061SOL    HW238820   1.589   4.083   0.345 -0.9545  0.1217  1.0106
 9062SOL     OW38821   4.080   4.268   6.017 -0.0771 -0.5557  0.4144
 9062SOL    HW138822   4.039   4.200   6.072 -1.0427 -0.7724 -0.5742
 9062SOL    HW238823   4.132   4.218   5.954  1.4497  0.1251  1.1323
 9063SOL     OW38824   1.795   1.671  16.175 -0.1810  0.2007  0.0950
 9063SOL    HW138825   1.836   1.739  16.227  1.8069  1.1119 -2.6730
 9063SOL    HW238826   1.814   1.682  16.082  0.7005  2.3592  0.5524
 9064SOL     OW38827   0.938   1.824   5.209  0.3183  0.3428  0.0991
 9064SOL    HW138828   0.887   1.744   5.221  0.7043 -0.0517 -0.8954
 9064SOL    HW238829   0.923   1.827   5.114 -4.6792  0.5377  0.8628
 9065SOL     OW38830   1.786   0.883   5.423  0.3581 -0.4950 -0.0476
 9065SOL    HW138831   1.800   0.975   5.402  1.0794 -0.5694  0.1068
 9065SOL    HW238832   1.690   0.882   5.420  0.3208 -2.2511  1.3159
 9066SOL     OW38833   2.284   0.848  17.596  0.5321 -0.6278 -0.3468
 9066SOL    HW138834   2.243   0.916  17.542 -2.0901 -0.5707  1.7088
 9066SOL    HW238835   2.348   0.809  17.537  0.4877 -0.2836 -0.6227
 9067SOL     OW38836   3.891   0.977   6.978 -1.0538 -0.4197 -0.4742
 9067SOL    HW138837   3.873   1.066   6.947  1.6344 -0.8427 -3.2079
 9067SOL    HW238838   3.878   0.932   6.895 -1.0051 -1.7017  0.2198
 9068SOL     OW38839   1.740   3.081  13.986  0.6652 -0.1119 -0.1456
 9068SOL    HW138840   1.759   2.990  13.964  1.4306 -0.2011  0.8866
 9068SOL    HW238841   1.660   3.063  14.035  0.2130 -0.7029 -1.1156
 9069SOL     OW38842   0.503   0.691  13.965  0.2459 -0.3550  0.0866
 9069SOL    HW138843   0.586   0.728  13.995  0.0482 -0.0434  0.2466
 9069SOL    HW238844   0.510   0.705  13.870  0.0375 -2.7928 -0.3011
 9070SOL     OW38845   2.481   0.065   3.506  0.1283 -0.4219  0.6406
 9070SOL    HW138846   2.458   0.129   3.574 -2.0248  1.2110 -1.5938
 9070SOL    HW238847   2.526   0.117   3.440 -0.4876 -0.3608  0.2634
 9071SOL     OW38848   0.996   2.231   4.619  0.0198 -0.1903  0.0833
 9071SOL    HW138849   0.911   2.200   4.587 -0.4314  1.2916 -0.1517
 9071SOL    HW238850   1.055   2.226   4.544 -2.9293  0.7739 -2.3007
 9072SOL     OW38851   2.213   1.912   7.559  0.5182 -0.8176  0.4258
 9072SOL    HW138852   2.191   1.848   7.627 -0.2795  0.3465  1.2781
 9072SOL    HW238853   2.197   1.856   7.483 -1.1057  0.1558  0.0464
 9073SOL     OW38854   3.010   2.351  13.434  0.2445  0.2472 -0.5786
 9073SOL    HW138855   3.075   2.344  13.365  1.5822  0.2134  0.6698
 9073SOL    HW238856   2.966   2.434  13.417 -1.5133 -0.8451 -1.2375
 9074SOL     OW38857   0.180   0.015   2.112 -0.1339 -0.6062 -0.0991
 9074SOL    HW138858   0.125   0.010   2.034  0.3163  0.5866 -0.5002
 9074SOL    HW238859   0.244   4.687   2.089  0.2815  0.1057 -1.0224
 9075SOL     OW38860   3.591   2.350   6.511 -0.5501  0.4346 -0.2124
 9075SOL    HW138861   3.581   2.321   6.602  0.5778  2.8274  0.6771
 9075SOL    HW238862   3.671   2.401   6.521 -0.6869  0.8060 -1.0056
 9076SOL     OW38863   1.660   2.852   3.435  0.0452 -0.8026 -0.1046
 9076SOL    HW138864   1.618   2.850   3.349  2.1363 -0.9559 -1.1201
 9076SOL    HW238865   1.624   2.769   3.466 -0.8415 -1.2986 -2.4020
 9077SOL     OW38866   0.806   4.504  17.580  0.0242 -0.1606  0.4524
 9077SOL    HW138867   0.844   4.441  17.641  0.7114  1.0671  1.2782
 9077SOL    HW238868   0.818   4.449  17.502 -0.4821  1.1855 -0.5793
 9078SOL     OW38869   1.137   2.408   7.328  0.0579 -0.4320  0.3509
 9078SOL    HW138870   1.217   2.369   7.364 -0.4072 -0.6375  1.1476
 9078SOL    HW238871   1.121   2.338   7.264  0.6010  0.8063 -1.1438
 9079SOL     OW38872   4.526   3.752   2.465 -0.2849 -0.2477 -0.7733
 9079SOL    HW138873   4.530   3.785   2.555  1.0691  0.8749 -1.2417
 9079SOL    HW238874   4.577   3.672   2.476  1.4972  1.0640  0.4810
 9080SOL     OW38875   1.281   2.393   2.770 -0.3226  0.5469 -0.0993
 9080SOL    HW138876   1.204   2.344   2.799 -0.1020 -0.3976 -1.1215
 9080SOL    HW238877   1.343   2.328   2.737 -1.3288 -0.5434  0.1737
 9081SOL     OW38878   0.743   2.186   1.643 -0.3226  0.7879  0.3801
 9081SOL    HW138879   0.662   2.233   1.622  0.1456  0.7015 -1.5706
 9081SOL    HW238880   0.717   2.096   1.663 -0.4071  0.4619 -1.2085
 9082SOL     OW38881   2.780   3.697   0.616 -0.2587  0.7660 -0.2087
 9082SOL    HW138882   2.828   3.617   0.641 -2.0470 -0.4436 -0.6569
 9082SOL    HW238883   2.728   3.709   0.695  1.2144  2.3179  0.5323
 9083SOL     OW38884   1.611   1.370   2.573  0.4263  0.0476 -0.5286
 9083SOL    HW138885   1.698   1.405   2.559 -0.4066  1.9036 -1.0729
 9083SOL    HW238886   1.573   1.361   2.486 -2.0059  0.4039  0.4825
 9084SOL     OW38887   0.159   1.680   7.088 -0.1607  0.3330 -0.0554
 9084SOL    HW138888   0.210   1.761   7.090  0.4930 -0.0624 -0.5643
 9084SOL    HW238889   0.215   1.635   7.024  1.1503 -0.0169  1.3359
 9085SOL     OW38890   1.445   1.563   6.850 -0.1995 -0.1504 -0.0771
 9085SOL    HW138891   1.392   1.522   6.919 -1.6120 -0.3186 -1.2456
 9085SOL    HW238892   1.465   1.650   6.885  0.4978  0.3523 -1.7405
 9086SOL     OW38893   1.831   2.368   8.041 -0.0436  0.1961 -0.1327
 9086SOL    HW138894   1.875   2.450   8.061 -0.8022  0.6092 -0.1868
 9086SOL    HW238895   1.788   2.350   8.125  1.0095  1.9759  0.7833
 9087SOL     OW38896   4.139   2.478   0.136 -0.6366 -0.3652 -0.5708
 9087SOL    HW138897   4.061   2.443   0.179  0.0948  0.2903  1.2987
 9087SOL    HW238898   4.215   2.440   0.182 -0.8772  1.6531  1.4784
 9088SOL     OW38899   2.521   0.277  15.566 -0.2783  0.2816  0.2972
 9088SOL    HW138900   2.461   0.203  15.575  2.8153 -2.4217 -1.1483
 9088SOL    HW238901   2.495   0.323  15.486  1.5597  2.0683  0.7236
 9089SOL     OW38902   3.367   0.689   7.671  0.2131  0.1654  0.3850
 9089SOL    HW138903   3.332   0.760   7.724 -0.6421  0.1818 -0.2046
 9089SOL    HW238904   3.322   0.612   7.707  0.9961  0.6564  2.4007
 9090SOL     OW38905   1.051   0.962   2.994  0.0914 -0.0393 -0.3433
 9090SOL    HW138906   1.065   0.892   3.059  0.5705  0.4898  0.1177
 9090SOL    HW238907   1.041   1.046   3.038 -0.9856 -0.1937 -0.2757
 9091SOL     OW38908   3.446   3.065   3.265 -0.2349  0.6161 -0.4397
 9091SOL    HW138909   3.448   3.086   3.358 -2.3696 -0.0917 -0.2414
 9091SOL    HW238910   3.389   2.989   3.252 -0.1213  0.8721 -2.4130
 9092SOL     OW38911   3.883   4.126   9.011  0.1819  0.2051  0.0551
 9092SOL    HW138912   3.879   4.046   8.959 -2.9882  1.0045 -0.9523
 9092SOL    HW238913   3.813   4.118   9.076 -0.6247 -2.1515 -1.1020
 9093SOL     OW38914   1.504   2.067  13.018  0.0839 -0.0459  0.2418
 9093SOL    HW138915   1.534   2.036  13.104 -0.6959  1.1626  0.9561
 9093SOL    HW238916   1.513   1.984  12.972 -0.1835  2.0358 -3.5324
 9094SOL     OW38917   3.450   3.947   3.208 -0.0064 -0.0170 -0.1920
 9094SOL    HW138918   3.411   3.983   3.128  0.9167 -1.0210 -1.0984
 9094SOL    HW238919   3.542   3.938   3.181 -0.6421 -0.9844 -2.0078
 9095SOL     OW38920   2.393   2.221   6.826  0.5067 -0.3207  0.3340
 9095SOL    HW138921   2.364   2.131   6.816 -0.8229  0.3704 -1.9362
 9095SOL    HW238922   2.313   2.269   6.847  1.0609  1.2747 -1.1533
 9096SOL     OW38923   0.510   1.195   9.804 -0.0770 -0.6551 -0.5122
 9096SOL    HW138924   0.450   1.220   9.734 -0.1636  0.4058 -0.0669
 9096SOL    HW238925   0.522   1.277   9.852  1.9141  0.5003 -2.9469
 9097SOL     OW38926   2.156   4.197   4.515 -0.4920  0.1353 -0.3081
 9097SOL    HW138927   2.209   4.266   4.476 -1.3896 -0.5667 -2.8144
 9097SOL    HW238928   2.167   4.208   4.609  0.8859 -0.1439 -0.4284
 9098SOL     OW38929   3.259   0.372   6.828 -0.1771  0.2232  0.3407
 9098SOL    HW138930   3.187   0.319   6.862  0.5017 -1.0655 -0.2516
 9098SOL    HW238931   3.238   0.453   6.875  0.7029  0.0300  1.0664
 9099SOL     OW38932   1.938   3.248   2.036 -0.4273  0.4434  0.2586
 9099SOL    HW138933   1.857   3.196   2.033 -1.4606  1.9894  1.3026
 9099SOL    HW238934   1.905   3.327   1.993  1.3532  1.4497  0.7374
 9100SOL     OW38935   1.385   3.699   9.118 -0.4560 -0.0262  0.1131
 9100SOL    HW138936   1.383   3.611   9.081  0.5506  0.3471 -0.8036
 9100SOL    HW238937   1.401   3.687   9.212  2.3834 -2.3900 -0.6889
 9101SOL     OW38938   0.703   3.884  17.119  0.3830  0.4633  0.3864
 9101SOL    HW138939   0.756   3.807  17.140  0.8432  0.8934  0.8134
 9101SOL    HW238940   0.631   3.842  17.073  1.9793 -0.7873 -0.9519
 9102SOL     OW38941   0.268   2.167  12.726 -0.0418  0.1334 -0.8398
 9102SOL    HW138942   0.230   2.081  12.747  0.2832  1.0439  3.3833
 9102SOL    HW238943   0.197   2.224  12.698 -0.3373  0.4435  0.5529
 9103SOL     OW38944   4.499   3.524   5.234  0.4576  0.1895  0.2891
 9103SOL    HW138945   4.581   3.521   5.184 -1.3066 -1.1039 -2.4926
 9103SOL    HW238946   4.517   3.465   5.307 -1.5715 -1.1240 -0.2825
 9104SOL     OW38947   3.949   4.684   8.073 -0.6973  0.2367  0.5238
 9104SOL    HW138948   3.863   4.720   8.050 -0.5385  1.6808  2.2748
 9104SOL    HW238949   3.918   4.622   8.138 -0.9007 -0.2871 -0.0669
 9105SOL     OW38950   2.834   0.533   6.005  0.1159 -0.4893  0.4042
 9105SOL    HW138951   2.898   0.553   5.937 -0.6671  3.5803  0.8640
 9105SOL    HW238952   2.753   0.549   5.956 -0.8043 -2.3828  1.3279
 9106SOL     OW38953   4.693   1.390   1.146  0.2795 -0.0243 -0.5325
 9106SOL    HW138954   4.628   1.455   1.122 -0.7265 -0.6649  0.4173
 9106SOL    HW238955   0.030   1.449   1.157  0.3380 -0.5504  2.0224
 9107SOL     OW38956   4.465   2.512   0.243  0.0614  0.2736  0.1291
 9107SOL    HW138957   4.537   2.513   0.179  0.3537  0.0423  0.4548
 9107SOL    HW238958   4.423   2.429   0.218  0.1221  0.7152 -1.4498
 9108SOL     OW38959   3.889   0.483   0.014 -0.5238  0.3088  0.2047
 9108SOL    HW138960   3.875   0.544  17.692 -0.7841  0.6024  0.4995
 9108SOL    HW238961   3.828   0.515   0.080  0.1924  1.5672  0.2624
 9109SOL     OW38962   3.207   2.508  14.123 -0.5667 -1.1272 -0.2034
 9109SOL    HW138963   3.299   2.534  14.115 -0.2323 -1.6624  1.8240
 9109SOL    HW238964   3.171   2.588  14.160 -1.9243 -0.8650 -2.1155
 9110SOL     OW38965   3.574   1.899  16.126 -0.4721  0.5749 -0.2819
 9110SOL    HW138966   3.533   1.843  16.191  2.1667 -0.4465  0.5056
 9110SOL    HW238967   3.555   1.987  16.159  1.4000  0.7439  0.3791
 9111SOL     OW38968   1.305   2.341  12.380  0.2919 -0.3923  0.4335
 9111SOL    HW138969   1.328   2.248  12.381 -0.8890 -0.6785  0.9520
 9111SOL    HW238970   1.345   2.373  12.299  0.4079 -1.5955  0.0025
 9112SOL     OW38971   1.565   2.059   0.418 -0.0400  0.0615  0.5884
 9112SOL    HW138972   1.555   2.144   0.462  0.3469 -0.0209  0.8401
 9112SOL    HW238973   1.597   2.091   0.333 -2.0119  0.3336 -0.0457
 9113SOL     OW38974   0.044   1.042   6.028 -0.0257 -0.3383 -0.0199
 9113SOL    HW138975   0.067   0.949   6.019 -0.9076 -0.4692 -0.8515
 9113SOL    HW238976   0.124   1.071   6.072 -0.0681 -1.7846  1.0086
 9114SOL     OW38977   4.575   0.338   2.761 -0.0883  0.1584  0.2426
 9114SOL    HW138978   4.667   0.363   2.751 -0.5832  0.9105 -2.5255
 9114SOL    HW238979   4.591   0.263   2.819  0.1310 -2.0761 -2.6904
 9115SOL     OW38980   4.375   2.959   5.259 -0.9313 -0.0855 -0.1112
 9115SOL    HW138981   4.282   2.978   5.262 -0.5458  1.4416  1.7799
 9115SOL    HW238982   4.403   3.003   5.339  0.1092 -1.1996  0.1380
 9116SOL     OW38983   2.578   3.896   2.284 -0.2988 -0.0589  0.8093
 9116SOL    HW138984   2.666   3.884   2.320  0.1668 -0.6904 -0.5336
 9116SOL    HW238985   2.550   3.983   2.315  1.7071 -0.2196  3.0143
 9117SOL     OW38986   2.477   2.017   4.191 -0.2129  0.1185  0.2744
 9117SOL    HW138987   2.432   2.005   4.274  1.1395  2.9888  1.4188
 9117SOL    HW238988   2.438   2.101   4.165  0.0212  0.3080  0.5344
 9118SOL     OW38989   4.725   3.678   4.848  0.2858 -0.3214 -0.2473
 9118SOL    HW138990   0.039   3.745   4.892 -1.3439  0.3868  0.6063
 9118SOL    HW238991   4.636   3.713   4.856 -0.0057 -0.4553 -2.8967
 9119SOL     OW38992   3.885   0.341   3.333 -0.2124 -0.4413  0.1465
 9119SOL    HW138993   3.922   0.357   3.420 -1.2325 -1.4092  0.7496
 9119SOL    HW238994   3.794   0.334   3.362  0.8558  0.0993  3.6230
 9120SOL     OW38995   0.869   0.179   4.696 -0.8740 -0.1835  0.2650
 9120SOL    HW138996   0.805   0.249   4.686 -2.5014 -1.6727  0.3029
 9120SOL    HW238997   0.828   0.130   4.768  0.3366 -3.1357 -1.0227
 9121SOL     OW38998   3.207   4.577   3.210  0.0343  0.5467  0.1448
 9121SOL    HW138999   3.287   4.622   3.238  1.0248 -1.6237  0.8085
 9121SOL    HW239000   3.183   4.563   3.302  2.0418 -0.8488  0.4503
 9122SOL     OW39001   3.424   0.449   7.272 -0.7624 -0.5467 -0.8040
 9122SOL    HW139002   3.445   0.360   7.300 -0.3050  0.2964  1.5434
 9122SOL    HW239003   3.480   0.450   7.195  0.8565  2.7327  0.4290
 9123SOL     OW39004   0.945   2.475   9.450 -0.0786 -0.1833  0.1731
 9123SOL    HW139005   0.941   2.552   9.507  0.1368 -0.6375  0.8058
 9123SOL    HW239006   0.924   2.400   9.506  1.8052 -0.7604  0.0870
 9124SOL     OW39007   0.977   0.331   6.666  0.3636  0.0998 -0.1213
 9124SOL    HW139008   0.971   0.236   6.672  0.3827  0.1112  0.0791
 9124SOL    HW239009   0.911   0.359   6.603 -1.1940  1.3790  2.0764
 9125SOL     OW39010   4.276   4.517  10.239  0.0151 -0.2683 -0.5444
 9125SOL    HW139011   4.365   4.534  10.211  0.1052  1.1431  0.6189
 9125SOL    HW239012   4.230   4.600  10.225 -0.9342 -0.2611  2.4647
 9126SOL     OW39013   2.802   4.016   6.604  0.0216 -0.4024  0.3728
 9126SOL    HW139014   2.872   3.976   6.553 -0.1373 -3.0550  2.2629
 9126SOL    HW239015   2.861   4.057   6.668 -0.3154 -0.9268  1.0054
 9127SOL     OW39016   3.087   0.956   7.539 -0.6540 -0.4290  0.2162
 9127SOL    HW139017   3.099   0.969   7.634  1.5574  0.9669 -0.2471
 9127SOL    HW239018   3.058   0.865   7.540  1.2334 -1.0163  0.2099
 9128SOL     OW39019   2.352   1.418  17.543 -0.4012 -0.1938 -0.7280
 9128SOL    HW139020   2.437   1.435  17.584 -1.0521 -0.2459  0.6091
 9128SOL    HW239021   2.360   1.482  17.472  0.0412  0.9918  0.4021
 9129SOL     OW39022   1.037   0.638   3.653 -0.3761  0.5077  0.0844
 9129SOL    HW139023   0.963   0.631   3.713 -1.1027  0.4038 -0.8217
 9129SOL    HW239024   1.011   0.718   3.608 -2.0850 -1.2583 -2.1280
 9130SOL     OW39025   3.037   0.921   1.717  0.5699 -0.4535  0.4475
 9130SOL    HW139026   3.063   0.990   1.778  0.5993 -0.3432  0.3108
 9130SOL    HW239027   2.954   0.957   1.686 -0.0641 -1.3125  1.1437
 9131SOL     OW39028   1.617   2.458   2.869  0.5684 -0.3323 -0.1284
 9131SOL    HW139029   1.634   2.485   2.959 -0.2181 -1.2371  0.2924
 9131SOL    HW239030   1.563   2.530   2.836 -0.1327 -0.2118  1.3030
 9132SOL     OW39031   3.179   4.554   7.242 -0.1365 -0.2600  0.0724
 9132SOL    HW139032   3.255   4.581   7.293 -0.7460 -1.1817  1.4463
 9132SOL    HW239033   3.216   4.571   7.155  1.1901  0.0223  0.7072
 9133SOL     OW39034   4.644   4.012  12.135 -0.3911  0.4977  0.1475
 9133SOL    HW139035   4.557   3.999  12.096 -0.0661  1.7161 -0.9651
 9133SOL    HW239036   4.662   4.104  12.114 -3.2317  0.4790 -2.4486
 9134SOL     OW39037   3.610   2.411   8.805 -0.4479 -0.6591  0.0977
 9134SOL    HW139038   3.637   2.469   8.876 -1.9631 -2.3311  2.0220
 9134SOL    HW239039   3.666   2.338   8.829  0.9415 -0.4115 -2.3382
 9135SOL     OW39040   0.198   4.228   0.360  0.0795  0.1953 -0.0415
 9135SOL    HW139041   0.237   4.180   0.288  0.1455  0.1218  0.0431
 9135SOL    HW239042   0.274   4.262   0.409 -1.9297  2.2187  1.7199
 9136SOL     OW39043   3.209   0.898  14.578  0.0376 -0.1566 -0.0110
 9136SOL    HW139044   3.252   0.967  14.628  0.3220 -0.1870 -0.2145
 9136SOL    HW239045   3.290   0.872  14.533 -1.2323 -1.0278 -1.8124
 9137SOL     OW39046   3.086   3.858   3.772 -0.1434 -0.3697  0.2241
 9137SOL    HW139047   3.158   3.909   3.735 -0.4786  1.5297  2.1641
 9137SOL    HW239048   3.014   3.904   3.729  0.8691 -0.5265 -1.6243
 9138SOL     OW39049   4.492   1.450   8.459  0.0270  0.3370 -0.1041
 9138SOL    HW139050   4.524   1.472   8.371 -0.4004  1.1325 -0.0575
 9138SOL    HW239051   4.567   1.469   8.515  1.3662 -0.0185 -1.7625
 9139SOL     OW39052   2.537   0.741   8.435  0.6109  0.2019 -0.6502
 9139SOL    HW139053   2.478   0.668   8.419 -0.2110  0.5945  0.5502
 9139SOL    HW239054   2.528   0.797   8.358 -1.1275  1.0885  0.2087
 9140SOL     OW39055   1.750   2.298   7.444 -0.3064  0.4816 -0.3215
 9140SOL    HW139056   1.696   2.374   7.422 -1.1994  0.0377  0.3596
 9140SOL    HW239057   1.686   2.227   7.450  1.4793 -1.1719 -0.8002
 9141SOL     OW39058   2.216   1.690   7.731 -0.9580  0.1132 -0.2413
 9141SOL    HW139059   2.195   1.693   7.824 -1.6002  2.3117 -0.4599
 9141SOL    HW239060   2.306   1.657   7.735 -0.5579  1.4781  2.0739
 9142SOL     OW39061   0.786   0.914   3.243  0.3319 -0.2784  0.1005
 9142SOL    HW139062   0.758   1.002   3.217 -1.8394 -1.2253 -0.7393
 9142SOL    HW239063   0.748   0.869   3.168  0.0956  0.8898 -0.4736
 9143SOL     OW39064   1.277   0.067  10.714 -0.6375 -0.2684  0.2073
 9143SOL    HW139065   1.201   0.011  10.698 -0.0682 -0.4403 -1.8879
 9143SOL    HW239066   1.238   0.154  10.718 -1.5944 -0.6321 -1.1375
 9144SOL     OW39067   3.695   1.543  15.404 -0.1108  0.1683 -0.3130
 9144SOL    HW139068   3.753   1.479  15.444 -0.6575 -0.2895 -0.2435
 9144SOL    HW239069   3.735   1.563  15.319  0.3880  1.1369  0.1520
 9145SOL     OW39070   1.376   0.110   8.831 -0.6969 -0.3738  0.1682
 9145SOL    HW139071   1.307   0.174   8.845  1.6262  1.6430  2.4409
 9145SOL    HW239072   1.452   0.161   8.860 -0.0198 -1.6642  0.6971
 9146SOL     OW39073   0.092   0.542   1.857  0.0755 -0.2936 -0.1192
 9146SOL    HW139074   0.045   0.576   1.781 -0.1251  0.2305  0.2446
 9146SOL    HW239075   0.025   0.557   1.924 -0.2760 -0.3484 -0.4599
 9147SOL     OW39076   1.209   0.212   8.041 -0.7487  0.0175 -0.0258
 9147SOL    HW139077   1.124   0.167   8.040 -0.6099 -0.2176 -1.6342
 9147SOL    HW239078   1.218   0.269   8.118  0.0270 -0.8148  0.4999
 9148SOL     OW39079   4.666   1.818   3.347  0.4135  0.1470  0.3219
 9148SOL    HW139080   4.599   1.768   3.395  0.5394 -3.0716 -2.8677
 9148SOL    HW239081   4.655   1.898   3.398  0.5965  0.2528  0.1933
 9149SOL     OW39082   3.757   0.388   2.983 -0.0022 -0.2375 -0.0090
 9149SOL    HW139083   3.815   0.316   3.007  1.1913  0.4474 -0.8347
 9149SOL    HW239084   3.679   0.358   3.030  0.0275 -0.7719 -0.2895
 9150SOL     OW39085   2.418   1.914  13.898  0.4678  0.2097 -0.4053
 9150SOL    HW139086   2.332   1.942  13.930 -0.3204 -2.3682 -0.2680
 9150SOL    HW239087   2.448   1.853  13.965  0.0626  1.6432  1.0738
 9151SOL     OW39088   3.296   4.638   4.396  0.6112 -0.3889  0.0687
 9151SOL    HW139089   3.359   4.567   4.387  0.6461 -0.2628 -0.6606
 9151SOL    HW239090   3.246   4.620   4.316  0.1210  2.5381 -0.3065
 9152SOL     OW39091   3.149   3.612   9.029 -0.0782 -0.1878  0.6515
 9152SOL    HW139092   3.077   3.603   8.967 -0.2778  1.1553  0.7058
 9152SOL    HW239093   3.115   3.565   9.105 -0.7159 -3.5702 -1.7047
 9153SOL     OW39094   1.638   0.943   3.225 -0.1708 -0.2904 -0.0137
 9153SOL    HW139095   1.597   1.029   3.213  1.5428  0.6747  0.9679
 9153SOL    HW239096   1.722   0.965   3.266  0.5130 -0.0880 -1.5200
 9154SOL     OW39097   4.148   0.979   7.482 -0.2556 -0.1890 -0.0348
 9154SOL    HW139098   4.105   1.001   7.399  0.1403 -1.0260 -0.4618
 9154SOL    HW239099   4.101   1.042   7.537 -0.0978  1.4004 -1.6935
 9155SOL     OW39100   0.085   3.262   9.111  0.6479 -0.3032 -0.2423
 9155SOL    HW139101   0.088   3.208   9.190 -2.0395  0.2905  0.2764
 9155SOL    HW239102   0.167   3.307   9.133  1.0507 -1.2638  0.2380
 9156SOL     OW39103   2.302   1.593   2.764  0.7121  0.0090  0.1898
 9156SOL    HW139104   2.285   1.597   2.858  0.7098  1.8630  0.1123
 9156SOL    HW239105   2.243   1.665   2.741 -1.1126 -1.8747 -1.0387
 9157SOL     OW39106   3.110   3.577   3.722 -0.4183  0.1912 -0.8392
 9157SOL    HW139107   3.125   3.671   3.727  0.7339  0.0504 -1.5434
 9157SOL    HW239108   3.133   3.567   3.629  1.4013 -1.1697 -0.2192
 9158SOL     OW39109   2.337   1.396   7.538 -0.7258  0.3989  0.0000
 9158SOL    HW139110   2.247   1.427   7.553 -0.9983 -0.8011  0.8253
 9158SOL    HW239111   2.376   1.407   7.624  1.7127 -1.7714 -0.8534
 9159SOL     OW39112   1.497   1.654   7.989  0.0037  0.3263 -0.2632
 9159SOL    HW139113   1.474   1.636   7.899 -1.2353 -0.5708  0.2447
 9159SOL    HW239114   1.419   1.705   8.010  0.1438  0.3537  0.2081
 9160SOL     OW39115   1.275   2.342   1.413 -0.3449 -0.1585 -0.1932
 9160SOL    HW139116   1.266   2.358   1.507  0.1144  2.7117 -0.6358
 9160SOL    HW239117   1.270   2.247   1.416 -0.9338 -0.1983 -2.5964
 9161SOL     OW39118   3.287   0.900   1.606  0.2335  0.0661 -0.1670
 9161SOL    HW139119   3.310   0.993   1.618  3.3793 -0.4452 -2.3542
 9161SOL    HW239120   3.203   0.885   1.648  2.0562 -1.8707  2.7900
 9162SOL     OW39121   1.444   4.629  10.593 -0.0623 -0.6710 -0.4473
 9162SOL    HW139122   1.377   4.683  10.636  0.4831 -1.1725  1.0301
 9162SOL    HW239123   1.506   4.698  10.568  1.1575 -0.5422  2.9298
 9163SOL     OW39124   4.448   2.688   3.217 -0.0948  0.5694  0.0975
 9163SOL    HW139125   4.428   2.776   3.249  0.8037  1.4704 -1.8371
 9163SOL    HW239126   4.463   2.703   3.124  0.1548  0.8541  0.1834
 9164SOL     OW39127   1.689   2.361  12.658 -0.4011  0.3428 -0.0230
 9164SOL    HW139128   1.630   2.288  12.638 -3.4636  2.3333  1.5803
 9164SOL    HW239129   1.664   2.383  12.748  1.1614 -1.2502  0.7906
 9165SOL     OW39130   1.356   2.188   0.550  0.1462 -0.2515 -0.7950
 9165SOL    HW139131   1.269   2.225   0.562  0.3228  0.1495 -0.7699
 9165SOL    HW239132   1.348   2.109   0.496 -0.5968 -0.1613 -0.8270
 9166SOL     OW39133   0.581   0.504   8.268 -0.3024  0.8384 -0.3390
 9166SOL    HW139134   0.661   0.554   8.253  1.1954 -1.4584  0.0169
 9166SOL    HW239135   0.529   0.539   8.341  1.1044  0.8975  0.6171
 9167SOL     OW39136   1.785   0.588   7.284  0.2193 -0.1921  1.1837
 9167SOL    HW139137   1.715   0.623   7.229  1.0606  0.0488  0.2660
 9167SOL    HW239138   1.862   0.622   7.237 -1.5745  1.3338 -0.6720
 9168SOL     OW39139   0.748   3.327   2.999  0.2369  0.4578  0.0419
 9168SOL    HW139140   0.668   3.315   2.947  0.6302 -1.4350 -0.1154
 9168SOL    HW239141   0.762   3.236   3.026  0.1857  0.4939  0.1874
 9169SOL     OW39142   4.599   3.452  10.896 -0.2033  0.2497  0.1874
 9169SOL    HW139143   4.556   3.435  10.980 -0.8070 -2.3257 -0.6386
 9169SOL    HW239144   4.677   3.497  10.929  0.9775 -0.0808 -2.1534
 9170SOL     OW39145   1.782   2.566   1.373  0.1442  0.1974  0.0241
 9170SOL    HW139146   1.776   2.567   1.278 -0.7657 -0.7886  0.0751
 9170SOL    HW239147   1.697   2.533   1.402  0.8526 -2.6049 -1.0555
 9171SOL     OW39148   0.857   1.803   3.841  0.3264  0.1593 -0.1321
 9171SOL    HW139149   0.903   1.740   3.896 -1.1764 -0.6738  0.1936
 9171SOL    HW239150   0.822   1.745   3.774  2.0078 -1.0325  0.0410
 9172SOL     OW39151   1.829   1.305  16.921 -0.2451  0.1581  0.1533
 9172SOL    HW139152   1.915   1.342  16.945  0.4506 -1.6992  0.5309
 9172SOL    HW239153   1.843   1.212  16.903 -0.7119  0.0823  0.2067
 9173SOL     OW39154   2.174   4.455   7.266  0.3828  0.8050  0.1253
 9173SOL    HW139155   2.133   4.541   7.253  1.8951  1.4682 -0.1725
 9173SOL    HW239156   2.181   4.432   7.173  0.4138 -0.0179  0.3397
 9174SOL     OW39157   2.056   4.515   4.139  0.2915  0.4129  0.4678
 9174SOL    HW139158   2.095   4.435   4.104  0.3327 -0.2407  2.0229
 9174SOL    HW239159   1.974   4.506   4.090  0.1211  0.6490  0.7085
 9175SOL     OW39160   1.938   0.220  15.019 -0.0089  0.1632  0.1809
 9175SOL    HW139161   1.995   0.242  15.092 -3.2884  2.8994  1.8865
 9175SOL    HW239162   1.998   0.248  14.950  0.2964  0.0865  0.4122
 9176SOL     OW39163   0.905   2.594  17.605  0.4794  0.4826 -0.1594
 9176SOL    HW139164   0.845   2.637  17.665  0.6891 -1.2595  1.3374
 9176SOL    HW239165   0.898   2.657  17.534  0.4450  0.3879 -0.2405
 9177SOL     OW39166   2.192   3.967   1.040  0.1406  0.3699 -0.4952
 9177SOL    HW139167   2.125   3.907   1.072 -2.2193  2.5570 -1.2985
 9177SOL    HW239168   2.138   4.026   0.986 -0.7642  2.0884  2.3163
 9178SOL     OW39169   4.716   3.688   7.219  0.3606 -0.1131 -0.2971
 9178SOL    HW139170   4.724   3.594   7.198 -2.0489  0.0206 -1.9424
 9178SOL    HW239171   4.621   3.695   7.206  0.3850 -0.7785 -0.8588
 9179SOL     OW39172   1.060   3.787  16.887  0.6897  0.0206  0.1557
 9179SOL    HW139173   1.139   3.803  16.835 -0.4057  0.7021 -1.3145
 9179SOL    HW239174   1.105   3.791  16.971 -1.5668  1.3250  1.3064
 9180SOL     OW39175   4.655   1.889   0.029  0.3281  0.2412  0.2233
 9180SOL    HW139176   4.648   1.884   0.124 -2.3544  0.0897  0.0328
 9180SOL    HW239177   4.601   1.967   0.012 -0.5767 -0.2045  1.0483
 9181SOL     OW39178   1.143   4.082  17.666 -0.2170  0.0573 -1.0529
 9181SOL    HW139179   1.078   4.047  17.726  0.9007  0.1928  0.2185
 9181SOL    HW239180   1.175   4.012  17.609  0.5806 -0.3212 -0.1241
 9182SOL     OW39181   0.562   4.176  11.553 -0.2139  0.6846 -0.2131
 9182SOL    HW139182   0.480   4.225  11.545  0.6353  2.5097  2.1003
 9182SOL    HW239183   0.617   4.215  11.484 -0.2438 -0.6221 -0.9678
 9183SOL     OW39184   2.873   0.493   4.370  0.4698 -0.4865  0.2560
 9183SOL    HW139185   2.967   0.513   4.373 -0.0398  1.7901  1.1239
 9183SOL    HW239186   2.858   0.474   4.278  0.3955 -1.0901  0.3915
 9184SOL     OW39187   3.667   0.857   5.926  0.2690 -0.1385 -0.1281
 9184SOL    HW139188   3.735   0.904   5.975  1.1096 -1.1852 -0.2932
 9184SOL    HW239189   3.610   0.931   5.906  2.3037  1.2825 -0.7624
 9185SOL     OW39190   1.799   0.372   1.321 -0.0581 -0.5346 -0.1193
 9185SOL    HW139191   1.779   0.318   1.245 -0.2460 -0.4390 -0.1371
 9185SOL    HW239192   1.894   0.360   1.323 -0.2817 -2.5536 -1.7302
 9186SOL     OW39193   2.611   3.821   6.630  0.3162  0.7079  0.1282
 9186SOL    HW139194   2.663   3.902   6.634  0.6560  0.5518 -1.0273
 9186SOL    HW239195   2.683   3.759   6.617 -0.2433  0.1513 -0.2830
 9187SOL     OW39196   1.778   2.100  13.369 -0.1909  0.9382 -0.0211
 9187SOL    HW139197   1.811   2.084  13.457  0.0602 -0.1953 -0.3221
 9187SOL    HW239198   1.847   2.048  13.329 -0.0952  2.6605 -2.1203
 9188SOL     OW39199   3.614   3.206   5.518 -0.2389  0.4219  0.1864
 9188SOL    HW139200   3.642   3.295   5.540 -2.9004  0.7051  2.4643
 9188SOL    HW239201   3.526   3.218   5.483 -0.5574 -0.5037  0.6734
 9189SOL     OW39202   2.544   4.485   6.453  0.0391  0.3405 -0.1149
 9189SOL    HW139203   2.452   4.456   6.448 -0.2672  1.2170  0.4934
 9189SOL    HW239204   2.587   4.399   6.450 -0.5631 -0.0840  2.8943
 9190SOL     OW39205   1.451   0.999   0.899 -0.2545  0.1039 -0.0552
 9190SOL    HW139206   1.503   0.951   0.835  0.3620 -0.6685  1.0349
 9190SOL    HW239207   1.509   1.075   0.913  0.5543 -0.7479  1.2286
 9191SOL     OW39208   1.768   1.665   5.544  0.2792  0.0593  0.3918
 9191SOL    HW139209   1.677   1.643   5.563  0.2287  1.1833  1.4383
 9191SOL    HW239210   1.760   1.734   5.478  0.5503  0.4881  0.8061
 9192SOL     OW39211   4.731   0.794   9.686 -0.1254 -0.1751  0.0952
 9192SOL    HW139212   0.019   0.704   9.667  0.1318  0.2609 -1.5753
 9192SOL    HW239213   4.661   0.780   9.750  0.9405 -2.5930  0.7174
 9193SOL     OW39214   0.965   2.102   1.173 -0.7605 -0.1582 -0.5695
 9193SOL    HW139215   1.011   2.112   1.090 -0.6694  3.2124 -0.1409
 9193SOL    HW239216   0.919   2.185   1.187 -0.7608 -0.5425  1.7275
 9194SOL     OW39217   1.562   0.630   0.954 -0.3238  0.0709  0.1222
 9194SOL    HW139218   1.573   0.725   0.964  0.4018  0.1383 -1.2293
 9194SOL    HW239219   1.467   0.618   0.952 -0.2316 -0.5591 -0.3445
 9195SOL     OW39220   2.801   2.223   2.016 -0.1302 -0.5103 -0.1607
 9195SOL    HW139221   2.742   2.160   2.057 -0.7387 -0.1900 -0.5419
 9195SOL    HW239222   2.767   2.232   1.927 -1.0643 -2.2627  0.0272
 9196SOL     OW39223   2.790   0.900  14.602  0.2690  0.3445 -0.3543
 9196SOL    HW139224   2.850   0.899  14.527 -1.1859  0.6892 -1.5122
 9196SOL    HW239225   2.821   0.819  14.643 -0.0443  0.3473 -0.1142
 9197SOL     OW39226   2.902   0.251  15.274 -0.0514 -0.5830  0.5435
 9197SOL    HW139227   2.911   0.188  15.346  1.2055 -0.7524  0.2295
 9197SOL    HW239228   2.977   0.309  15.288 -0.1932 -0.1722 -0.4163
 9198SOL     OW39229   2.964   0.257   3.931  0.5454  0.8060  0.2760
 9198SOL    HW139230   2.941   0.167   3.908  0.3939  0.7517  0.6398
 9198SOL    HW239231   2.880   0.303   3.925 -0.1622 -0.7898 -2.3721
 9199SOL     OW39232   3.079   0.825   5.980 -0.6467 -0.0834 -0.2684
 9199SOL    HW139233   3.075   0.794   6.071 -1.4221  0.3931 -0.1423
 9199SOL    HW239234   3.103   0.918   5.971 -0.6936 -0.0560 -0.1101
 9200SOL     OW39235   0.356   0.367   4.277  0.2568 -0.1386  0.0579
 9200SOL    HW139236   0.432   0.312   4.296  0.3993 -0.2120 -0.7117
 9200SOL    HW239237   0.354   0.367   4.181  0.2650  0.2166  0.0583
 9201SOL     OW39238   2.902   2.561   4.984  0.2254  0.4074 -0.3164
 9201SOL    HW139239   2.863   2.580   5.069  0.6572  0.0645 -0.0432
 9201SOL    HW239240   2.856   2.484   4.950  2.5095 -1.0485 -0.1456
 9202SOL     OW39241   1.312   3.109  17.308 -0.3828 -0.8513  0.9060
 9202SOL    HW139242   1.288   3.024  17.271  1.0783 -1.5645  1.5687
 9202SOL    HW239243   1.258   3.096  17.386  1.7453 -3.5838  1.9640
 9203SOL     OW39244   1.217   0.030   2.083 -0.2727 -0.1582  0.3580
 9203SOL    HW139245   1.217   0.049   2.177  0.2927  2.1040 -0.1000
 9203SOL    HW239246   1.124   0.011   2.071 -0.1004 -1.6526  1.3929
 9204SOL     OW39247   2.133   3.298   8.605 -0.5074 -0.1403 -0.3617
 9204SOL    HW139248   2.082   3.294   8.686  0.5600  0.8703  0.3515
 9204SOL    HW239249   2.097   3.370   8.553 -0.5765  0.2464  0.2244
 9205SOL     OW39250   1.640   0.435   0.482  0.0806 -1.2368  0.0026
 9205SOL    HW139251   1.609   0.512   0.434 -1.7498 -2.3849 -0.6751
 9205SOL    HW239252   1.576   0.440   0.554  0.0220  2.5691 -0.3175
 9206SOL     OW39253   0.167   2.242   7.468  0.1117  0.1092  0.8124
 9206SOL    HW139254   0.094   2.183   7.485  1.4927 -1.9272 -0.2685
 9206SOL    HW239255   0.138   2.324   7.508 -1.1597  0.8258 -1.6024
 9207SOL     OW39256   1.544   1.994  13.268 -0.5163  0.6011  0.0487
 9207SOL    HW139257   1.471   2.021  13.323 -0.7389  1.1970 -0.5392
 9207SOL    HW239258   1.621   2.011  13.322  0.0323  0.4109 -0.6753
 9208SOL     OW39259   2.341   4.354   6.744  0.5095 -0.2014  0.2658
 9208SOL    HW139260   2.420   4.309   6.772  1.1203 -1.6629 -3.7996
 9208SOL    HW239261   2.313   4.309   6.665 -0.3680 -1.0084  1.0473
 9209SOL     OW39262   1.904   0.823  13.754 -0.4058  0.1051  0.2120
 9209SOL    HW139263   1.933   0.904  13.712 -0.2042 -1.4746 -2.6927
 9209SOL    HW239264   1.854   0.778  13.685 -0.3413  1.0665 -0.4619
 9210SOL     OW39265   4.367   1.128   4.852 -0.3533  0.0315 -0.3332
 9210SOL    HW139266   4.358   1.188   4.926 -2.7839 -0.1785 -0.4464
 9210SOL    HW239267   4.453   1.097   4.878  0.0212 -0.7105 -2.3974
 9211SOL     OW39268   1.696   0.621   2.823  0.1390 -0.2585 -0.3630
 9211SOL    HW139269   1.635   0.619   2.896 -0.3654  0.5805 -0.7617
 9211SOL    HW239270   1.639   0.603   2.748 -0.6894 -2.8577  0.8865
 9212SOL     OW39271   2.460   2.258  13.739  0.1877 -0.0747  0.0076
 9212SOL    HW139272   2.409   2.307  13.804  0.3677 -2.5835  2.0661
 9212SOL    HW239273   2.383   2.228  13.691 -0.0170  0.1359  0.2054
 9213SOL     OW39274   2.968   1.953   7.306  0.2295  0.1545 -0.5543
 9213SOL    HW139275   2.906   2.000   7.362  0.2690 -0.0224 -0.3627
 9213SOL    HW239276   2.924   1.964   7.222  0.4102  0.9650 -0.5499
 9214SOL     OW39277   4.353   3.150   9.820 -0.0075  0.5559 -0.0968
 9214SOL    HW139278   4.321   3.071   9.776 -1.4756 -0.0274  2.0008
 9214SOL    HW239279   4.277   3.206   9.838 -0.7288  0.7768 -3.8193
 9215SOL     OW39280   2.082   3.037   8.471 -0.6046  0.3057 -0.0553
 9215SOL    HW139281   2.115   3.113   8.520  0.5122 -0.7144  0.7655
 9215SOL    HW239282   2.153   2.973   8.479 -0.1904  0.9201  1.2727
 9216SOL     OW39283   1.268   3.551   6.689 -0.1564 -0.4447 -0.3683
 9216SOL    HW139284   1.261   3.583   6.599 -1.2862 -0.6731 -0.3597
 9216SOL    HW239285   1.184   3.585   6.719 -0.3301 -0.6685 -0.6065
 9217SOL     OW39286   0.559   1.545   5.033 -0.0856 -0.1831 -0.2219
 9217SOL    HW139287   0.533   1.630   4.995 -2.1854 -0.5944  0.3061
 9217SOL    HW239288   0.510   1.483   4.979  0.6352 -0.4683 -0.5490
 9218SOL     OW39289   3.826   4.401  14.112 -0.1634  0.6066 -0.4411
 9218SOL    HW139290   3.752   4.459  14.091  0.5912  1.5688 -0.4529
 9218SOL    HW239291   3.851   4.375  14.023 -0.0371  0.0658 -0.2424
 9219SOL     OW39292   3.020   3.675  12.719 -0.0350 -0.0228 -0.6529
 9219SOL    HW139293   3.066   3.723  12.788  0.5383 -1.0320 -0.3286
 9219SOL    HW239294   3.067   3.714  12.645  0.1307  1.2739  0.1396
 9220SOL     OW39295   0.229   2.397   8.378  0.0301 -0.2479 -0.6093
 9220SOL    HW139296   0.273   2.403   8.463 -1.9449 -2.0970  0.5488
 9220SOL    HW239297   0.258   2.308   8.355  2.2935 -0.1394  1.7872
 9221SOL     OW39298   0.826   2.885   7.392 -0.6275  0.5821 -0.4804
 9221SOL    HW139299   0.834   2.849   7.304  0.0212 -0.9953  0.2206
 9221SOL    HW239300   0.849   2.802   7.435  1.0653  0.2503 -2.0115
 9222SOL     OW39301   2.937   0.157   7.796  0.7502  0.2610 -0.2204
 9222SOL    HW139302   2.987   0.131   7.873 -2.1533 -2.0159  0.8911
 9222SOL    HW239303   2.850   0.134   7.831 -0.1238  0.3010 -2.3585
 9223SOL     OW39304   2.880   1.122   2.291  0.3682 -0.7401 -0.2633
 9223SOL    HW139305   2.799   1.157   2.253  0.7922  0.7224  0.1639
 9223SOL    HW239306   2.913   1.074   2.215  2.2094  0.0702  0.0246
 9224SOL     OW39307   1.680   2.733   7.609 -0.2496 -0.5187 -0.1815
 9224SOL    HW139308   1.758   2.679   7.622 -1.2884 -1.5276  1.6474
 9224SOL    HW239309   1.678   2.786   7.689 -2.7417 -0.3608 -0.3733
 9225SOL     OW39310   0.382   4.559   1.343  0.7563 -0.0346  0.2207
 9225SOL    HW139311   0.417   4.562   1.432  1.2846  2.1088 -0.0438
 9225SOL    HW239312   0.410   4.646   1.312 -0.2384 -0.7418 -2.7227
 9226SOL     OW39313   4.515   3.985   9.838 -0.1134  0.1422  0.0657
 9226SOL    HW139314   4.449   4.051   9.816  0.2436  0.3013 -0.5399
 9226SOL    HW239315   4.470   3.933   9.904 -2.0669  0.4531 -1.0273
 9227SOL     OW39316   0.191   3.650  13.619 -0.5909  0.4478  0.4357
 9227SOL    HW139317   0.216   3.567  13.580  0.9888  1.3113 -0.4152
 9227SOL    HW239318   0.183   3.712  13.546 -1.2762  0.7395  0.7553
 9228SOL     OW39319   0.190   1.442   5.879  0.0628  0.1472 -0.1817
 9228SOL    HW139320   0.242   1.366   5.849 -1.4475 -0.0625 -2.2976
 9228SOL    HW239321   0.189   1.421   5.972  2.7813  1.3974  0.1266
 9229SOL     OW39322   4.169   3.499   6.601 -0.6341 -0.2822 -0.2114
 9229SOL    HW139323   4.258   3.467   6.592 -0.1385  0.6261  1.4646
 9229SOL    HW239324   4.121   3.446   6.536 -0.6919  0.6449 -0.9196
 9230SOL     OW39325   3.201   3.966   4.130  0.5106 -0.0944  0.6425
 9230SOL    HW139326   3.233   3.911   4.059 -2.7992 -2.1182  0.6781
 9230SOL    HW239327   3.281   4.010   4.158  0.8192  0.9912 -1.9496
 9231SOL     OW39328   2.291   0.721  11.561 -0.3686  0.3254 -0.3309
 9231SOL    HW139329   2.320   0.812  11.567  1.0828 -0.0251 -2.0429
 9231SOL    HW239330   2.285   0.702  11.655 -0.4911 -1.7206 -0.7554
 9232SOL     OW39331   1.237   2.443   9.524 -0.3769 -0.4099  0.6220
 9232SOL    HW139332   1.142   2.434   9.520 -0.3584  0.3763 -1.6861
 9232SOL    HW239333   1.260   2.533   9.498 -0.2831 -0.6895 -0.2564
 9233SOL     OW39334   1.673   1.384   6.764 -0.2022  0.1717 -0.6284
 9233SOL    HW139335   1.586   1.420   6.783 -0.3510 -1.4291  1.7149
 9233SOL    HW239336   1.717   1.459   6.724 -0.2409 -0.0192 -1.0324
 9234SOL     OW39337   2.667   4.361   4.143 -0.2154  0.3229  0.1862
 9234SOL    HW139338   2.706   4.324   4.064 -0.3755  1.7687 -0.5550
 9234SOL    HW239339   2.742   4.400   4.188 -0.5642  0.6537  0.4746
 9235SOL     OW39340   4.345   0.724  10.121 -0.0275  0.8067 -0.3797
 9235SOL    HW139341   4.313   0.681  10.200  1.3123  2.6209  1.1726
 9235SOL    HW239342   4.262   0.758  10.089 -0.8945 -0.3174  0.6780
 9236SOL     OW39343   4.370   1.705   8.989  0.1108  0.1375 -0.1396
 9236SOL    HW139344   4.293   1.665   9.031 -0.1738  0.1461 -0.6570
 9236SOL    HW239345   4.337   1.761   8.919 -2.9721 -0.3644  0.8988
 9237SOL     OW39346   1.998   4.629   2.175  0.0523 -0.4360  1.1193
 9237SOL    HW139347   2.092   4.643   2.186  0.0290  0.2127  0.5448
 9237SOL    HW239348   1.977   4.722   2.170  0.1858 -0.3988  1.2683
 9238SOL     OW39349   2.804   2.705   3.225  0.2731 -0.6070 -0.4261
 9238SOL    HW139350   2.848   2.743   3.301 -1.2820  0.7432 -0.1926
 9238SOL    HW239351   2.721   2.754   3.224 -0.3097 -1.5820  0.8885
 9239SOL     OW39352   4.506   1.302   6.251  0.1090 -0.4634  0.2386
 9239SOL    HW139353   4.506   1.397   6.266 -2.7732 -0.3225 -0.6593
 9239SOL    HW239354   4.544   1.270   6.333 -1.9549  1.5035  2.0083
 9240SOL     OW39355   2.239   4.062  12.338 -0.3913 -0.0013 -0.1510
 9240SOL    HW139356   2.194   3.980  12.356 -0.5972 -0.3558 -2.2798
 9240SOL    HW239357   2.177   4.098  12.274 -1.4783 -3.0574 -0.8019
 9241SOL     OW39358   1.926   2.648   4.366 -0.3625 -0.5358 -0.3354
 9241SOL    HW139359   1.853   2.690   4.321 -0.5707 -1.8958 -1.2409
 9241SOL    HW239360   1.966   2.601   4.293  1.2153  0.0703  0.1290
 9242SOL     OW39361   4.037   2.837  14.809 -0.0851  0.1545 -0.0009
 9242SOL    HW139362   3.983   2.778  14.755  0.0823 -0.5721  0.6304
 9242SOL    HW239363   4.005   2.811  14.895 -0.0118  0.8258  0.2279
 9243SOL     OW39364   2.128   3.800   7.438  1.0016  0.1797 -0.3548
 9243SOL    HW139365   2.104   3.880   7.485 -0.8179  0.2509 -1.3820
 9243SOL    HW239366   2.145   3.747   7.516  3.0911 -0.4207 -1.2096
 9244SOL     OW39367   4.174   3.374   3.276 -0.1161 -0.1740 -0.1079
 9244SOL    HW139368   4.256   3.404   3.315 -1.5696  2.0599  1.2731
 9244SOL    HW239369   4.154   3.460   3.239  2.2467  0.7170  0.7139
 9245SOL     OW39370   1.472   2.685   4.485 -0.4807  0.1121 -0.0939
 9245SOL    HW139371   1.482   2.643   4.571  0.7026 -1.0605 -0.7955
 9245SOL    HW239372   1.505   2.610   4.435 -0.4579  1.2471 -1.7623
 9246SOL     OW39373   3.469   2.558   3.653  0.5427  0.5284 -0.4292
 9246SOL    HW139374   3.488   2.633   3.595 -1.1506 -0.1215 -1.8247
 9246SOL    HW239375   3.498   2.480   3.607 -0.9198  0.0056 -0.4557
 9247SOL     OW39376   3.031   2.033  11.181  0.9986  0.3529 -0.1927
 9247SOL    HW139377   3.067   2.069  11.100  0.6905  2.1439  0.4739
 9247SOL    HW239378   3.091   2.061  11.250  1.8854  1.5500 -1.4561
 9248SOL     OW39379   3.937   1.438   3.350  0.1041  0.3830 -0.4312
 9248SOL    HW139380   3.882   1.407   3.278  0.6914 -0.6257 -0.4433
 9248SOL    HW239381   4.019   1.453   3.304  0.1297 -2.9374 -1.4384
 9249SOL     OW39382   1.547   0.532  15.800 -0.8268  0.4623 -1.0322
 9249SOL    HW139383   1.544   0.626  15.784  1.6513  0.5074 -1.2197
 9249SOL    HW239384   1.597   0.533  15.882  2.9368  0.1703 -3.3447
 9250SOL     OW39385   2.735   3.200   7.674 -0.8406  0.6291  0.0252
 9250SOL    HW139386   2.741   3.106   7.658  1.5162  0.9032 -0.6004
 9250SOL    HW239387   2.822   3.218   7.638  0.4034 -4.8248  0.4159
 9251SOL     OW39388   0.246   2.363   5.050 -0.0706 -0.5108 -0.2591
 9251SOL    HW139389   0.340   2.383   5.045 -0.1292 -0.5768 -1.5038
 9251SOL    HW239390   0.243   2.279   5.097  1.2201 -0.6934 -0.5005
 9252SOL     OW39391   2.947   0.667   0.792 -0.3605 -0.8146 -0.4589
 9252SOL    HW139392   2.992   0.750   0.807  0.2448 -1.1987 -0.1481
 9252SOL    HW239393   2.961   0.622   0.875  1.6408  0.0874 -0.2973
 9253SOL     OW39394   4.437   1.209   8.566 -0.5893  0.6256 -1.1960
 9253SOL    HW139395   4.350   1.194   8.602 -1.1954  0.6424 -2.6525
 9253SOL    HW239396   4.438   1.297   8.528  1.3118  0.7619 -0.8045
 9254SOL     OW39397   3.756   0.191   2.455  0.0541  0.0222 -0.5544
 9254SOL    HW139398   3.841   0.231   2.434  0.1288 -0.4089 -1.0817
 9254SOL    HW239399   3.742   0.127   2.386 -1.6740  1.2658 -1.3498
 9255SOL     OW39400   2.787   2.317   4.871  0.2150 -0.2325 -0.1026
 9255SOL    HW139401   2.807   2.227   4.894  0.9911 -0.5947 -2.2412
 9255SOL    HW239402   2.698   2.315   4.835 -0.5006  0.9379  1.5858
 9256SOL     OW39403   1.496   0.128   1.188 -0.1185 -0.2103  0.0130
 9256SOL    HW139404   1.566   0.065   1.209 -1.1779 -0.6330  2.3368
 9256SOL    HW239405   1.488   0.186   1.264 -3.3684 -1.5674  0.7113
 9257SOL     OW39406   1.548   0.115  15.427  0.2134 -0.3145  0.8917
 9257SOL    HW139407   1.569   0.070  15.509  0.8008 -2.2667 -0.3174
 9257SOL    HW239408   1.626   0.163  15.402  0.1302  0.2672  1.7697
 9258SOL     OW39409   1.417   0.985   4.307 -0.4700  0.3501  0.3109
 9258SOL    HW139410   1.449   0.965   4.395  1.6034 -0.9092 -0.7274
 9258SOL    HW239411   1.348   1.050   4.325 -0.7023 -0.3468  1.9274
 9259SOL     OW39412   2.365   0.715   2.276  0.3882  0.0272  0.3124
 9259SOL    HW139413   2.324   0.800   2.292 -0.6127 -0.7270  1.7433
 9259SOL    HW239414   2.455   0.740   2.256 -0.2691  0.9884 -1.4789
 9260SOL     OW39415   4.011   1.792   5.449  0.7298  0.6036  0.1525
 9260SOL    HW139416   4.064   1.763   5.374  1.4420 -0.7403  1.1656
 9260SOL    HW239417   4.091   1.821   5.493 -0.5563  0.7444  2.3806
 9261SOL     OW39418   3.324   2.287  12.037 -0.0493  0.3361 -0.1194
 9261SOL    HW139419   3.239   2.255  12.064  0.3334  0.3168  1.0887
 9261SOL    HW239420   3.336   2.229  11.962 -1.1728  2.8201 -2.2168
 9262SOL     OW39421   0.417   3.112   6.341  0.3473  0.2391  0.0717
 9262SOL    HW139422   0.493   3.154   6.383 -0.2526  2.0688 -0.6634
 9262SOL    HW239423   0.410   3.027   6.385 -0.3707 -0.3109 -1.1098
 9263SOL     OW39424   0.753   0.756   6.124 -0.1978 -0.5685 -0.0872
 9263SOL    HW139425   0.791   0.840   6.099  0.9914 -0.0313  3.6265
 9263SOL    HW239426   0.659   0.767   6.105 -0.5060 -0.5316  1.4624
 9264SOL     OW39427   2.284   1.301   1.090 -0.3525  0.1966  0.5453
 9264SOL    HW139428   2.206   1.347   1.120 -1.2506  0.3697 -2.0910
 9264SOL    HW239429   2.353   1.331   1.150  0.7682  1.6731 -1.4519
 9265SOL     OW39430   3.346   3.189   6.737  0.4465  0.1629  0.2064
 9265SOL    HW139431   3.262   3.235   6.740 -0.0566 -0.5811 -3.1874
 9265SOL    HW239432   3.327   3.097   6.720  1.1127  0.3481 -1.5501
 9266SOL     OW39433   3.866   1.723  11.549 -0.2947 -0.4995  0.6081
 9266SOL    HW139434   3.829   1.636  11.562 -1.9781  0.3004  1.2254
 9266SOL    HW239435   3.785   1.774  11.555 -0.0533  0.0067 -0.3883
 9267SOL     OW39436   2.743   0.411   2.880 -0.2098 -0.0702  0.1710
 9267SOL    HW139437   2.785   0.474   2.822  1.1740 -1.3150 -0.1797
 9267SOL    HW239438   2.804   0.409   2.954  2.8014  1.2507 -2.2949
 9268SOL     OW39439   3.212   0.196   7.683 -0.0977 -0.4399  0.1360
 9268SOL    HW139440   3.227   0.288   7.708 -1.4565 -0.4729  1.0497
 9268SOL    HW239441   3.134   0.175   7.734 -0.0719 -1.1425 -0.1138
 9269SOL     OW39442   1.444   1.841   1.449  0.2123  0.3502 -0.7550
 9269SOL    HW139443   1.413   1.786   1.521  2.3865 -0.7109 -0.6174
 9269SOL    HW239444   1.439   1.930   1.486 -2.5358 -1.6247  3.5827
 9270SOL     OW39445   3.411   2.292  11.167 -0.2218  0.0227  1.0083
 9270SOL    HW139446   3.397   2.379  11.204 -2.6868 -0.1312  0.4284
 9270SOL    HW239447   3.383   2.234  11.238  0.0385  0.7559  1.7051
 9271SOL     OW39448   3.751   1.715   6.091 -0.0392 -0.0174 -0.3431
 9271SOL    HW139449   3.751   1.808   6.116  0.3198  0.0977 -0.7753
 9271SOL    HW239450   3.673   1.709   6.036 -0.1212 -0.2036 -0.2037
 9272SOL     OW39451   1.090   2.169  11.445  0.1554 -0.1681  0.7072
 9272SOL    HW139452   1.168   2.214  11.411  2.6039 -3.1797  2.2846
 9272SOL    HW239453   1.110   2.162  11.539  0.4754 -1.2957  0.5458
 9273SOL     OW39454   4.732   3.844   5.916 -0.1054  0.3000 -0.3631
 9273SOL    HW139455   0.013   3.849   5.822  0.4357 -1.6445 -0.3534
 9273SOL    HW239456   0.068   3.794   5.950 -1.7060  0.2032  2.9132
 9274SOL     OW39457   2.951   3.541   9.315  0.0167  0.3862 -0.4988
 9274SOL    HW139458   2.908   3.479   9.255 -2.3256  0.1635  1.3863
 9274SOL    HW239459   3.011   3.491   9.371 -1.5530 -1.1964 -0.2225
 9275SOL     OW39460   0.818   0.255   8.186 -0.0679 -0.0349 -0.2933
 9275SOL    HW139461   0.785   0.268   8.097 -1.2828  0.2131  0.1893
 9275SOL    HW239462   0.874   0.179   8.169 -0.0899 -0.7272  2.6855
 9276SOL     OW39463   3.323   1.880   9.347  0.6085  0.4073  0.3535
 9276SOL    HW139464   3.286   1.917   9.428  0.6680 -1.2262  1.1249
 9276SOL    HW239465   3.378   1.810   9.382 -2.9277 -1.2697  2.6450
 9277SOL     OW39466   4.674   3.783  12.688 -0.0431  0.0415 -0.1332
 9277SOL    HW139467   0.020   3.827  12.704  0.8794 -2.0916  0.9012
 9277SOL    HW239468   4.673   3.728  12.767  0.3560  1.6689  1.0011
 9278SOL     OW39469   1.303   3.742   7.519  0.1328 -0.4981 -0.0960
 9278SOL    HW139470   1.381   3.798   7.520  1.3132 -2.1460 -1.2251
 9278SOL    HW239471   1.351   3.661   7.505  0.7122 -0.0888 -0.4815
 9279SOL     OW39472   2.479   4.048   4.341 -0.4144  0.0437 -0.3777
 9279SOL    HW139473   2.559   4.064   4.390  0.6172 -2.3382 -1.2844
 9279SOL    HW239474   2.458   3.956   4.358 -1.6771  0.3309 -0.3331
 9280SOL     OW39475   1.301   1.131   2.496  0.2601  0.0599 -0.1649
 9280SOL    HW139476   1.312   1.063   2.431 -0.8871 -0.2450 -0.0367
 9280SOL    HW239477   1.360   1.196   2.457  2.2585 -0.5688  1.7810
 9281SOL     OW39478   1.016   1.940   7.804 -0.5556  0.1546  0.3435
 9281SOL    HW139479   1.036   1.925   7.896  4.0479 -1.1072 -0.8947
 9281SOL    HW239480   1.062   2.022   7.784 -0.2224 -0.0203  0.4009
 9282SOL     OW39481   1.747   3.817  10.663  0.3791 -0.7194  0.1879
 9282SOL    HW139482   1.711   3.864  10.587  1.7037 -2.2930 -1.4268
 9282SOL    HW239483   1.791   3.744  10.618  0.7060 -1.6560  2.0555
 9283SOL     OW39484   0.942   1.120   4.263  0.3591 -0.5298 -0.2390
 9283SOL    HW139485   0.882   1.184   4.225  0.0760 -1.3184 -1.1033
 9283SOL    HW239486   0.886   1.043   4.270  1.2062 -1.3135 -2.1897
 9284SOL     OW39487   2.616   3.262   9.581  0.7799  0.5199  0.3714
 9284SOL    HW139488   2.541   3.322   9.572  0.4378  0.0548  0.1335
 9284SOL    HW239489   2.692   3.320   9.570  0.0585  1.0722 -1.8168
 9285SOL     OW39490   0.188   1.085  14.485 -0.2814  0.0197  0.1515
 9285SOL    HW139491   0.253   1.070  14.417  1.5734  2.6064  1.3372
 9285SOL    HW239492   0.103   1.077  14.442 -0.0466 -0.3369 -0.2398
 9286SOL     OW39493   2.938   4.005  10.371  0.3008 -0.4158  0.0424
 9286SOL    HW139494   2.886   4.004  10.291  0.8110 -0.0099 -0.2853
 9286SOL    HW239495   2.910   4.086  10.413  0.5813 -0.1300 -0.3322
 9287SOL     OW39496   0.186   1.657   8.762 -0.5891 -0.1786 -0.4135
 9287SOL    HW139497   0.226   1.717   8.824  0.0504  0.2304 -1.2174
 9287SOL    HW239498   0.203   1.573   8.805  1.1443 -0.4004 -1.5276
 9288SOL     OW39499   1.392   1.761  15.143 -0.3128 -0.2695 -0.0209
 9288SOL    HW139500   1.433   1.726  15.222 -0.3234 -1.8056 -0.7020
 9288SOL    HW239501   1.471   1.786  15.095 -0.0466  0.1605  0.6361
 9289SOL     OW39502   3.007   2.428   4.504  0.3779  0.5654  0.1378
 9289SOL    HW139503   3.026   2.410   4.412 -1.6308  0.6648 -0.2991
 9289SOL    HW239504   3.084   2.475   4.534  0.7107  1.6433 -2.4356
 9290SOL     OW39505   0.804   2.403  12.116 -0.3556  0.0800  0.5030
 9290SOL    HW139506   0.864   2.440  12.051  2.7207 -2.8793  1.6751
 9290SOL    HW239507   0.790   2.313  12.087  2.8075 -0.3805  0.3619
 9291SOL     OW39508   1.828   1.751   2.369  0.6263 -0.1243 -0.3727
 9291SOL    HW139509   1.744   1.789   2.342 -0.3429 -3.1963 -1.6399
 9291SOL    HW239510   1.823   1.787   2.457  1.2094 -0.2628 -0.2858
 9292SOL     OW39511   3.615   0.042  15.540 -0.3478 -0.0831  0.4552
 9292SOL    HW139512   3.694   4.737  15.507  0.3787 -0.2846  2.4686
 9292SOL    HW239513   3.601   0.003  15.627 -0.6570 -0.4665  0.2335
 9293SOL     OW39514   1.328   1.122   1.874  0.2091  0.2228  0.4204
 9293SOL    HW139515   1.308   1.118   1.967 -0.9884 -2.8878  0.0257
 9293SOL    HW239516   1.423   1.118   1.882 -0.0004 -2.8507  1.0259
 9294SOL     OW39517   4.019   4.179   1.355  0.9637 -0.4526  0.2949
 9294SOL    HW139518   3.954   4.172   1.285  1.4466 -0.3360 -0.1637
 9294SOL    HW239519   4.056   4.257   1.313 -0.6811 -0.1505 -0.6094
 9295SOL     OW39520   2.815   2.012   9.821  0.3027 -0.1186  0.1008
 9295SOL    HW139521   2.858   1.979   9.742 -0.2207  0.0371 -0.2537
 9295SOL    HW239522   2.799   2.105   9.804 -1.5672 -0.4926 -0.2806
 9296SOL     OW39523   2.725   1.329   9.005  0.0487 -0.5936  0.3022
 9296SOL    HW139524   2.781   1.406   9.011 -1.2782  0.3782  0.0607
 9296SOL    HW239525   2.753   1.283   9.084 -2.3774  0.4884  1.7951
 9297SOL     OW39526   4.139   3.038   2.845  0.5111 -0.8121  0.3674
 9297SOL    HW139527   4.161   3.107   2.907 -0.7373  2.1984 -2.4925
 9297SOL    HW239528   4.164   2.963   2.898 -1.0817 -0.9569  0.8931
 9298SOL     OW39529   2.043   2.372  10.408 -0.2454  1.0005 -0.2099
 9298SOL    HW139530   2.037   2.462  10.441  0.5729  0.7618  0.5725
 9298SOL    HW239531   2.121   2.349  10.457 -0.1064 -0.2838 -1.0600
 9299SOL     OW39532   0.224   2.550  14.546  0.5797  0.2518 -0.6340
 9299SOL    HW139533   0.254   2.578  14.632  0.4137  0.5549 -0.6770
 9299SOL    HW239534   0.147   2.499  14.571 -0.1887  0.7042 -2.0750
 9300SOL     OW39535   4.028   4.326   8.735  0.4477  0.2045 -0.5735
 9300SOL    HW139536   4.045   4.314   8.828 -1.5161  0.2955 -0.2097
 9300SOL    HW239537   4.107   4.370   8.702 -0.4261  0.8280 -1.8259
 9301SOL     OW39538   2.288   3.102   4.949 -0.0289 -0.0248  0.5590
 9301SOL    HW139539   2.333   3.138   4.873 -1.5925  2.5820  0.8735
 9301SOL    HW239540   2.240   3.030   4.908  1.6013  0.6644 -2.5831
 9302SOL     OW39541   3.224   1.901   6.865 -0.1962 -0.8651 -0.6238
 9302SOL    HW139542   3.174   1.968   6.911  3.0373  0.6238  0.6719
 9302SOL    HW239543   3.225   1.932   6.774 -1.3251 -2.2218 -1.1088
 9303SOL     OW39544   0.797   3.975   4.746 -0.0946  0.1047 -0.1488
 9303SOL    HW139545   0.764   3.953   4.834  0.9853  1.4816  0.6105
 9303SOL    HW239546   0.852   4.050   4.769 -1.6540  1.3782 -0.5255
 9304SOL     OW39547   1.304   2.299  16.023  0.5605  0.3096  0.2345
 9304SOL    HW139548   1.283   2.316  16.115  1.9431  0.7545  0.4704
 9304SOL    HW239549   1.302   2.389  15.991 -0.5168  0.3980  0.5481
 9305SOL     OW39550   0.187   3.436   6.141  0.4937 -0.7382  0.4797
 9305SOL    HW139551   0.207   3.527   6.120  3.4860 -1.8259 -1.4367
 9305SOL    HW239552   0.273   3.397   6.130  1.1351 -0.3126  4.0405
 9306SOL     OW39553   1.944   4.081  11.406  0.8578  0.1767 -0.5477
 9306SOL    HW139554   1.954   4.094  11.312  3.3859  0.7897 -0.1871
 9306SOL    HW239555   1.916   4.169  11.433 -0.2113  0.0223 -1.1589
 9307SOL     OW39556   1.716   1.380   4.603  0.6497  0.3746  0.1284
 9307SOL    HW139557   1.748   1.290   4.614 -2.5977 -0.8668 -0.4952
 9307SOL    HW239558   1.631   1.358   4.565 -0.4639 -0.5813  3.1653
 9308SOL     OW39559   2.308   2.008   4.404  0.0664 -0.1526  0.0054
 9308SOL    HW139560   2.241   1.942   4.424 -0.2660  0.3636  0.5884
 9308SOL    HW239561   2.255   2.087   4.416 -1.6468 -1.8399  3.3313
 9309SOL     OW39562   1.234   4.065   8.851 -0.3243  0.2992 -0.6265
 9309SOL    HW139563   1.271   4.152   8.865 -0.0618  0.3893 -1.8796
 9309SOL    HW239564   1.151   4.074   8.898  1.4447  0.8353  2.4243
 9310SOL     OW39565   2.792   2.263   9.667  0.2792  0.2412 -0.2642
 9310SOL    HW139566   2.838   2.267   9.583  1.9558  0.3681  0.6617
 9310SOL    HW239567   2.744   2.346   9.663  0.0753  0.1691  0.6377
 9311SOL     OW39568   2.412   1.936   5.049 -0.0111 -0.2302  0.1547
 9311SOL    HW139569   2.392   1.971   5.136  1.1144  1.5381 -0.3123
 9311SOL    HW239570   2.485   1.875   5.058  2.3923  2.5659 -0.7100
 9312SOL     OW39571   1.468   1.121  11.859  0.1364 -0.0021  0.7002
 9312SOL    HW139572   1.386   1.162  11.888 -0.5728  0.4625 -1.9746
 9312SOL    HW239573   1.534   1.181  11.896  0.3830 -0.5112  1.0853
 9313SOL     OW39574   2.525   4.345   0.982  0.0558 -0.2450 -0.0790
 9313SOL    HW139575   2.555   4.380   1.066 -0.4174 -0.0477  0.0033
 9313SOL    HW239576   2.483   4.263   1.009  1.2246 -1.7185 -2.7122
 9314SOL     OW39577   4.627   2.126  12.492 -0.3328 -0.2211 -0.4250
 9314SOL    HW139578   4.668   2.049  12.451 -1.7516 -2.4526  2.3873
 9314SOL    HW239579   4.539   2.130  12.456  0.0790  2.8802 -1.0676
 9315SOL     OW39580   1.074   3.151   3.315 -0.0552  0.0303  0.4426
 9315SOL    HW139581   1.133   3.120   3.246 -1.1755  0.2536 -0.6054
 9315SOL    HW239582   1.064   3.245   3.298 -2.3661 -0.6620 -1.9493
 9316SOL     OW39583   4.626   3.521   2.218 -0.2755 -0.6027  0.3920
 9316SOL    HW139584   4.686   3.509   2.292  1.8083  1.5640 -0.9264
 9316SOL    HW239585   4.541   3.498   2.253 -0.4153 -1.3577 -0.4400
 9317SOL     OW39586   3.040   2.883   4.300 -0.0397 -0.3990  0.0580
 9317SOL    HW139587   2.977   2.811   4.294 -1.6694  1.0611 -0.1555
 9317SOL    HW239588   3.089   2.862   4.379 -1.5266 -1.2600  0.7608
 9318SOL     OW39589   2.078   1.824   0.177 -0.2032 -0.1877 -0.0704
 9318SOL    HW139590   2.054   1.742   0.220 -1.6475  1.3119  1.9960
 9318SOL    HW239591   2.113   1.794   0.093  0.6970 -3.0498  1.3228
 9319SOL     OW39592   2.902   0.339   9.271 -0.2576  0.3643  0.1527
 9319SOL    HW139593   2.925   0.280   9.343 -2.0774  0.6704  0.9811
 9319SOL    HW239594   2.809   0.326   9.254 -0.3469  1.8932 -0.5147
 9320SOL     OW39595   1.002   0.049   8.155 -0.3533  0.3714 -0.0815
 9320SOL    HW139596   1.086   0.005   8.145 -0.4270  0.4259 -0.9050
 9320SOL    HW239597   0.956   0.017   8.078  1.2530 -1.0881 -0.4344
 9321SOL     OW39598   3.402   3.315  15.192  0.0293  0.5633 -0.0414
 9321SOL    HW139599   3.363   3.314  15.105  2.5137 -0.0518 -1.1559
 9321SOL    HW239600   3.374   3.234  15.234  1.2520 -0.8614 -1.9543
 9322SOL     OW39601   3.803   4.278   8.575 -0.2045  0.3207  0.3602
 9322SOL    HW139602   3.889   4.270   8.617  0.4490  1.0205 -0.8466
 9322SOL    HW239603   3.750   4.323   8.642  1.7456 -1.3820  3.0453
 9323SOL     OW39604   1.744   3.792  12.078 -0.1855  0.1125 -1.0629
 9323SOL    HW139605   1.732   3.787  12.172 -0.9927 -1.6697 -1.2625
 9323SOL    HW239606   1.718   3.882  12.057 -1.4173 -0.3613 -1.6185
 9324SOL     OW39607   0.807   3.541   4.829 -0.3981  0.1166 -0.1934
 9324SOL    HW139608   0.806   3.622   4.778  0.2913 -0.6787 -1.4572
 9324SOL    HW239609   0.751   3.482   4.779  0.1782  0.2583 -1.0091
 9325SOL     OW39610   1.462   3.185   7.802 -0.1011 -0.2685  0.3122
 9325SOL    HW139611   1.374   3.151   7.783 -1.2050  2.5192  0.4651
 9325SOL    HW239612   1.500   3.104   7.836 -0.8892 -1.5659 -1.8745
 9326SOL     OW39613   2.207   4.468   5.115  0.0092  0.2255 -0.2518
 9326SOL    HW139614   2.229   4.487   5.206 -2.1595  1.6583 -0.0362
 9326SOL    HW239615   2.143   4.398   5.130  0.3411 -0.3833 -1.5824
 9327SOL     OW39616   4.666   0.089   8.022  0.7480  0.0308  0.7072
 9327SOL    HW139617   4.640   0.181   8.016 -1.7744 -0.7027  0.3232
 9327SOL    HW239618   4.623   0.046   7.947 -1.2124 -0.4852  2.1349
 9328SOL     OW39619   2.612   1.187   8.230  0.3544 -0.0882 -0.2170
 9328SOL    HW139620   2.646   1.205   8.318  0.6675 -0.1475 -0.3274
 9328SOL    HW239621   2.678   1.232   8.177  0.2396 -0.5390 -0.7326
 9329SOL     OW39622   3.543   2.755   6.977 -0.9447 -0.1923 -0.1996
 9329SOL    HW139623   3.598   2.824   7.013  0.2003 -1.5622  0.7024
 9329SOL    HW239624   3.458   2.775   7.014 -1.2908  1.2234 -1.7362
 9330SOL     OW39625   1.750   0.773   3.732  0.1309 -0.5324  0.2732
 9330SOL    HW139626   1.784   0.705   3.674  0.2739 -0.6531  0.5019
 9330SOL    HW239627   1.728   0.723   3.810  0.0293 -0.7371  0.1158
 9331SOL     OW39628   1.524   3.063  14.392 -0.0545  0.1118  0.1183
 9331SOL    HW139629   1.495   3.012  14.317 -0.0722  2.5823 -1.5552
 9331SOL    HW239630   1.453   3.118  14.424  0.5541  0.7919  0.3067
 9332SOL     OW39631   2.499   1.960   3.868 -0.0164 -0.1054  0.4172
 9332SOL    HW139632   2.444   2.030   3.904  0.1277 -0.1523  0.7289
 9332SOL    HW239633   2.529   1.920   3.950  0.2241 -1.7548 -0.4633
 9333SOL     OW39634   2.308   0.752   5.667 -0.6094  0.8539  0.1185
 9333SOL    HW139635   2.244   0.811   5.707 -0.0829  0.8840  0.9148
 9333SOL    HW239636   2.353   0.810   5.605  0.4917  0.1819  0.2925
 9334SOL     OW39637   1.630   3.384   9.450  0.6376 -0.3488  0.2719
 9334SOL    HW139638   1.667   3.467   9.420  1.2432 -1.2175 -1.3890
 9334SOL    HW239639   1.709   3.332   9.466  0.1800 -0.4198  2.3528
 9335SOL     OW39640   1.490   0.099   8.591 -0.2497 -0.7757 -0.5015
 9335SOL    HW139641   1.458   0.086   8.680  2.7812  2.4915  1.0731
 9335SOL    HW239642   1.563   0.161   8.598 -0.4232 -0.5614 -0.5835
 9336SOL     OW39643   2.881   1.195  17.187  0.5589 -0.1824  0.1993
 9336SOL    HW139644   2.856   1.244  17.266 -1.8619 -1.5314  0.2609
 9336SOL    HW239645   2.905   1.108  17.216 -0.6939 -0.9404 -1.0510
 9337SOL     OW39646   1.042   4.067   5.416  0.0652  0.4379 -0.2111
 9337SOL    HW139647   1.079   4.153   5.436  0.9346 -0.2461  1.1530
 9337SOL    HW239648   1.119   4.015   5.389 -0.7566 -0.4056 -0.9363
 9338SOL     OW39649   0.902   2.481   8.659 -0.5754  0.2059  0.4104
 9338SOL    HW139650   0.944   2.397   8.640 -0.7535  0.2761 -0.2758
 9338SOL    HW239651   0.958   2.535   8.603 -0.0262 -1.3319 -0.5164
 9339SOL     OW39652   4.464   4.165  15.866  0.0947 -0.0984  0.2201
 9339SOL    HW139653   4.534   4.230  15.862  0.1944 -0.1629  0.9522
 9339SOL    HW239654   4.388   4.213  15.833 -0.8000  1.1657  4.1208
 9340SOL     OW39655   0.784   3.915   0.461 -0.1287 -0.8064 -0.0387
 9340SOL    HW139656   0.836   3.996   0.457 -2.5509  0.7998  0.8775
 9340SOL    HW239657   0.692   3.939   0.453 -0.3402 -0.8710  2.0688
 9341SOL     OW39658   2.364   0.195   2.567 -0.2725 -0.2733  0.2910
 9341SOL    HW139659   2.286   0.174   2.516  0.9732  2.7100 -2.8810
 9341SOL    HW239660   2.345   0.149   2.649  0.0526 -0.5278  0.2282
 9342SOL     OW39661   2.907   4.660   6.537  0.4115 -0.7575 -0.7259
 9342SOL    HW139662   2.939   4.587   6.589  1.0384  1.7593  2.3824
 9342SOL    HW239663   2.976   4.726   6.542  0.2390 -0.5966 -0.4887
 9343SOL     OW39664   1.026   3.940   6.838  0.2578 -0.3610  0.8120
 9343SOL    HW139665   1.093   3.978   6.894  0.7604  1.0862 -0.7584
 9343SOL    HW239666   0.964   4.013   6.847  0.7784  0.3254 -1.0231
 9344SOL     OW39667   2.761   1.854   8.339 -0.6799  0.3304  0.4752
 9344SOL    HW139668   2.686   1.912   8.347  0.6210  2.0317  0.5293
 9344SOL    HW239669   2.724   1.784   8.286  0.4859  0.9555 -1.1712
 9345SOL     OW39670   0.641   2.760   7.756  0.1942  0.6181  0.0728
 9345SOL    HW139671   0.626   2.809   7.837  1.8614 -0.1718  0.8587
 9345SOL    HW239672   0.614   2.676   7.794 -1.0863  1.4157  0.9150
 9346SOL     OW39673   0.855   1.851   8.583 -1.0422  0.2210  0.0095
 9346SOL    HW139674   0.935   1.827   8.629  1.0172  2.1489 -2.6258
 9346SOL    HW239675   0.802   1.773   8.604 -0.7824  0.5751  1.9951
 9347SOL     OW39676   3.114   4.220  10.672 -0.0687 -0.1571  0.8389
 9347SOL    HW139677   3.163   4.296  10.703 -0.3728  0.6963 -0.7377
 9347SOL    HW239678   3.039   4.228  10.732 -1.0177 -1.4835 -0.1564
 9348SOL     OW39679   4.681   0.657   7.656  0.1425  0.3256  0.4421
 9348SOL    HW139680   4.586   0.664   7.658 -0.0092 -1.7168  0.1922
 9348SOL    HW239681   4.679   0.565   7.683  2.4510  0.6009  1.6456
 9349SOL     OW39682   3.659   0.774  15.666 -0.2581  0.1388 -0.3722
 9349SOL    HW139683   3.638   0.807  15.579 -2.2537 -3.9953 -1.4814
 9349SOL    HW239684   3.690   0.683  15.659 -1.3479 -0.3129  0.6130
 9350SOL     OW39685   2.512   1.776   2.521  0.0920  0.2042 -0.5781
 9350SOL    HW139686   2.474   1.789   2.608  0.8415  1.2179 -0.3968
 9350SOL    HW239687   2.554   1.694   2.549 -0.6144  1.0854  3.0922
 9351SOL     OW39688   3.285   4.623  14.501  0.3158  0.1525 -0.1971
 9351SOL    HW139689   3.264   4.696  14.558 -0.6520  0.0361 -0.4077
 9351SOL    HW239690   3.302   4.682  14.427  0.7082  0.4702  0.1450
 9352SOL     OW39691   1.633   2.252   0.966 -0.1943  0.2224 -0.6128
 9352SOL    HW139692   1.665   2.333   1.006  0.7173 -0.1326 -0.6281
 9352SOL    HW239693   1.584   2.285   0.891  0.2404  1.0211 -0.5528
 9353SOL     OW39694   2.393   4.133   9.265 -0.3444  0.5936 -0.5758
 9353SOL    HW139695   2.362   4.063   9.209 -2.1156  0.0317  1.0855
 9353SOL    HW239696   2.463   4.081   9.305  0.9083  1.7908 -1.2221
 9354SOL     OW39697   0.913   3.458  11.634  0.3132 -0.5066 -0.0798
 9354SOL    HW139698   0.914   3.548  11.600  0.2587 -0.2931  0.4829
 9354SOL    HW239699   0.830   3.416  11.610  0.2958 -1.5848  1.8629
 9355SOL     OW39700   0.423   0.962  17.541  0.0158  0.3352  0.9799
 9355SOL    HW139701   0.505   0.931  17.578 -1.2235 -0.6768  2.8477
 9355SOL    HW239702   0.403   0.881  17.494 -0.2408  0.7494  0.3736
 9356SOL     OW39703   0.749   0.520   8.926  0.8055  0.7919 -0.0153
 9356SOL    HW139704   0.834   0.483   8.906  0.6513  0.5456 -0.2050
 9356SOL    HW239705   0.717   0.476   9.005  2.5539 -0.4263  0.0057
 9357SOL     OW39706   2.005   4.241   7.820  0.3573  0.0647 -0.8264
 9357SOL    HW139707   1.959   4.209   7.743 -0.1614 -1.3220  0.0618
 9357SOL    HW239708   1.998   4.167   7.881  0.3377  0.3537 -0.4753
 9358SOL     OW39709   1.589   0.888   6.239  0.2840 -0.2363 -0.1833
 9358SOL    HW139710   1.647   0.822   6.201 -1.1461 -1.9259  0.6311
 9358SOL    HW239711   1.516   0.832   6.264  0.0224  1.0361  1.8562
 9359SOL     OW39712   2.021   3.408   3.791  0.5320 -0.2206 -0.2487
 9359SOL    HW139713   2.106   3.450   3.804 -0.3932  1.5774  0.0354
 9359SOL    HW239714   1.972   3.490   3.795  1.5896  0.4769 -1.7879
 9360SOL     OW39715   4.678   0.561   4.655  0.1103 -0.1175 -0.1270
 9360SOL    HW139716   4.690   0.481   4.707  1.2947  0.9350  1.2504
 9360SOL    HW239717   4.583   0.565   4.647  0.2977 -2.5669 -3.6937
 9361SOL     OW39718   0.094   1.444   5.152  0.1762  0.6977 -0.0393
 9361SOL    HW139719   0.118   1.391   5.076  1.1657 -0.9594  1.4199
 9361SOL    HW239720   0.152   1.520   5.140  2.4527 -1.0405 -0.0573
 9362SOL     OW39721   1.844   4.378   1.191 -0.0447  0.0938  0.5642
 9362SOL    HW139722   1.926   4.417   1.219  1.6040 -0.8860 -2.8629
 9362SOL    HW239723   1.836   4.289   1.226 -0.2562 -1.6585 -3.8631
 9363SOL     OW39724   0.705   1.236   1.396  0.5483  0.2856  0.6900
 9363SOL    HW139725   0.791   1.238   1.439 -0.4144 -0.7512  2.6022
 9363SOL    HW239726   0.666   1.318   1.428  0.4629  0.0855  1.0916
 9364SOL     OW39727   0.476   2.362   2.133  0.1525 -0.3305 -0.4419
 9364SOL    HW139728   0.412   2.293   2.121 -0.3896  0.4486 -2.0976
 9364SOL    HW239729   0.431   2.417   2.198  1.2527 -1.5108  1.3025
 9365SOL     OW39730   0.450   2.349  16.237  0.5850  0.0180 -0.0113
 9365SOL    HW139731   0.455   2.347  16.333  0.4196  0.2474  0.0035
 9365SOL    HW239732   0.468   2.438  16.207  1.3112 -0.7537 -1.8370
 9366SOL     OW39733   2.328   0.282   6.005 -0.3556 -0.1634  0.2615
 9366SOL    HW139734   2.301   0.368   5.971 -0.9852 -0.0285  1.0925
 9366SOL    HW239735   2.418   0.285   6.038 -0.4532  1.4377  0.4105
 9367SOL     OW39736   2.779   4.130   5.670  0.7022  0.3229  0.4354
 9367SOL    HW139737   2.817   4.169   5.748  1.6165 -2.0516  1.1594
 9367SOL    HW239738   2.727   4.068   5.720  0.0883  1.9735  1.8321
 9368SOL     OW39739   0.465   4.115   4.853 -0.0837  0.1204 -0.2728
 9368SOL    HW139740   0.540   4.165   4.885  0.1124  0.1119 -0.7189
 9368SOL    HW239741   0.407   4.191   4.846  0.8459  0.8330 -0.1821
 9369SOL     OW39742   0.124   3.085  12.098  0.2642 -0.0885 -0.2829
 9369SOL    HW139743   0.133   3.029  12.175 -0.5566  0.0180 -0.1051
 9369SOL    HW239744   0.113   3.022  12.027 -0.1761  0.7525 -0.9659
 9370SOL     OW39745   4.692   3.018   7.653  0.0231  0.0870 -0.4056
 9370SOL    HW139746   0.045   3.027   7.680  0.3903 -2.6276 -0.6606
 9370SOL    HW239747   4.645   3.036   7.734 -1.3476 -3.4386 -0.3894
 9371SOL     OW39748   2.272   3.464   5.538 -0.0366  0.0941  0.0243
 9371SOL    HW139749   2.268   3.369   5.533 -1.3529  0.2248 -1.6286
 9371SOL    HW239750   2.214   3.500   5.471 -0.0930  0.6074  0.3491
 9372SOL     OW39751   2.597   4.341  15.157 -0.4664 -0.0200 -0.3748
 9372SOL    HW139752   2.590   4.249  15.132 -0.7828 -0.0278 -0.2510
 9372SOL    HW239753   2.518   4.365  15.109 -0.0174 -1.0408 -1.6236
 9373SOL     OW39754   2.236   2.780  17.533  0.0535 -0.6969 -0.3845
 9373SOL    HW139755   2.222   2.693  17.497 -2.4249  0.5641 -2.4343
 9373SOL    HW239756   2.328   2.784  17.557 -0.1828  0.1456  0.3817
 9374SOL     OW39757   1.863   2.920   4.569 -0.3925  0.3744 -0.2847
 9374SOL    HW139758   1.814   2.868   4.504 -0.7843  1.2323 -0.6765
 9374SOL    HW239759   1.912   2.972   4.505  0.4401 -0.3214 -0.2175
 9375SOL     OW39760   4.207   0.494   2.251  0.1484  0.4137 -0.3554
 9375SOL    HW139761   4.274   0.554   2.217  1.6840 -0.4399  1.1377
 9375SOL    HW239762   4.160   0.544   2.318  0.1712 -2.2282  1.6218
 9376SOL     OW39763   4.719   2.017   2.829  0.2802  0.3689 -0.1699
 9376SOL    HW139764   4.659   1.988   2.897  0.6957 -1.0869 -0.4114
 9376SOL    HW239765   4.665   2.019   2.750  0.9632  1.5356 -0.6111
 9377SOL     OW39766   1.312   2.421  15.164 -0.0752 -0.1376  0.7655
 9377SOL    HW139767   1.337   2.483  15.095  0.0008 -0.3035  0.6425
 9377SOL    HW239768   1.265   2.473  15.229 -0.3256  1.8726 -1.0131
 9378SOL     OW39769   2.402   3.690   6.309  0.1893 -0.6722 -0.2497
 9378SOL    HW139770   2.386   3.745   6.385 -0.2471 -3.2944  1.5315
 9378SOL    HW239771   2.321   3.691   6.258 -0.2577 -1.9506  0.4428
 9379SOL     OW39772   3.755   0.144  14.555  0.1307 -0.0712 -0.2851
 9379SOL    HW139773   3.697   0.071  14.535 -1.3452  1.0728 -0.1594
 9379SOL    HW239774   3.784   0.120  14.643 -0.4954 -0.0500 -0.0785
 9380SOL     OW39775   4.054   3.746   2.696 -0.4516  0.2202  0.2090
 9380SOL    HW139776   4.030   3.686   2.766  0.9993  2.2002  2.3892
 9380SOL    HW239777   4.028   3.688   2.625  1.0860  1.2997 -1.2463
 9381SOL     OW39778   3.364   2.758   9.121 -0.2266 -0.1694  0.0917
 9381SOL    HW139779   3.418   2.751   9.041 -0.2779 -2.5145  0.2518
 9381SOL    HW239780   3.414   2.815   9.180 -1.3379  1.9801 -1.0480
 9382SOL     OW39781   1.466   0.497   0.680 -0.8563 -0.3346  0.2272
 9382SOL    HW139782   1.434   0.473   0.767 -2.6648  1.4249  0.0418
 9382SOL    HW239783   1.405   0.566   0.654  1.5691  1.7223 -0.0118
 9383SOL     OW39784   3.920   0.003   3.537 -0.0471 -0.5784 -0.3592
 9383SOL    HW139785   3.882   4.713   3.619 -0.2560 -1.3329 -0.7156
 9383SOL    HW239786   3.844   0.018   3.481  0.9707 -0.7188 -1.7965
 9384SOL     OW39787   0.316   1.455  16.950 -0.3028 -0.0420  0.0206
 9384SOL    HW139788   0.323   1.502  16.867  0.2121 -1.7253 -0.8956
 9384SOL    HW239789   0.221   1.465  16.957 -0.4595  0.5957 -2.9388
 9385SOL     OW39790   2.217   0.032  15.016 -0.4551  0.0038  0.0729
 9385SOL    HW139791   2.210   0.127  15.020  0.7782  0.1019 -0.0432
 9385SOL    HW239792   2.141   0.019  14.959 -1.6691 -1.3307  2.0021
 9386SOL     OW39793   0.607   3.386   3.686  0.0395  0.6471  0.1894
 9386SOL    HW139794   0.684   3.349   3.643  0.0734 -0.1254  0.9233
 9386SOL    HW239795   0.568   3.306   3.720  0.3424 -0.6618 -2.6228
 9387SOL     OW39796   2.180   3.550   9.689  0.1599 -0.2420 -0.4232
 9387SOL    HW139797   2.087   3.572   9.679 -0.5816 -2.7969  0.8665
 9387SOL    HW239798   2.161   3.458   9.707 -1.5362  0.3572  0.8086
 9388SOL     OW39799   4.731   1.447   7.970 -0.1781 -0.6146  0.1130
 9388SOL    HW139800   0.053   1.500   7.918 -0.4757 -0.7316 -0.3625
 9388SOL    HW239801   0.025   1.358   7.987 -0.2427 -0.6287  0.1610
 9389SOL     OW39802   1.797   0.027   2.593 -0.1515  0.0619 -1.0303
 9389SOL    HW139803   1.792   4.696   2.527 -0.4121 -0.1742 -0.7567
 9389SOL    HW239804   1.886   0.055   2.570 -0.3048  0.3211 -1.3235
 9390SOL     OW39805   1.505   0.692  12.328  0.6178  0.4398 -0.3416
 9390SOL    HW139806   1.434   0.748  12.296 -1.8623 -0.6917  3.1311
 9390SOL    HW239807   1.557   0.680  12.248  0.2772 -1.7374 -0.2360
 9391SOL     OW39808   0.600   0.884  14.403  0.1167 -0.4998 -0.0284
 9391SOL    HW139809   0.673   0.940  14.377 -0.9871  0.8435 -0.2590
 9391SOL    HW239810   0.601   0.910  14.495  1.9243 -1.3405  0.1842
 9392SOL     OW39811   4.591   4.420   8.227  0.1167 -0.1282 -0.2674
 9392SOL    HW139812   4.528   4.365   8.181 -0.9836  0.4387  0.5641
 9392SOL    HW239813   4.562   4.404   8.317 -1.0565 -0.5550 -0.7117
 9393SOL     OW39814   1.785   1.417  13.713  0.3337 -0.0405  0.4618
 9393SOL    HW139815   1.722   1.372  13.768  1.1012 -2.1456 -0.3758
 9393SOL    HW239816   1.779   1.509  13.738 -1.0354 -0.0825  0.2736
 9394SOL     OW39817   0.103   0.802  12.231  0.2471  0.0269  0.0702
 9394SOL    HW139818   0.012   0.778  12.216 -1.1007  3.5114  2.6554
 9394SOL    HW239819   0.115   0.802  12.326  0.8841  2.9432 -0.0151
 9395SOL     OW39820   0.551   3.439   8.184  0.5061 -0.0284 -1.0281
 9395SOL    HW139821   0.535   3.522   8.227  0.3024  0.8885 -2.8759
 9395SOL    HW239822   0.545   3.379   8.259  2.7346  2.4843  1.1531
 9396SOL     OW39823   0.491   0.013   2.595  0.4966 -0.0826  0.7863
 9396SOL    HW139824   0.524   4.671   2.636 -0.0709 -1.5221 -1.5868
 9396SOL    HW239825   0.477   0.073   2.669 -1.4110 -2.5491  2.4380
 9397SOL     OW39826   2.330   1.091   1.403 -0.4258 -0.4618 -0.5470
 9397SOL    HW139827   2.249   1.123   1.363 -0.5365 -0.1119 -0.0422
 9397SOL    HW239828   2.327   1.135   1.488  0.1093 -1.9929  0.2655
 9398SOL     OW39829   4.677   0.779   2.218 -0.8537  0.3611  0.2121
 9398SOL    HW139830   4.731   0.847   2.177 -0.4040 -1.5103 -2.3315
 9398SOL    HW239831   4.711   0.786   2.307 -0.7727 -0.8905  0.2872
 9399SOL     OW39832   3.105   1.197   3.772  1.1865  0.1348  0.2297
 9399SOL    HW139833   3.084   1.288   3.752 -0.4963 -0.5989 -1.3061
 9399SOL    HW239834   3.058   1.153   3.702  2.1670 -1.5426  0.6320
 9400SOL     OW39835   0.444   3.613   8.370  0.0904  0.4131 -0.3838
 9400SOL    HW139836   0.398   3.688   8.407  0.1461 -0.6432  1.8135
 9400SOL    HW239837   0.390   3.543   8.406  3.3696 -1.8178  0.1852
 9401SOL     OW39838   4.044   0.791   4.594 -0.0519  0.0337 -0.0048
 9401SOL    HW139839   3.975   0.779   4.528 -0.1654  1.7867 -0.1902
 9401SOL    HW239840   4.055   0.886   4.589  1.6173 -0.1510  0.4299
 9402SOL     OW39841   1.262   0.351   1.685 -0.0947 -0.4709 -0.7300
 9402SOL    HW139842   1.280   0.333   1.777 -0.2100  1.3581 -0.3550
 9402SOL    HW239843   1.311   0.433   1.674 -2.1748  0.7681 -0.7753
 9403SOL     OW39844   1.770   1.529   4.110  0.3393 -0.3929  0.3412
 9403SOL    HW139845   1.771   1.434   4.100  1.0301 -0.4368  0.8146
 9403SOL    HW239846   1.792   1.532   4.203 -1.2712 -0.3990  0.7159
 9404SOL     OW39847   1.718   3.442   4.129  0.3741  0.3710 -0.0774
 9404SOL    HW139848   1.805   3.407   4.107  1.2201  2.7987 -0.5498
 9404SOL    HW239849   1.669   3.359   4.124  1.3308 -0.1422 -1.0209
 9405SOL     OW39850   1.167   1.302  14.713  0.1283  0.1245 -0.3677
 9405SOL    HW139851   1.084   1.342  14.739 -0.2718 -1.4555  0.7855
 9405SOL    HW239852   1.149   1.211  14.737  0.3285 -0.4172 -2.3379
 9406SOL     OW39853   3.816   1.130  17.430 -0.4803  0.6623 -0.4230
 9406SOL    HW139854   3.903   1.100  17.458 -0.8621 -0.4882 -0.4853
 9406SOL    HW239855   3.777   1.187  17.496 -1.9304  0.6982 -1.3192
 9407SOL     OW39856   1.906   1.131   4.593 -0.7387  0.6690  0.1965
 9407SOL    HW139857   1.963   1.205   4.612  0.7657 -0.8660  1.6671
 9407SOL    HW239858   1.929   1.127   4.500 -2.1847 -1.5724 -0.0714
 9408SOL     OW39859   4.646   2.130  10.969 -0.3346  0.4889 -0.2184
 9408SOL    HW139860   4.665   2.195  10.901 -2.1447 -1.1551 -2.2670
 9408SOL    HW239861   4.636   2.056  10.909  0.5319  2.5645 -2.9231
 9409SOL     OW39862   2.683   0.055   4.402  0.5077  1.2370 -0.5023
 9409SOL    HW139863   2.692   4.734   4.327  0.7494  1.6467 -0.7968
 9409SOL    HW239864   2.664   0.139   4.360 -2.3314  0.3777 -0.9622
 9410SOL     OW39865   1.677   0.248   6.283  0.3518  0.0863  0.0366
 9410SOL    HW139866   1.630   0.302   6.346  0.2359 -0.5717  0.5138
 9410SOL    HW239867   1.766   0.283   6.290 -0.4625  1.5222  3.1169
 9411SOL     OW39868   4.514   1.936   8.520 -0.2373 -0.0275  0.1373
 9411SOL    HW139869   4.457   1.971   8.453  0.8932  0.4114 -0.6034
 9411SOL    HW239870   4.577   1.888   8.467  1.0116  0.7060  0.9354
 9412SOL     OW39871   1.779   0.563   2.168 -0.8375 -0.0543 -0.4138
 9412SOL    HW139872   1.722   0.492   2.138  1.3694 -0.8954 -2.6164
 9412SOL    HW239873   1.865   0.523   2.161 -0.0490  1.7312 -1.0347
 9413SOL     OW39874   0.287   4.523   8.203 -0.1153 -0.0938  0.3640
 9413SOL    HW139875   0.202   4.568   8.205 -0.8873 -1.5476  0.7189
 9413SOL    HW239876   0.301   4.520   8.109  2.1457 -2.0590  0.7649
 9414SOL     OW39877   2.726   4.573   5.649 -0.1507 -0.4155  0.1253
 9414SOL    HW139878   2.766   4.593   5.565  1.1089 -0.5705  0.6834
 9414SOL    HW239879   2.804   4.577   5.705  0.2371 -2.5494 -0.2902
 9415SOL     OW39880   1.603   2.349   3.530  0.0507  0.3204  0.2578
 9415SOL    HW139881   1.532   2.308   3.481  0.6240  0.5060 -0.7490
 9415SOL    HW239882   1.599   2.438   3.496  0.2467  0.3667  0.3537
 9416SOL     OW39883   2.617   2.963   3.293  0.8488 -0.2920  0.0008
 9416SOL    HW139884   2.552   2.957   3.363  0.7573  2.4950  0.1913
 9416SOL    HW239885   2.585   2.890   3.241 -0.6886  0.1868  0.2841
 9417SOL     OW39886   2.967   1.507   5.628 -0.3742  0.0313 -0.4966
 9417SOL    HW139887   2.959   1.503   5.724 -2.4658  0.3075 -0.6602
 9417SOL    HW239888   2.908   1.440   5.594  0.7772 -0.5773 -1.2809
 9418SOL     OW39889   2.007   2.049   7.876  0.1043  0.4771  0.2833
 9418SOL    HW139890   1.959   2.094   7.806 -0.6874 -0.8367 -0.0124
 9418SOL    HW239891   1.956   1.970   7.889 -0.2126  0.7489  0.6941
 9419SOL     OW39892   1.578   2.449   5.851  0.9810 -0.1342  0.0375
 9419SOL    HW139893   1.515   2.399   5.800  2.8427 -1.0484 -1.3490
 9419SOL    HW239894   1.537   2.535   5.857  1.1253  0.1004 -2.3585
 9420SOL     OW39895   1.773   1.066   8.062  0.1133 -0.2582 -0.3738
 9420SOL    HW139896   1.728   1.004   8.119  1.6634 -0.9760  0.0748
 9420SOL    HW239897   1.806   1.012   7.990 -1.4253 -1.1578 -0.3922
 9421SOL     OW39898   1.622   3.724   3.580 -0.2763  0.1353 -0.5396
 9421SOL    HW139899   1.597   3.801   3.528 -1.0925  0.0862 -0.2189
 9421SOL    HW239900   1.709   3.708   3.542 -0.2687 -1.2920  0.0992
 9422SOL     OW39901   0.552   4.662  11.684 -0.2268 -0.2724 -0.2912
 9422SOL    HW139902   0.486   4.607  11.643  0.7119  1.3783 -4.0085
 9422SOL    HW239903   0.558   4.621  11.771 -1.3539  0.3091  0.0614
 9423SOL     OW39904   2.009   0.436  14.120 -0.3103 -0.1946 -0.5358
 9423SOL    HW139905   2.070   0.485  14.065  0.8283  0.9732  1.7613
 9423SOL    HW239906   1.928   0.486  14.106 -1.4469 -0.9524  3.1832
 9424SOL     OW39907   0.473   0.936  11.959 -0.5077  0.2725 -0.0459
 9424SOL    HW139908   0.471   0.994  12.035  0.3818 -0.8377  0.8215
 9424SOL    HW239909   0.385   0.899  11.949 -0.3707 -0.8981  3.0055
 9425SOL     OW39910   4.249   2.031   1.850 -0.3396 -0.3195  0.1068
 9425SOL    HW139911   4.312   2.098   1.825  0.8763 -1.3832  0.3168
 9425SOL    HW239912   4.176   2.056   1.793  0.1574 -1.1460 -0.8840
 9426SOL     OW39913   1.667   0.037  16.866  0.5079 -0.2674  0.0014
 9426SOL    HW139914   1.702   4.716  16.799  3.1922  1.3514 -0.0296
 9426SOL    HW239915   1.579   0.052  16.832  1.1736  0.7612 -1.2581
 9427SOL     OW39916   2.897   1.531   7.147 -0.4514  0.5287  0.0420
 9427SOL    HW139917   2.928   1.487   7.226 -0.1239  0.5416 -0.0781
 9427SOL    HW239918   2.973   1.577   7.113 -0.3195  1.0279  1.0384
 9428SOL     OW39919   1.871   2.563   0.564 -0.2773 -0.3614  0.0552
 9428SOL    HW139920   1.922   2.483   0.550  0.1669  0.6023 -3.9284
 9428SOL    HW239921   1.827   2.585   0.482  0.3848  1.8384  0.2773
 9429SOL     OW39922   4.615   4.078   2.242  0.1733  0.4891  0.1136
 9429SOL    HW139923   4.639   3.991   2.273 -0.6334  0.3144  0.2589
 9429SOL    HW239924   4.571   4.060   2.158 -2.3130  0.4055  1.4280
 9430SOL     OW39925   2.395   3.698  13.261 -0.6742  0.0321  0.2770
 9430SOL    HW139926   2.427   3.608  13.261  0.2062  0.3238 -3.5701
 9430SOL    HW239927   2.453   3.745  13.321  0.4082 -0.8596 -0.0798
 9431SOL     OW39928   1.027   1.316   3.385  0.1635  0.0172 -0.1714
 9431SOL    HW139929   0.953   1.375   3.392  0.2492  0.1274 -0.1999
 9431SOL    HW239930   1.009   1.270   3.467  3.1013  0.2415  0.6135
 9432SOL     OW39931   2.079   0.896   8.055 -0.0640  0.2233  0.3398
 9432SOL    HW139932   2.115   0.896   8.143 -0.0950 -2.3215  0.3544
 9432SOL    HW239933   2.048   0.805   8.049  1.6342 -0.3836  0.6766
 9433SOL     OW39934   2.863   4.393   8.888  0.3060 -0.3357  0.6682
 9433SOL    HW139935   2.832   4.327   8.826  0.2925 -0.6817  1.0460
 9433SOL    HW239936   2.777   4.400   8.930 -0.9168  0.5447 -1.9617
 9434SOL     OW39937   1.741   4.545  15.930  0.1652  0.0373  0.2463
 9434SOL    HW139938   1.691   4.542  15.848  1.3054 -1.1922 -0.4085
 9434SOL    HW239939   1.681   4.515  15.998  0.7927  3.4983  2.3501
 9435SOL     OW39940   3.690   1.552   5.511 -0.9482  0.0069  0.0410
 9435SOL    HW139941   3.628   1.618   5.542  0.8179  2.1071 -0.8542
 9435SOL    HW239942   3.642   1.473   5.533  0.8534 -1.7522 -2.3544
 9436SOL     OW39943   3.577   0.163   0.868  0.1310  0.6138  0.3864
 9436SOL    HW139944   3.623   0.228   0.815  0.9969  0.0637  0.4561
 9436SOL    HW239945   3.644   0.148   0.935  1.2320 -0.8097 -1.0143
 9437SOL     OW39946   2.612   3.053   5.228 -0.9402  0.2264 -0.1838
 9437SOL    HW139947   2.646   3.120   5.168 -0.1917  1.3226  1.4620
 9437SOL    HW239948   2.688   3.014   5.271 -2.4313  0.5158  2.7509
 9438SOL     OW39949   4.014   1.041   5.829 -0.1590  0.4315 -0.2977
 9438SOL    HW139950   3.988   0.964   5.779 -1.0932 -1.5850  3.2990
 9438SOL    HW239951   3.933   1.069   5.873 -0.4363  3.5835 -2.7419
 9439SOL     OW39952   4.502   2.767   6.017 -0.5257  0.3149 -0.6676
 9439SOL    HW139953   4.485   2.777   6.111 -2.4897  0.3635 -1.0332
 9439SOL    HW239954   4.570   2.835   6.017  1.3678 -1.5772  1.1533
 9440SOL     OW39955   1.829   4.589   9.581  0.2130  0.1717  0.8354
 9440SOL    HW139956   1.913   4.587   9.536  0.2126  0.7064  0.8154
 9440SOL    HW239957   1.776   4.554   9.509  1.2060  0.7636 -0.1633
 9441SOL     OW39958   3.871   2.994   2.109  0.0743 -0.2799  0.4348
 9441SOL    HW139959   3.922   3.029   2.182  0.9615 -2.1969  0.7445
 9441SOL    HW239960   3.822   2.926   2.155  0.0794  0.4721  1.5284
 9442SOL     OW39961   2.398   2.799  13.187 -0.1908 -0.3725  0.4765
 9442SOL    HW139962   2.362   2.887  13.173  0.2935 -0.4096 -1.0504
 9442SOL    HW239963   2.334   2.759  13.246 -0.6480  1.9319  1.5351
 9443SOL     OW39964   3.647   0.577  12.413  0.7525  0.2114 -0.3045
 9443SOL    HW139965   3.735   0.569  12.450 -0.0827 -0.5658  1.4925
 9443SOL    HW239966   3.636   0.661  12.456 -0.4231  0.3749 -0.9353
 9444SOL     OW39967   0.995   1.803  16.163  0.0107  0.8606 -0.0147
 9444SOL    HW139968   0.939   1.822  16.088  0.5136  0.6334 -0.4465
 9444SOL    HW239969   0.965   1.714  16.181 -3.2860  1.6288 -1.5632
 9445SOL     OW39970   3.680   1.450   1.021 -0.3950  0.5949  0.1506
 9445SOL    HW139971   3.740   1.427   0.950 -0.7380  1.7140 -0.4937
 9445SOL    HW239972   3.723   1.431   1.105  1.3282 -3.1783 -1.5663
 9446SOL     OW39973   1.350   4.404   8.777 -0.5241  1.3913 -0.0138
 9446SOL    HW139974   1.365   4.447   8.693  0.6468  2.7536  0.8780
 9446SOL    HW239975   1.266   4.440   8.803 -0.9180 -0.1850  0.9475
 9447SOL     OW39976   1.873   2.289   9.190 -0.2204  0.1688 -0.1786
 9447SOL    HW139977   1.779   2.285   9.174 -0.2948 -1.6891  0.6574
 9447SOL    HW239978   1.891   2.197   9.210  1.2541  0.0295 -2.0841
 9448SOL     OW39979   2.641   3.139  15.200  0.0717 -0.3170  0.0300
 9448SOL    HW139980   2.670   3.195  15.128 -0.9684 -1.7456 -1.5173
 9448SOL    HW239981   2.685   3.177  15.276  1.0948 -1.7365  0.1631
 9449SOL     OW39982   2.718   4.149   4.892 -0.0078  0.1149 -0.1690
 9449SOL    HW139983   2.730   4.056   4.871 -0.5465 -0.7281  3.1522
 9449SOL    HW239984   2.648   4.150   4.958 -0.1419  0.4768 -0.3166
 9450SOL     OW39985   0.403   2.429   2.924 -0.6321  0.0315 -0.1135
 9450SOL    HW139986   0.416   2.522   2.906  0.2758 -0.2100 -0.6985
 9450SOL    HW239987   0.315   2.430   2.963 -0.3055  1.0106  0.5912
 9451SOL     OW39988   0.576   0.819  15.395  0.1199  0.2896  0.2386
 9451SOL    HW139989   0.542   0.740  15.437  0.9759 -1.1730 -1.7927
 9451SOL    HW239990   0.580   0.881  15.468 -2.7304 -0.2147  0.8186
 9452SOL     OW39991   2.572   3.991   7.073 -0.5895  0.1715  0.3730
 9452SOL    HW139992   2.488   3.953   7.098 -1.4748  0.4329 -2.1496
 9452SOL    HW239993   2.633   3.949   7.133 -1.8028 -0.9264  0.8250
 9453SOL     OW39994   1.083   3.987   8.226 -0.2128 -0.1201  0.0787
 9453SOL    HW139995   1.003   3.997   8.175 -1.0915 -2.2998  1.0428
 9453SOL    HW239996   1.137   3.943   8.161 -0.7603 -2.8261  1.4661
 9454SOL     OW39997   3.085   3.939   9.975  0.2817 -0.2716 -0.4006
 9454SOL    HW139998   3.065   3.852  10.010 -1.7890  1.3381  2.4192
 9454SOL    HW239999   2.997   3.977   9.983 -1.3174 -3.2515 -3.5741
 9455SOL     OW40000   2.658   0.737   2.325  0.6048  0.5616  0.3366
 9455SOL    HW140001   2.728   0.800   2.341  0.3686  0.9744 -0.2485
 9455SOL    HW240002   2.645   0.701   2.412  2.0491 -2.2757 -0.6208
 9456SOL     OW40003   2.027   0.430   1.780 -0.5275  0.0939 -0.0006
 9456SOL    HW140004   1.947   0.480   1.769  0.5009  0.8685 -3.8210
 9456SOL    HW240005   2.001   0.381   1.858 -1.6852  0.9332  0.1326
 9457SOL     OW40006   4.442   0.238   1.690  0.1106  0.1949  0.2944
 9457SOL    HW140007   4.353   0.271   1.676  0.1338  0.5703  1.0539
 9457SOL    HW240008   4.423   0.153   1.730 -0.6576 -0.3737 -1.2492
 9458SOL     OW40009   0.949   1.561  11.368  0.2260 -0.0805 -0.3497
 9458SOL    HW140010   0.946   1.478  11.414 -1.4616  0.2693  0.1654
 9458SOL    HW240011   0.875   1.606  11.409  0.1190 -1.1224  0.5770
 9459SOL     OW40012   0.325   4.130   1.376  0.0094  0.6551  0.1402
 9459SOL    HW140013   0.388   4.110   1.306 -1.0122  0.4718 -0.7163
 9459SOL    HW240014   0.379   4.174   1.442  0.8790  0.5735 -0.5151
 9460SOL     OW40015   4.158   4.150  15.590 -0.5683  0.3995  0.1479
 9460SOL    HW140016   4.204   4.077  15.632 -0.8591 -1.5277 -2.8969
 9460SOL    HW240017   4.177   4.224  15.648  0.2084  0.8688 -0.7034
 9461SOL     OW40018   1.812   4.342   8.675 -0.6645  0.2566  0.8212
 9461SOL    HW140019   1.727   4.300   8.685  0.0748 -1.4097 -0.0525
 9461SOL    HW240020   1.793   4.412   8.612 -1.0273  0.0314  0.6840
 9462SOL     OW40021   3.565   3.835   9.839  0.5221  0.5705 -0.9223
 9462SOL    HW140022   3.559   3.863   9.748  0.4513  1.2272 -0.7104
 9462SOL    HW240023   3.561   3.923   9.877  0.9883  0.0672  0.3013
 9463SOL     OW40024   3.716   1.347   3.131 -0.2062 -0.1073 -0.1635
 9463SOL    HW140025   3.675   1.412   3.188  1.6933  0.8610  0.0885
 9463SOL    HW240026   3.640   1.318   3.080  0.1094  1.5189 -1.5883
 9464SOL     OW40027   0.574   1.744   3.272  0.1725 -0.0612 -0.4410
 9464SOL    HW140028   0.529   1.826   3.253 -0.8725 -0.5235  0.0266
 9464SOL    HW240029   0.528   1.675   3.223 -0.5463  1.3015 -1.7010
 9465SOL     OW40030   3.948   1.593   0.647 -0.6993 -0.1551  0.0759
 9465SOL    HW140031   3.868   1.550   0.678 -1.0144  1.2024  1.1547
 9465SOL    HW240032   3.919   1.619   0.560  1.3339 -0.1630 -0.6026
 9466SOL     OW40033   4.342   2.534  17.259  0.4315  0.3145  0.3372
 9466SOL    HW140034   4.379   2.549  17.346  1.3751 -2.7951  0.4554
 9466SOL    HW240035   4.411   2.568  17.202 -1.1612  1.1123 -1.1163
 9467SOL     OW40036   0.723   2.660   7.074  0.3962  0.3721 -0.5896
 9467SOL    HW140037   0.662   2.588   7.092  0.8269  0.5177  1.4882
 9467SOL    HW240038   0.800   2.603   7.076 -0.3999 -0.6450  1.6911
 9468SOL     OW40039   0.541   3.908  16.223  0.3305  0.1083  0.6637
 9468SOL    HW140040   0.587   3.917  16.140 -0.8916 -2.4475 -0.2924
 9468SOL    HW240041   0.470   3.850  16.194  0.6331 -0.1065  0.3498
 9469SOL     OW40042   2.696   2.489   5.886  0.3067 -0.4096  0.6625
 9469SOL    HW140043   2.755   2.490   5.810 -1.9448 -0.5563 -1.1030
 9469SOL    HW240044   2.629   2.553   5.862  0.8603 -0.4380 -1.0050
 9470SOL     OW40045   1.087   1.889   8.075  0.0263  0.3366  0.5196
 9470SOL    HW140046   1.025   1.858   8.140 -1.2634 -1.4791 -1.5643
 9470SOL    HW240047   1.176   1.881   8.112  0.1107 -1.7166 -0.0975
 9471SOL     OW40048   2.983   4.521   7.511  0.1553  0.1215  0.3231
 9471SOL    HW140049   2.919   4.545   7.445 -0.9265  2.3981  2.2354
 9471SOL    HW240050   3.064   4.540   7.465 -0.6815  3.0332  0.0941
 9472SOL     OW40051   1.201   0.945   4.649 -0.3685 -0.7369 -0.2741
 9472SOL    HW140052   1.193   0.873   4.586  0.4045  0.9898 -2.3512
 9472SOL    HW240053   1.186   0.905   4.735 -1.9924  0.6385  0.0712
 9473SOL     OW40054   0.408   3.453   7.260  0.1075 -0.1214  0.1969
 9473SOL    HW140055   0.409   3.465   7.165 -2.0518 -1.0159  0.0406
 9473SOL    HW240056   0.387   3.538   7.297  0.3802  0.6170 -1.3726
 9474SOL     OW40057   3.415   3.388  14.257  0.2908  0.0064  0.2147
 9474SOL    HW140058   3.494   3.422  14.298 -0.1613  2.0165 -0.6039
 9474SOL    HW240059   3.354   3.448  14.300 -0.5264 -0.0709 -0.8482
 9475SOL     OW40060   1.011   4.519   2.407  0.7458 -0.0268 -0.0062
 9475SOL    HW140061   0.952   4.487   2.339 -0.7731  0.9367  0.8256
 9475SOL    HW240062   0.958   4.504   2.485  0.8539  1.6531  0.3955
 9476SOL     OW40063   0.830   1.543  14.625  0.2816 -0.4358  0.5696
 9476SOL    HW140064   0.792   1.466  14.583 -1.8010  0.0106  1.6417
 9476SOL    HW240065   0.854   1.518  14.714  0.1668  0.0209  0.7273
 9477SOL     OW40066   0.017   0.338   6.390  0.0101  0.4384  0.5187
 9477SOL    HW140067   4.716   0.319   6.475 -0.8809 -1.1977 -0.2738
 9477SOL    HW240068   0.063   0.413   6.429 -2.4866  2.6857 -0.7918
 9478SOL     OW40069   4.513   0.996   3.844 -0.2417  0.4418 -0.1499
 9478SOL    HW140070   4.491   0.930   3.910 -1.4878  1.7167  0.7153
 9478SOL    HW240071   4.608   1.007   3.836 -0.4386  2.0944 -0.2224
 9479SOL     OW40072   2.233   3.792  15.180 -0.4241  0.1671 -0.4741
 9479SOL    HW140073   2.230   3.732  15.106 -0.6556  0.0437 -0.3647
 9479SOL    HW240074   2.241   3.728  15.251  2.2643  0.6572 -0.3494
 9480SOL     OW40075   4.677   1.907   7.276  0.4965  0.4888 -0.1507
 9480SOL    HW140076   4.648   1.944   7.359  1.4958  0.7175  0.0947
 9480SOL    HW240077   4.705   1.819   7.304 -0.5461 -0.5447 -2.2989
 9481SOL     OW40078   1.373   1.931   0.885  0.3194 -0.1064  0.0575
 9481SOL    HW140079   1.308   1.861   0.896 -0.3403  1.0327  3.3181
 9481SOL    HW240080   1.343   1.963   0.800  2.0967 -0.7318 -0.7944
 9482SOL     OW40081   3.983   2.043  17.420 -0.1397  0.8669  0.0002
 9482SOL    HW140082   4.071   2.009  17.401  1.7920  3.3460  4.4507
 9482SOL    HW240083   3.997   2.135  17.394  3.7144 -0.1974 -1.8022
 9483SOL     OW40084   4.183   4.439   2.560 -0.0490 -0.4742 -0.2095
 9483SOL    HW140085   4.122   4.391   2.504 -0.9893 -0.6619  0.9772
 9483SOL    HW240086   4.258   4.384   2.537 -0.3417 -0.6848 -0.6600
 9484SOL     OW40087   4.441   3.158   3.442  0.7765 -0.0196 -0.3702
 9484SOL    HW140088   4.406   3.246   3.448 -0.8179 -0.9186  3.7263
 9484SOL    HW240089   4.529   3.177   3.409  0.1934  0.9388 -1.3725
 9485SOL     OW40090   2.699   1.468  11.006  0.6272 -0.8409 -0.2583
 9485SOL    HW140091   2.723   1.559  11.027 -0.4845 -0.3076 -1.3175
 9485SOL    HW240092   2.776   1.444  10.954 -0.0081 -1.4587 -0.9083
 9486SOL     OW40093   3.886   3.719   9.346 -0.1851  0.2311 -0.4760
 9486SOL    HW140094   3.924   3.717   9.258  1.7324 -1.5608  0.3816
 9486SOL    HW240095   3.807   3.772   9.341 -0.8684 -0.8020 -0.5086
 9487SOL     OW40096   1.804   2.025   6.569 -0.0605 -0.8486 -0.1503
 9487SOL    HW140097   1.719   2.039   6.527  0.2503 -1.7502 -1.0780
 9487SOL    HW240098   1.825   2.113   6.603  1.7704 -1.1537 -0.4493
 9488SOL     OW40099   0.906   1.336   7.532  0.2244 -0.1083 -0.2812
 9488SOL    HW140100   0.900   1.244   7.555 -0.6700 -0.0521 -0.2861
 9488SOL    HW240101   1.002   1.337   7.539  0.1947  1.1795 -0.0748
 9489SOL     OW40102   1.244   4.208   2.371 -0.1170 -0.2621 -0.2662
 9489SOL    HW140103   1.188   4.230   2.446 -0.9690  1.9603 -1.5668
 9489SOL    HW240104   1.285   4.129   2.405 -0.3344 -0.1488  0.2608
 9490SOL     OW40105   4.083   4.706  10.452  0.0837  0.3578 -0.4384
 9490SOL    HW140106   4.022   4.644  10.412  1.8625 -2.3986  1.1132
 9490SOL    HW240107   4.038   4.722  10.534  0.2084 -1.8759  0.0864
 9491SOL     OW40108   4.012   4.543   4.488 -0.0667 -0.4263  0.5140
 9491SOL    HW140109   4.052   4.624   4.518 -0.7680  0.5801 -1.2693
 9491SOL    HW240110   3.943   4.573   4.428  1.3035  2.0313  0.1987
 9492SOL     OW40111   0.793   1.053   6.251  0.4790  0.3839 -0.6135
 9492SOL    HW140112   0.734   1.059   6.327 -0.0231 -1.2807 -0.8647
 9492SOL    HW240113   0.738   1.092   6.182  1.5964  0.9598 -1.1744
 9493SOL     OW40114   3.500   3.408  17.217  0.2531 -0.3377  0.0820
 9493SOL    HW140115   3.515   3.452  17.301  0.5252 -1.4138  0.6000
 9493SOL    HW240116   3.562   3.459  17.165 -0.2563  0.0245 -0.1658
 9494SOL     OW40117   1.408   0.297   7.331 -0.2645 -0.1262  0.3118
 9494SOL    HW140118   1.322   0.288   7.292 -0.0855  0.0938 -0.1286
 9494SOL    HW240119   1.461   0.324   7.256  0.6370 -0.9947  0.6381
 9495SOL     OW40120   0.674   4.568   4.289  0.5362 -0.1811  0.5425
 9495SOL    HW140121   0.729   4.543   4.363  2.8239  0.8800 -0.8041
 9495SOL    HW240122   0.712   4.509   4.224  1.3194 -1.6407  2.3203
 9496SOL     OW40123   2.899   3.687   6.665 -0.2725 -0.1523  0.0061
 9496SOL    HW140124   2.929   3.690   6.574  3.4875 -0.2607  1.2538
 9496SOL    HW240125   2.967   3.638   6.711 -0.0110  1.4509  1.3097
 9497SOL     OW40126   0.158   1.733   1.804  0.7036  0.0095  0.2341
 9497SOL    HW140127   0.078   1.785   1.803  0.0002 -1.0667  0.2046
 9497SOL    HW240128   0.119   1.649   1.829  2.9795 -1.8272 -2.3520
 9498SOL     OW40129   1.649   1.551   1.745  0.6604  0.7374  0.2212
 9498SOL    HW140130   1.669   1.571   1.654  0.9691 -3.7650 -0.7275
 9498SOL    HW240131   1.699   1.619   1.789  0.3653  0.9807  0.1770
 9499SOL     OW40132   1.034   0.191   3.874 -0.7296  0.3430  0.0219
 9499SOL    HW140133   1.096   0.136   3.825 -0.0789  0.3337  0.8449
 9499SOL    HW240134   1.063   0.280   3.857  0.7663 -0.6459 -2.5748
 9500SOL     OW40135   1.897   1.884   3.176  0.0457 -0.2859 -0.3378
 9500SOL    HW140136   1.917   1.879   3.082  0.6261 -1.2458 -0.1651
 9500SOL    HW240137   1.988   1.901   3.203  0.4043 -0.6679 -1.2806
 9501SOL     OW40138   1.937   0.331   9.012  0.3249 -0.5261  0.7740
 9501SOL    HW140139   2.019   0.304   8.970  0.0305 -1.1754  0.6168
 9501SOL    HW240140   1.917   0.265   9.078 -0.7701 -1.8377 -0.8778
 9502SOL     OW40141   2.698   1.423   4.695 -0.4887 -0.0304 -0.7215
 9502SOL    HW140142   2.720   1.338   4.656  0.9526  0.0156 -0.0183
 9502SOL    HW240143   2.619   1.383   4.730 -0.3774  0.5385  0.1660
 9503SOL     OW40144   1.322   1.086   3.230  0.1843 -0.6092 -0.4480
 9503SOL    HW140145   1.309   0.993   3.213  2.2805 -1.1524  0.9808
 9503SOL    HW240146   1.357   1.116   3.146 -1.3953 -2.4874 -1.7763
 9504SOL     OW40147   2.421   0.066  15.900 -0.7808  0.1953 -0.0273
 9504SOL    HW140148   2.506   0.098  15.931 -0.8251  1.8954 -1.6465
 9504SOL    HW240149   2.371   0.065  15.982 -1.5775  0.8983 -0.4989
 9505SOL     OW40150   3.002   0.596   9.296  1.1569  0.4963 -0.0759
 9505SOL    HW140151   2.976   0.504   9.298  0.9493  0.5282 -1.7745
 9505SOL    HW240152   2.987   0.614   9.204 -0.6177  0.4343  0.2002
 9506SOL     OW40153   1.602   1.672   3.087 -0.0706  0.0872 -0.1470
 9506SOL    HW140154   1.619   1.722   3.167 -0.2938  0.3429 -0.2592
 9506SOL    HW240155   1.507   1.665   3.100  0.0049 -1.6322 -0.5040
 9507SOL     OW40156   0.094   3.746   3.930 -0.6788 -0.0729 -0.3716
 9507SOL    HW140157   0.091   3.805   4.005 -1.6678  1.9139 -1.9787
 9507SOL    HW240158   0.142   3.673   3.969  1.0860  0.9016 -0.7547
 9508SOL     OW40159   2.445   4.106   1.066 -0.4758  0.3530 -0.2984
 9508SOL    HW140160   2.356   4.092   1.031 -0.6038 -0.3045  0.3032
 9508SOL    HW240161   2.447   4.028   1.121 -2.1188  0.4724 -0.0457
 9509SOL     OW40162   2.662   1.024  13.119  0.0166  0.3708 -0.8392
 9509SOL    HW140163   2.686   1.030  13.211 -0.7329 -0.7534 -0.5692
 9509SOL    HW240164   2.570   1.049  13.131 -0.2451 -1.8380  1.5784
 9510SOL     OW40165   0.135   2.603  15.514  0.0005 -0.3138  0.1028
 9510SOL    HW140166   0.064   2.541  15.524 -0.5345  0.0843 -1.2293
 9510SOL    HW240167   0.088   2.683  15.491 -0.1625 -0.2065  0.8203
 9511SOL     OW40168   1.700   1.835   2.679 -0.5683  0.1442  0.6977
 9511SOL    HW140169   1.611   1.803   2.689 -1.5258  3.3010  2.3862
 9511SOL    HW240170   1.751   1.810   2.756  0.3684 -0.1777 -0.0314
 9512SOL     OW40171   3.468   2.772   5.822  0.3597  0.1843 -0.2695
 9512SOL    HW140172   3.483   2.850   5.769 -1.0236  0.1107 -0.7520
 9512SOL    HW240173   3.385   2.747   5.782  0.9825 -0.2851 -1.2692
 9513SOL     OW40174   1.594   0.930   4.838  0.0220 -0.3378 -0.2266
 9513SOL    HW140175   1.668   0.916   4.896 -0.0613 -0.4716 -0.1530
 9513SOL    HW240176   1.557   1.003   4.888 -1.5415 -0.6147 -0.9576
 9514SOL     OW40177   0.207   3.918   5.434  0.6875  0.5863  0.1404
 9514SOL    HW140178   0.222   3.975   5.509 -1.5972 -0.7641  1.6252
 9514SOL    HW240179   0.220   3.977   5.360  2.3981 -0.4197 -0.3647
 9515SOL     OW40180   3.128   1.660   5.256 -0.3262 -0.4394 -0.2717
 9515SOL    HW140181   3.056   1.705   5.300  1.4656  0.8689  1.3024
 9515SOL    HW240182   3.112   1.686   5.165 -0.6221 -1.3616 -0.4788
 9516SOL     OW40183   1.786   1.923   1.755  0.0971  0.2310 -0.6743
 9516SOL    HW140184   1.727   1.981   1.803  1.3116  0.5417  0.4154
 9516SOL    HW240185   1.828   1.868   1.821  3.3798 -0.8340 -3.6597
 9517SOL     OW40186   0.321   1.824   0.953  0.8956 -0.3823 -0.0920
 9517SOL    HW140187   0.375   1.792   0.881  0.1453 -0.9197 -0.4236
 9517SOL    HW240188   0.367   1.781   1.024  1.0856  0.3752  0.2489
 9518SOL     OW40189   1.155   2.586   3.137  0.2883  0.5503 -0.1249
 9518SOL    HW140190   1.246   2.598   3.109  0.4448  1.7223  0.9146
 9518SOL    HW240191   1.170   2.560   3.227  0.8140 -1.1197 -0.6948
 9519SOL     OW40192   2.072   0.611  16.874  0.1900  0.1183  0.6775
 9519SOL    HW140193   2.019   0.637  16.799  0.4373  0.5051  0.6338
 9519SOL    HW240194   2.158   0.611  16.832 -0.2550  3.2199 -0.2212
 9520SOL     OW40195   2.165   1.359  10.124  0.1317  0.4871 -0.1720
 9520SOL    HW140196   2.253   1.339  10.158  0.6154  2.2979 -0.3534
 9520SOL    HW240197   2.185   1.408  10.044  2.5179  0.2724  0.2766
 9521SOL     OW40198   0.516   2.046   2.352 -0.1113 -0.2931  0.0350
 9521SOL    HW140199   0.444   2.005   2.304 -0.9323 -0.5355  1.4554
 9521SOL    HW240200   0.574   2.074   2.281 -0.7280  0.4640 -0.1585
 9522SOL     OW40201   3.431   1.160  16.355  0.1269  0.1668 -1.0440
 9522SOL    HW140202   3.438   1.107  16.275  0.2399 -1.4810  0.0460
 9522SOL    HW240203   3.494   1.125  16.419  0.7549  0.6548 -1.4036
 9523SOL     OW40204   0.589   0.005   9.179 -0.1144 -0.0268  0.3809
 9523SOL    HW140205   0.511   4.688   9.183 -0.3757  0.3268  0.1996
 9523SOL    HW240206   0.655   4.677   9.196 -0.3596 -0.4412 -0.2571
 9524SOL     OW40207   0.362   1.170   1.872 -0.6338 -0.0481  0.5104
 9524SOL    HW140208   0.361   1.192   1.779 -1.1583 -0.8424  0.3293
 9524SOL    HW240209   0.267   1.175   1.882 -0.4765 -0.6411  2.2738
 9525SOL     OW40210   3.262   2.829  15.055  0.7606 -0.1141 -0.4085
 9525SOL    HW140211   3.174   2.841  15.021  0.4004  0.1118  0.6090
 9525SOL    HW240212   3.249   2.828  15.149 -0.3482 -0.0760 -0.5687
 9526SOL     OW40213   3.623   3.414   5.772 -0.4918  0.5833 -0.1195
 9526SOL    HW140214   3.696   3.448   5.720  0.2884 -0.4220  0.3042
 9526SOL    HW240215   3.566   3.488   5.753  0.3228  1.5977  1.3930
 9527SOL     OW40216   4.507   2.565   5.830 -0.5986 -0.2856  0.3433
 9527SOL    HW140217   4.491   2.639   5.889 -2.3484 -0.2469 -0.1641
 9527SOL    HW240218   4.548   2.612   5.758  0.1397  0.2144  1.0930
 9528SOL     OW40219   2.006   1.536   7.382  0.0178 -0.3426  0.0096
 9528SOL    HW140220   2.066   1.467   7.355 -0.5557 -0.8675  0.0592
 9528SOL    HW240221   1.928   1.506   7.334  0.0586 -0.2177 -0.1302
 9529SOL     OW40222   2.450   0.520   5.218 -0.1080 -1.0180 -0.4540
 9529SOL    HW140223   2.487   0.555   5.137  0.4590  0.1124  0.2866
 9529SOL    HW240224   2.362   0.556   5.209  0.4876  0.9169  1.5188
 9530SOL     OW40225   3.282   4.604   6.865 -0.4276 -0.0601  0.0336
 9530SOL    HW140226   3.229   4.683   6.849  0.5316  0.5008 -0.3941
 9530SOL    HW240227   3.211   4.541   6.873 -0.2537 -0.1945  0.4850
 9531SOL     OW40228   0.454   3.034  13.698  0.0282  0.1712  0.2425
 9531SOL    HW140229   0.472   3.013  13.606  1.0696 -0.2790  0.5549
 9531SOL    HW240230   0.392   2.963  13.714  0.3785 -0.3279 -0.6219
 9532SOL     OW40231   2.724   0.325  14.556  0.2110 -0.0331 -0.2504
 9532SOL    HW140232   2.643   0.363  14.592 -0.2111 -2.5046  1.3621
 9532SOL    HW240233   2.790   0.394  14.551  0.9482 -0.6996  0.4054
 9533SOL     OW40234   3.746   2.568   9.001  0.3668  0.6713  0.4448
 9533SOL    HW140235   3.755   2.525   9.086 -0.1266  2.0464  1.1927
 9533SOL    HW240236   3.837   2.597   8.994 -0.0188  1.7934 -0.0035
 9534SOL     OW40237   4.685   0.612  11.863 -0.1990 -0.1803 -0.8006
 9534SOL    HW140238   4.610   0.569  11.822 -0.9456 -0.9384  1.3342
 9534SOL    HW240239   4.697   0.687  11.804 -3.4372  0.4327 -0.6569
 9535SOL     OW40240   3.712   3.530   6.021  0.7157 -0.3909  0.4927
 9535SOL    HW140241   3.713   3.621   6.051  1.5370 -0.3897  0.4576
 9535SOL    HW240242   3.650   3.532   5.948 -0.9153 -1.5282  1.8444
 9536SOL     OW40243   4.325   4.628   3.907  0.1697 -0.4102 -0.5848
 9536SOL    HW140244   4.374   4.559   3.861  1.6767 -0.0512  0.4582
 9536SOL    HW240245   4.341   4.695   3.841 -2.3376  0.0119 -0.7273
 9537SOL     OW40246   2.860   4.204   8.679  0.4715 -0.3234 -0.1246
 9537SOL    HW140247   2.950   4.204   8.710 -0.0349 -1.7864  1.3931
 9537SOL    HW240248   2.870   4.178   8.588  0.9826  2.8158 -0.9712
 9538SOL     OW40249   2.138   2.013   5.888 -0.8651  0.2021  0.0912
 9538SOL    HW140250   2.192   2.055   5.955  0.7210 -0.0512 -1.0256
 9538SOL    HW240251   2.084   2.083   5.851 -2.2416 -1.0121 -0.1753
 9539SOL     OW40252   1.781   2.834   6.752  0.2446  0.3916  0.0890
 9539SOL    HW140253   1.866   2.839   6.708  0.5815 -0.0893  0.6874
 9539SOL    HW240254   1.793   2.909   6.810  0.3231  1.9837 -1.9716
 9540SOL     OW40255   4.633   4.019   8.579  0.4250 -0.3682  0.1241
 9540SOL    HW140256   4.618   3.926   8.564  1.6152 -0.4979 -0.2235
 9540SOL    HW240257   4.713   4.013   8.630 -1.3092 -1.6758  2.6976
 9541SOL     OW40258   4.572   1.903   4.142  0.0860 -0.1571  0.7790
 9541SOL    HW140259   4.486   1.941   4.162  1.1651  1.6420  1.9438
 9541SOL    HW240260   4.611   1.904   4.229  1.3742 -1.1525  0.2149
 9542SOL     OW40261   1.526   0.640   6.542  0.1607  0.0100 -0.4015
 9542SOL    HW140262   1.448   0.679   6.504 -0.2479  0.6299  1.0746
 9542SOL    HW240263   1.526   0.657   6.636  0.2715  0.2338 -0.4427
 9543SOL     OW40264   3.317   1.900   0.896  0.2377  0.1324 -0.0403
 9543SOL    HW140265   3.222   1.893   0.884  0.0323  2.2866  0.4004
 9543SOL    HW240266   3.346   1.874   0.808  0.9229 -1.3468  0.6331
 9544SOL     OW40267   0.077   4.657   4.357  0.7059 -0.1145  0.6183
 9544SOL    HW140268   0.003   4.664   4.296  0.9171 -1.1330  0.2537
 9544SOL    HW240269   0.144   4.624   4.297 -1.6788 -0.5666 -1.8284
 9545SOL     OW40270   4.085   2.705   8.215 -0.4485 -0.2562 -0.2251
 9545SOL    HW140271   4.144   2.723   8.289  3.2340 -1.5502 -2.8420
 9545SOL    HW240272   4.113   2.615   8.195  0.8144 -0.4387  2.3801
 9546SOL     OW40273   0.531   4.218   1.591 -0.7195  0.6304 -0.5429
 9546SOL    HW140274   0.508   4.131   1.624  0.7157  0.4300 -0.0612
 9546SOL    HW240275   0.605   4.199   1.533 -0.6980  1.6513 -0.8463
 9547SOL     OW40276   3.990   0.383   9.034  0.2631  0.7256  0.3734
 9547SOL    HW140277   4.012   0.321   8.964 -0.1900 -0.4264  1.2457
 9547SOL    HW240278   4.078   0.400   9.067  0.1034  3.0353 -0.4005
 9548SOL     OW40279   2.361   1.214   5.859  0.0404  0.3426 -0.0506
 9548SOL    HW140280   2.342   1.170   5.775 -0.0479  1.3601 -0.5626
 9548SOL    HW240281   2.451   1.246   5.853  1.0903 -2.2196  2.2329
 9549SOL     OW40282   0.700   3.497   5.108 -0.8540 -0.2311  0.0288
 9549SOL    HW140283   0.733   3.583   5.135  0.8086 -0.9758  0.3697
 9549SOL    HW240284   0.720   3.500   5.015 -1.5375  1.0633 -0.0821
 9550SOL     OW40285   4.158   0.401   4.622  0.1823 -0.6133 -0.1387
 9550SOL    HW140286   4.169   0.334   4.554  1.2661 -1.0454  0.4710
 9550SOL    HW240287   4.063   0.402   4.634  0.1897  0.2519 -0.1459
 9551SOL     OW40288   1.610   1.008  13.979  0.2456  0.1801 -0.0865
 9551SOL    HW140289   1.646   1.039  14.063  2.8941 -1.3434 -0.6830
 9551SOL    HW240290   1.611   0.914  13.992  2.4739  0.0709 -1.1319
 9552SOL     OW40291   1.699   1.838   1.374  0.2336 -0.1250  0.2707
 9552SOL    HW140292   1.699   1.873   1.285  2.3636  0.9685  0.6945
 9552SOL    HW240293   1.604   1.832   1.388  0.3308  1.0549  1.4115
 9553SOL     OW40294   0.217   3.168   0.092 -0.3978 -0.3519 -0.0965
 9553SOL    HW140295   0.279   3.211   0.152  1.7519 -0.1316 -2.5001
 9553SOL    HW240296   0.135   3.180   0.139  0.5808  0.8448  1.3210
 9554SOL     OW40297   1.245   3.335   6.030 -0.2052 -0.3044  0.0832
 9554SOL    HW140298   1.203   3.254   6.001  0.7342 -0.7998  0.1103
 9554SOL    HW240299   1.230   3.386   5.950  0.8498  0.9853  0.7143
 9555SOL     OW40300   3.037   3.546   6.873 -0.1992  0.3203 -0.4492
 9555SOL    HW140301   3.057   3.623   6.926 -0.5052 -0.1145  0.2975
 9555SOL    HW240302   2.979   3.506   6.937  2.4366  0.5619  2.1350
 9556SOL     OW40303   2.848   2.852   4.038  0.0948  0.7200 -0.2360
 9556SOL    HW140304   2.899   2.931   4.019  1.9789  0.8515  5.5518
 9556SOL    HW240305   2.809   2.868   4.124 -0.7026 -1.8795 -0.1097
 9557SOL     OW40306   0.021   2.125   6.658 -0.0900  0.0331 -0.4911
 9557SOL    HW140307   4.730   2.036   6.676 -0.5803  0.1416 -0.7586
 9557SOL    HW240308   0.096   2.104   6.602 -1.9968 -0.8337 -2.7051
 9558SOL     OW40309   2.642   3.866  11.168 -0.5557 -0.0234 -0.2767
 9558SOL    HW140310   2.581   3.928  11.209  1.4059  3.7605 -3.0901
 9558SOL    HW240311   2.645   3.795  11.232 -1.6628  1.5535  1.5297
 9559SOL     OW40312   1.649   1.414  14.758 -0.2208  0.0918  0.1156
 9559SOL    HW140313   1.668   1.508  14.753 -0.5428  0.1673  0.2981
 9559SOL    HW240314   1.737   1.390  14.788 -0.1512  0.1317 -0.0592
 9560SOL     OW40315   1.031   1.478  17.221 -0.0481  0.2066 -0.7076
 9560SOL    HW140316   1.092   1.407  17.202 -0.5150  0.1678 -2.0361
 9560SOL    HW240317   0.942   1.443  17.212 -0.1133 -0.0439  0.8145
 9561SOL     OW40318   2.664   0.472  16.361 -0.0244  0.0507  0.1947
 9561SOL    HW140319   2.648   0.456  16.268 -0.3800 -3.1066  0.8189
 9561SOL    HW240320   2.682   0.383  16.392 -2.9224 -1.1968 -1.7769
 9562SOL     OW40321   1.902   4.349  14.961 -0.2682 -0.2359  0.3726
 9562SOL    HW140322   1.966   4.393  15.017  1.7851 -0.3417 -1.9327
 9562SOL    HW240323   1.940   4.270  14.923  2.3079  2.4475 -2.6196
 9563SOL     OW40324   1.934   0.218   4.179  0.0203 -0.3042  0.6398
 9563SOL    HW140325   1.882   0.144   4.210 -1.0094  1.1178  2.2951
 9563SOL    HW240326   2.006   0.167   4.143  0.4147  2.6871 -2.8066
 9564SOL     OW40327   0.384   2.114   8.305  0.2628  0.4105 -0.4972
 9564SOL    HW140328   0.305   2.095   8.355  0.8348  2.1407  1.0741
 9564SOL    HW240329   0.356   2.078   8.221 -0.6939  0.3408 -0.1556
 9565SOL     OW40330   3.734   3.059   2.388 -0.0977 -0.7049  0.6185
 9565SOL    HW140331   3.730   2.975   2.344 -0.3542  0.1668 -1.0419
 9565SOL    HW240332   3.821   3.056   2.428 -0.3551  0.4052  1.2537
 9566SOL     OW40333   1.534   0.773   3.002  0.2705  0.1417 -0.3188
 9566SOL    HW140334   1.448   0.780   3.044 -0.0781 -0.2839 -0.9667
 9566SOL    HW240335   1.584   0.814   3.073 -0.5135  0.5451  0.0049
 9567SOL     OW40336   0.063   3.419   6.468 -0.0515 -0.5064  0.3858
 9567SOL    HW140337   0.107   3.442   6.386  1.6513  0.0087  1.4546
 9567SOL    HW240338   0.142   3.397   6.516  1.1938 -2.5767 -2.6159
 9568SOL     OW40339   4.519   0.846   3.323 -0.1788 -0.2166 -1.2095
 9568SOL    HW140340   4.555   0.768   3.281  0.5687 -0.5170  0.0111
 9568SOL    HW240341   4.508   0.807   3.410  1.9670 -0.6188 -1.1220
 9569SOL     OW40342   1.241   0.500  16.851  0.1849 -0.3193  0.0118
 9569SOL    HW140343   1.247   0.587  16.811  1.2209  0.2279  1.3659
 9569SOL    HW240344   1.177   0.460  16.791  0.5284  1.1327 -1.3272
   4.73820   4.73820  17.75087
